/*--------------------------------*- C++ -*----------------------------------*\
  =========                 |
  \\      /  F ield         | OpenFOAM: The Open Source CFD Toolbox
   \\    /   O peration     | Website:  https://openfoam.org
    \\  /    A nd           | Version:  7
     \\/     M anipulation  |
\*---------------------------------------------------------------------------*/
FoamFile
{
    version     2.0;
    format      ascii;
    class       volScalarField;
    location    "2.6";
    object      T;
}
// * * * * * * * * * * * * * * * * * * * * * * * * * * * * * * * * * * * * * //

dimensions      [0 0 0 1 0 0 0];

internalField   nonuniform List<scalar> 
555
(
0.9909680043
0.991052685
0.9840369753
0.9877909315
0.9876654277
0.986222518
0.9861818945
0.9866603477
0.9873819941
0.9884039008
0.9890346275
0.9893174457
0.9893733241
0.9892062739
0.9891824312
0.9891731415
0.9891858247
0.9891092055
0.9891821069
0.9824609072
0.9862765069
0.9862543915
0.9852999187
0.9855315196
0.9861373821
0.9867031135
0.9873308355
0.9880397094
0.9884884662
0.9887197451
0.9888336866
0.9889753989
0.989128099
0.9890862982
0.9885336551
0.9880498723
0.981354972
0.9851115731
0.9850401309
0.9844694809
0.9848640869
0.985674966
0.9862315328
0.9866258873
0.987207067
0.9876386761
0.9879785663
0.988231976
0.988517334
0.9888809682
0.9891390427
0.9889339375
0.9881431995
0.9809876939
0.9842196984
0.9839521389
0.9836335963
0.9841625873
0.9850465859
0.9856359445
0.9860103974
0.9864958751
0.9868917424
0.9872959787
0.9875925389
0.9878892941
0.9883355003
0.9887719827
0.9888920514
0.9886102785
0.9809096991
0.9837059564
0.9832064883
0.9828488288
0.9833951287
0.9843202705
0.98506217
0.9856175324
0.9860745072
0.9864602968
0.9868071371
0.9870612559
0.9872783807
0.9877491457
0.9883493756
0.9888051725
0.9888002665
0.980720842
0.9809898453
0.9837217675
0.9830683686
0.982523794
0.9829779033
0.9838789662
0.9848026096
0.9856524977
0.9861033393
0.9864366416
0.9866431532
0.9868016567
0.9869430214
0.9874017419
0.9880340385
0.9886354033
0.9887440055
0.9810619991
0.9815336714
0.9843515764
0.983788124
0.9828995044
0.983128186
0.9841147472
0.9851423889
0.9861057477
0.9866304033
0.9870710073
0.9871364974
0.9869681399
0.9869397742
0.9873323204
0.9878769076
0.9884227015
0.9886842051
0.9818873666
0.9825843655
0.9852534171
0.9847589598
0.9840909997
0.9842387641
0.9852438285
0.9863124404
0.9870565917
0.9875822438
0.9880126544
0.9881602853
0.9878675533
0.987539577
0.9877612375
0.9881468786
0.9884524097
0.9887085135
0.9833792459
0.9840559558
0.9863369619
0.9857683128
0.9855400302
0.9859252766
0.9868500065
0.9878106175
0.9882905147
0.988626088
0.9889575168
0.9892085855
0.9891996708
0.988981014
0.9890070841
0.9891178151
0.9890409259
0.9891871949
0.985908556
0.9864112092
0.9882357664
0.987605589
0.9876198906
0.9881281898
0.9889361249
0.9897976128
0.9901486721
0.9902758757
0.9904704333
0.9906781599
0.990833423
0.9909258025
0.9910031361
0.9909631127
0.99066059
0.9896312359
0.9902102518
0.9914900956
0.990826275
0.9908466343
0.9913845785
0.9920704547
0.9927860654
0.9931172697
0.9931475262
0.9931816364
0.9931438639
0.9932977157
0.9935466917
0.9937324839
0.993702554
0.9934137406
0.9943597901
0.9951293783
0.9958359833
0.9950608276
0.9950487245
0.995617175
0.9962956605
0.9969620009
0.9973200326
0.9973462396
0.9973353281
0.9971220068
0.997057401
0.9972099693
0.9974398672
0.9975566606
0.9974273637
1.000618989
0.999699226
1.000678701
1.00109303
1.000188593
1.000121128
1.000717898
1.001483695
1.00228398
1.002617506
1.002611815
1.002545252
1.002223193
1.002014754
1.00199977
1.002194127
1.002470247
1.002498153
1.006337238
1.00553984
1.006551337
1.006991141
1.006109508
1.006050709
1.006659644
1.007588189
1.008481191
1.008761682
1.008747559
1.008622697
1.008260003
1.007895016
1.007685282
1.007811464
1.0081425
1.008274733
1.012709687
1.011889819
1.012815121
1.013329141
1.012609001
1.012655352
1.01330433
1.0143975
1.015242559
1.015380081
1.015354081
1.015176192
1.014834537
1.01434252
1.014001336
1.014027728
1.014288304
1.014623665
1.019644103
1.018898386
1.019565603
1.020019888
1.019534332
1.019676972
1.020388396
1.021561332
1.022229319
1.022260428
1.022152473
1.021964979
1.021447903
1.020983304
1.020603026
1.020660788
1.020814808
1.020910033
1.026644179
1.026130275
1.026848319
1.027139264
1.026836856
1.027045233
1.027789862
1.028933134
1.029318739
1.029288133
1.02917692
1.028668975
1.028041689
1.027877674
1.027541036
1.027386795
1.027378408
1.027502906
1.034016555
1.033462357
1.034247523
1.034574244
1.034341353
1.0345836
1.035347101
1.036416543
1.036578635
1.036473927
1.036136965
1.035629752
1.03501905
1.034887169
1.034751968
1.034524317
1.034429669
1.034455211
1.041588766
1.040736912
1.041507951
1.04178549
1.04158922
1.041928734
1.042755562
1.043209241
1.043455596
1.043428267
1.043198021
1.042750669
1.042275508
1.042184612
1.042227777
1.042180938
1.042126839
1.041797029
1.049927941
1.048851744
1.047825404
1.048549738
1.048849099
1.048629489
1.048743083
1.049498685
1.050079076
1.050474506
1.050513918
1.050300325
1.050012906
1.049874901
1.049891954
1.050036544
1.050155884
1.050269865
1.050015477
1.05705971
1.055861076
1.054602107
1.055174364
1.055661075
1.055426379
1.055652027
1.056552542
1.057292444
1.057679512
1.057668326
1.057541149
1.057485886
1.057616648
1.057774928
1.058025469
1.058303022
1.058693895
1.058597076
1.063351606
1.062028621
1.061173872
1.061966035
1.062624726
1.062495694
1.062951938
1.063982703
1.064872928
1.065171383
1.065122043
1.0651179
1.065183244
1.065549971
1.065829424
1.066179345
1.066565919
1.067090495
1.067302821
1.069624109
1.068570871
1.068436412
1.06941666
1.070255558
1.070211998
1.07075983
1.071911875
1.072750947
1.07302733
1.073011681
1.073064389
1.073129393
1.073407032
1.073861636
1.074331733
1.074784139
1.075322406
1.076980325
1.076149334
1.076234547
1.077400775
1.078376259
1.078515506
1.078945909
1.080102987
1.081270237
1.081236358
1.081225006
1.081198164
1.08118607
1.081146017
1.081496162
1.081975779
1.08231981
1.082729117
1.085205252
1.084111995
1.08417582
1.085545145
1.086515528
1.087025899
1.087505383
1.08868153
1.089499662
1.089406937
1.089338767
1.089138813
1.088937849
1.088558379
1.088727561
1.089143142
1.089439701
1.089664002
1.094221132
1.093309951
1.091815746
1.091786375
1.093345434
1.094351422
1.094970957
1.095482958
1.096517875
1.096976122
1.096834629
1.096695454
1.096361396
1.095885262
1.095221172
1.095263235
1.095477964
1.09565722
1.095565491
1.102281978
1.101003348
1.09875206
1.098499365
1.100226867
1.101259552
1.101628343
1.102090699
1.102919588
1.103020845
1.102834369
1.102619478
1.102153284
1.101436514
1.100624783
1.100682528
1.100756317
1.100702169
1.100279618
1.108159982
1.106700408
1.104163202
1.103912598
1.105403597
1.106322182
1.106372933
1.106735374
1.10719865
1.107025952
1.106762766
1.106434607
1.105936957
1.105152208
1.104525765
1.104653353
1.104530347
1.104366019
1.104039866
1.11168693
1.110068156
1.107441599
1.107646271
1.108928372
1.109391567
1.109130291
1.109503076
1.109689193
1.109161774
1.10869349
1.108354827
1.108017962
1.107446293
1.107081185
1.107224675
1.107017266
1.106793205
1.106458406
1.113757018
1.111353292
1.108675477
1.10941409
1.11087465
1.11089939
1.11047494
1.11064571
1.110876026
1.110262801
1.109618031
1.109234187
1.109004947
1.108613149
1.108350373
1.108505021
1.108357811
1.108070609
1.10781832
1.114806055
1.111736238
1.109351835
1.110112554
1.111681136
1.1113289
1.110796808
1.111166812
1.111357784
1.110831413
1.110084725
1.109665701
1.109161598
)
;

boundaryField
{
    inlet
    {
        type            fixedValue;
        value           nonuniform 0();
    }
    outlet
    {
        type            inletOutlet;
        inletValue      nonuniform 0();
        value           nonuniform 0();
    }
    bottom
    {
        type            slip;
    }
    top
    {
        type            slip;
    }
    obstacle
    {
        type            zeroGradient;
    }
    defaultFaces
    {
        type            empty;
    }
    procBoundary16to10
    {
        type            processor;
        value           nonuniform List<scalar> 
18
(
0.9932821723
0.9934918398
0.9859570476
0.9895716555
0.9893296328
0.9876753967
0.9875002824
0.9880836154
0.9888082135
0.9897170988
0.9900542042
0.9901845346
0.9901250968
0.9900119371
0.9901843554
0.9903683724
0.9907148818
0.9907148818
)
;
    }
    procBoundary16to11
    {
        type            processor;
        value           uniform 0.9912595406;
    }
    procBoundary16to15
    {
        type            processor;
        value           nonuniform List<scalar> 
35
(
0.9845711351
0.9825166572
0.9815764827
0.9811799389
0.9808249237
0.9808249237
0.982625163
0.982708749
0.9833432753
0.9848075141
0.9872168324
0.9908265187
0.9954586819
0.9954586819
1.001183974
1.00727053
1.013957733
1.020658194
1.027526174
1.034555673
1.042375228
1.042375228
1.049649866
1.056601954
1.062710305
1.069002221
1.076598233
1.085401645
1.085401645
1.09235035
1.100831396
1.107006044
1.110840546
1.113555524
1.11510807
)
;
    }
    procBoundary16to17
    {
        type            processor;
        value           nonuniform List<scalar> 
32
(
0.9894284374
0.9881332
0.9876941079
0.9879412988
0.9883678343
0.9886800355
0.98881304
0.9889626666
0.9894205617
0.9905758858
0.9905758858
0.9931128715
0.9971445351
1.00236246
1.008303564
1.014635109
1.021004616
1.027487846
1.034308308
1.041694784
1.049886977
1.058534092
1.06723194
1.07563129
1.07563129
1.083105309
1.089890275
1.095749007
1.100333615
1.103969855
1.106371433
1.107891605
)
;
    }
    procBoundary16to22
    {
        type            processor;
        value           nonuniform List<scalar> 
20
(
1.108907667
1.10868538
1.108810095
1.108806716
1.108632212
1.108509216
1.115412757
1.112264326
1.109494937
1.109947203
1.111458858
1.111322063
1.110799288
1.111176356
1.111268301
1.110783513
1.110161652
1.109736042
1.108907667
1.109172311
)
;
    }
}


// ************************************************************************* //
