/*--------------------------------*- C++ -*----------------------------------*\
  =========                 |
  \\      /  F ield         | OpenFOAM: The Open Source CFD Toolbox
   \\    /   O peration     | Website:  https://openfoam.org
    \\  /    A nd           | Version:  7
     \\/     M anipulation  |
\*---------------------------------------------------------------------------*/
FoamFile
{
    version     2.0;
    format      ascii;
    class       volScalarField;
    location    "1.6";
    object      p;
}
// * * * * * * * * * * * * * * * * * * * * * * * * * * * * * * * * * * * * * //

dimensions      [1 -1 -2 0 0 0 0];

internalField   nonuniform List<scalar> 
23
(
0.8820871146
0.8915742952
1.008359713
0.9115094731
0.8848257154
1.11958851
1.032125429
0.9468710238
1.14388101
1.118460374
1.049441001
1.141010157
1.137311497
1.115562876
1.092568156
1.117686639
1.126652813
1.034701675
1.084547314
1.122915415
1.00858944
1.043034676
1.106551262
)
;

boundaryField
{
    inlet
    {
        type            fixedValue;
        value           nonuniform 0();
    }
    outlet
    {
        type            zeroGradient;
    }
    bottom
    {
        type            slip;
    }
    top
    {
        type            slip;
    }
    obstacle
    {
        type            zeroGradient;
    }
    defaultFaces
    {
        type            empty;
    }
    procBoundary34to27
    {
        type            processor;
        value           uniform 1.129798321;
    }
    procBoundary34to28
    {
        type            processor;
        value           nonuniform List<scalar> 4(0.87935043 0.9519408923 0.896248009 0.896248009);
    }
    procBoundary34to33
    {
        type            processor;
        value           nonuniform List<scalar> 6(1.168627343 1.144178352 1.089832327 1.03423803 1.007563747 1.000954731);
    }
    procBoundary34to35
    {
        type            processor;
        value           nonuniform List<scalar> 8(0.9270245703 0.8951132462 0.9215557919 0.9742899237 1.061044343 1.115677532 1.157903402 1.17764524);
    }
}


// ************************************************************************* //
