/*--------------------------------*- C++ -*----------------------------------*\
  =========                 |
  \\      /  F ield         | OpenFOAM: The Open Source CFD Toolbox
   \\    /   O peration     | Website:  https://openfoam.org
    \\  /    A nd           | Version:  7
     \\/     M anipulation  |
\*---------------------------------------------------------------------------*/
FoamFile
{
    version     2.0;
    format      ascii;
    class       volVectorField;
    location    "2.8";
    object      U;
}
// * * * * * * * * * * * * * * * * * * * * * * * * * * * * * * * * * * * * * //

dimensions      [0 1 -1 0 0 0 0];

internalField   nonuniform List<vector> 5((2.96940301 -0.07864260993 0) (2.982236218 -0.01751483331 0) (3.003596264 -0.03381370778 0) (3.008642246 -0.07828261204 0) (2.997479305 -0.0275041836 0));

boundaryField
{
    inlet
    {
        type            fixedValue;
        value           nonuniform 0();
    }
    outlet
    {
        type            inletOutlet;
        inletValue      nonuniform 0();
        value           nonuniform 0();
    }
    bottom
    {
        type            slip;
    }
    top
    {
        type            slip;
    }
    obstacle
    {
        type            slip;
    }
    defaultFaces
    {
        type            empty;
    }
    procBoundary28to22
    {
        type            processor;
        value           nonuniform List<vector> 2((2.902073395 -0.05199021635 0) (2.938862881 -0.007439573701 0));
    }
    procBoundary28to27
    {
        type            processor;
        value           nonuniform List<vector> 4((2.866457452 -0.2081786179 0) (3.003657769 -0.109015853 0) (3.003657769 -0.109015853 0) (3.010305011 -0.1128538303 0));
    }
    procBoundary28to34
    {
        type            processor;
        value           nonuniform List<vector> 2((2.994407072 0.004089726723 0) (3.002651876 -0.01543029113 0));
    }
    procBoundary28to35
    {
        type            processor;
        value           nonuniform List<vector> 4((2.97115396 0.00455993214 0) (2.985532296 0.001089642007 0) (2.985532296 0.001089642007 0) (2.992549738 -0.0029526499 0));
    }
}


// ************************************************************************* //
