/*--------------------------------*- C++ -*----------------------------------*\
  =========                 |
  \\      /  F ield         | OpenFOAM: The Open Source CFD Toolbox
   \\    /   O peration     | Website:  https://openfoam.org
    \\  /    A nd           | Version:  7
     \\/     M anipulation  |
\*---------------------------------------------------------------------------*/
FoamFile
{
    version     2.0;
    format      ascii;
    class       volVectorField;
    location    "0.4";
    object      U;
}
// * * * * * * * * * * * * * * * * * * * * * * * * * * * * * * * * * * * * * //

dimensions      [0 1 -1 0 0 0 0];

internalField   nonuniform List<vector> 5((2.999999922 -8.9142229e-08 0) (2.999487908 -0.0007598947466 0) (2.995695078 -0.007188790051 0) (2.997858816 -0.01070254218 0) (2.997096705 -0.02767332793 0));

boundaryField
{
    inlet
    {
        type            fixedValue;
        value           nonuniform 0();
    }
    outlet
    {
        type            inletOutlet;
        inletValue      nonuniform 0();
        value           nonuniform 0();
    }
    bottom
    {
        type            slip;
    }
    top
    {
        type            slip;
    }
    obstacle
    {
        type            slip;
    }
    defaultFaces
    {
        type            empty;
    }
    procBoundary3to2
    {
        type            processor;
        value           nonuniform List<vector> 3((2.999999982 -3.679603361e-08 0) (2.999990149 -1.91563425e-05 0) (2.999990149 -1.91563425e-05 0));
    }
    procBoundary3to4
    {
        type            processor;
        value           nonuniform List<vector> 2((2.997192251 -0.009303886676 0) (3.001450769 -0.02245460284 0));
    }
    procBoundary3to9
    {
        type            processor;
        value           nonuniform List<vector> 2((2.995286111 -0.03394280001 0) (2.996162049 -0.03461371474 0));
    }
}


// ************************************************************************* //
