/*--------------------------------*- C++ -*----------------------------------*\
  =========                 |
  \\      /  F ield         | OpenFOAM: The Open Source CFD Toolbox
   \\    /   O peration     | Website:  https://openfoam.org
    \\  /    A nd           | Version:  7
     \\/     M anipulation  |
\*---------------------------------------------------------------------------*/
FoamFile
{
    version     2.0;
    format      ascii;
    class       volVectorField;
    location    "4.5";
    object      U;
}
// * * * * * * * * * * * * * * * * * * * * * * * * * * * * * * * * * * * * * //

dimensions      [0 1 -1 0 0 0 0];

internalField   nonuniform List<vector> 
2223
(
(3.082643572 -0.2948703872 0)
(3.083016411 -0.3011227489 0)
(3.085786756 -0.3025311923 0)
(3 -3.921073124e-13 0)
(3 -4.534055159e-10 0)
(3.00000001 -2.255760352e-08 0)
(3.000000203 -4.856085553e-07 0)
(3.000002386 -5.814256401e-06 0)
(3.000017705 -4.400697425e-05 0)
(3.000090663 -0.0002310419086 0)
(3.000331842 -0.0008630498888 0)
(3.000951715 -0.002533202592 0)
(3.002177156 -0.005924885268 0)
(3.004104034 -0.01134719249 0)
(3.007005455 -0.01977317283 0)
(3.010366383 -0.0296241817 0)
(3.013999998 -0.04048111947 0)
(3.01854806 -0.05485365613 0)
(3.022583419 -0.06702025923 0)
(3.026257109 -0.07821646069 0)
(3.030872364 -0.09467290303 0)
(3.034619972 -0.1070372948 0)
(3.037876313 -0.1153223323 0)
(3.041938317 -0.1312256312 0)
(3.045105371 -0.1455003736 0)
(3.048270003 -0.151680723 0)
(3.051378192 -0.1625993969 0)
(3.054506411 -0.1796385998 0)
(3.05690325 -0.1872249267 0)
(3.059785689 -0.1922424709 0)
(3.062888935 -0.2078274629 0)
(3.064296553 -0.2193753398 0)
(3.067085929 -0.2227018263 0)
(3.069115512 -0.2298548614 0)
(3.07089285 -0.244812911 0)
(3.072306502 -0.2515679133 0)
(3.0746993 -0.2535616225 0)
(3.076314488 -0.2643198084 0)
(3.077680393 -0.277563604 0)
(3.079655351 -0.2813281388 0)
(3 6.995859892e-15 0)
(3 -2.467476426e-12 0)
(3 -2.570072341e-10 0)
(3.000000004 -1.01987418e-08 0)
(3.000000089 -2.13703104e-07 0)
(3.000001094 -2.664319557e-06 0)
(3.000008755 -2.172855965e-05 0)
(3.000048671 -0.0001235337558 0)
(3.000194503 -0.0005031002129 0)
(3.000607146 -0.00160717799 0)
(3.001487624 -0.004019105059 0)
(3.003011018 -0.008268696656 0)
(3.00542215 -0.01519824598 0)
(3.008328257 -0.02360781442 0)
(3.011791069 -0.0339124472 0)
(3.01601186 -0.0469972068 0)
(3.019757302 -0.05796257373 0)
(3.023608592 -0.07016090016 0)
(3.028132027 -0.08595721559 0)
(3.031725712 -0.0963779714 0)
(3.034956599 -0.1060805947 0)
(3.039205126 -0.12292871 0)
(3.042303925 -0.1343943605 0)
(3.045359549 -0.1405731373 0)
(3.048896649 -0.1549618893 0)
(3.051495745 -0.1693689623 0)
(3.05432198 -0.1747855741 0)
(3.05711923 -0.1829401861 0)
(3.060225184 -0.1998623707 0)
(3.06181935 -0.2082916788 0)
(3.064696668 -0.2123623293 0)
(3.067891888 -0.2254944803 0)
(3.069093814 -0.2386696505 0)
(3.070890978 -0.2436180403 0)
(3.073986805 -0.2495559294 0)
(3.076367317 -0.2639223417 0)
(3.076587791 -0.2723940909 0)
(3 6.500248361e-15 0)
(3 -2.76767406e-15 0)
(3 -1.484751817e-12 0)
(3 -1.120501699e-10 0)
(3.000000002 -4.148643304e-09 0)
(3.000000037 -8.851087161e-08 0)
(3.000000481 -1.169506946e-06 0)
(3.000004175 -1.034000125e-05 0)
(3.000025278 -6.38820055e-05 0)
(3.000110583 -0.0002845573877 0)
(3.000375581 -0.0009887801862 0)
(3.000990174 -0.002656335657 0)
(3.002159622 -0.005892173765 0)
(3.004099848 -0.01141289752 0)
(3.00658131 -0.01852211126 0)
(3.009809 -0.02805203129 0)
(3.013632006 -0.03967661327 0)
(3.017108579 -0.04978731647 0)
(3.021144401 -0.0626600219 0)
(3.02543564 -0.07715354083 0)
(3.028867886 -0.08647205127 0)
(3.032347944 -0.09808768963 0)
(3.036433893 -0.1142224642 0)
(3.039597036 -0.1233129105 0)
(3.042525967 -0.1310047225 0)
(3.046329698 -0.1473721511 0)
(3.048748531 -0.1586268319 0)
(3.051663991 -0.1631798007 0)
(3.054682235 -0.1750115127 0)
(3.057056591 -0.1900291261 0)
(3.059428922 -0.1956532274 0)
(3.062006973 -0.2005798905 0)
(3.064493591 -0.21532376 0)
(3.06567669 -0.2245685383 0)
(3.068222887 -0.2269312532 0)
(3.069846038 -0.2347696228 0)
(3.071461614 -0.2487846068 0)
(3 6.317597835e-15 0)
(3 7.059844503e-15 0)
(3 5.970849308e-15 0)
(3 -6.139947994e-13 0)
(3 -4.232639165e-11 0)
(3.000000001 -1.557874365e-09 0)
(3.000000014 -3.469846877e-08 0)
(3.000000202 -4.917910408e-07 0)
(3.000001917 -4.73488562e-06 0)
(3.00001268 -3.190203976e-05 0)
(3.000060885 -0.0001558958694 0)
(3.000225081 -0.0005892582144 0)
(3.000641234 -0.001708450339 0)
(3.001510915 -0.004097040619 0)
(3.003028237 -0.008372582731 0)
(3.005111995 -0.01429310327 0)
(3.008029771 -0.02283175665 0)
(3.011434022 -0.03299798918 0)
(3.014706192 -0.04256282266 0)
(3.018794775 -0.05550145277 0)
(3.022803298 -0.06843118485 0)
(3.02608359 -0.07744059713 0)
(3.029959497 -0.09081675941 0)
(3.033738485 -0.1052029161 0)
(3.036871634 -0.1127389508 0)
(3.039924179 -0.1228746057 0)
(3.043612033 -0.1392107241 0)
(3.046225161 -0.1477482477 0)
(3.048984893 -0.1531618747 0)
(3.052397656 -0.1681394755 0)
(3.05433058 -0.1800553915 0)
(3.057011855 -0.1842026377 0)
(3.059934942 -0.193575344 0)
(3.062345012 -0.2089616413 0)
(3.063761048 -0.2154549907 0)
(3.06658748 -0.2200272442 0)
(3.069648466 -0.2336967575 0)
(3 1.339594015e-15 0)
(3 4.203941365e-15 0)
(3 8.997090516e-15 0)
(3 2.60017619e-14 0)
(3 -1.969319202e-13 0)
(3 -1.442992162e-11 0)
(3 -5.463625113e-10 0)
(3.000000005 -1.290836648e-08 0)
(3.000000082 -1.97997844e-07 0)
(3.000000846 -2.083641026e-06 0)
(3.000006134 -1.536233299e-05 0)
(3.000032403 -8.256881227e-05 0)
(3.000130576 -0.000339897687 0)
(3.000403491 -0.001067896353 0)
(3.001028634 -0.002773042189 0)
(3.002183969 -0.005998288767 0)
(3.003901868 -0.01084266318 0)
(3.006448974 -0.01823244947 0)
(3.009441329 -0.02702271556 0)
(3.01255742 -0.03618594695 0)
(3.016550152 -0.0486659936 0)
(3.020248365 -0.06001945195 0)
(3.023460793 -0.06933538659 0)
(3.027615723 -0.08367294131 0)
(3.0311536 -0.09608972582 0)
(3.034129959 -0.1031009171 0)
(3.037586902 -0.1157702432 0)
(3.040886781 -0.1303845799 0)
(3.043746158 -0.136954274 0)
(3.046491348 -0.1447974265 0)
(3.049812456 -0.1607490759 0)
(3.05181876 -0.1693084735 0)
(3.054511086 -0.1730896048 0)
(3.057442568 -0.1858231224 0)
(3.059074008 -0.1981479307 0)
(3.06146168 -0.2018702007 0)
(3.063641658 -0.2078165155 0)
(3 -1.610302978e-15 0)
(3 1.877419626e-15 0)
(3 7.450737295e-15 0)
(3 1.234967997e-14 0)
(3 2.264497581e-14 0)
(3 -5.111976923e-14 0)
(3 -4.516900915e-12 0)
(3 -1.799490576e-10 0)
(3.000000002 -4.562039043e-09 0)
(3.000000032 -7.625037937e-08 0)
(3.000000358 -8.800884573e-07 0)
(3.000002858 -7.123846471e-06 0)
(3.000016638 -4.219507493e-05 0)
(3.000073252 -0.0001895777607 0)
(3.000246435 -0.0006480778814 0)
(3.000680126 -0.001823115372 0)
(3.001536417 -0.004191879128 0)
(3.002923267 -0.008075194406 0)
(3.005076623 -0.01427018252 0)
(3.007668502 -0.02177927524 0)
(3.010636619 -0.0305160008 0)
(3.014404125 -0.04214287825 0)
(3.017806336 -0.0521916505 0)
(3.021049851 -0.0620613208 0)
(3.025260807 -0.07642864267 0)
(3.028630625 -0.08702725056 0)
(3.031509335 -0.09465282874 0)
(3.035337172 -0.1090405736 0)
(3.038321418 -0.1211647181 0)
(3.041153897 -0.1266761586 0)
(3.044245393 -0.1378379468 0)
(3.047140152 -0.1526460915 0)
(3.049521266 -0.1586902258 0)
(3.05215884 -0.1646166942 0)
(3.055345162 -0.179893141 0)
(3.056791677 -0.1886907712 0)
(3.059338912 -0.192550267 0)
(3 -3.748430422e-16 0)
(3 5.551850587e-15 0)
(3 5.333405032e-15 0)
(3 5.307529971e-15 0)
(3 6.941666043e-15 0)
(3 1.136380378e-15 0)
(3 -2.02143679e-14 0)
(3 -1.330225995e-12 0)
(3 -5.588628498e-11 0)
(3.000000001 -1.532518036e-09 0)
(3.000000012 -2.805941371e-08 0)
(3.000000146 -3.563345338e-07 0)
(3.00000128 -3.177206033e-06 0)
(3.000008229 -2.07704386e-05 0)
(3.000039683 -0.0001020998482 0)
(3.000145906 -0.00038136415 0)
(3.000436283 -0.001162842614 0)
(3.001052948 -0.002853583986 0)
(3.002144805 -0.005890235545 0)
(3.003913776 -0.01093901337 0)
(3.006129525 -0.01728813586 0)
(3.008905703 -0.02543239562 0)
(3.012370838 -0.03598026131 0)
(3.01550688 -0.04506016001 0)
(3.018870391 -0.05550853104 0)
(3.022911564 -0.06906628226 0)
(3.026127262 -0.07823814656 0)
(3.02909332 -0.08725145062 0)
(3.033037272 -0.1021710871 0)
(3.0359032 -0.1118108608 0)
(3.038562779 -0.1176049265 0)
(3.042088333 -0.1314900183 0)
(3.044530016 -0.1435881592 0)
(3.047199536 -0.1481820539 0)
(3.050061716 -0.1576189244 0)
(3.052512417 -0.171764399 0)
(3.0545035 -0.177348951 0)
(3 1.177291626e-16 0)
(3 -1.853961683e-15 0)
(3 -5.087061765e-16 0)
(3 9.342596544e-16 0)
(3 1.161164364e-15 0)
(3 7.900748582e-16 0)
(3 2.165275483e-15 0)
(3 3.262802833e-15 0)
(3 -3.511517733e-13 0)
(3 -1.63659471e-11 0)
(3 -4.892793961e-10 0)
(3.000000004 -9.856815208e-09 0)
(3.000000057 -1.381175055e-07 0)
(3.000000551 -1.360998405e-06 0)
(3.000003915 -9.835451246e-06 0)
(3.000020732 -5.30240078e-05 0)
(3.000083593 -0.0002172035412 0)
(3.000271273 -0.0007188953472 0)
(3.000702374 -0.001890762255 0)
(3.001536434 -0.004195495753 0)
(3.002951628 -0.008203152325 0)
(3.004822848 -0.01352112031 0)
(3.007355749 -0.0209052449 0)
(3.010464396 -0.03022827016 0)
(3.013384882 -0.03864861696 0)
(3.016856275 -0.04944811967 0)
(3.020627509 -0.06177887711 0)
(3.023641988 -0.06996615433 0)
(3.026901265 -0.08064400611 0)
(3.030671063 -0.09483005102 0)
(3.033535842 -0.1026065713 0)
(3.036220444 -0.11012888 0)
(3.03982251 -0.1250365708 0)
(3.042162953 -0.1340155724 0)
(3.044786621 -0.1388469526 0)
(3.048097485 -0.1518646898 0)
(3.050045925 -0.163155824 0)
(3 3.102270474e-15 0)
(3 3.54476829e-16 0)
(3 -4.738733355e-15 0)
(3 -6.741867066e-15 0)
(3 1.081372484e-15 0)
(3 6.947711705e-15 0)
(3 4.213094072e-15 0)
(3 5.102428252e-15 0)
(3 1.201555614e-14 0)
(3 -7.598489251e-14 0)
(3 -4.517700186e-12 0)
(3 -1.484121785e-10 0)
(3.000000001 -3.302178609e-09 0)
(3.000000021 -5.119066207e-08 0)
(3.000000227 -5.59109071e-07 0)
(3.00000179 -4.474513035e-06 0)
(3.000010433 -2.652545239e-05 0)
(3.000046254 -0.0001194920991 0)
(3.000163274 -0.0004301823771 0)
(3.000455677 -0.001218650408 0)
(3.00107245 -0.002912235692 0)
(3.002173773 -0.006006392992 0)
(3.003733727 -0.01040975245 0)
(3.005982924 -0.01692208175 0)
(3.008718845 -0.02500091917 0)
(3.01144608 -0.03289554752 0)
(3.014942604 -0.04369954508 0)
(3.018415419 -0.0546632657 0)
(3.021278933 -0.06254054117 0)
(3.024851034 -0.07448294041 0)
(3.028323452 -0.08706739233 0)
(3.031124814 -0.09377318515 0)
(3.034176241 -0.1039164269 0)
(3.037427526 -0.1178379208 0)
(3.039932709 -0.1245032124 0)
(3.042620426 -0.1313612601 0)
(3.045748301 -0.1453236803 0)
(3 2.290480418e-15 0)
(3 1.79345014e-15 0)
(3 1.58098676e-15 0)
(3 2.47598348e-15 0)
(3 2.615809991e-15 0)
(3 5.172196807e-15 0)
(3 4.204250958e-15 0)
(3 6.422802315e-15 0)
(3 1.205523316e-14 0)
(3 1.081639322e-14 0)
(3 -2.666811627e-15 0)
(3 -1.161811589e-12 0)
(3 -4.273162594e-11 0)
(3 -1.053945099e-09 0)
(3.000000007 -1.812165543e-08 0)
(3.00000009 -2.199468269e-07 0)
(3.000000785 -1.952805185e-06 0)
(3.000005051 -1.276785557e-05 0)
(3.000024679 -6.339562167e-05 0)
(3.000094977 -0.0002487481357 0)
(3.000287126 -0.000763008469 0)
(3.000728497 -0.001967453837 0)
(3.001562028 -0.004289897404 0)
(3.002837657 -0.007869066989 0)
(3.004781978 -0.01346128232 0)
(3.007154531 -0.02037079317 0)
(3.009711835 -0.027801747 0)
(3.013086341 -0.03814147816 0)
(3.016281902 -0.04783562819 0)
(3.019106085 -0.05596961803 0)
(3.022861136 -0.06850784967 0)
(3.026048667 -0.07912749444 0)
(3.028749913 -0.08584239342 0)
(3.032196908 -0.09808270615 0)
(3.035095777 -0.1098894764 0)
(3.037718729 -0.1156594928 0)
(3.040731324 -0.1254985949 0)
(3 -4.515857349e-15 0)
(3 -4.77032843e-15 0)
(3 -1.076706456e-15 0)
(3 -3.357038759e-15 0)
(3 -8.716179276e-15 0)
(3 6.880476485e-16 0)
(3 8.039928413e-15 0)
(3 1.527550357e-14 0)
(3 1.59980787e-14 0)
(3 1.580099763e-14 0)
(3 1.055145459e-14 0)
(3 1.086521305e-14 0)
(3 -2.677536762e-13 0)
(3 -1.164885372e-11 0)
(3 -3.200550469e-10 0)
(3.000000003 -6.119909111e-09 0)
(3.000000034 -8.27383445e-08 0)
(3.000000329 -8.163724542e-07 0)
(3.000002349 -5.904974719e-06 0)
(3.000012679 -3.23901005e-05 0)
(3.000053329 -0.0001388146443 0)
(3.000175376 -0.0004631329426 0)
(3.000480801 -0.00129150706 0)
(3.001094636 -0.002987740718 0)
(3.002113689 -0.005830214247 0)
(3.003744123 -0.01049047257 0)
(3.005781338 -0.01635358995 0)
(3.008174835 -0.02331396789 0)
(3.011316382 -0.03284388255 0)
(3.014235859 -0.04140841096 0)
(3.017140039 -0.0501073095 0)
(3.02084629 -0.06237966122 0)
(3.023852416 -0.07143828494 0)
(3.026573796 -0.0790817116 0)
(3.030139582 -0.09201999868 0)
(3.032873282 -0.1015245286 0)
(3.035565869 -0.1079486678 0)
(3 -3.626839364e-15 0)
(3 -6.602815589e-15 0)
(3 -1.014042987e-14 0)
(3 -9.923515862e-15 0)
(3 -1.054693463e-14 0)
(3 -3.287821718e-15 0)
(3 8.02069404e-16 0)
(3 4.197170746e-15 0)
(3 5.993756835e-15 0)
(3 5.509487183e-15 0)
(3 9.08530685e-15 0)
(3 1.333319688e-14 0)
(3 5.519728189e-15 0)
(3 -5.450084306e-14 0)
(3 -3.006960276e-12 0)
(3 -9.235944999e-11 0)
(3.000000001 -1.968981807e-09 0)
(3.000000012 -2.971962554e-08 0)
(3.000000132 -3.264665063e-07 0)
(3.000001048 -2.61987824e-06 0)
(3.000006262 -1.591103121e-05 0)
(3.00002887 -7.468270891e-05 0)
(3.000103661 -0.0002720621236 0)
(3.000307675 -0.0008219669612 0)
(3.00074738 -0.002027323849 0)
(3.001541003 -0.004228274664 0)
(3.002868069 -0.007996452092 0)
(3.004595065 -0.01291989689 0)
(3.006811001 -0.01934603212 0)
(3.009652528 -0.02786859668 0)
(3.012336615 -0.03560347781 0)
(3.015318215 -0.0446916042 0)
(3.018829322 -0.05608322875 0)
(3.02170093 -0.06420038631 0)
(3.024639113 -0.07325706817 0)
(3.02802911 -0.08547117218 0)
(3.030749468 -0.09350744575 0)
(3 8.225124478e-15 0)
(3 -6.382573388e-16 0)
(3 -7.334969468e-15 0)
(3 -6.550646505e-15 0)
(3 -7.536738906e-15 0)
(3 -9.0393543e-15 0)
(3 -5.534378782e-15 0)
(3 7.248944811e-16 0)
(3 4.388188391e-15 0)
(3 4.114219746e-15 0)
(3 5.327063467e-15 0)
(3 9.238944459e-15 0)
(3 7.143893293e-15 0)
(3 -1.435691978e-16 0)
(3 -3.008556223e-14 0)
(3 -7.664133286e-13 0)
(3 -2.536330112e-11 0)
(3 -6.028762058e-10 0)
(3.000000004 -1.017896484e-08 0)
(3.000000051 -1.247230924e-07 0)
(3.000000448 -1.113458813e-06 0)
(3.000002969 -7.502270315e-06 0)
(3.000015048 -3.868546122e-05 0)
(3.000059208 -0.0001544513279 0)
(3.000190606 -0.000506353011 0)
(3.000496401 -0.0013380973 0)
(3.001097461 -0.002995543809 0)
(3.002147868 -0.005957712181 0)
(3.00359314 -0.01004647417 0)
(3.005591079 -0.01581493983 0)
(3.008115201 -0.02328493381 0)
(3.010608107 -0.03045481261 0)
(3.013612684 -0.03961035354 0)
(3.016851502 -0.04978770118 0)
(3.01964262 -0.05763810577 0)
(3.022759316 -0.06762863798 0)
(3.025961819 -0.07864450266 0)
(3 6.821811961e-15 0)
(3 4.796037456e-15 0)
(3 -2.541711159e-15 0)
(3 -4.136782181e-15 0)
(3 -5.043379592e-15 0)
(3 -2.882142099e-15 0)
(3 4.957657908e-16 0)
(3 3.521527582e-15 0)
(3 4.97676401e-15 0)
(3 5.609765387e-15 0)
(3 7.540323216e-16 0)
(3 -3.357219829e-15 0)
(3 4.425261208e-15 0)
(3 2.50804881e-15 0)
(3 1.96556351e-15 0)
(3 -1.893527026e-14 0)
(3 -1.918337175e-13 0)
(3 -6.588470323e-12 0)
(3 -1.753947405e-10 0)
(3.000000001 -3.319687563e-09 0)
(3.000000019 -4.546245775e-08 0)
(3.000000183 -4.527053033e-07 0)
(3.000001349 -3.390464654e-06 0)
(3.000007541 -1.926587914e-05 0)
(3.000032624 -8.459674358e-05 0)
(3.000114176 -0.0003015404854 0)
(3.000320333 -0.0008580279195 0)
(3.000761379 -0.002067369622 0)
(3.001571159 -0.00433449783 0)
(3.002763327 -0.007686902211 0)
(3.004511742 -0.01270610913 0)
(3.006716529 -0.01914515093 0)
(3.00905791 -0.02589986189 0)
(3.011971274 -0.03471239699 0)
(3.014971953 -0.04383621204 0)
(3.017714814 -0.05175592975 0)
(3.020876206 -0.06190891885 0)
(3 -4.580395263e-15 0)
(3 -2.136626033e-15 0)
(3 -5.783740086e-15 0)
(3 -6.963584936e-15 0)
(3 -4.198727593e-15 0)
(3 1.537386517e-15 0)
(3 3.403384829e-15 0)
(3 5.036488671e-15 0)
(3 3.779758897e-15 0)
(3 3.729666009e-15 0)
(3 5.948452033e-16 0)
(3 -5.33351617e-15 0)
(3 -1.721260304e-15 0)
(3 1.904228878e-15 0)
(3 -1.360183777e-16 0)
(3 1.816776761e-15 0)
(3 8.741755997e-15 0)
(3 -2.913791134e-14 0)
(3 -1.597718155e-12 0)
(3 -4.839407486e-11 0)
(3 -1.029647757e-09 0)
(3.000000006 -1.579235306e-08 0)
(3.000000071 -1.758451246e-07 0)
(3.000000587 -1.466672918e-06 0)
(3.000003628 -9.212690125e-06 0)
(3.000017311 -4.462312095e-05 0)
(3.000066041 -0.0001733589668 0)
(3.000200597 -0.0005339238177 0)
(3.000513506 -0.001386979677 0)
(3.001121166 -0.003075477469 0)
(3.002087101 -0.005777007222 0)
(3.003572185 -0.01001465105 0)
(3.00547883 -0.01551899415 0)
(3.007659015 -0.02182125409 0)
(3.010395092 -0.03000121617 0)
(3.013193032 -0.03832753223 0)
(3.015949576 -0.04647545006 0)
(3 -7.286494883e-15 0)
(3 -6.318948179e-15 0)
(3 -8.654275949e-15 0)
(3 -3.277109782e-15 0)
(3 -2.316810612e-15 0)
(3 1.204980908e-16 0)
(3 2.620339701e-15 0)
(3 -3.054512398e-15 0)
(3 -3.742926132e-15 0)
(3 -1.969686695e-15 0)
(3 3.002857004e-16 0)
(3 -5.190698816e-15 0)
(3 -3.954715092e-15 0)
(3 -7.024970171e-15 0)
(3 -4.891830785e-15 0)
(3 8.25456903e-16 0)
(3 6.952203534e-15 0)
(3 1.465467581e-14 0)
(3 1.213961097e-14 0)
(3 -3.60693592e-13 0)
(3 -1.268043761e-11 0)
(3 -3.035024264e-10 0)
(3.000000002 -5.222794139e-09 0)
(3.000000027 -6.517634761e-08 0)
(3.000000244 -6.065454084e-07 0)
(3.000001674 -4.225045884e-06 0)
(3.000008832 -2.263094123e-05 0)
(3.000036835 -9.608227371e-05 0)
(3.000121703 -0.00032191344 0)
(3.000336145 -0.0009030302959 0)
(3.000780061 -0.002127117177 0)
(3.001543574 -0.004251441831 0)
(3.002770599 -0.00773050658 0)
(3.004405806 -0.01241207734 0)
(3.006406426 -0.01818301813 0)
(3.008896893 -0.02553851444 0)
(3.011531657 -0.03329698545 0)
(3 -9.160061522e-15 0)
(3 -8.186741689e-15 0)
(3 -7.254437958e-15 0)
(3 6.503563143e-15 0)
(3 3.118816715e-15 0)
(3 -6.5892545e-17 0)
(3 -3.706115272e-15 0)
(3 -4.158660849e-15 0)
(3 -1.690064294e-15 0)
(3 -9.566301844e-17 0)
(3 -4.274174849e-16 0)
(3 -5.074027517e-15 0)
(3 -6.958667784e-15 0)
(3 -8.845461484e-15 0)
(3 -7.22163873e-15 0)
(3 -4.134458606e-15 0)
(3 -4.102587718e-15 0)
(3 4.106449808e-15 0)
(3 9.616089068e-15 0)
(3 1.256795384e-14 0)
(3 -6.724440647e-14 0)
(3 -3.142972809e-12 0)
(3 -8.494151702e-11 0)
(3.000000001 -1.643024077e-09 0)
(3.000000009 -2.302573471e-08 0)
(3.000000097 -2.395235062e-07 0)
(3.00000074 -1.856002394e-06 0)
(3.000004325 -1.101878309e-05 0)
(3.000019787 -5.128100055e-05 0)
(3.000071399 -0.0001876868512 0)
(3.000213214 -0.0005695783957 0)
(3.000528787 -0.001433328446 0)
(3.001115639 -0.0030574326 0)
(3.002101324 -0.005834082832 0)
(3.00348961 -0.009782658837 0)
(3.005285897 -0.01494390336 0)
(3.007523931 -0.02147882019 0)
(3 -1.074308444e-14 0)
(3 -5.038403226e-15 0)
(3 1.319759374e-15 0)
(3 -8.420438877e-16 0)
(3 -1.957439356e-15 0)
(3 -3.208388556e-15 0)
(3 -7.989826753e-15 0)
(3 2.759280962e-16 0)
(3 3.730310194e-15 0)
(3 -1.464116155e-15 0)
(3 -3.984323165e-15 0)
(3 -6.964550308e-15 0)
(3 -1.477897012e-14 0)
(3 -7.348222806e-15 0)
(3 -7.821611066e-15 0)
(3 -3.218135266e-15 0)
(3 -3.400890688e-15 0)
(3 -4.196748165e-15 0)
(3 -1.544973659e-15 0)
(3 1.008363543e-14 0)
(3 1.390502676e-14 0)
(3 -5.105665541e-15 0)
(3 -7.130815085e-13 0)
(3 -2.251538528e-11 0)
(3 -4.912291308e-10 0)
(3.000000003 -7.745599675e-09 0)
(3.000000037 -9.022838951e-08 0)
(3.000000313 -7.799805386e-07 0)
(3.000002031 -5.142780397e-06 0)
(3.000010225 -2.632840463e-05 0)
(3.000040436 -0.0001056393494 0)
(3.000130839 -0.0003474597416 0)
(3.000348694 -0.0009395326312 0)
(3.000786533 -0.002144704277 0)
(3.001558899 -0.004305807604 0)
(3.002715745 -0.007577677292 0)
(3.004289081 -0.01207467131 0)
(3 -7.289733193e-15 0)
(3 -3.668557152e-15 0)
(3 4.443901084e-15 0)
(3 -2.131213431e-15 0)
(3 -3.256343907e-15 0)
(3 -4.165575608e-15 0)
(3 -3.557883764e-15 0)
(3 -4.56088834e-16 0)
(3 5.423696951e-16 0)
(3 -4.522077698e-15 0)
(3 -4.820313332e-15 0)
(3 -1.181477836e-14 0)
(3 -1.242374216e-14 0)
(3 -1.039267465e-14 0)
(3 -1.123466994e-14 0)
(3 -5.248914398e-15 0)
(3 -3.758300457e-15 0)
(3 -1.410344544e-16 0)
(3 6.436201241e-15 0)
(3 1.385147963e-14 0)
(3 1.974868244e-14 0)
(3 2.092540961e-14 0)
(3 2.268311024e-14 0)
(3 -1.330940762e-13 0)
(3 -5.646810312e-12 0)
(3 -1.394875551e-10 0)
(3.000000001 -2.478447125e-09 0)
(3.000000013 -3.239140387e-08 0)
(3.000000126 -3.13198452e-07 0)
(3.000000913 -2.297780899e-06 0)
(3.000005076 -1.298602471e-05 0)
(3.000022069 -5.730217062e-05 0)
(3.000077601 -0.0002048103188 0)
(3.000223238 -0.0005978833294 0)
(3.000539617 -0.001463866451 0)
(3.001130779 -0.003107218359 0)
(3.00207539 -0.005764476756 0)
(3 -4.24154376e-15 0)
(3 -2.281770503e-15 0)
(3 2.685295881e-16 0)
(3 -1.467423035e-15 0)
(3 -6.013314864e-16 0)
(3 9.897635539e-16 0)
(3 -9.603922675e-16 0)
(3 -3.416015273e-15 0)
(3 -4.740690285e-15 0)
(3 -7.496975642e-15 0)
(3 -8.020523353e-15 0)
(3 -4.310884988e-15 0)
(3 -6.556630456e-15 0)
(3 -9.953646313e-15 0)
(3 -3.410360434e-15 0)
(3 -3.101574866e-15 0)
(3 -8.694827147e-16 0)
(3 1.90232057e-15 0)
(3 3.622961026e-15 0)
(3 7.77974964e-15 0)
(3 1.139554925e-14 0)
(3 2.525977611e-14 0)
(3 3.468438152e-14 0)
(3 2.299554538e-14 0)
(3 -1.017848535e-14 0)
(3 -1.321707619e-12 0)
(3 -3.754552561e-11 0)
(3 -7.536019339e-10 0)
(3.000000005 -1.107071896e-08 0)
(3.000000049 -1.200176981e-07 0)
(3.000000392 -9.816552021e-07 0)
(3.000002417 -6.14504119e-06 0)
(3.000011586 -2.98984688e-05 0)
(3.000044434 -0.0001165316234 0)
(3.000138553 -0.0003688497572 0)
(3.000359573 -0.0009702172134 0)
(3.000800595 -0.002188391966 0)
(3 -6.005800129e-15 0)
(3 -1.113468364e-15 0)
(3 -3.354390894e-15 0)
(3 -2.069123273e-15 0)
(3 -2.173654315e-15 0)
(3 -2.805079281e-15 0)
(3 -1.046404347e-15 0)
(3 -4.769743968e-15 0)
(3 -7.562856425e-15 0)
(3 -3.98818982e-15 0)
(3 -5.88162416e-15 0)
(3 8.81513686e-15 0)
(3 5.703326425e-15 0)
(3 -1.784615844e-16 0)
(3 -3.516169653e-15 0)
(3 -3.830716012e-15 0)
(3 -2.380620371e-15 0)
(3 -6.045645306e-17 0)
(3 -1.970217628e-15 0)
(3 1.704654319e-15 0)
(3 5.112507528e-15 0)
(3 1.51564142e-14 0)
(3 2.439725932e-14 0)
(3 2.196181738e-14 0)
(3 1.818810824e-14 0)
(3 1.188687251e-14 0)
(3 -2.896799528e-13 0)
(3 -9.587742777e-12 0)
(3 -2.175685171e-10 0)
(3.000000001 -3.598893824e-09 0)
(3.000000018 -4.38322653e-08 0)
(3.000000161 -4.005364496e-07 0)
(3.000001103 -2.786107375e-06 0)
(3.000005841 -1.498146295e-05 0)
(3.000024523 -6.390206265e-05 0)
(3.000083215 -0.0002202075329 0)
(3.000232546 -0.0006239704046 0)
(3 -6.379047749e-15 0)
(3 -6.445137726e-15 0)
(3 -6.685249029e-15 0)
(3 -6.099059106e-15 0)
(3 -5.830677825e-15 0)
(3 -4.203961169e-15 0)
(3 -1.669352556e-15 0)
(3 -4.504786291e-15 0)
(3 -1.185445684e-14 0)
(3 -4.320380602e-15 0)
(3 -2.899106529e-15 0)
(3 2.914779701e-15 0)
(3 4.509502285e-15 0)
(3 4.794421276e-15 0)
(3 -3.74816341e-15 0)
(3 -3.002999287e-15 0)
(3 2.098935207e-15 0)
(3 4.917599947e-16 0)
(3 3.05914706e-15 0)
(3 3.755459398e-15 0)
(3 -4.013861437e-16 0)
(3 3.289020806e-15 0)
(3 1.850068204e-14 0)
(3 2.501328586e-14 0)
(3 2.672612158e-14 0)
(3 3.271832405e-14 0)
(3 3.306772126e-14 0)
(3 -3.331382188e-14 0)
(3 -2.303024051e-12 0)
(3 -5.958231608e-11 0)
(3 -1.111642673e-09 0)
(3.000000006 -1.523800462e-08 0)
(3.000000063 -1.558896445e-07 0)
(3.000000481 -1.208502415e-06 0)
(3.000002824 -7.199721084e-06 0)
(3.000013026 -3.372362689e-05 0)
(3.000048258 -0.0001269325661 0)
(3 -3.001707647e-15 0)
(3 -4.807670956e-15 0)
(3 -6.44458277e-15 0)
(3 -1.32298614e-14 0)
(3 -9.609031088e-15 0)
(3 -5.593174785e-15 0)
(3 -3.295262785e-15 0)
(3 -2.269505948e-15 0)
(3 -7.601164454e-15 0)
(3 -1.122861329e-14 0)
(3 -7.033128171e-15 0)
(3 -2.734558355e-15 0)
(3 -4.06272997e-15 0)
(3 2.517770045e-15 0)
(3 8.228001021e-15 0)
(3 2.955029729e-15 0)
(3 5.258879143e-15 0)
(3 4.882412589e-15 0)
(3 6.160010354e-15 0)
(3 2.651906895e-15 0)
(3 -4.358459572e-15 0)
(3 -1.821064666e-15 0)
(3 1.32501907e-14 0)
(3 3.13738624e-14 0)
(3 3.701680099e-14 0)
(3 3.795636043e-14 0)
(3 4.369698017e-14 0)
(3 4.602565035e-14 0)
(3 3.308071131e-14 0)
(3 -4.827588753e-13 0)
(3 -1.54102774e-11 0)
(3 -3.258204876e-10 0)
(3.000000002 -5.03605616e-09 0)
(3.000000023 -5.780556182e-08 0)
(3.0000002 -5.006906543e-07 0)
(3.000001308 -3.313652197e-06 0)
(3.00000665 -1.710591735e-05 0)
(3 -7.059778561e-16 0)
(3 -8.1348638e-15 0)
(3 -9.068622361e-15 0)
(3 -4.975974545e-15 0)
(3 -1.352956026e-15 0)
(3 -2.49435683e-15 0)
(3 -5.242402846e-15 0)
(3 3.893220711e-16 0)
(3 -1.470719268e-15 0)
(3 -6.552668047e-15 0)
(3 -7.480571623e-15 0)
(3 -1.100752884e-14 0)
(3 -6.717935166e-15 0)
(3 5.093430249e-15 0)
(3 1.453797751e-15 0)
(3 2.625658471e-15 0)
(3 -3.097656086e-15 0)
(3 5.676099213e-15 0)
(3 8.819075168e-15 0)
(3 8.700986289e-15 0)
(3 4.981523065e-15 0)
(3 2.896651648e-15 0)
(3 8.677767595e-15 0)
(3 1.510629324e-14 0)
(3 2.153338045e-14 0)
(3 2.359491255e-14 0)
(3 3.2074134e-14 0)
(3 3.999779235e-14 0)
(3 3.349032748e-14 0)
(3 2.369496826e-14 0)
(3 -9.946310623e-14 0)
(3 -3.791953586e-12 0)
(3 -9.055166058e-11 0)
(3.000000001 -1.580248706e-09 0)
(3.000000008 -2.039653258e-08 0)
(3.00000008 -1.9784423e-07 0)
(3.000000579 -1.458278041e-06 0)
(3 -6.443406624e-15 0)
(3 -1.131258386e-14 0)
(3 -9.00341667e-15 0)
(3 1.89496309e-15 0)
(3 5.303617295e-15 0)
(3 5.296293867e-15 0)
(3 1.31498567e-15 0)
(3 4.49020901e-15 0)
(3 -1.301041543e-15 0)
(3 -7.419669792e-15 0)
(3 -1.829954154e-15 0)
(3 -1.001898507e-14 0)
(3 -4.705383674e-15 0)
(3 -6.489896039e-15 0)
(3 -8.05636732e-15 0)
(3 -4.570550126e-15 0)
(3 2.369474032e-16 0)
(3 -3.369437753e-16 0)
(3 2.950502722e-16 0)
(3 5.34181991e-15 0)
(3 9.202245472e-15 0)
(3 1.722361128e-14 0)
(3 1.705075457e-14 0)
(3 1.580824508e-14 0)
(3 1.970882574e-14 0)
(3 2.251182763e-14 0)
(3 2.879027411e-14 0)
(3 3.483262217e-14 0)
(3 3.117037453e-14 0)
(3 2.750727683e-14 0)
(3 2.318533252e-14 0)
(3 -3.578395438e-15 0)
(3 -8.683272349e-13 0)
(3 -2.383800503e-11 0)
(3 -4.702475951e-10 0)
(3.000000003 -6.83927305e-09 0)
(3.00000003 -7.445575474e-08 0)
(3 -6.997527424e-15 0)
(3 -5.172271499e-15 0)
(3 1.082031442e-15 0)
(3 8.360368054e-16 0)
(3 -3.070489944e-15 0)
(3 -2.279992762e-15 0)
(3 2.023038481e-15 0)
(3 -1.367017446e-15 0)
(3 1.911839253e-15 0)
(3 5.069956437e-16 0)
(3 -7.473977535e-16 0)
(3 -2.711795268e-15 0)
(3 1.646912543e-15 0)
(3 -9.948009346e-15 0)
(3 -6.673384384e-15 0)
(3 -8.282812356e-15 0)
(3 -1.312412736e-15 0)
(3 -4.249560923e-15 0)
(3 -4.106564486e-15 0)
(3 -1.431091584e-15 0)
(3 8.812029767e-15 0)
(3 1.519725135e-14 0)
(3 1.205090689e-14 0)
(3 7.738674761e-15 0)
(3 1.125173335e-14 0)
(3 1.742808044e-14 0)
(3 2.211878477e-14 0)
(3 2.416546843e-14 0)
(3 2.613219127e-14 0)
(3 2.903703841e-14 0)
(3 1.300609534e-14 0)
(3 1.764965331e-14 0)
(3 -3.584619457e-15 0)
(3 -1.905752858e-13 0)
(3 -5.920497299e-12 0)
(3 -1.324908239e-10 0)
(3.000000001 -2.176295043e-09 0)
(3 -5.569406574e-15 0)
(3 -1.298057956e-15 0)
(3 2.105771004e-15 0)
(3 -5.009908079e-16 0)
(3 -6.354732287e-15 0)
(3 -1.01811063e-14 0)
(3 -6.334002641e-15 0)
(3 -1.153397642e-14 0)
(3 -3.721463453e-15 0)
(3 -1.218800693e-15 0)
(3 -3.154981952e-15 0)
(3 1.884928609e-15 0)
(3 -4.768671724e-15 0)
(3 -6.839672262e-15 0)
(3 -8.191507953e-15 0)
(3 -1.60028952e-14 0)
(3 -8.604656708e-15 0)
(3 -1.667894656e-15 0)
(3 6.66285459e-15 0)
(3 1.53846595e-14 0)
(3 1.352971564e-14 0)
(3 1.163814314e-14 0)
(3 4.269223277e-15 0)
(3 4.452968359e-15 0)
(3 5.760387338e-15 0)
(3 1.247333974e-14 0)
(3 7.915100775e-15 0)
(3 6.165459679e-15 0)
(3 3.419609952e-15 0)
(3 9.885812664e-15 0)
(3 1.864728757e-15 0)
(3 7.594651367e-16 0)
(3 -6.271856099e-15 0)
(3 -2.34611782e-15 0)
(3 -3.429683013e-14 0)
(3 -1.379848452e-12 0)
(3 -3.529390981e-11 0)
(3 -2.733731692e-15 0)
(3 3.404210577e-15 0)
(3 1.690902442e-15 0)
(3 1.322184783e-15 0)
(3 2.432824548e-15 0)
(3 1.206843719e-15 0)
(3 9.788701842e-17 0)
(3 -1.033776566e-14 0)
(3 -9.671296424e-15 0)
(3 -8.468003886e-15 0)
(3 -3.281036806e-15 0)
(3 2.7298877e-15 0)
(3 -4.169173577e-15 0)
(3 -8.84856646e-15 0)
(3 -1.365343114e-14 0)
(3 -1.113145397e-14 0)
(3 -1.797945357e-14 0)
(3 -1.102047486e-14 0)
(3 -1.175081725e-15 0)
(3 7.007097907e-15 0)
(3 7.847789011e-15 0)
(3 4.378731611e-15 0)
(3 2.853424956e-15 0)
(3 5.007401608e-15 0)
(3 5.70588737e-15 0)
(3 6.282524585e-15 0)
(3 -1.40869809e-15 0)
(3 -1.047412398e-15 0)
(3 -1.048748673e-14 0)
(3 -9.231372259e-15 0)
(3 -1.490263461e-14 0)
(3 -1.600844144e-14 0)
(3 -1.771811654e-14 0)
(3 -4.62871456e-15 0)
(3 6.464440628e-16 0)
(3 -2.730970253e-15 0)
(3 -3.066387994e-13 0)
(3 -4.669192757e-16 0)
(3 7.060732903e-15 0)
(3 5.539967351e-15 0)
(3 1.229542369e-15 0)
(3 4.137855824e-15 0)
(3 3.076024019e-15 0)
(3 -3.689688022e-15 0)
(3 -1.033604468e-14 0)
(3 -6.267573633e-15 0)
(3 -1.466413029e-15 0)
(3 -1.476281969e-15 0)
(3 -3.081049136e-15 0)
(3 -3.801686458e-15 0)
(3 -1.336473514e-14 0)
(3 -1.911480915e-14 0)
(3 -9.967315193e-15 0)
(3 -1.175977309e-14 0)
(3 -1.016883675e-14 0)
(3 -7.425571502e-15 0)
(3 -6.952349782e-15 0)
(3 -5.509821892e-15 0)
(3 -1.044459053e-14 0)
(3 -3.509428299e-15 0)
(3 -3.566925255e-15 0)
(3 -1.194463491e-15 0)
(3 -6.473860583e-15 0)
(3 -6.81833671e-15 0)
(3 -7.253115206e-15 0)
(3 -2.201752125e-14 0)
(3 -3.103596988e-14 0)
(3 -2.846584602e-14 0)
(3 -2.859681347e-14 0)
(3 -1.48991292e-14 0)
(3 -4.321959002e-15 0)
(3 9.209410797e-15 0)
(3 6.052502554e-15 0)
(3 -1.071286236e-16 0)
(3 1.58943777e-15 0)
(3 7.076192406e-15 0)
(3 6.902097749e-15 0)
(3 2.889520569e-15 0)
(3 -5.494584458e-15 0)
(3 -8.214860505e-15 0)
(3 -6.824738259e-15 0)
(3 -3.65537713e-15 0)
(3 -1.983710728e-15 0)
(3 -2.327183122e-15 0)
(3 -4.563479457e-15 0)
(3 -8.436396449e-15 0)
(3 -1.039692409e-14 0)
(3 -8.96798926e-15 0)
(3 -1.063095111e-14 0)
(3 -4.83722591e-15 0)
(3 5.935586297e-15 0)
(3 -1.760975655e-15 0)
(3 -8.034138191e-15 0)
(3 -1.275956859e-14 0)
(3 -6.105460897e-15 0)
(3 -6.742916826e-15 0)
(3 -1.18598936e-15 0)
(3 -2.25200428e-15 0)
(3 -7.703849995e-15 0)
(3 -1.018905291e-14 0)
(3 -1.257742592e-14 0)
(3 -2.064519712e-14 0)
(3 -2.832716924e-14 0)
(3 -3.01972215e-14 0)
(3 -3.254513477e-14 0)
(3 -2.98333097e-14 0)
(3 -2.114986011e-14 0)
(3 -1.915028162e-14 0)
(3 2.619567146e-15 0)
(3 -9.351900806e-15 0)
(3 -9.958111244e-16 0)
(3 2.440490322e-15 0)