/*--------------------------------*- C++ -*----------------------------------*\
  =========                 |
  \\      /  F ield         | OpenFOAM: The Open Source CFD Toolbox
   \\    /   O peration     | Website:  https://openfoam.org
    \\  /    A nd           | Version:  7
     \\/     M anipulation  |
\*---------------------------------------------------------------------------*/
FoamFile
{
    version     2.0;
    format      ascii;
    class       volScalarField;
    location    "4";
    object      T;
}
// * * * * * * * * * * * * * * * * * * * * * * * * * * * * * * * * * * * * * //

dimensions      [0 0 0 1 0 0 0];

internalField   nonuniform List<scalar> 
2222
(
1
1
1
1
1
1
1
1
1
1
1
1
1
1
1
1
1
1
1
1
1
1
1
1
1
1
1
1
1
1
1
1
1
1
1
1
1
1
1
1
1
1
1
1
1
1
1
1
1
1
1
1
1
1
1
1
1
1
1
1
1
1
1
1
1
1
1
1
1
1
1
1
1
1
1
1
1
1
1
1
1
1
1
1
1
1
1
1
1
1
1
1
1
1
1
1
1
1
1
1
1
1
1
1
1
1
1
1
1
1
1
1
1
1
1
1
1
1
1
1
1
1
1
1
1
1
1
1
1
1
1
1
1
1
1
1
1
1
1
1
1
1
1
1
1
1
1
1
1
1
1
1
1
1
1
1
1
1
1
1
1
1
1
1
1
1
1
1
1
1
1
1
1
1
1
1
1
1
1
1
1
1
1
1
1
1
1
1
1
1
1
1
1
1
1
1
1
1
1
1
1
1
1
1
1
1
1
1
1
1
1
1
1
1
1
1
1
1
1
1
1
1
1
1
1
1
1
1
1
1
1
1
1
1
1
1
1
1
1
1
1
1
1
1
1
1
1
1
1
1
1
1
1.000000001
1
1
1
1
1
1
1
1
1
1
1
1
1
1
1
1
1
1
1
1
1
1
1
1
1
1
1
1
1
1
1
1
1
1
1
1.000000005
1
1
1
1
1
1
1
1
1
1
1
1
1
1
1
1
1
1
1
1
1
1
1
1
1
1
1
1
1
1
1
1
1
1
1.000000001
1.000000136
1
1
1
1
1
1
1
1
1
1
1
1
1
1
1
1
1
1
1
1
1
1
1
1
1
1
1
1
1
1
1
1
1
1
1.000000033
1.000005524
1
1
1
1
1
1
1
1
1
1
1
1
1
1
1
1
1
1
1
1
1
1
1
1
1
1
1
1
1
1
1
1
1
1.000000008
1.000001315
1.00011932
1
1
1
1
1
1
1
1
1
1
1
1
1
1
1
1
1
1
1
1
1
1
1
1
1
1
1
1
1
1
1
1
1.000000002
1.000000243
1.000023779
1.001280368
1
1
1
1
1
1
1
1
1
1
1
1
1
1
1
1
1
1
1
1
1
1
1
1
1
1
1
1
1
1
1
1
1.000000037
1.000003647
1.000254685
1.008182919
1
1
1
1
1
1
1
1
1
1
1
1
1
1
1
1
1
1
1
1
1
1
1
1
1
1
1
1
1
1
1
1.000000004
1.000000448
1.000038549
1.001924101
1.039514961
1
1
1
1
1
1
1
1
1
1
1
1
1
1
1
1
1
1
1
1
1
1
1
1
1
1
1
1
1
1
1
1.000000035
1.000004762
1.00037791
1.011543964
1.131020859
1
1
1
1
1
1
1
1
1
1
1
1
1
1
1
1
1
1
1
1
1
1
1
1
1
1
1
1
1
1
1.000000003
1.000000543
1.000067205
1.003464519
1.053365483
1.260429985
1
1
1
1
1
1
1
1
1
1
1
1
1
1
1
1
1
1
1
1
1
1
1
1
1
1
1
1
1
1
1.000000097
1.000015205
1.001113967
1.025028619
1.152656896
1.340712505
1
1
1
1
1
1
1
1
1
1
1
1
1
1
1
1
1
1
1
1
1
1
1
1
1
1
1
1
1
1.000000025
1.00000421
1.000346562
1.012273424
1.100857341
1.269490939
1.361467115
1
1
1
1
1
1
1
1
1
1
1
1
1
1
1
1
1
1
1
1
1
1
1
1
1
1
1
1
1.000000005
1.000000941
1.000087552
1.004004904
1.069382443
1.208327114
1.33571805
1.363678564
1
1
1
1
1
1
1
1
1
1
1
1
1
1
1
1
1
1
1
1
1
1
1
1
1
1
1
1.000000001
1.000000151
1.000015954
1.000918468
1.025893574
1.18025627
1.294637923
1.354397651
1.363427012
1
1
1
1
1
1
1
1
1
1
1
1
1
1
1
1
1
1
1
1
1
1
1
1
1
1
1
1.00000002
1.000002141
1.000168156
1.005923261
1.101167771
1.272950537
1.335937942
1.360182077
1.359476697
1
1
1
1
1
1
1
1
1
1
1
1
1
1
1
1
1
1
1
1
1
1
1
1
1
1
1.000000002
1.00000023
1.000021885
1.001325753
1.029977661
1.221729285
1.324922543
1.353043908
1.361602438
1.35756671
1
1
1
1
1
1
1
1
1
1
1
1
1
1
1
1
1
1
1
1
1
1
1
1
1
1
1.000000016
1.000002547
1.000229875
1.008516814
1.10955338
1.314048897
1.347265699
1.359172423
1.361977261
1.355437904
1
1
1
1
1
1
1
1
1
1
1
1
1
1
1
1
1
1
1
1
1
1
1
1
1
1.000000001
1.000000305
1.00004199
1.002520618
1.043338576
1.239768143
1.356576375
1.35638439
1.357549893
1.359988774
1.352197351
1
1
1
1
1
1
1
1
1
1
1
1
1
1
1
1
1
1
1
1
1
1
1
1
1
1.000000059
1.000010492
1.000810091
1.021455522
1.135206448
1.334975157
1.369408475
1.363666199
1.357705711
1.355459343
1.346764779
1
1
1
1
1
1
1
1
1
1
1
1
1
1
1
1
1
1
1
1
1
1
1
1
1.000000014
1.000002573
1.000240805
1.00951972
1.096033416
1.251523348
1.366058732
1.373102463
1.367659614
1.356515473
1.350013463
1.341259349
1
1
1
1
1
1
1
1
1
1
1
1
1
1
1
1
1
1
1
1
1
1
1
1.000000003
1.000000496
1.000050998
1.002687596
1.057624356
1.206456662
1.329325735
1.370868349
1.370481194
1.366957836
1.35528725
1.34478911
1.335848123
1
1
1
1
1
1
1
1
1
1
1
1
1
1
1
1
1
1
1
1
1
1
1.000000001
1.000000077
1.000008267
1.000541212
1.017175339
1.167276933
1.291676779
1.356682814
1.370939128
1.368739543
1.36382904
1.352304975
1.340376278
1.330818785
1
1
1
1
1
1
1
1
1
1
1
1
1
1
1
1
1
1
1
1
1
1
1.00000001
1.000001066
1.000091106
1.00373208
1.07408164
1.270515989
1.339734178
1.367825084
1.367729389
1.363731054
1.357662626
1.347594537
1.335815191
1.325804768
1
1
1
1
1
1
1
1
1
1
1
1
1
1
1
1
1
1
1
1
1
1.000000001
1.000000107
1.000011075
1.000805301
1.02023407
1.192397215
1.329695107
1.359419247
1.370700286
1.367669217
1.360033355
1.352020128
1.342010529
1.330399822
1.320233709
1
1
1
1
1
1
1
1
1
1
1
1
1
1
1
1
1
1
1
1
1
1.000000008
1.000001201
1.000125535
1.0058384
1.082489068
1.307907755
1.354618382
1.365471038
1.371502626
1.367881483
1.357385227
1.346602713
1.33586306
1.32493293
1.314917121
1
1
1
1
1
1
1
1
1
1
1
1
1
1
1
1
1
1
1
1
1.000000001
1.000000131
1.000021272
1.001597329
1.03337431
1.204645148
1.366685997
1.365932945
1.365831503
1.368857152
1.366150896
1.354427008
1.341499293
1.329342799
1.318883619
1.309341871
1
1
1
1
1
1
1
1
1
1
1
1
1
1
1
1
1
1
1
1
1.000000021
1.000004934
1.00045426
1.015894507
1.116999367
1.318629363
1.380291695
1.376060528
1.368735626
1.366130901
1.361648613
1.349601331
1.336062049
1.323369431
1.313381212
1.304061157
1
1
1
1
1
1
1
1
1
1
1
1
1
1
1
1
1
1
1
1.000000005
1.00000111
1.000128451
1.005949307
1.083156587
1.233273815
1.368729232
1.381318737
1.377810479
1.368486483
1.361362064
1.35504785
1.344100331
1.330753036
1.317166702
1.307224995
1.298474835
1
1
1
1
1
1
1
1
1
1
1
1
1
1
1
1
1
1
1.000000001
1.000000224
1.000026771
1.001598981
1.04090093
1.197982818
1.322700882
1.37910297
1.379300091
1.376417826
1.367606622
1.357250613
1.348789473
1.338309204
1.324897948
1.310768499
1.301107042
1.292947706
1
1
1
1
1
1
1
1
1
1
1
1
1
1
1
1
1
1
1.000000033
1.000004334
1.000319312
1.010793316
1.141047976
1.28639339
1.360050122
1.380384414
1.379088788
1.376100524
1.366270662
1.353586618
1.343068473
1.332177192
1.318734017
1.304571209
1.295033897
1.2872126
1
1
1
1
1
1
1
1
1
1
1
1
1
1
1
1
1
1.000000004
1.000000516
1.000047993
1.00230081
1.049821044
1.258057875
1.336833702
1.371450051
1.378275296
1.374829051
1.370221133
1.362148991
1.349301016
1.337271001
1.325868254
1.311846713
1.29703016
1.287457386
1.280315957
1
1
1
1
1
1
1
1
1
1
1
1
1
1
1
1
1
1.000000054
1.000005732
1.000430546
1.012695574
1.152204643
1.324377199
1.359516199
1.37720303
1.377419582
1.372395761
1.365785854
1.358007517
1.34513525
1.331937723
1.319722864
1.304761394
1.28897845
1.279307527
1.272811799
1
1
1
1
1
1
1
1
1
1
1
1
1
1
1
1
1.000000004
1.000000623
1.00006817
1.00352554
1.058147607
1.283344964
1.352983993
1.365664655
1.378492623
1.376971944
1.369835418
1.361031231
1.353123156
1.340967707
1.3269777
1.31368275
1.297582014
1.280934016
1.271029027
1.264795387
1
1
1
1
1
1
1
1
1
1
1
1
1
1
1
1
1.000000057
1.000009749
1.000909123
1.023704263
1.169480106
1.363159103
1.368785225
1.369113378
1.37298076
1.373943578
1.36705252
1.356631058
1.348474975
1.336137743
1.32124627
1.307514283
1.291100012
1.27358654
1.262650573
1.255965465
1
1
1
1
1
1
1
1
1
1
1
1
1
1
1
1.000000005
1.000001734
1.000194628
1.00948515
1.096817094
1.298916737
1.384996597
1.379519962
1.371813545
1.371136179
1.370974672
1.362870874
1.350857877
1.341667976
1.3292441
1.314713047
1.301607121
1.285498663
1.26694577
1.254472839
1.246829048
1
1
1
1
1
1
1
1
1
1
1
1
1
1
1.000000001
1.000000298
1.000050215
1.002857723
1.058235343
1.213501146
1.369582053
1.386973751
1.382391045
1.372933801
1.368866975
1.366277468
1.356231157
1.342815782
1.332861386
1.321287664
1.307835164
1.29566126
1.280015236
1.260538285
1.246757538
1.238049031
1
1
1
1
1
1
1
1
1
1
1
1
1
1
1.000000081
1.000010176
1.000792142
1.024008736
1.168905404
1.311967472
1.38707832
1.390321688
1.3868266
1.3768355
1.367049492
1.360913792
1.348919787
1.334389816
1.323789052
1.312799453
1.300160532
1.288774936
1.274185124
1.254848396
1.240272573
1.230388029
1
1
1
1
1
1
1
1
1
1
1
1
1
1.000000013
1.00000206
1.000165043
1.006587403
1.104864474
1.270813122
1.357948722
1.390396085
1.392395444
1.390189191
1.379730686
1.365376932
1.355021784
1.341692607
1.326576658
1.315034745
1.303572079
1.291129507
1.280943706
1.268336737
1.249964766
1.23478119
1.223708257
1
1
1
1
1
1
1
1
1
1
1
1
1.000000002
1.000000263
1.000026349
1.001424971
1.035200623
1.230213671
1.328244363
1.370622128
1.388585395
1.387783753
1.385945016
1.378677671
1.363947374
1.35096582
1.336097183
1.319687662
1.306335632
1.293331171
1.281156139
1.27257792
1.262182275
1.244893753
1.229409948
1.217575855
1
1
1
1
1
1
1
1
1
1
1
1
1.00000003
1.000003015
1.000233786
1.008451601
1.120002221
1.31642602
1.35936952
1.379790914
1.385031151
1.383220362
1.38004791
1.373582805
1.361210073
1.348041553
1.331545389
1.313492906
1.298116057
1.283355105
1.271536637
1.263922224
1.255053644
1.238939929
1.223716475
1.211885372
1
1
1
1
1
1
1
1
1
1
1
1.000000002
1.000000298
1.000031311
1.001847216
1.039987806
1.251933794
1.357246894
1.368228869
1.380910896
1.381307163
1.378535391
1.373351241
1.366494236
1.356345465
1.344036126
1.32678748
1.307884272
1.291272623
1.275010917
1.262868565
1.25519914
1.247227635
1.232663467
1.218082564
1.206745302
1
1
1
1
1
1
1
1
1
1
1
1.000000021
1.0000037
1.000381281
1.013396682
1.131504307
1.352550328
1.373690326
1.371084154
1.373142115
1.378031567
1.374459984
1.367737751
1.359390438
1.349150014
1.33796934
1.321207592
1.302810479
1.286209779
1.268594772
1.254868178
1.246376473
1.238758797
1.225870322
1.21205183
1.201530984
1
1
1
1
1
1
1
1
1
1
1.000000002
1.000000569
1.000077961
1.00443842
1.06667045
1.266707376
1.387511624
1.383891114
1.377418572
1.374730144
1.376446725
1.371669422
1.362086924
1.350708965
1.340241255
1.330823109
1.315336935
1.298074207
1.281863345
1.26301372
1.24764153
1.23837759
1.230719988
1.219145653
1.20594042
1.196006376
1
1
1
1
1
1
1
1
1
1
1.000000124
1.000020969
1.001442382
1.034879215
1.17611975
1.360261416
1.392506217
1.3867424
1.382017766
1.377195713
1.375933494
1.367073926
1.354107672
1.340642682
1.331130827
1.323288621
1.308934121
1.292720225
1.277169602
1.258090066
1.241645067
1.231344581
1.222811815
1.21134785
1.198341227
1.189033575
1
1
1
1
1
1
1
1
1
1.000000026
1.000004473
1.000403919
1.014561988
1.130695726
1.287544199
1.386385099
1.392027141
1.387658816
1.383962211
1.378694119
1.373541685
1.36197357
1.34690672
1.33203702
1.323019895
1.315496595
1.301552738
1.286296984
1.271790717
1.253369992
1.236077588
1.224714526
1.215076713
1.20332557
1.190477496
1.181658669
1
1
1
1
1
1
1
1
1.000000004
1.000000754
1.000074777
1.003760049
1.076039625
1.244878139
1.345765702
1.388734606
1.390478356
1.389019828
1.385856832
1.378739112
1.370664352
1.358971814
1.342907654
1.326080525
1.315416778
1.306714419
1.292663354
1.278653744
1.26566626
1.248504542
1.230614854
1.218381048
1.207702502
1.19521745
1.182080733
1.173521663
1
1
1
1
1
1
1
1.000000001
1.0000001
1.000011119
1.000715185
1.02163454
1.196885819
1.320392783
1.366021852
1.387251731
1.388832071
1.388736259
1.386901585
1.378310014
1.367526911
1.356443517
1.340213068
1.321085937
1.308359289
1.29818688
1.284142933
1.271197105
1.25909706
1.242713546
1.224058881
1.211293804
1.199967177
1.186948772
1.173746387
1.165277818
1
1
1
1
1
1
1
1.000000009
1.000001273
1.000117407
1.004738047
1.086903547
1.304388074
1.353451106
1.372482545
1.38396372
1.383690084
1.382970167
1.382038515
1.376235457
1.36515521
1.353920147
1.337134078
1.316192335
1.30162928
1.289804138
1.275340595
1.262553709
1.250617002
1.235027577
1.216434834
1.203876162
1.192514036
1.179313897
1.16566135
1.156673559
1
1
1
1
1
1
1.000000001
1.000000109
1.000013807
1.00103717
1.025396069
1.213325463
1.359959829
1.369583284
1.377651418
1.383512569
1.381754864
1.379683689
1.377901652
1.372224003
1.361651729
1.350195269
1.332832015
1.310523024
1.294994133
1.281932151
1.266834096
1.25364586
1.241361498
1.226477772
1.208226216
1.195696387
1.18424148
1.170780615
1.156488733
1.147055626
1
1
1
1
1
1
1.000000008
1.000001624
1.000181574
1.007781638
1.096227194
1.33058757
1.379584061
1.378294266
1.381206908
1.384418731
1.38167477
1.377360768
1.373829534
1.367293103
1.356571701
1.344665427
1.327053112
1.304290102
1.288338846
1.274343058
1.25789649
1.243604997
1.230743011
1.216505797
1.198941061
1.186607606
1.175271895
1.161875049
1.147187749
1.137502621
1
1
1
1
1
1.000000001
1.00000025
1.000038084
1.002460647
1.044328527
1.219193946
1.384492333
1.384256154
1.382206212
1.382154966
1.385537288
1.382793197
1.376266096
1.370345194
1.362256185
1.350443779
1.337717772
1.319968576
1.296899249
1.280125323
1.265152809
1.247798912
1.2330821
1.220017794
1.206315671
1.189248241
1.17678398
1.16550731
1.152319599
1.137339963
1.127495786
1
1
1
1
1
1.000000052
1.000009363
1.000758889
1.022661435
1.140027622
1.323464295
1.392623352
1.391002896
1.387467589
1.386407706
1.387059593
1.384586804
1.3763278
1.366888508
1.355418016
1.342118244
1.328816586
1.311081815
1.288016732
1.270760935
1.255501685
1.237912063
1.22274827
1.209307109
1.195489718
1.17852506
1.166135174
1.155095845
1.142433879
1.127721016
1.117949899
1
1
1
1
1.000000007
1.000001788
1.000184912
1.008237411
1.103313832
1.249463055
1.367666408
1.392484037
1.392549087
1.39127519
1.389118873
1.388393926
1.385867132
1.375869635
1.363092732
1.348313232
1.333361661
1.319104025
1.301005891
1.27787151
1.260007834
1.244462919
1.226906074
1.211592756
1.198017298
1.184212544
1.167488186
1.155139006
1.144478187
1.132579162
1.118273797
1.108338763
1.100285042
1
1
1
1.000000001
1.000000208
1.000030758
1.001873578
1.04901924
1.223129931
1.324517493
1.377211593
1.390460457
1.392194933
1.393400262
1.391477987
1.388776421
1.384956975
1.373649565
1.358538302
1.340666483
1.323482737
1.307853458
1.28928661
1.266296431
1.24828538
1.233048617
1.216032468
1.200495044
1.186920993
1.173265036
1.15680539
1.144550257
1.13411606
1.122714568
1.108731577
1.098746496
1.090718218
1
1
1
1.000000015
1.000003424
1.000332784
1.011878574
1.15645005
1.307916894
1.359083292
1.383610671
1.391744508
1.394874925
1.395247582
1.392223771
1.388037886
1.381774021
1.368568533
1.351619458
1.331454647
1.312545813
1.295913547
1.277126215
1.254343989
1.236362812
1.221321032
1.204544158
1.18888312
1.175366119
1.161945629
1.145968817
1.133794664
1.12364535
1.112789377
1.099221148
1.089129281
1.081215488
1
1
1.000000001
1.000000305
1.000044582
1.002584683
1.055817109
1.276970489
1.357352569
1.376990242
1.390931883
1.391875099
1.392604768
1.392732995
1.390320227
1.38580104
1.376680549
1.361131017
1.342910161
1.321459662
1.301167735
1.283541941
)
;

boundaryField
{
    inlet
    {
        type            fixedValue;
        value           nonuniform 0();
    }
    outlet
    {
        type            inletOutlet;
        inletValue      nonuniform 0();
        value           nonuniform 0();
    }
    bottom
    {
        type            slip;
    }
    top
    {
        type            slip;
    }
    obstacle
    {
        type            zeroGradient;
    }
    defaultFaces
    {
        type            empty;
    }
    procBoundary3to2
    {
        type            processor;
        value           nonuniform List<scalar> 
36
(
1
1
1
1
1
1
1
1
1
1
1
1
1
1
1
1
1
1
1
1
1
1
1
1
1
1
1
1
1
1
1
1
1
1
1
1
)
;
    }
    procBoundary3to4
    {
        type            processor;
        value           nonuniform List<scalar> 
62
(
1
1
1
1
1
1.000000006
1.000000061
1.000000832
1.000018918
1.000410304
1.00489478
1.032007259
1.116154202
1.230868633
1.307190959
1.341733938
1.35534213
1.362262985
1.362956302
1.360121683
1.353826563
1.348139742
1.342430432
1.337124692
1.332066884
1.327582034
1.323339476
1.318775046
1.313622707
1.308078441
1.30241491
1.296672089
1.291227731
1.285844117
1.280636364
1.275294644
1.269427942
1.26310482
1.25597374
1.247726168
1.238825479
1.229876474
1.221405343
1.213450953
1.206141138
1.199925705
1.194723595
1.189898535
1.184824342
1.178680612
1.172255854
1.164933888
1.157156698
1.148441914
1.138805206
1.129299434
1.119347157
1.109930968
1.109930968
1.091319742
1.082018846
1.07274675
)
;
    }
    procBoundary3to8
    {
        type            processor;
        value           nonuniform List<scalar> 
27
(
1
1
1
1
1
1
1
1
1
1
1
1
1
1
1
1
1
1
1
1
1
1
1
1
1
1
1
)
;
    }
    procBoundary3to9
    {
        type            processor;
        value           nonuniform List<scalar> 
38
(
1.264454376
1.242038548
1.224263321
1.209466073
1.19318052
1.177446359
1.164220432
1.151244833
1.135824386
1.123606081
1.113510425
1.102917133
1.089585382
1.079594979
1.07190646
1
1
1.000000025
1.000005942
1.000532617
1.015588845
1.166493131
1.347319851
1.378404523
1.38713397
1.394749617
1.393947355
1.392453292
1.391865589
1.388667099
1.381420901
1.369364551
1.351675455
1.332232255
1.309977486
1.28861543
1.264454376
1.270562732
)
;
    }
}


// ************************************************************************* //
