/*--------------------------------*- C++ -*----------------------------------*\
  =========                 |
  \\      /  F ield         | OpenFOAM: The Open Source CFD Toolbox
   \\    /   O peration     | Website:  https://openfoam.org
    \\  /    A nd           | Version:  7
     \\/     M anipulation  |
\*---------------------------------------------------------------------------*/
FoamFile
{
    version     2.0;
    format      ascii;
    class       volScalarField;
    location    "0.1";
    object      rho;
}
// * * * * * * * * * * * * * * * * * * * * * * * * * * * * * * * * * * * * * //

dimensions      [1 -3 0 0 0 0 0];

internalField   nonuniform List<scalar> 
555
(
1.40000504
1.40000504
1.354111494
1.35774914
1.353434861
1.34895275
1.347623269
1.347944056
1.352950157
1.360772667
1.373979201
1.386643297
1.39564465
1.399280621
1.399963183
1.400004548
1.400005035
1.40000504
1.40000504
1.353326811
1.356315322
1.351378779
1.348249399
1.347409586
1.348132913
1.353002892
1.362876636
1.377221031
1.388600258
1.396171649
1.399382853
1.399972134
1.400004686
1.400005037
1.40000504
1.40000504
1.353169045
1.355488022
1.350182527
1.347632498
1.347180631
1.348639391
1.353171906
1.364527561
1.378841193
1.390017326
1.39680112
1.399498944
1.399979598
1.40000478
1.400005039
1.40000504
1.40000504
1.353858604
1.354596247
1.348077276
1.346342206
1.34673345
1.34867927
1.353895321
1.364421671
1.378778462
1.390572338
1.397297042
1.399617851
1.399986756
1.400004858
1.400005039
1.40000504
1.40000504
1.352564334
1.352109702
1.344854737
1.343467416
1.345714423
1.348741475
1.354751536
1.364341687
1.378592803
1.390788532
1.397617269
1.399708069
1.399992626
1.400004922
1.40000504
1.40000504
1.40000504
1.376322471
1.350573258
1.349189556
1.342845819
1.342114985
1.344251915
1.348620315
1.356705262
1.367178219
1.379546503
1.391163071
1.397848166
1.399765812
1.399996376
1.400004966
1.40000504
1.40000504
1.40000504
1.36927662
1.347472844
1.346720571
1.341735304
1.341255869
1.343508351
1.348428214
1.357681643
1.370435632
1.382223182
1.39215637
1.39807831
1.399804553
1.399998617
1.400004992
1.40000504
1.40000504
1.40000504
1.361910227
1.344537079
1.344289553
1.341026898
1.340736726
1.343180583
1.348275246
1.358494992
1.372492853
1.384330477
1.393447591
1.398377732
1.399838972
1.400000151
1.400005008
1.40000504
1.40000504
1.40000504
1.35884931
1.342586025
1.343089802
1.340740705
1.341416661
1.344071784
1.348282883
1.358582727
1.372090396
1.385375059
1.394439925
1.398713354
1.399877907
1.400001473
1.400005018
1.40000504
1.40000504
1.40000504
1.356928849
1.341845469
1.342299075
1.341047089
1.343438748
1.346894308
1.349525581
1.358344492
1.37142287
1.385786462
1.395036256
1.398975972
1.399913878
1.400002656
1.400005026
1.40000504
1.40000504
1.354813841
1.341672492
1.34193475
1.342452469
1.345705955
1.349280753
1.352279185
1.359852648
1.372398011
1.386307135
1.395445633
1.39915152
1.399938443
1.400003496
1.400005031
1.40000504
1.40000504
1.352028683
1.341833112
1.342498425
1.344466672
1.347689674
1.35073523
1.354004343
1.363167692
1.375295729
1.387460802
1.395868678
1.399278633
1.399953833
1.400003996
1.400005035
1.40000504
1.40000504
1.372327645
1.347460201
1.341699731
1.343760933
1.346315528
1.348384287
1.350437014
1.354880757
1.365758306
1.378160808
1.388914573
1.3963823
1.399390376
1.399964685
1.400004304
1.400005037
1.40000504
1.40000504
1.367233808
1.34452934
1.34147171
1.343777146
1.347149494
1.349634056
1.350696544
1.355238709
1.365667375
1.379481041
1.390151169
1.396916621
1.399501318
1.399973932
1.400004523
1.400005038
1.40000504
1.40000504
1.36245835
1.343049521
1.340908879
1.343914882
1.348003696
1.35036426
1.351154267
1.355371075
1.365592944
1.380036058
1.391107564
1.397383899
1.399602974
1.399982109
1.400004692
1.400005039
1.40000504
1.40000504
1.356494192
1.341239817
1.339303087
1.344036336
1.348926116
1.350323392
1.351109187
1.35624571
1.367324819
1.381086079
1.39195943
1.397774673
1.399684807
1.399988431
1.400004813
1.400005039
1.40000504
1.40000504
1.352614318
1.340174349
1.338532274
1.343815448
1.349325065
1.350336949
1.351129779
1.357451557
1.369755465
1.382638972
1.392857696
1.398121174
1.399749735
1.399992911
1.400004892
1.400005039
1.40000504
1.40000504
1.351936973
1.340136125
1.33869088
1.343886307
1.349105158
1.35045806
1.351303264
1.35794795
1.371756155
1.384178537
1.393673099
1.39842486
1.399803847
1.399996196
1.400004943
1.40000504
1.40000504
1.40000504
1.351637253
1.341114835
1.339710669
1.345623021
1.349751859
1.350426962
1.351707512
1.357914695
1.373071946
1.385557327
1.394350934
1.398669951
1.399848599
1.399998731
1.400004977
1.40000504
1.40000504
1.40000504
1.382795464
1.354308034
1.344401386
1.343967388
1.348709833
1.35045527
1.350300773
1.352148702
1.358780959
1.374625724
1.386811951
1.394977366
1.398870452
1.399883829
1.400000645
1.400005001
1.40000504
1.40000504
1.40000504
1.383782894
1.359387031
1.35003533
1.349039387
1.350994805
1.350454538
1.350187905
1.352447423
1.360745892
1.376380494
1.388049112
1.395613251
1.399052368
1.399911452
1.400002016
1.400005016
1.40000504
1.40000504
1.40000504
1.384743688
1.362932209
1.354411644
1.351900565
1.351656614
1.350025537
1.35017139
1.352741265
1.363178273
1.377705887
1.389173451
1.39624697
1.399226742
1.399933829
1.400002978
1.400005025
1.40000504
1.40000504
1.40000504
1.383005009
1.363861792
1.355849071
1.352009793
1.350951931
1.349322234
1.35021667
1.353465681
1.366194242
1.379423581
1.390177701
1.39680461
1.399381977
1.399951866
1.40000365
1.400005031
1.40000504
1.40000504
1.37942912
1.362528089
1.356255483
1.351233972
1.349524814
1.348603068
1.34991348
1.354318158
1.367811007
1.381342547
1.391084892
1.397238737
1.399503606
1.399965652
1.400004112
1.400005035
1.40000504
1.40000504
1.373619366
1.361415458
1.356287289
1.350751491
1.348376088
1.347662892
1.349289565
1.355141457
1.369587031
1.38298316
1.392012433
1.397603871
1.399599083
1.399975941
1.400004424
1.400005037
1.40000504
1.40000504
1.382258058
1.367545185
1.359810503
1.355258135
1.35013435
1.347472539
1.346630554
1.348260708
1.355395297
1.370519317
1.383934212
1.392845868
1.397945359
1.399679146
1.399983804
1.400004637
1.400005038
1.40000504
1.40000504
1.37756424
1.364582792
1.357854851
1.354241045
1.349814214
1.346573701
1.345355058
1.347056199
1.356208255
1.37199537
1.384567463
1.393634732
1.398291135
1.399752425
1.399989995
1.400004782
1.400005039
1.40000504
1.40000504
1.375028375
1.364544165
1.356477423
1.351253532
1.346115023
1.344009089
1.343720494
1.345730751
1.357901735
1.373665976
1.385180236
1.394440516
1.398624506
1.399811799
1.399994441
1.400004877
1.40000504
1.40000504
1.40000504
1.375955176
1.365187047
1.355279466
1.348163567
1.34288351
1.341515706
1.341956511
1.344480325
1.359763026
1.375156935
1.386188592
1.39526781
1.398928526
1.39986493
1.399997938
1.40000494
1.40000504
1.400005041
1.40000504
1.375996909
1.364797063
1.354706624
1.34563573
1.340934989
1.34010123
1.341025703
1.343667757
1.361773757
1.376580296
1.387708869
1.395936227
1.399154463
1.399897563
1.399999983
1.400004976
1.400005041
1.400005041
1.40000504
1.374704235
1.363694269
1.352744089
1.343972026
1.339858875
1.339252032
1.34044765
1.343962762
1.36360461
1.377566483
1.389128718
1.396897708
1.399375642
)
;

boundaryField
{
    inlet
    {
        type            calculated;
        value           nonuniform 0();
    }
    outlet
    {
        type            calculated;
        value           nonuniform 0();
    }
    bottom
    {
        type            calculated;
        value           nonuniform 0();
    }
    top
    {
        type            calculated;
        value           nonuniform 0();
    }
    obstacle
    {
        type            calculated;
        value           nonuniform 0();
    }
    defaultFaces
    {
        type            empty;
    }
    procBoundary16to10
    {
        type            processor;
        value           nonuniform List<scalar> 
18
(
1.400005039
1.40000504
1.357792651
1.360620855
1.35600481
1.349720457
1.347855893
1.347985679
1.351016629
1.358200733
1.371108061
1.385294819
1.395218945
1.399162054
1.399949972
1.400004314
1.400005033
1.400005033
)
;
    }
    procBoundary16to11
    {
        type            processor;
        value           uniform 1.40000504;
    }
    procBoundary16to15
    {
        type            processor;
        value           nonuniform List<scalar> 
35
(
1.377675592
1.375342565
1.37581258
1.376830898
1.377629776
1.377629776
1.406343645
1.401376864
1.397602148
1.392172344
1.386438271
1.381557322
1.376841481
1.376841481
1.401850911
1.400763131
1.398555493
1.391256061
1.384434317
1.382444121
1.382014775
1.382014775
1.407752222
1.405282129
1.402053776
1.398640342
1.394338867
1.389234918
1.389234918
1.400857691
1.392807426
1.38710841
1.384427524
1.379824277
1.384167077
)
;
    }
    procBoundary16to17
    {
        type            processor;
        value           nonuniform List<scalar> 
32
(
1.40000504
1.40000504
1.40000504
1.40000504
1.40000504
1.40000504
1.40000504
1.40000504
1.40000504
1.40000504
1.40000504
1.40000504
1.40000504
1.40000504
1.40000504
1.40000504
1.40000504
1.40000504
1.40000504
1.40000504
1.40000504
1.40000504
1.40000504
1.40000504
1.40000504
1.40000504
1.40000504
1.40000504
1.40000504
1.40000504
1.40000504
1.40000504
)
;
    }
    procBoundary16to22
    {
        type            processor;
        value           nonuniform List<scalar> 
20
(
1.399939812
1.400002738
1.40000502
1.400005041
1.400005041
1.40000504
1.374964661
1.365105304
1.353527344
1.343986672
1.339867485
1.339295012
1.340562328
1.344727587
1.362862576
1.377875995
1.389478989
1.39659005
1.399939812
1.399282624
)
;
    }
}


// ************************************************************************* //
