/*--------------------------------*- C++ -*----------------------------------*\
  =========                 |
  \\      /  F ield         | OpenFOAM: The Open Source CFD Toolbox
   \\    /   O peration     | Website:  https://openfoam.org
    \\  /    A nd           | Version:  7
     \\/     M anipulation  |
\*---------------------------------------------------------------------------*/
FoamFile
{
    version     2.0;
    format      ascii;
    class       volVectorField;
    location    "2.2";
    object      U;
}
// * * * * * * * * * * * * * * * * * * * * * * * * * * * * * * * * * * * * * //

dimensions      [0 1 -1 0 0 0 0];

internalField   nonuniform List<vector> 
2222
(
(3.13459344 -0.9546443558 0)
(3.135670956 -0.9496221967 0)
(3.134452399 -0.9494062016 0)
(3.134604987 -0.9452059058 0)
(3.134460764 -0.9434751379 0)
(3.033064648 -1.246172392 0)
(3.161084948 -1.274253015 0)
(3.336733486 -1.26466869 0)
(3.462859281 -1.288784135 0)
(3.373720706 -1.346276826 0)
(3.187182231 -1.236163213 0)
(3.069183924 -1.145398517 0)
(3.010920493 -1.097847189 0)
(2.993755596 -1.0842011 0)
(2.997193974 -1.081341959 0)
(3.018215819 -1.074135283 0)
(3.04480333 -1.065219855 0)
(3.073830935 -1.060966234 0)
(3.10286069 -1.049746635 0)
(3.118847679 -1.040007419 0)
(3.120601573 -1.031101551 0)
(3.124890163 -1.029036825 0)
(3.132106974 -1.008786802 0)
(3.133485864 -0.9994068028 0)
(3.128713503 -0.9983979713 0)
(3.127967341 -0.99145496 0)
(3.133040588 -0.9807105602 0)
(3.134440015 -0.9752115362 0)
(3.130800532 -0.9741752859 0)
(3.130004568 -0.9698549917 0)
(3.133507215 -0.9618259054 0)
(3.135295594 -0.9563049003 0)
(3.13332047 -0.9539810933 0)
(3.132183854 -0.9517347951 0)
(3.134099782 -0.9457656441 0)
(3.135799878 -0.9422129539 0)
(3.13481803 -0.9406782707 0)
(3.134202958 -0.937126109 0)
(3.134835329 -0.9355419379 0)
(3.030569147 -1.243163642 0)
(3.162703273 -1.279284326 0)
(3.34677387 -1.276331643 0)
(3.472005576 -1.271712553 0)
(3.376557592 -1.332490151 0)
(3.187747746 -1.21901381 0)
(3.063610299 -1.135576468 0)
(3.005862649 -1.099571524 0)
(2.986409406 -1.083901765 0)
(2.993895654 -1.074367195 0)
(3.019557193 -1.063273313 0)
(3.046885336 -1.054501597 0)
(3.075435138 -1.049978646 0)
(3.097260773 -1.044862628 0)
(3.115657106 -1.037150619 0)
(3.119631181 -1.032266549 0)
(3.121328087 -1.029253897 0)
(3.131386916 -1.011071365 0)
(3.135035626 -1.001971245 0)
(3.129247543 -0.9993681115 0)
(3.127834339 -0.9928999281 0)
(3.132632405 -0.9820831637 0)
(3.13516201 -0.9747233975 0)
(3.131521978 -0.970482651 0)
(3.129791701 -0.9643984053 0)
(3.133105598 -0.9571940832 0)
(3.135278901 -0.9531613686 0)
(3.134045035 -0.9523189716 0)
(3.132520421 -0.9463463329 0)
(3.133525136 -0.9441767763 0)
(3.135922846 -0.9426817086 0)
(3.135216287 -0.9370742127 0)
(3.134106854 -0.9362388318 0)
(3.134729191 -0.9317303085 0)
(3.032277583 -1.224717858 0)
(3.155909148 -1.283803433 0)
(3.349992897 -1.286904491 0)
(3.476933942 -1.261503313 0)
(3.38167269 -1.322458865 0)
(3.182560216 -1.20311186 0)
(3.057520487 -1.138208554 0)
(2.994145801 -1.096833822 0)
(2.978957976 -1.073163206 0)
(3.000628122 -1.05974731 0)
(3.029384223 -1.046158714 0)
(3.056430953 -1.038337408 0)
(3.078993056 -1.035837239 0)
(3.100503206 -1.034389887 0)
(3.115758476 -1.024928307 0)
(3.116829192 -1.02498594 0)
(3.120134249 -1.020881295 0)
(3.127736375 -1.008839529 0)
(3.132085366 -0.9999573205 0)
(3.126268448 -0.9966516731 0)
(3.124438912 -0.9910286265 0)
(3.129157022 -0.9805143208 0)
(3.132549919 -0.9734889731 0)
(3.129969637 -0.9705090553 0)
(3.128654443 -0.9658116324 0)
(3.131346081 -0.9593774965 0)
(3.133799626 -0.9540013646 0)
(3.132508188 -0.9518868405 0)
(3.131990741 -0.9470787815 0)
(3.131551509 -0.9450710473 0)
(3.134142434 -0.9404876513 0)
(3.134074123 -0.9373142021 0)
(3.132058298 -0.9362906172 0)
(3.133641902 -0.9320661073 0)
(3.026554593 -1.209058229 0)
(3.143731009 -1.288338118 0)
(3.351950372 -1.2858152 0)
(3.481513586 -1.251968121 0)
(3.403905255 -1.314706375 0)
(3.18392268 -1.198295721 0)
(3.046337911 -1.129698459 0)
(2.993778969 -1.084822182 0)
(2.984560166 -1.057068758 0)
(3.006099865 -1.039481972 0)
(3.034448048 -1.029345878 0)
(3.060559566 -1.021902603 0)
(3.080715216 -1.023137561 0)
(3.104652006 -1.019728743 0)
(3.120683538 -1.011482017 0)
(3.123028919 -1.010487824 0)
(3.124725912 -1.006253763 0)
(3.128335677 -0.9993158011 0)
(3.132925876 -0.9893197523 0)
(3.128885554 -0.9856429732 0)
(3.125384095 -0.9814434568 0)
(3.128600794 -0.9719124411 0)
(3.132761199 -0.9646134642 0)
(3.130000001 -0.9627887551 0)
(3.127209284 -0.9602585319 0)
(3.129092583 -0.9543753394 0)
(3.132695334 -0.9476682528 0)
(3.132884868 -0.9443606502 0)
(3.130974857 -0.9421902148 0)
(3.131226195 -0.9392317518 0)
(3.134574962 -0.9329536692 0)
(3.133889296 -0.9315810225 0)
(3.132285424 -0.9299448032 0)
(3.132458271 -0.9272732946 0)
(3.019084929 -1.207119057 0)
(3.133330292 -1.289139037 0)
(3.360385533 -1.27549237 0)
(3.497264402 -1.245207332 0)
(3.401041221 -1.311432106 0)
(3.176821173 -1.196046545 0)
(3.041486264 -1.112851741 0)
(2.998707247 -1.064232172 0)
(2.988974918 -1.037975791 0)
(3.009165593 -1.023456952 0)
(3.037141098 -1.018917298 0)
(3.063760624 -1.018971642 0)
(3.082861851 -1.020996916 0)
(3.104306414 -1.006340165 0)
(3.120875453 -0.9970042168 0)
(3.128016265 -0.9936666098 0)
(3.127677068 -0.9909997243 0)
(3.131477649 -0.9862332353 0)
(3.136637772 -0.9747982958 0)
(3.134461288 -0.9702665863 0)
(3.129763154 -0.968547078 0)
(3.130808703 -0.9599732885 0)
(3.135805753 -0.9520391548 0)
(3.134419617 -0.9507220443 0)
(3.130502318 -0.9498224787 0)
(3.131036965 -0.9444976148 0)
(3.135009246 -0.937289655 0)
(3.136429123 -0.9337493365 0)
(3.133755587 -0.9328549328 0)
(3.133892387 -0.9291776399 0)
(3.136294633 -0.923426857 0)
(3.136916498 -0.9226994818 0)
(3.135418692 -0.9202513986 0)
(3.134165155 -0.9190340679 0)
(3.136091329 -0.915085666 0)
(3.01248813 -1.206819507 0)
(3.129041933 -1.289134538 0)
(3.373720442 -1.266064348 0)
(3.518738193 -1.259792242 0)
(3.379015332 -1.299667353 0)
(3.167258982 -1.179056153 0)
(3.045896564 -1.094970955 0)
(2.997309801 -1.045578535 0)
(2.990040614 -1.022514251 0)
(3.012403671 -1.019587332 0)
(3.038205854 -1.025538591 0)
(3.061115648 -1.022751297 0)
(3.081945674 -1.019082171 0)
(3.103668482 -1.004284403 0)
(3.120926947 -0.9909710884 0)
(3.127985072 -0.979307644 0)
(3.126919213 -0.9792448325 0)
(3.131193122 -0.9735269482 0)
(3.136805236 -0.9611064893 0)
(3.135576531 -0.9555721482 0)
(3.13066371 -0.9556530569 0)
(3.130826872 -0.9489746052 0)
(3.135512837 -0.9398636623 0)
(3.135965439 -0.9377585121 0)
(3.13292524 -0.9378852518 0)
(3.132660052 -0.9338072351 0)
(3.135666295 -0.9263089812 0)
(3.136857211 -0.922700471 0)
(3.135675419 -0.9226541763 0)
(3.135096273 -0.919509264 0)
(3.135622917 -0.9141796916 0)
(3.137512079 -0.913007656 0)
(3.136470579 -0.9109277035 0)
(3.134985295 -0.9104345463 0)
(3.13577975 -0.9064156936 0)
(3.001140706 -1.216948403 0)
(3.132077585 -1.301139946 0)
(3.381377432 -1.26178408 0)
(3.519739616 -1.26281161 0)
(3.37654143 -1.280764084 0)
(3.165916385 -1.156677063 0)
(3.050114797 -1.074742292 0)
(2.991991963 -1.029280314 0)
(2.991471162 -1.022403926 0)
(3.007669222 -1.024547141 0)
(3.035094436 -1.021267453 0)
(3.061680952 -1.011710609 0)
(3.083538567 -1.006155319 0)
(3.101048833 -1.006045599 0)
(3.121601459 -0.9941614115 0)
(3.128957805 -0.9783793605 0)
(3.12617654 -0.9801376564 0)
(3.130127371 -0.9684129456 0)
(3.13645979 -0.9562763042 0)
(3.136162323 -0.9486585862 0)
(3.130476747 -0.9488763492 0)
(3.129540022 -0.9445267132 0)
(3.134611799 -0.9349964552 0)
(3.135502131 -0.9291475197 0)
(3.132073763 -0.9277208138 0)
(3.13140321 -0.9253411695 0)
(3.134891229 -0.9201747312 0)
(3.136964442 -0.9167281787 0)
(3.134759009 -0.9140807451 0)
(3.13404102 -0.9137111145 0)
(3.135960568 -0.9128370008 0)
(3.137310349 -0.906723534 0)
(3.135962921 -0.9058712987 0)
(3.134371781 -0.9048860243 0)
(3.135096081 -0.9026996277 0)
(2.995726291 -1.226742699 0)
(3.139519151 -1.309857007 0)
(3.387796392 -1.257512803 0)
(3.520490776 -1.251190652 0)
(3.385334057 -1.243481362 0)
(3.166657399 -1.13660762 0)
(3.053594946 -1.060269555 0)
(2.987191009 -1.028014853 0)
(2.982540042 -1.022347 0)
(3.00454491 -1.014996603 0)
(3.041752636 -1.005925796 0)
(3.07075068 -0.992932172 0)
(3.089564664 -0.987595493 0)
(3.101001211 -0.9958717737 0)
(3.120343936 -0.9856576009 0)
(3.126796609 -0.9767956128 0)
(3.123874361 -0.9756970661 0)
(3.127840494 -0.9688472322 0)
(3.134926239 -0.9582630831 0)
(3.135665086 -0.9500978155 0)
(3.129886788 -0.9496283303 0)
(3.127875676 -0.9455040221 0)
(3.132768562 -0.936278588 0)
(3.135219046 -0.9300012767 0)
(3.132729407 -0.9270835519 0)
(3.130461869 -0.9256507898 0)
(3.133280306 -0.9214636523 0)
(3.136647975 -0.9175452734 0)
(3.135373997 -0.9139513843 0)
(3.132692897 -0.9143461659 0)
(3.134266678 -0.9119193744 0)
(3.13699621 -0.9075860435 0)
(3.135714915 -0.9065528205 0)
(3.133790576 -0.9049273311 0)
(3.133953873 -0.9033216305 0)
(2.995573774 -1.224604574 0)
(3.134913071 -1.308577263 0)
(3.390165825 -1.253981802 0)
(3.530000138 -1.227245419 0)
(3.400404491 -1.230102482 0)
(3.157641454 -1.112380388 0)
(3.048088905 -1.055054323 0)
(2.973920651 -1.023748636 0)
(2.978063795 -1.009044043 0)
(3.014338862 -0.9964617672 0)
(3.049440412 -0.9843909437 0)
(3.075581696 -0.9724044404 0)
(3.092593902 -0.9688093542 0)
(3.106017119 -0.9789070868 0)
(3.122993861 -0.9706469103 0)
(3.129289209 -0.9640205902 0)
(3.127530069 -0.9612089274 0)
(3.126443506 -0.9601972261 0)
(3.133288503 -0.9502672033 0)
(3.135263929 -0.9416808846 0)
(3.130007931 -0.9412470464 0)
(3.127581624 -0.9379107544 0)
(3.131246383 -0.9294887025 0)
(3.134133954 -0.9243224982 0)
(3.131703593 -0.9234595232 0)
(3.129513304 -0.9219066014 0)
(3.131853217 -0.9165957106 0)
(3.13549146 -0.911509146 0)
(3.134634323 -0.9104079897 0)
(3.132533328 -0.9090526576 0)
(3.134044188 -0.9049048548 0)
(3.135837446 -0.9029935935 0)
(3.135512971 -0.9012594842 0)
(3.133567367 -0.9001721566 0)
(3.133567617 -0.8982892297 0)
(2.998865731 -1.201049045 0)
(3.117906818 -1.302766784 0)
(3.391643435 -1.272017254 0)
(3.532307787 -1.20341197 0)
(3.397461858 -1.204123053 0)
(3.151740607 -1.104839195 0)
(3.033549356 -1.045882987 0)
(2.973846894 -1.007207744 0)
(2.985043582 -0.9866021175 0)
(3.020941212 -0.9734488029 0)
(3.050766261 -0.9658119053 0)
(3.077259751 -0.9586287353 0)
(3.095441582 -0.9594596761 0)
(3.107670003 -0.9597794837 0)
(3.123045078 -0.9541731858 0)
(3.134235084 -0.9468013566 0)
(3.132665783 -0.9426413511 0)
(3.129093956 -0.9452645088 0)
(3.135206889 -0.9372209997 0)
(3.138606144 -0.9275415504 0)
(3.134398848 -0.9264866135 0)
(3.130703879 -0.9247194926 0)
(3.132789789 -0.9185336775 0)
(3.136378708 -0.9128936728 0)
(3.133934101 -0.9126947685 0)
(3.131661013 -0.9121831198 0)
(3.133384402 -0.9073827727 0)
(3.137065379 -0.901514529 0)
(3.136609489 -0.9008257711 0)
(3.13500052 -0.8994775921 0)
(3.135593253 -0.89581413 0)
(3.137211469 -0.8945694755 0)
(3.137640887 -0.8920730281 0)
(3.135757098 -0.8917165358 0)
(3.135142842 -0.8898912664 0)
(2.986649084 -1.158719491 0)
(3.105727377 -1.296832307 0)
(3.411386699 -1.287942813 0)
(3.545500912 -1.174971161 0)
(3.384537067 -1.201323801 0)
(3.13551669 -1.098703957 0)
(3.027782612 -1.034258806 0)
(2.980493003 -0.978582687 0)
(2.98887344 -0.9622941671 0)
(3.021327882 -0.9553549202 0)
(3.050871419 -0.962340209 0)
(3.080018389 -0.9630118698 0)
(3.098238689 -0.9592268705 0)
(3.107713239 -0.9466835946 0)
(3.119609144 -0.9429968845 0)
(3.132867458 -0.9295776604 0)
(3.133211026 -0.9265518616 0)
(3.129919819 -0.9304593289 0)
(3.134432631 -0.9221598556 0)
(3.139174659 -0.912470247 0)
(3.136643011 -0.9117589995 0)
(3.13175937 -0.9108923385 0)
(3.132415705 -0.9057065181 0)
(3.13725497 -0.9005556534 0)
(3.136651906 -0.9005367915 0)
(3.133410804 -0.8992749916 0)
(3.133758329 -0.8961315488 0)
(3.137272908 -0.8913332739 0)
(3.138482849 -0.8905668557 0)
(3.135647114 -0.8881820397 0)
(3.134770898 -0.886547621 0)
(3.137463053 -0.8853793977 0)
(3.137980593 -0.8820666574 0)
(3.136192217 -0.8820529811 0)
(3.1352943 -0.8816132925 0)
(2.97108862 -1.142762416 0)
(3.104221563 -1.282491411 0)
(3.43297146 -1.278146393 0)
(3.552666495 -1.154575893 0)
(3.367407847 -1.183943184 0)
(3.123806777 -1.073298535 0)
(3.037487423 -1.011264272 0)
(2.977604109 -0.9529891772 0)
(2.988584347 -0.9461720361 0)
(3.020421875 -0.9560334597 0)
(3.049989372 -0.963739278 0)
(3.08023685 -0.9559893222 0)
(3.100330498 -0.9464893401 0)
(3.108994294 -0.9469678513 0)
(3.120852733 -0.9445740766 0)
(3.132306593 -0.924672023 0)
(3.132772694 -0.9209743684 0)
(3.127770894 -0.9193673127 0)
(3.132497355 -0.9141882999 0)
(3.13759351 -0.9031855719 0)
(3.135078949 -0.9007151454 0)
(3.130992319 -0.9031625533 0)
(3.132044142 -0.8993755505 0)
(3.135250874 -0.8909949968 0)
(3.135097607 -0.8891544672 0)
(3.133330444 -0.8907799266 0)
(3.133233374 -0.888841645 0)
(3.135631933 -0.884446876 0)
(3.136649761 -0.8815156207 0)
(3.135559036 -0.8822209622 0)
(3.134380056 -0.8835388496 0)
(3.136162797 -0.8788559115 0)
(3.137667426 -0.8771393027 0)
(3.135938771 -0.8763891489 0)
(3.133886026 -0.8763876989 0)
(2.967027997 -1.135668801 0)
(3.102160693 -1.269868146 0)
(3.446372767 -1.254414657 0)
(3.560703929 -1.154836446 0)
(3.383679177 -1.151262099 0)
(3.122221522 -1.038930066 0)
(3.043917783 -0.9822405965 0)
(2.970901612 -0.9344092514 0)
(2.985686591 -0.948789738 0)
(3.020170535 -0.9508956391 0)
(3.053271182 -0.9476837897 0)
(3.084300578 -0.9372802027 0)
(3.105236885 -0.9263699836 0)
(3.110791163 -0.9357411596 0)
(3.121291004 -0.934743741 0)
(3.131932311 -0.924597941 0)
(3.13328335 -0.9181074869 0)
(3.128584608 -0.917171392 0)
(3.130895072 -0.9140464041 0)
(3.137282825 -0.9042941794 0)
(3.135930417 -0.9002883919 0)
(3.130389347 -0.9008761446 0)
(3.131133177 -0.8988660377 0)
(3.135867013 -0.8910780431 0)
(3.13517323 -0.8870343455 0)
(3.131966633 -0.8868060819 0)
(3.132228424 -0.8884127807 0)
(3.136210153 -0.8838640655 0)
(3.136669213 -0.8803761726 0)
(3.134801901 -0.8807698822 0)
(3.133708455 -0.8812569584 0)
(3.13615986 -0.8786456507 0)
(3.137270214 -0.876461264 0)
(3.136076617 -0.875868941 0)
(3.133944376 -0.8756646049 0)
(3.134970383 -0.8739868501 0)
(2.959204779 -1.135220215 0)
(3.09219529 -1.252463126 0)
(3.462581724 -1.229423323 0)
(3.575724969 -1.156432366 0)
(3.396171962 -1.100804059 0)
(3.119482638 -1.005997966 0)
(3.037124786 -0.9598249134 0)
(2.973210492 -0.9320223709 0)
(2.986645131 -0.9366600242 0)
(3.025874532 -0.9294565868 0)
(3.0595978 -0.9226037896 0)
(3.086509242 -0.9150354092 0)
(3.107518429 -0.9049770341 0)
(3.11631945 -0.9159435507 0)
(3.123421626 -0.9168774243 0)
(3.132908245 -0.9122954002 0)
(3.135156008 -0.9042563839 0)
(3.129773693 -0.9067496309 0)
(3.130176554 -0.9050718232 0)
(3.136310247 -0.8966782118 0)
(3.13680474 -0.8919609843 0)
(3.131718283 -0.8927060385 0)
(3.130912307 -0.8906053406 0)
(3.134936567 -0.88577736 0)
(3.135884509 -0.8826484291 0)
(3.132638558 -0.8827105453 0)
(3.132203457 -0.8817918985 0)
(3.135511235 -0.87856274 0)
(3.137194278 -0.8756123771 0)
(3.135381935 -0.874980229 0)
(3.134605972 -0.8734037791 0)
(3.135526103 -0.8733996844 0)
(3.137384612 -0.8711049131 0)
(3.136792027 -0.8701595807 0)
(3.134640747 -0.8699632858 0)
(3.134945293 -0.8687644043 0)
(2.961550764 -1.181586155 0)
(3.096799971 -1.279842916 0)
(3.469796461 -1.19797909 0)
(3.589414303 -1.135120335 0)
(3.381606979 -1.044789552 0)
(3.107416549 -0.9781239529 0)
(3.025577149 -0.9517828237 0)
(2.975100725 -0.9131822977 0)
(2.997089999 -0.9090694204 0)
(3.031230601 -0.9015427752 0)
(3.059972286 -0.8975685863 0)
(3.085282969 -0.89896951 0)
(3.110644494 -0.8947973667 0)
(3.117726843 -0.8931312335 0)
(3.122901514 -0.8987085021 0)
(3.134676309 -0.895638005 0)
(3.137316163 -0.8854436844 0)
(3.132842053 -0.8892167188 0)
(3.131267222 -0.8903744096 0)
(3.137305852 -0.8837971095 0)
(3.139083764 -0.8782407193 0)
(3.134524654 -0.8787435366 0)
(3.132035865 -0.8786909713 0)
(3.135677033 -0.8750902755 0)
(3.137603446 -0.8723039558 0)
(3.134668848 -0.8723243145 0)
(3.13352545 -0.8719791987 0)
(3.136071417 -0.8685690965 0)
(3.138485125 -0.8665847834 0)
(3.137294565 -0.8655634448 0)
(3.13582125 -0.864309995 0)
(3.135986743 -0.8647968044 0)
(3.138343371 -0.8626315803 0)
(3.138510776 -0.8621109387 0)
(3.135983274 -0.8611225922 0)
(3.135408797 -0.8607239771 0)
(2.969896958 -1.191920194 0)
(3.106517833 -1.301172289 0)
(3.47302505 -1.17356696 0)
(3.594330305 -1.099115382 0)
(3.371690816 -1.019325833 0)
(3.095877249 -0.9686162393 0)
(3.022695441 -0.9322024959 0)
(2.98037542 -0.8796243112 0)
(3.002891117 -0.8764192572 0)
(3.033331262 -0.8789830075 0)
(3.058984654 -0.8892436001 0)
(3.086410915 -0.8973451872 0)
(3.1143451 -0.8907888498 0)
(3.119175284 -0.8809937734 0)
(3.120809211 -0.8861975501 0)
(3.132607981 -0.8794644466 0)
(3.137870039 -0.8719500008 0)
(3.133491665 -0.8719977599 0)
(3.12985771 -0.8739315748 0)
(3.136279548 -0.8706453203 0)
(3.139345779 -0.8649533585 0)
(3.134842396 -0.8645023134 0)
(3.130830338 -0.8656388659 0)
(3.135148393 -0.8638613173 0)
(3.138622909 -0.8608895969 0)
(3.135187081 -0.8594894103 0)
(3.132736464 -0.8597871509 0)
(3.135583043 -0.8598840677 0)
(3.138665052 -0.8567431643 0)
(3.137024022 -0.855299076 0)
(3.134848463 -0.8556683683 0)
(3.135588926 -0.8561868621 0)
(3.137541529 -0.8538110079 0)
(3.13770863 -0.8526641558 0)
(3.136005909 -0.853583992 0)
(3.135051882 -0.8536174025 0)
(2.980307674 -1.156924518 0)
(3.088615163 -1.263002001 0)
(3.498055708 -1.176732266 0)
(3.594666231 -1.028640371 0)
(3.357381495 -0.9894560643 0)
(3.082217506 -0.9337784636 0)
(3.019869687 -0.8959644963 0)
(2.982435716 -0.8434559002 0)
(3.00524124 -0.8589611308 0)
(3.034691326 -0.8738974245 0)
(3.060143568 -0.8803033372 0)
(3.087166838 -0.8826228444 0)
(3.116440486 -0.8746926476 0)
(3.122122594 -0.8760762254 0)
(3.122751722 -0.8804831563 0)
(3.132127175 -0.8758015335 0)
(3.137920232 -0.8661378918 0)
(3.134254723 -0.8636820808 0)
(3.129194308 -0.866895934 0)
(3.135141071 -0.864937265 0)
(3.139078469 -0.8584260414 0)
(3.135683245 -0.8584693764 0)
(3.130606198 -0.860597755 0)
(3.13471043 -0.8585916098 0)
(3.138294018 -0.853149062 0)
(3.136088771 -0.8532846337 0)
(3.132838999 -0.8552045319 0)
(3.135132854 -0.8550847034 0)
(3.138524404 -0.8518362124 0)
(3.13771809 -0.8518351574 0)
(3.134867274 -0.8532206144 0)
(3.135551411 -0.8525473693 0)
(3.137646126 -0.8516142596 0)
(3.138230717 -0.8499260491 0)
(3.136020236 -0.8497617178 0)
(3.134793073 -0.8503479198 0)
(2.973528662 -1.052940111 0)
(3.077081051 -1.211581467 0)
(3.511407226 -1.16416095 0)
(3.591364986 -0.9678811278 0)
(3.347308941 -0.9224264638 0)
(3.069327492 -0.8835588036 0)
(3.007110575 -0.8598896364 0)
(2.984080356 -0.8288714941 0)
(3.006650875 -0.847449315 0)
(3.03758674 -0.8556646626 0)
(3.064498955 -0.8567302155 0)
(3.088608041 -0.8595267978 0)
(3.117731 -0.8547363238 0)
(3.126407292 -0.8592176738 0)
(3.125211066 -0.8640681087 0)
(3.130257496 -0.8645513179 0)
(3.137636472 -0.8590769232 0)
(3.135391796 -0.8562734705 0)
(3.129439262 -0.8585520055 0)
(3.132722127 -0.8581380425 0)
(3.138523587 -0.8537982715 0)
(3.136440555 -0.851757312 0)
(3.13080334 -0.8530759303 0)
(3.132968115 -0.8529333452 0)
(3.137860813 -0.8493565369 0)
(3.136594584 -0.8480089445 0)
(3.132965749 -0.8492282391 0)
(3.134185977 -0.8500690985 0)
(3.138038228 -0.8477953551 0)
(3.137945875 -0.8468575467 0)
(3.13536296 -0.8467901117 0)
(3.134930169 -0.8477744495 0)
(3.137050479 -0.8465567178 0)
(3.138119043 -0.8454459958 0)
(3.136302 -0.8453996714 0)
(3.13494831 -0.8455086998 0)
(2.94783758 -0.9658634263 0)
(3.070669153 -1.09590122 0)
(3.540421084 -1.102325291 0)
(3.559077282 -0.9253838545 0)
(3.324011956 -0.8717403135 0)
(3.063699934 -0.854587873 0)
(2.991866595 -0.8434795401 0)
(2.980641891 -0.8097243101 0)
(3.012223338 -0.8209351513 0)
(3.041990756 -0.8288256543 0)
(3.068310465 -0.8332792009 0)
(3.088190362 -0.8428290754 0)
(3.118247075 -0.8442809278 0)
(3.129490422 -0.8389424981 0)
(3.127103153 -0.8451980519 0)
(3.129916679 -0.8486128709 0)
(3.138322234 -0.8442039179 0)
(3.1375173 -0.8415620078 0)
(3.130948606 -0.84356284 0)
(3.131439572 -0.8459285209 0)
(3.138241605 -0.8430809125 0)
(3.138008161 -0.8404181558 0)
(3.132136507 -0.8408047342 0)
(3.131886894 -0.8426346335 0)
(3.137426358 -0.8416308711 0)
(3.137614905 -0.8396684959 0)
(3.134018214 -0.83942847 0)
(3.133782953 -0.8407587072 0)
(3.137667508 -0.8407821016 0)
(3.138782833 -0.8385326988 0)
(3.136268827 -0.8380303497 0)
(3.134819736 -0.8397456994 0)
(3.136856464 -0.8398131639 0)
(3.13849785 -0.8381023429 0)
(3.137024329 -0.8377304038 0)
(3.135251377 -0.83879181 0)
(2.996318192 -0.8264103367 0)
(3.046906088 -0.9318204147 0)
(3.589170243 -0.9842550121 0)
(3.527525301 -0.8446587625 0)
(3.288004826 -0.8305373776 0)
(3.052216547 -0.8257510599 0)
(2.975212138 -0.8176906906 0)
(2.97841642 -0.7792989606 0)
(3.015259359 -0.7969279223 0)
(3.041948532 -0.8126919925 0)
(3.066426505 -0.8195155101 0)
(3.084988388 -0.8288703619 0)
(3.113300928 -0.8318232911 0)
(3.128959908 -0.8287820372 0)
(3.12633702 -0.8321607314 0)
(3.127580276 -0.8374683934 0)
(3.13566348 -0.834695257 0)
(3.137603519 -0.8297513581 0)
(3.131560909 -0.8325338119 0)
(3.1295692 -0.8368875924 0)
(3.136182973 -0.8344925992 0)
(3.138127814 -0.8308961322 0)
(3.132437221 -0.8323765875 0)
(3.130618666 -0.8357218702 0)
(3.135979235 -0.8343639217 0)
(3.137979796 -0.8319198001 0)
(3.134301623 -0.8325415414 0)
(3.132984795 -0.8351218864 0)
(3.136455774 -0.8346610752 0)
(3.138758895 -0.833065379 0)
(3.136146012 -0.8330545615 0)
(3.134321932 -0.8345313028 0)
(3.13570159 -0.8349870978 0)
(3.138214261 -0.8339436786 0)
(3.136959586 -0.8336274647 0)
(3.134889703 -0.8341933366 0)
(2.999436877 -0.685643664 0)
(3.073850072 -0.8511082563 0)
(3.540838116 -0.8956969394 0)
(3.462122129 -0.8083027303 0)
(3.237797249 -0.804762165 0)
(3.040897825 -0.8008672404 0)
(2.960729503 -0.800858647 0)
(2.967703096 -0.7686523975 0)
(3.0068036 -0.7858711713 0)
(3.033491322 -0.8029984643 0)
(3.05903517 -0.8093202484 0)
(3.07877553 -0.8184550778 0)
(3.105039355 -0.8252887699 0)
(3.12241009 -0.822520516 0)
(3.121487207 -0.8244872672 0)
(3.121543899 -0.8318340752 0)
(3.127395751 -0.8312061429 0)
(3.132864164 -0.8259105437 0)
(3.128882972 -0.8271718036 0)
(3.124956039 -0.8330482206 0)
(3.130109293 -0.8322953679 0)
(3.134764494 -0.8282482413 0)
(3.130298907 -0.8285428546 0)
(3.127271036 -0.8324599062 0)
(3.131158702 -0.8325782394 0)
(3.135496764 -0.8298351535 0)
(3.132592067 -0.8296284238 0)
(3.130568267 -0.8323012907 0)
(3.132661531 -0.832925659 0)
(3.136553468 -0.8312505555 0)
(3.134470359 -0.8306362915 0)
(3.132230355 -0.8323460512 0)
(3.132826585 -0.8332294664 0)
(3.136147784 -0.8322889854 0)
(3.135387095 -0.8316994227 0)
(3.132899898 -0.8323743448 0)
(2.954036441 0.06006106381 0)
(3.015382418 -0.4822359357 0)
(3.083603211 -0.2356671318 0)
(2.830414224 -0.3974763468 0)
(2.79696288 -0.5533002395 0)
(2.769136204 -0.6376915173 0)
(2.799806314 -0.6504311303 0)
(2.833466456 -0.6471447647 0)
(2.883740822 -0.6732958863 0)
(2.921483863 -0.6988223553 0)
(2.953403909 -0.7176997864 0)
(2.983557417 -0.7295249509 0)
(3.007819127 -0.745434319 0)
(3.030527329 -0.7505261265 0)
(3.042399968 -0.7532802885 0)
(3.051066484 -0.766047624 0)
(3.054160698 -0.7701230646 0)
(3.065802228 -0.7704527716 0)
(3.070889512 -0.7729424775 0)
(3.071327076 -0.7799363689 0)
(3.072591239 -0.7822573083 0)
(3.081588724 -0.7830659633 0)
(3.084718397 -0.7842904969 0)
(3.084159303 -0.788126076 0)
(3.084225427 -0.7902300131 0)
(3.0909174 -0.7913088796 0)
(3.094095554 -0.7918064 0)
(3.094213195 -0.7940459087 0)
(3.093844757 -0.7959065473 0)
(3.098172302 -0.79705597 0)
(3.100979166 -0.7973279496 0)
(3.10126765 -0.7989367572 0)
(3.100413937 -0.8006445231 0)
(3.102083683 -0.8016299701 0)
(3.104660076 -0.8020559571 0)
(3.105461417 -0.8029892338 0)
(3.105094552 -0.8036555868 0)
(2.896118558 0.2283122437 0)
(2.934879176 0.1169543179 0)
(2.993439977 -0.1467693393 0)
(2.981660947 -0.4105190266 0)
(2.977188391 -0.5416999003 0)
(3.005255781 -0.5930189297 0)
(3.039577982 -0.6259690381 0)
(3.061090939 -0.6513550236 0)
(3.087533343 -0.6974690976 0)
(3.109580641 -0.7209610135 0)
(3.129469819 -0.7259220266 0)
(3.141033026 -0.7453627528 0)
(3.144034456 -0.7591427429 0)
(3.151596446 -0.7581710622 0)
(3.152377604 -0.7618038881 0)
(3.14302309 -0.7768316743 0)
(3.142035331 -0.7783027239 0)
(3.148809296 -0.7739747726 0)
(3.146880278 -0.7785709559 0)
(3.139644231 -0.7874055884 0)
(3.139191795 -0.78851347 0)
(3.145107113 -0.7858795614 0)
(3.144152057 -0.7892864595 0)
(3.140340844 -0.7949221517 0)
(3.13972861 -0.7967164092 0)
(3.14351785 -0.7955515516 0)
(3.143004211 -0.7969493355 0)
(3.140417854 -0.7995155704 0)
(3.139782368 -0.8017046095 0)
(3.142132521 -0.8014024661 0)
(3.142513386 -0.8018535715 0)
(3.140109556 -0.8039502591 0)
(3.139344068 -0.8057495766 0)
(3.140435696 -0.8056613901 0)
(3.141472955 -0.8052801188 0)
(3.139445937 -0.8073791916 0)
(3.138300836 -0.8088188416 0)
(2.884071336 0.2621400176 0)
(2.906130536 0.2155547009 0)
(2.948638078 0.1025938847 0)
(2.984208412 -0.02407537344 0)
(3.006676777 -0.1237092256 0)
(3.020892033 -0.1788406659 0)
(3.045165129 -0.2766593365 0)
(3.086120605 -0.3904348648 0)
(3.10757133 -0.4397746248 0)
(3.124821216 -0.4901519594 0)
(3.131269393 -0.5178891857 0)
(3.131349782 -0.5408901452 0)
(3.131025123 -0.5813909705 0)
(3.131300658 -0.5917959235 0)
(3.130536021 -0.5906674468 0)
(3.128198437 -0.6232704358 0)
(3.124276756 -0.6445697614 0)
(3.129110052 -0.6443772019 0)
(3.132610632 -0.6494258416 0)
(3.129143302 -0.6658573266 0)
(3.125748975 -0.6792358296 0)
(3.130040619 -0.6812369001 0)
(3.133923657 -0.687162315 0)
(3.13203473 -0.6940582451 0)
(3.128934659 -0.7047075013 0)
(3.131006301 -0.7068570873 0)
(3.133846304 -0.7098715585 0)
(3.132930259 -0.7143489253 0)
(3.130938135 -0.7220215103 0)
(3.131680965 -0.724376591 0)
(3.133792604 -0.7265280307 0)
(3.132996455 -0.7302775529 0)
(3.13160231 -0.7355100893 0)
(3.131601351 -0.7380972226 0)
(3.133531148 -0.7392247898 0)
(3.133069813 -0.7424377018 0)
(3.131986218 -0.7458030963 0)
(2.886899671 0.2643885234 0)
(2.891414073 0.2551346181 0)
(2.912427557 0.2114413404 0)
(2.953406049 0.1200080995 0)
(3.000714055 -0.01018314645 0)
(3.034804908 -0.1484934351 0)
(3.061885485 -0.2699194617 0)
(3.084621768 -0.3593856882 0)
(3.100006493 -0.4180929883 0)
(3.111160602 -0.4573357966 0)
(3.113719439 -0.4979243406 0)
(3.114100352 -0.520533871 0)
(3.116051728 -0.5482532784 0)
(3.11616779 -0.5768613548 0)
(3.120543986 -0.5822152309 0)
(3.123612178 -0.5956986809 0)
(3.120177215 -0.6283505287 0)
(3.120069191 -0.6375200427 0)
(3.129930748 -0.6348151319 0)
(3.131918781 -0.6477832355 0)
(3.124582619 -0.6695174986 0)
(3.12353094 -0.6748497451 0)
(3.133388964 -0.6726384375 0)
(3.136122893 -0.6818450223 0)
(3.128988249 -0.6971163842 0)
(3.126086479 -0.7015785495 0)
(3.132996031 -0.6995603267 0)
(3.136067514 -0.7040992937 0)
(3.131767289 -0.7146542842 0)
(3.128935704 -0.7196273718 0)
(3.132491625 -0.7190233998 0)
(3.135300887 -0.720660915 0)
(3.132458846 -0.7282962548 0)
(3.130086125 -0.7335268489 0)
(3.13189135 -0.7338144343 0)
(3.135313309 -0.73366101 0)
(3.133563817 -0.7389356817 0)
(2.888621163 0.2646187485 0)
(2.889328026 0.2629926125 0)
(2.896295748 0.2492091752 0)
(2.91832803 0.2042616036 0)
(2.952230254 0.128210699 0)
(2.989973968 0.02791073088 0)
(3.016581719 -0.05554716959 0)
(3.029816882 -0.1153540158 0)
(3.0419496 -0.1841447274 0)
(3.056069378 -0.2491531211 0)
(3.070562454 -0.3073408071 0)
(3.085019381 -0.358058419 0)
(3.093666327 -0.3927723609 0)
(3.100314255 -0.4344417495 0)
(3.107049996 -0.4592631684 0)
(3.111354624 -0.4678171235 0)
(3.111459014 -0.5033227834 0)
(3.111633517 -0.5312264364 0)
(3.119137441 -0.5342567881 0)
(3.124565147 -0.539231639 0)
(3.121652555 -0.5686978425 0)
(3.118069625 -0.587147507 0)
(3.124187195 -0.5889710864 0)
(3.130864128 -0.5917786919 0)
(3.127378075 -0.6109284065 0)
(3.123013994 -0.6249012103 0)
(3.126367187 -0.6268844053 0)
(3.132192154 -0.6298636615 0)
(3.129895289 -0.6402673222 0)
(3.12706905 -0.6513292649 0)
(3.127970685 -0.6551425417 0)
(3.131858915 -0.6574551964 0)
(3.130311217 -0.6645930946 0)
(3.128820225 -0.671519836 0)
(3.128537796 -0.6761755528 0)
(3.132284126 -0.6778270127 0)
(3.13210022 -0.6830394541 0)
(2.888768883 0.2647287505 0)
(2.888852464 0.2643698734 0)
(2.890588886 0.2609549515 0)
(2.899184175 0.244138181 0)
(2.920250206 0.2005806087 0)
(2.951161749 0.1316087451 0)
(2.986316645 0.04052050196 0)
(3.014537126 -0.05180701981 0)
(3.037552253 -0.1444119985 0)
(3.055388402 -0.2288763677 0)
(3.070472592 -0.2887359399 0)
(3.084504198 -0.3344174845 0)
(3.092395668 -0.3740505327 0)
(3.096818283 -0.4130612528 0)
(3.100880535 -0.4453137502 0)
(3.107735567 -0.4571019962 0)
(3.111101827 -0.4750221066 0)
(3.110199546 -0.5123556273 0)
(3.11114356 -0.5265479979 0)
(3.12135094 -0.5278367434 0)
(3.123996001 -0.5447427495 0)
(3.118204422 -0.5716221326 0)
(3.116739472 -0.5802588845 0)
(3.126748183 -0.5807285336 0)
(3.130419046 -0.5919901601 0)
(3.123525429 -0.6113879432 0)
(3.120571344 -0.6179323095 0)
(3.128278653 -0.6178967648 0)
(3.132688134 -0.6252809484 0)
(3.127947816 -0.6396085063 0)
(3.12400158 -0.6466867798 0)
(3.127785017 -0.6476676441 0)
(3.132107137 -0.6507093838 0)
(3.129692378 -0.6611582982 0)
(3.126733545 -0.6688201637 0)
(3.128263098 -0.6705497473 0)
(3.132891005 -0.6708716812 0)
(2.888140645 0.2646645331 0)
(2.888132745 0.2646217742 0)
(2.888517121 0.263852288 0)
(2.891295794 0.2586835445 0)
(2.901065118 0.2395173075 0)
(2.921298372 0.197328905 0)
(2.949320718 0.1339461702 0)
(2.97933828 0.05834589771 0)
(3.003826174 -0.01073171369 0)
(3.020862742 -0.07224893805 0)
(3.034278847 -0.1278424704 0)
(3.045262072 -0.1741782778 0)
(3.054954795 -0.2199907766 0)
(3.064974938 -0.2690292662 0)
(3.076613447 -0.3176448203 0)
(3.088059213 -0.3455378845 0)
(3.094321056 -0.3605118984 0)
(3.096282068 -0.4015428455 0)
(3.098726639 -0.435050409 0)
(3.107439831 -0.4408828847 0)
(3.112021022 -0.4465261355 0)
(3.110740378 -0.4824308596 0)
(3.1084303 -0.5047282201 0)
(3.114912223 -0.5076604729 0)