/*--------------------------------*- C++ -*----------------------------------*\
  =========                 |
  \\      /  F ield         | OpenFOAM: The Open Source CFD Toolbox
   \\    /   O peration     | Website:  https://openfoam.org
    \\  /    A nd           | Version:  7
     \\/     M anipulation  |
\*---------------------------------------------------------------------------*/
FoamFile
{
    version     2.0;
    format      ascii;
    class       volScalarField;
    location    "2.3";
    object      rho;
}
// * * * * * * * * * * * * * * * * * * * * * * * * * * * * * * * * * * * * * //

dimensions      [1 -3 0 0 0 0 0];

internalField   nonuniform List<scalar> 
555
(
1.261234628
1.261332252
1.261610384
1.266709952
1.266244119
1.265734768
1.265019346
1.263696283
1.263203367
1.263163999
1.263602756
1.263886088
1.264367574
1.265543333
1.266161597
1.266816101
1.266746291
1.266288323
1.265309046
1.26431606
1.26373415
1.263364774
1.265066473
1.264940117
1.264913655
1.264800247
1.264073076
1.263570137
1.263390679
1.263690107
1.263866845
1.26417233
1.265216827
1.267022053
1.268414579
1.269169227
1.269174196
1.268550622
1.267965954
1.26730299
1.266122596
1.263525128
1.263749526
1.264009069
1.264647586
1.264653061
1.264666619
1.264553165
1.264687744
1.26486224
1.26518166
1.266334611
1.269028435
1.270791228
1.271851335
1.271856999
1.271238663
1.270732907
1.270128453
1.269115812
1.263852259
1.264518381
1.265069685
1.266164976
1.266480395
1.266830714
1.267431212
1.267770183
1.2680423
1.26830565
1.268864034
1.269858353
1.272257557
1.273950336
1.273895824
1.273044022
1.272317721
1.271678406
1.271094479
1.266480545
1.267423776
1.268089058
1.26920555
1.2701221
1.270837177
1.271998796
1.272482015
1.273002698
1.27313911
1.272870707
1.272937214
1.273520631
1.274274888
1.275086436
1.275204907
1.27454544
1.273548281
1.273627824
1.27176036
1.272934387
1.274045221
1.275486995
1.276429398
1.277170332
1.277761446
1.27851335
1.279163415
1.279216014
1.278398959
1.27722984
1.27620568
1.275843423
1.276211777
1.277170382
1.277193752
1.276832866
1.276756711
1.281084523
1.282301778
1.283758271
1.284425154
1.284490084
1.284551654
1.284634553
1.285383906
1.285626487
1.285608275
1.284845008
1.282737094
1.280670577
1.27965767
1.279379645
1.279431853
1.279742119
1.281233855
1.281705747
1.291942444
1.292930462
1.294095208
1.294237718
1.293611496
1.292949426
1.292764415
1.293016007
1.293110995
1.292880974
1.291780242
1.288505543
1.28614827
1.285330572
1.285231016
1.285362863
1.285525752
1.286242537
1.288234498
1.303266659
1.303618766
1.303716111
1.303138401
1.302477517
1.301829618
1.300880896
1.300410623
1.299788953
1.298862012
1.298016024
1.295703318
1.294838439
1.294473434
1.294230317
1.294371808
1.295268705
1.295869893
1.312693714
1.312882396
1.312939279
1.312345816
1.311563683
1.310573114
1.309669591
1.309579175
1.309686015
1.309209073
1.308384769
1.3072899
1.307069939
1.306927736
1.306440693
1.306151584
1.305911522
1.305410323
1.321857951
1.32160492
1.321579374
1.321156992
1.320282118
1.318863073
1.318711922
1.318766913
1.319163451
1.319949065
1.320002328
1.320154534
1.320314616
1.320505271
1.320063969
1.3191228
1.31785817
1.316297755
1.330274345
1.330200743
1.330141957
1.329825376
1.329123427
1.328156578
1.328090289
1.328449718
1.329184419
1.331113511
1.333164256
1.334197329
1.334719395
1.334635197
1.333476258
1.331652045
1.329460769
1.327726363
1.338534166
1.338961582
1.339467537
1.339452456
1.338902744
1.338002518
1.33777613
1.338386027
1.340747104
1.344580074
1.346648715
1.347504105
1.347624321
1.346936478
1.345310019
1.343259055
1.341048894
1.339408477
1.346189745
1.347304125
1.348764918
1.349433745
1.349452026
1.348898556
1.34951407
1.350972439
1.352812837
1.354351449
1.35650362
1.358490401
1.358802169
1.358117203
1.356332733
1.35426368
1.351897363
1.350568349
1.355513984
1.357208339
1.359242568
1.36156485
1.362223811
1.362170554
1.362705114
1.363610633
1.363965707
1.364264936
1.364919415
1.366397375
1.367329598
1.367364746
1.365889775
1.363846792
1.362338955
1.362327761
1.365611606
1.367895561
1.369960784
1.371538829
1.372309133
1.372774665
1.3733012
1.373852243
1.374276084
1.373553549
1.372922316
1.372735427
1.372855109
1.373226465
1.373630652
1.373170229
1.373444582
1.373491046
1.376465178
1.378213916
1.379828566
1.38082098
1.381270618
1.382049672
1.382753812
1.38307744
1.38272421
1.38131504
1.379514144
1.378751527
1.378152344
1.377939998
1.379246718
1.381287517
1.38379555
1.383731634
1.386570524
1.388085053
1.388902902
1.389003447
1.38880205
1.389468603
1.389874859
1.389693283
1.388803572
1.387523712
1.386703467
1.386427979
1.385068085
1.384267956
1.385407874
1.387906283
1.391004032
1.392394961
1.396030592
1.39630118
1.395854625
1.395217033
1.394206139
1.39407261
1.394074622
1.394098758
1.394176853
1.394365658
1.394733217
1.394409818
1.392773569
1.391858675
1.39266705
1.394326773
1.396645914
1.398067391
1.403114803
1.402081734
1.400848689
1.400138988
1.399098542
1.398532729
1.398635579
1.399151211
1.40004165
1.401224478
1.402262516
1.401896896
1.400362299
1.399526369
1.399817781
1.400806992
1.402000228
1.402371174
1.407078384
1.405894092
1.405271943
1.404988768
1.404358477
1.403626424
1.403502184
1.404150281
1.405313483
1.40666912
1.407944186
1.408076445
1.407057656
1.406296615
1.406395915
1.406830961
1.406444354
1.405526413
1.408944285
1.408226939
1.408518002
1.40887791
1.408707032
1.408282602
1.407824424
1.408340495
1.409618621
1.41089059
1.411458823
1.411986619
1.411885491
1.411269623
1.411106068
1.410780415
1.408734623
1.407373536
1.409980049
1.410787846
1.411947532
1.412548148
1.412397634
1.41172723
1.411877908
1.412546199
1.413399685
1.413580563
1.413897104
1.414121413
1.414315294
1.413699609
1.411889593
1.409001117
1.408284426
1.411367919
1.412636868
1.413941819
1.414890589
1.414664906
1.414140133
1.413919795
1.413727547
1.413543841
1.41330762
1.413701875
1.414452209
1.414783808
1.413114565
1.410695451
1.408356451
1.409100527
1.413089747
1.414291795
1.414944419
1.415645045
1.41521252
1.414626099
1.41387308
1.412987403
1.411697211
1.411422272
1.412467471
1.414215837
1.414254724
1.412105943
1.410199411
1.408998512
1.410085316
1.41460029
1.415123076
1.414703799
1.4146773
1.414369898
1.413428971
1.41251505
1.411792053
1.411271386
1.411441017
1.412562661
1.413712646
1.413001617
1.411832503
1.411230844
1.410896592
1.411325653
1.41542477
1.415125122
1.413855282
1.413056385
1.412955763
1.412625111
1.412385743
1.412493448
1.412842121
1.413126901
1.413034779
1.412681342
1.411363493
1.411103249
1.411675368
1.412652352
1.412441598
1.415873114
1.414938788
1.413654299
1.413273323
1.412935591
1.413149461
1.413545075
1.413918547
1.41456131
1.414875582
1.414192413
1.412377206
1.410844614
1.410727229
1.411972674
1.413907601
1.413207006
1.415948411
1.41502027
1.414351157
1.41423386
1.413949718
1.413861545
1.414796616
1.415547682
1.416015519
1.416270705
1.415200168
1.413390381
1.411788087
1.411520902
1.412272657
1.413359316
1.413277206
1.415142749
1.414650573
1.414529839
1.415015448
1.41481604
1.414704131
1.414755056
1.415589676
1.416118219
1.416364214
1.415676992
1.414089026
1.412600601
1.412350365
1.412781617
1.412835015
1.412312988
1.412682521
1.412619803
1.412979715
1.41405268
1.414782808
1.414359492
1.414518734
1.41498592
1.415633499
1.415450849
1.414499619
1.413503242
)
;

boundaryField
{
    inlet
    {
        type            calculated;
        value           nonuniform 0();
    }
    outlet
    {
        type            calculated;
        value           nonuniform List<scalar> 
31
(
1.263296213
1.266203541
1.269282231
1.271328953
1.273771657
1.276908983
1.281682508
1.287994629
1.295500174
1.305300632
1.316280869
1.327749745
1.339504537
1.350645882
1.362426766
1.37356952
1.383768773
1.392294897
1.397877565
1.402227625
1.405467557
1.407411784
1.408362805
1.409160793
1.410131446
1.411344632
1.412414686
1.413154132
1.413197102
1.412219856
1.26145042
)
;
    }
    bottom
    {
        type            calculated;
        value           nonuniform 0();
    }
    top
    {
        type            calculated;
        value           nonuniform 0();
    }
    obstacle
    {
        type            calculated;
        value           nonuniform 0();
    }
    defaultFaces
    {
        type            empty;
    }
    procBoundary23to17
    {
        type            processor;
        value           nonuniform List<scalar> 
20
(
1.260655921
1.260843387
1.261323921
1.267231317
1.266948246
1.266234956
1.264577399
1.263645483
1.263316972
1.263591659
1.264359746
1.265129817
1.265660841
1.266227147
1.266254026
1.265807858
1.264458773
1.263159426
1.262063845
1.262063845
)
;
    }
    procBoundary23to22
    {
        type            processor;
        value           nonuniform List<scalar> 
32
(
1.266724391
1.264469857
1.26287596
1.263347625
1.266075661
1.271415184
1.280888655
1.292443957
1.303238047
1.303238047
1.313435657
1.322700801
1.330850717
1.338428634
1.345619706
1.354898255
1.364725458
1.375335276
1.385903204
1.395575557
1.403293075
1.407977248
1.41025762
1.410195763
1.410195763
1.410851099
1.411749858
1.413321909
1.414771013
1.415758067
1.416221918
1.415770089
)
;
    }
    procBoundary23to28
    {
        type            processor;
        value           uniform 1.412834436;
    }
    procBoundary23to29
    {
        type            processor;
        value           nonuniform List<scalar> 
18
(
1.413161375
1.412735366
1.412430963
1.411848225
1.410921917
1.409120192
1.409689692
1.410505768
1.411605581
1.41235053
1.412595737
1.412776901
1.412860405
1.412673702
1.411577947
1.411125777
1.413161375
1.411406267
)
;
    }
}


// ************************************************************************* //
