/*--------------------------------*- C++ -*----------------------------------*\
  =========                 |
  \\      /  F ield         | OpenFOAM: The Open Source CFD Toolbox
   \\    /   O peration     | Website:  https://openfoam.org
    \\  /    A nd           | Version:  7
     \\/     M anipulation  |
\*---------------------------------------------------------------------------*/
FoamFile
{
    version     2.0;
    format      ascii;
    class       volVectorField;
    location    "4.3";
    object      U;
}
// * * * * * * * * * * * * * * * * * * * * * * * * * * * * * * * * * * * * * //

dimensions      [0 1 -1 0 0 0 0];

internalField   nonuniform List<vector> 
2222
(
(2.884521704 -0.2534052976 0)
(2.884511283 -0.2495646207 0)
(2.883495896 -0.2479310419 0)
(2.883457831 -0.2466637381 0)
(2.883865434 -0.2456825949 0)
(2.883921839 -0.2455956776 0)
(2.883921496 -0.245251278 0)
(2.872334626 -0.2565576549 0)
(2.873023524 -0.2548145851 0)
(2.873600108 -0.2537711317 0)
(2.875075213 -0.253239996 0)
(2.875497428 -0.2530762975 0)
(2.875735508 -0.2529176545 0)
(2.875479375 -0.2519542222 0)
(2.875279636 -0.25034407 0)
(2.875533732 -0.2490491889 0)
(2.875708727 -0.2489257122 0)
(2.875717459 -0.2491679178 0)
(2.875290224 -0.2489299437 0)
(2.874893964 -0.2484055959 0)
(2.874953431 -0.2483629697 0)
(2.875418235 -0.2482167644 0)
(2.875946162 -0.2487055409 0)
(2.87657307 -0.2498162627 0)
(2.87675575 -0.2502064494 0)
(2.877135026 -0.2505239394 0)
(2.877498597 -0.2508886427 0)
(2.878283553 -0.2513445317 0)
(2.878751432 -0.2514873453 0)
(2.879270565 -0.2516257656 0)
(2.879591565 -0.2516473501 0)
(2.879942567 -0.2517170734 0)
(2.880136184 -0.2518003757 0)
(2.87233471 0.2565577707 0)
(2.873023638 0.254814721 0)
(2.873600018 0.2537712253 0)
(2.875075171 0.2532398839 0)
(2.875497424 0.2530761453 0)
(2.875735563 0.2529175507 0)
(2.875479488 0.2519543211 0)
(2.875279641 0.2503442467 0)
(2.875533625 0.2490492109 0)
(2.875708627 0.2489256161 0)
(2.875717425 0.2491678151 0)
(2.875290284 0.2489299895 0)
(2.874893999 0.2484057583 0)
(2.874953441 0.248362934 0)
(2.875418203 0.2482167243 0)
(2.87594611 0.2487054611 0)
(2.876573094 0.2498162206 0)
(2.876755769 0.2502064795 0)
(2.87713507 0.2505239653 0)
(2.877498634 0.2508886445 0)
(2.878283565 0.2513445679 0)
(2.878751426 0.2514873573 0)
(2.879270539 0.2516257927 0)
(2.879591539 0.2516473654 0)
(2.879942527 0.2517170689 0)
(2.8801362 0.2518003678 0)
(2.880181131 0.2518413606 0)
(2.880222855 0.2518262068 0)
(2.880247303 0.2518054914 0)
(2.880311138 0.2517876869 0)
(2.880458006 0.2517686158 0)
(2.880696164 0.2517301131 0)
(2.88099037 0.2516823007 0)
(2.881117428 0.2516655805 0)
(2.881179316 0.2516720277 0)
(2.881244617 0.2517247199 0)
(2.881274011 0.2518239696 0)
(2.881373446 0.251882529 0)
(2.881458629 0.2519011328 0)
(2.881637194 0.2519293147 0)
(2.881941082 0.2519481927 0)
(2.882117483 0.2519445474 0)
(2.88217095 0.2519493597 0)
(2.882228871 0.2519807431 0)
(2.882240595 0.2520381559 0)
(2.882290611 0.2520808067 0)
(2.882353526 0.2520929022 0)
(2.882424661 0.2521035066 0)
(2.882598379 0.2521093741 0)
(2.88277641 0.2520904311 0)
(2.882831054 0.2520812477 0)
(2.882880709 0.2520910643 0)
(2.882905991 0.2521236581 0)
(2.882924758 0.2521633027 0)
(2.882975943 0.252176603 0)
(2.883021981 0.25218002 0)
(2.883131625 0.2521848077 0)
(2.883324158 0.25218168 0)
(2.883441232 0.2521695042 0)
(2.883487246 0.2521710009 0)
(2.88353699 0.2521865988 0)
(2.883538459 0.2522057431 0)
(2.883554164 0.2522172674 0)
(2.883578776 0.2522194868 0)
(2.883608473 0.2522216417 0)
(2.883675548 0.2522094977 0)
(2.883823038 0.2522004436 0)
(2.884521701 0.2534055423 0)
(2.884511478 0.2495649466 0)
(2.883496022 0.2479311342 0)
(2.883457741 0.2466636463 0)
(2.883865383 0.2456824374 0)
(2.883921746 0.2455955726 0)
(2.883921421 0.2452513041 0)
(2.883632648 0.2438623196 0)
(2.883381186 0.2432549784 0)
(2.883256745 0.2435372149 0)
(2.883179248 0.2443894331 0)
(2.883207818 0.2455478258 0)
(2.883581837 0.2466937632 0)
(2.883481107 0.2476865064 0)
(2.883602185 0.2485457353 0)
(2.883835433 0.2495087143 0)
(2.883906797 0.2510051557 0)
(2.883567708 0.2519167349 0)
(2.883118536 0.2525223992 0)
(2.883028427 0.2527727044 0)
(2.882908353 0.2527439785 0)
(2.882859845 0.2526710232 0)
(2.883152145 0.2524086166 0)
(2.883674696 0.2521976987 0)
(2.884190819 0.2521604235 0)
(2.884349385 0.2518893956 0)
(2.884279648 0.251797312 0)
(2.884217966 0.251813095 0)
(2.884041836 0.2518725594 0)
(2.883883156 0.2518717015 0)
(2.883902236 0.2518724385 0)
(2.88401962 0.2518930762 0)
(2.884277808 0.2519330452 0)
(2.884428171 0.251930502 0)
(2.884445948 0.2519290546 0)
(2.884443005 0.2519936734 0)
(2.88434042 0.2521597732 0)
(2.884219613 0.2523371099 0)
(2.884230957 0.2523946117 0)
(2.884272028 0.2524069625 0)
(2.884387599 0.2524050374 0)
(2.884540323 0.2523702746 0)
(2.884610367 0.2523276445 0)
(2.88461371 0.2523106013 0)
(2.884604615 0.2523066355 0)
(2.884570567 0.2523436784 0)
(2.884557614 0.2524005316 0)
(2.884592443 0.2524224323 0)
(2.884643385 0.2524249627 0)
(2.884749295 0.2523773229 0)
(2.884835849 0.2522866983 0)
(2.884859836 0.25225347 0)
(2.884879832 0.2522531459 0)
(2.88489044 0.2523028481 0)
(2.884883513 0.2523826208 0)
(2.884911305 0.2524149856 0)
(2.88494193 0.2524199364 0)
(2.885017215 0.2524054302 0)
(2.885120278 0.2523501426 0)
(2.885201923 0.2522873166 0)
(2.885227318 0.2522625694 0)
(2.88524814 0.252259286 0)
(2.885250166 0.252268884 0)
(2.885246383 0.2522796303 0)
(2.885261511 0.2522907896 0)
(2.885277486 0.2522736333 0)
(2.885389943 0.2522434638 0)
(2.894098683 0.2668232726 0)
(2.89403414 0.2627898914 0)
(2.892698054 0.2594289403 0)
(2.892321782 0.2562616704 0)
(2.892670761 0.2544307717 0)
(2.892845017 0.2541688303 0)
(2.89402468 0.2531344325 0)
(2.894820333 0.251166184 0)
(2.894847256 0.2500394725 0)
(2.89507318 0.2507587159 0)
(2.894763798 0.2510407617 0)
(2.894602417 0.2509601588 0)
(2.894680847 0.2511170141 0)
(2.894588926 0.2511555759 0)
(2.894578223 0.251100574 0)
(2.89458676 0.2508810043 0)
(2.894476313 0.2507695456 0)
(2.894064788 0.2509628365 0)
(2.893403395 0.2510404102 0)
(2.892601731 0.2513232854 0)
(2.891792174 0.2515261422 0)
(2.890989419 0.251481583 0)
(2.890541654 0.2514402766 0)
(2.890487527 0.2515610238 0)
(2.890624538 0.2518055359 0)
(2.890579651 0.2519004279 0)
(2.890549453 0.2519110159 0)
(2.890488025 0.2519149016 0)
(2.890417012 0.2520204314 0)
(2.890311227 0.2522498711 0)
(2.890311868 0.2523832775 0)
(2.890331306 0.2524477382 0)
(2.890409458 0.2525805736 0)
(2.890483867 0.2526268764 0)
(2.890428158 0.2525887111 0)
(2.890363941 0.2525664578 0)
(2.890248018 0.2525392294 0)
(2.89001062 0.2525110513 0)
(2.88988721 0.2525087287 0)
(2.889805742 0.2525233462 0)
(2.889758344 0.2525530138 0)
(2.889802882 0.2525481209 0)
(2.88980506 0.2525183219 0)
(2.889739929 0.2525061773 0)
(2.889682217 0.2524946243 0)
(2.889587681 0.2524963463 0)
(2.889479838 0.2525440832 0)
(2.88939479 0.2526125216 0)
(2.889361403 0.2526515215 0)
(2.889362222 0.2526647266 0)
(2.889365537 0.2526714576 0)
(2.889344503 0.2526527074 0)
(2.889318945 0.2526326379 0)
(2.889297575 0.2526213064 0)
(2.889256443 0.2526257673 0)
(2.889211025 0.2526382936 0)
(2.889184049 0.2526356901 0)
(2.889181539 0.2526315461 0)
(2.88919616 0.2526168081 0)
(2.889222787 0.2525741163 0)
(2.889234014 0.2525196367 0)
(2.88921378 0.2524934774 0)
(2.889190699 0.2524912057 0)
(2.889163051 0.2524915283 0)
(2.889130349 0.2524973715 0)
(2.889107768 0.2524925584 0)
(2.889229414 0.2525560794 0)
(2.895555755 0.269391469 0)
(2.896125886 0.2666732329 0)
(2.895939987 0.2653099133 0)
(2.89595451 0.2635792566 0)
(2.896543558 0.261717202 0)
(2.897238937 0.2608110261 0)
(2.898430347 0.2597230193 0)
(2.899549021 0.2585295818 0)
(2.90012058 0.2585970517 0)
(2.900967301 0.2584490529 0)
(2.90224101 0.2557036936 0)
(2.902324636 0.2530332088 0)
(2.901552017 0.2530145495 0)
(2.901015293 0.2525957289 0)
(2.900961021 0.2510438456 0)
(2.901233545 0.2499192217 0)
(2.900957623 0.2489100039 0)
(2.900313905 0.2484129392 0)
(2.899838759 0.2483787275 0)
(2.899154785 0.2485568959 0)
(2.898422282 0.249007598 0)
(2.897787126 0.2496664825 0)
(2.896970416 0.2505636844 0)
(2.896497823 0.2514174723 0)
(2.896228099 0.2521887404 0)
(2.895863435 0.2524952779 0)
(2.89562981 0.2526473142 0)
(2.895359329 0.2530348228 0)
(2.895267528 0.2533092771 0)
(2.895145771 0.2533226904 0)
(2.894940696 0.253505359 0)
(2.89480402 0.2535343144 0)
(2.894683363 0.2534605537 0)
(2.894575963 0.2534002889 0)
(2.894519146 0.2532742054 0)
(2.89452372 0.2532292993 0)
(2.894516594 0.2532248159 0)
(2.894459361 0.2532076983 0)
(2.894350662 0.2531520404 0)
(2.894234407 0.2531099991 0)
(2.894150088 0.2531257731 0)
(2.894091716 0.2531699711 0)
(2.894055465 0.2531870674 0)
(2.894053902 0.2531622594 0)
(2.894043473 0.2531473711 0)
(2.89399451 0.2531586133 0)
(2.893916924 0.2531889639 0)
(2.893809743 0.2532194579 0)
(2.893714602 0.2532413554 0)
(2.893678847 0.2532426123 0)
(2.893620104 0.253242575 0)
(2.893576029 0.2532209932 0)
(2.893549585 0.2531712104 0)
(2.893489484 0.2531284353 0)
(2.893426686 0.2530918889 0)
(2.8933546 0.2530525218 0)
(2.89326681 0.2530083347 0)
(2.893242025 0.2529710404 0)
(2.893196972 0.2529392341 0)
(2.893156892 0.2529294341 0)
(2.893131881 0.2529419537 0)
(2.893102301 0.2529494469 0)
(2.893058717 0.2529332556 0)
(2.892994682 0.2529034391 0)
(2.892931537 0.2529071134 0)
(2.892830279 0.252944211 0)
(2.892886263 0.2529669582 0)
(2.900078111 0.2534859006 0)
(2.899298731 0.2577920668 0)
(2.897940482 0.2601723693 0)
(2.896394359 0.2613396918 0)
(2.895049764 0.2632534999 0)
(2.894364354 0.2658616383 0)
(2.894364527 0.2668231728 0)
(2.894105526 0.2667684834 0)
(2.894762676 0.265342394 0)
(2.894691161 0.2642891319 0)
(2.894951864 0.2627173062 0)
(2.894890308 0.2610464819 0)
(2.894698038 0.2596520851 0)
(2.895845827 0.2571006992 0)
(2.896524107 0.255196561 0)
(2.896764007 0.2540429839 0)
(2.8968201 0.2533396751 0)
(2.897621423 0.2516449219 0)
(2.898138095 0.2506901264 0)
(2.898628866 0.250356855 0)
(2.898801557 0.2507730969 0)
(2.898729783 0.2508672607 0)
(2.898869248 0.2512710291 0)
(2.898879219 0.2514974992 0)
(2.898772326 0.2515729659 0)
(2.898558167 0.2514176276 0)
(2.898317991 0.251513505 0)
(2.898021557 0.2519755367 0)
(2.897667184 0.2521704937 0)
(2.897347585 0.2521245883 0)
(2.896978847 0.2524349096 0)
(2.896700638 0.2527966011 0)
(2.896488668 0.2528504831 0)
(2.896243699 0.2527766539 0)
(2.896067009 0.2527387017 0)
(2.895939368 0.2528253384 0)
(2.895915756 0.2529594789 0)
(2.895945762 0.253108205 0)
(2.895838827 0.253246467 0)
(2.895757735 0.2533148102 0)
(2.895651637 0.2533865865 0)
(2.89555773 0.2534567639 0)
(2.895530327 0.2534598387 0)
(2.89552587 0.2534448752 0)
(2.89551865 0.2534444588 0)
(2.895500622 0.2534557262 0)
(2.89546103 0.2534511516 0)
(2.895416382 0.2534266979 0)
(2.895328281 0.2533726223 0)
(2.895267793 0.2533388889 0)
(2.895173579 0.2532981863 0)
(2.89510008 0.2532559509 0)
(2.895070939 0.2532144688 0)
(2.895023746 0.2531795104 0)
(2.894997613 0.2531682746 0)
(2.894940538 0.2531415975 0)
(2.894854075 0.253157695 0)
(2.894778459 0.2531989313 0)
(2.894738978 0.2532152627 0)
(2.894717373 0.2532196406 0)
(2.894700003 0.2532113254 0)
(2.894678317 0.2531737083 0)
(2.894647347 0.2532147068 0)
(2.894610368 0.2532125207 0)
(2.894573189 0.2532106791 0)
(2.894513226 0.2531955705 0)
(2.894492476 0.2532335279 0)
(2.901095977 0.2531754308 0)
(2.8928431 0.2701154352 0)
(2.891127764 0.275797143 0)
(2.88978531 0.2761198892 0)
(2.889302759 0.2792316021 0)
(2.888479334 0.2786857406 0)
(2.887950053 0.2755822731 0)
(2.887635461 0.2720781916 0)
(2.887970955 0.2669571411 0)
(2.889527964 0.2652059904 0)
(2.890778783 0.2633103213 0)
(2.891327137 0.2611921342 0)
(2.891546798 0.2608273206 0)
(2.892003617 0.2603136069 0)
(2.892433481 0.2591243155 0)
(2.892738489 0.2580764216 0)
(2.893197066 0.2583744675 0)
(2.893991065 0.2573912437 0)
(2.894503001 0.2572705755 0)
(2.895545553 0.2566087795 0)
(2.89710745 0.2544250207 0)
(2.897529751 0.2531845816 0)
(2.897522506 0.2536739131 0)
(2.897080777 0.2534277087 0)
(2.896642007 0.2522902897 0)
(2.896687062 0.2516560854 0)
(2.896846222 0.251194573 0)
(2.896881148 0.251272658 0)
(2.896855936 0.2512908178 0)
(2.896728629 0.2510651126 0)
(2.896437583 0.2512203829 0)
(2.896409501 0.2515144108 0)
(2.89624859 0.2518271971 0)
(2.896046179 0.252120757 0)
(2.895866332 0.2522354823 0)
(2.895726224 0.2523814766 0)
(2.895823063 0.2526274636 0)
(2.895953196 0.252979485 0)
(2.895913276 0.2532674264 0)
(2.895751526 0.2534509147 0)
(2.895588323 0.2535557283 0)
(2.895496941 0.2535433922 0)
(2.895362353 0.2535073271 0)
(2.895253744 0.2534839139 0)
(2.895199536 0.2534144914 0)
(2.895166732 0.2533015134 0)
(2.895084237 0.2532588701 0)
(2.895042908 0.2532403104 0)
(2.894970715 0.2532175436 0)
(2.894924711 0.2532319816 0)
(2.89489431 0.2532400323 0)
(2.894834532 0.2532106585 0)
(2.894802899 0.2531675007 0)
(2.894815518 0.2531669316 0)
(2.894818849 0.2531910581 0)
(2.894813578 0.2532508227 0)
(2.894797596 0.2533029877 0)
(2.894768042 0.2533610846 0)
(2.894704466 0.2534116976 0)
(2.8946674 0.2534122958 0)
(2.894646083 0.2534000272 0)
(2.894617691 0.2534043387 0)
(2.894627495 0.253403994 0)
(2.894626915 0.2533973029 0)
(2.894607555 0.2533938828 0)
(2.894564792 0.2533808949 0)
(2.894527464 0.2533224775 0)
(2.929294694 0.1638824767 0)
(2.916338347 0.2048147735 0)
(2.914651682 0.2049446469 0)
(2.916671559 0.2036719269 0)
(2.906902362 0.2285159785 0)
(2.905539333 0.231965509 0)
(2.904560733 0.2369469514 0)
(2.898634595 0.2454985033 0)
(2.896635207 0.2482122006 0)
(2.895284255 0.2486310316 0)
(2.894287104 0.2520979531 0)
(2.894108343 0.2558357828 0)
(2.892844713 0.2577152937 0)
(2.891396733 0.2592947958 0)
(2.890028779 0.2602862164 0)
(2.889827996 0.2625395052 0)
(2.889368246 0.2639889331 0)
(2.889912695 0.2629165913 0)
(2.88982038 0.2616851795 0)
(2.889832007 0.2611039849 0)
(2.890459433 0.2594072856 0)
(2.891003064 0.2573869529 0)
(2.89131183 0.2559546566 0)
(2.891508701 0.2546601746 0)
(2.892148244 0.2525600672 0)
(2.892789405 0.25054492 0)
(2.892974619 0.250168246 0)
(2.893083212 0.2505239307 0)
(2.893872897 0.2505599764 0)
(2.894357477 0.2501918273 0)
(2.894722955 0.2503702472 0)
(2.894828762 0.2507627818 0)
(2.894707999 0.251299942 0)
(2.894460376 0.2517601105 0)
(2.89442486 0.2518175952 0)
(2.894504762 0.2518224172 0)
(2.894697257 0.2519758822 0)
(2.894805219 0.252294264 0)
(2.894694216 0.252373451 0)
(2.894501613 0.252381264 0)
(2.89429202 0.2524885335 0)
(2.894091607 0.2526004986 0)
(2.893929722 0.2525738158 0)
(2.893889704 0.2525192591 0)
(2.893992953 0.2525441319 0)
(2.894162949 0.2526628592 0)
(2.894163778 0.2527564067 0)
(2.894129785 0.2527806432 0)
(2.894049737 0.2528243175 0)
(2.893956653 0.2528804012 0)
(2.89392459 0.253001843 0)
(2.893927395 0.2531095119 0)
(2.893934135 0.2531218695 0)
(2.89395685 0.2531171964 0)
(2.893984614 0.2531338546 0)
(2.894010715 0.2531855165 0)
(2.894019589 0.2532548692 0)
(2.893983047 0.2532768697 0)
(2.893914014 0.2532631921 0)
(2.893898193 0.253257567 0)
(2.893892878 0.253263404 0)
(2.893912998 0.253273851 0)
(2.893953523 0.2532600118 0)
(2.893941539 0.2532408025 0)
(2.893913283 0.2532361214 0)
(2.893887898 0.2532350278 0)
(2.89382902 0.2532374212 0)
(2.972884293 0.05782499374 0)
(2.961134371 0.08443174456 0)
(2.952987706 0.1082226754 0)
(2.944414324 0.1305026714 0)
(2.925990515 0.1739577503 0)
(2.921543344 0.186040723 0)
(2.920843556 0.1968356718 0)
(2.904181021 0.2347550207 0)
(2.900677175 0.2445227572 0)
(2.900919054 0.2470832951 0)
(2.892041335 0.2630841426 0)
(2.890044397 0.2706777102 0)
(2.888527729 0.2702832078 0)
(2.887893733 0.2743795942 0)
(2.886891944 0.2735602129 0)
(2.885956941 0.2701458926 0)
(2.886001119 0.267782669 0)
(2.885648684 0.2635386103 0)
(2.886944617 0.2621933249 0)
(2.887841706 0.2618978939 0)
(2.887943008 0.2589443034 0)
(2.887993838 0.2576836996 0)
(2.888222128 0.2574816263 0)
(2.88854969 0.2572225961 0)
(2.889083473 0.2560138205 0)
(2.889569793 0.2557230945 0)
(2.889978377 0.2559283831 0)
(2.890509848 0.2566236993 0)
(2.891700011 0.2558144442 0)
(2.892439408 0.2541966086 0)
(2.892563495 0.2535342604 0)
(2.892530345 0.2537010239 0)
(2.892441029 0.2535199242 0)
(2.892366592 0.2529540619 0)
(2.892464369 0.2525066764 0)
(2.892713133 0.2519422314 0)
(2.892933508 0.2515986702 0)
(2.893144026 0.2515256777 0)
(2.892996483 0.2512596708 0)
(2.892832065 0.2511852232 0)
(2.892832706 0.251236412 0)
(2.892746208 0.251400774 0)
(2.892619379 0.2515590095 0)
(2.892473575 0.2517666577 0)
(2.892484271 0.2521393633 0)
(2.892737258 0.2525971943 0)
(2.892853214 0.2529311334 0)
(2.89279039 0.2530652762 0)
(2.892600959 0.2532639512 0)
(2.892477439 0.2533694275 0)
(2.892392376 0.2533892141 0)
(2.89235927 0.2534668301 0)
(2.892405527 0.2535226734 0)
(2.892527697 0.2534873936 0)
(2.892637234 0.2533944451 0)
(2.892645693 0.2533716771 0)
(2.892637291 0.2533727866 0)
(2.892608753 0.253368788 0)
(2.892576155 0.2533180276 0)
(2.892577523 0.2532460701 0)
(2.892603506 0.25320014 0)
(2.892669716 0.2531534131 0)
(2.892756218 0.2531338885 0)
(2.892792809 0.2531438726 0)
(2.892796224 0.2531538281 0)
(2.892785616 0.2531804989 0)
(2.892704311 0.2531969333 0)
(2.996928784 0.006062055196 0)
(2.994279205 0.0112877964 0)
(2.990297835 0.02047933133 0)
(2.985089778 0.03142555066 0)
(2.977372467 0.04739031872 0)
(2.968453306 0.0696091349 0)
(2.959216292 0.09146094657 0)
(2.946221912 0.1236953029 0)
(2.941168498 0.1381155947 0)
(2.935310253 0.1532761878 0)
(2.918760954 0.1947660598 0)
(2.915006304 0.2049524727 0)
(2.916680516 0.2018570998 0)
(2.907917521 0.2238597106 0)
(2.905583095 0.2300005291 0)
(2.906701692 0.2316548684 0)
(2.899457628 0.2400715442 0)
(2.896817763 0.2465423976 0)
(2.896016021 0.2467167192 0)
(2.894346703 0.2499756211 0)
(2.893466385 0.2530424668 0)
(2.892275877 0.2551363473 0)
(2.890897273 0.2569863773 0)
(2.88962105 0.2594638513 0)
(2.88883552 0.2601996711 0)
(2.888607675 0.261411595 0)
(2.888648107 0.261344472 0)
(2.888781225 0.260835261 0)
(2.888715978 0.2599979462 0)
(2.888935184 0.2583695538 0)
(2.889561667 0.2562929973 0)
(2.889603394 0.254528244 0)
(2.889440111 0.253527892 0)
(2.889838056 0.2522938663 0)
(2.890593953 0.2511211567 0)
(2.890691694 0.2502300427 0)
(2.890964396 0.2503567734 0)
(2.891264446 0.2506945618 0)
(2.89160094 0.2505284626 0)
(2.891865431 0.2504168407 0)
(2.89198673 0.2507798684 0)
(2.891964134 0.2512981399 0)
(2.891908501 0.2518316402 0)
(2.891896311 0.2519593815 0)
(2.891894391 0.2519138287 0)
(2.892013359 0.2519038072 0)
(2.892003409 0.2520744876 0)
(2.891947719 0.2522392192 0)
(2.891866807 0.2522926578 0)
(2.891723829 0.2522038935 0)
(2.891570888 0.2521673864 0)
(2.891416199 0.2523787577 0)
(2.891442526 0.2524813415 0)
(2.891591118 0.2524549097 0)
(2.891743005 0.2525679055 0)
(2.891769653 0.2526637661 0)
(2.891754209 0.2526817981 0)
(2.891704203 0.2527172997 0)
(2.891638453 0.2527626908 0)
(2.891606538 0.2527954232 0)
(2.891614649 0.2528207944 0)
(2.89165128 0.2528492187 0)
(2.891738951 0.2528890401 0)
(2.891787975 0.2529223878 0)
(2.891798803 0.2529389228 0)
(2.891802319 0.2529876963 0)
(2.891719357 0.2530203049 0)
(2.999932393 0.0001207855485 0)
(2.999814673 0.0003363698618 0)
(2.999545221 0.0008457262304 0)
(2.998968076 0.001974872498 0)
(2.997849158 0.004124093494 0)
(2.995773271 0.008532430508 0)
(2.99276948 0.01475010114 0)
(2.988326614 0.02392310212 0)
(2.980968332 0.04223596495 0)
(2.974280361 0.0566575118 0)
(2.963474659 0.07956562024 0)
(2.952411809 0.1099144098 0)
(2.947911284 0.124445339 0)
(2.930425125 0.1624746441 0)
(2.921708537 0.1880663399 0)
(2.923872674 0.1923936622 0)
(2.907861946 0.224772251 0)
(2.902738363 0.2433601916 0)
(2.904078912 0.242467272 0)
(2.896349098 0.2546469044 0)
(2.893175369 0.2672916869 0)
(2.89176719 0.2665036009 0)
(2.889480518 0.2691151682 0)
(2.88926253 0.2709104131 0)
(2.88803742 0.26829762 0)
(2.887704076 0.2658072688 0)
(2.887053559 0.261240463 0)
(2.887986402 0.2595925376 0)
(2.888932668 0.2598221317 0)
(2.888237346 0.2573802773 0)
(2.888147822 0.256115058 0)
(2.888148973 0.2555653718 0)
(2.888430904 0.2553345048 0)
(2.888920644 0.2548581058 0)
(2.889441258 0.2546506214 0)
(2.889891523 0.2548268234 0)
(2.890158558 0.2554546146 0)
(2.890690884 0.2556695561 0)
(2.891263256 0.2543799432 0)
(2.891184513 0.2538667185 0)
(2.891026804 0.253613982 0)
(2.89126612 0.2533359303 0)
(2.891312057 0.2532097622 0)
(2.891310645 0.252914934 0)
(2.891419995 0.2525023148 0)
(2.89148722 0.2519283424 0)
(2.891560204 0.2514869982 0)
(2.891540051 0.251471228 0)
(2.891474115 0.2514406749 0)
(2.891430437 0.2514694775 0)
(2.891411647 0.2515725013 0)
(2.891423092 0.2516900084 0)
(2.891419583 0.2518788755 0)
(2.891382791 0.2521508625 0)
(2.891428934 0.2523420768 0)
(2.89142375 0.2525664712 0)
(2.891328452 0.2527155837 0)
(2.891210136 0.2528721529 0)
(2.891160189 0.253020835 0)
(2.891128126 0.2530523192 0)
(2.891073137 0.2531265079 0)
(2.891073368 0.2532199042 0)
(2.891135187 0.2532025556 0)
(2.891204307 0.2530656428 0)
(2.891215316 0.2529650677 0)
(2.891214983 0.2529522564 0)
(2.891193255 0.2529691556 0)
(2.99999978 3.578098803e-07 0)
(2.999999045 1.590451124e-06 0)
(2.999996313 6.188150401e-06 0)
(2.999987386 2.17077027e-05 0)
(2.999959707 7.129148317e-05 0)
(2.99988791 0.0001993020026 0)
(2.999708525 0.000544313021 0)
(2.999304359 0.001317426344 0)
(2.998541759 0.002806024389 0)
(2.997051084 0.005938648167 0)
(2.994506757 0.01086982314 0)
(2.990551617 0.01975397759 0)
(2.985470842 0.03163346501 0)
(2.978480358 0.04568160171 0)
(2.969042956 0.06849805035 0)
(2.961071433 0.08868626255 0)
(2.948746315 0.1173000152 0)
(2.940227487 0.1415779634 0)
(2.937721041 0.1507702838 0)
(2.922322836 0.1845511351 0)
(2.916314239 0.2067861009 0)
(2.918179167 0.2003263872 0)
(2.911472877 0.2144886148 0)
(2.90668125 0.2306345125 0)
(2.907612674 0.229957566 0)
(2.903792071 0.2361063729 0)
(2.898839874 0.2433260433 0)
(2.897542606 0.2450090193 0)
(2.896204935 0.2474155059 0)
(2.894507465 0.2502948766 0)
(2.893601497 0.2530834951 0)
(2.892265988 0.255255182 0)
(2.890828447 0.2577044887 0)
(2.889901242 0.2592543279 0)
(2.889524431 0.2596298971 0)
(2.889157595 0.2599365534 0)
(2.889220271 0.2594205547 0)
(2.889360575 0.2589490114 0)
(2.889546626 0.2578469146 0)
(2.889434214 0.2562437703 0)
(2.889770942 0.2545034402 0)
(2.890211762 0.2528831748 0)
(2.890078256 0.2523509333 0)
(2.890296213 0.2517834359 0)
(2.890929237 0.2508911622 0)
(2.891106358 0.2505461652 0)
(2.891122213 0.2504798363 0)
(2.891257782 0.2507403291 0)
(2.891387327 0.2509113315 0)
(2.891508988 0.2512849214 0)
(2.891606762 0.2517604583 0)
(2.891609802 0.2520404171 0)
(2.891554947 0.2521653535 0)
(2.891533699 0.2521689549 0)
(2.891521557 0.2521369846 0)
(2.891483447 0.2521718071 0)
(2.891428789 0.2521999169 0)
(2.891375654 0.2522212722 0)
(2.891320177 0.2522621001 0)
(2.891268392 0.2522514395 0)
(2.891115402 0.2523674666 0)
(2.891050533 0.2525537647 0)
(2.891075713 0.2525196556 0)
(2.891140692 0.2524973624 0)
(2.891163636 0.2526306727 0)
(2.891156885 0.2527393368 0)
(2.891106438 0.2528104817 0)
(3 9.820034129e-11 0)
(2.999999999 7.586600223e-10 0)
(2.999999996 5.679815117e-09 0)
(2.999999979 3.272217412e-08 0)
(2.999999895 1.685037652e-07 0)
(2.999999513 8.10674673e-07 0)
(2.999998105 3.173729997e-06 0)
(2.999993036 1.194049483e-05 0)
(2.999977003 4.029460255e-05 0)
(2.999933285 0.0001190698219 0)
(2.999815514 0.0003371406893 0)
(2.999548039 0.0008406445864 0)
(2.998984339 0.001969633436 0)
(2.997906717 0.004072230999 0)
(2.995894211 0.008220003276 0)
(2.992761152 0.01511050055 0)
(2.98873548 0.02322715697 0)
(2.98141261 0.04046752272 0)
(2.974180612 0.05827740592 0)
(2.966200388 0.07457503665 0)
(2.952591124 0.1082010399 0)
(2.947143916 0.1259037521 0)
(2.935231123 0.1524012388 0)
(2.921686325 0.1886646471 0)
(2.923211709 0.1918022596 0)
(2.914315343 0.2129597384 0)
(2.904310872 0.24267319 0)
(2.902861035 0.2432047847 0)
(2.90076229 0.2485684605 0)
(2.895403794 0.2626030117 0)
(2.893588958 0.265222452 0)
(2.891668447 0.2652274043 0)
(2.89127431 0.2680866648 0)
(2.890326391 0.2668558434 0)
(2.889895621 0.2646195167 0)
(2.88861064 0.2605829689 0)
(2.888830432 0.2573731737 0)
(2.889601085 0.257393907 0)
(2.88946621 0.2563758482 0)
(2.88947538 0.2551169814 0)
(2.889390179 0.2545621008 0)
(2.889491017 0.254178712 0)
(2.889772316 0.2538645332 0)
(2.890196588 0.2540835038 0)
(2.890600949 0.2544622581 0)
(2.890775431 0.2546921214 0)
(2.891056638 0.2549998176 0)
(2.891495973 0.2544461326 0)
(2.891550671 0.2538931097 0)
(2.89145593 0.2537178832 0)
(2.891602223 0.2535021739 0)
(2.891569331 0.2533062656 0)
(2.891389404 0.2530158829 0)
(2.891342978 0.2525540999 0)
(2.891443149 0.2523081501 0)
(2.891437337 0.2520769643 0)
(2.89138068 0.2517181288 0)
(2.891470387 0.2516594486 0)
(2.891496746 0.2516888023 0)
(2.891539149 0.2518186425 0)
(2.891520481 0.2519717088 0)
(2.891420692 0.2521761638 0)
(2.891352425 0.2523622047 0)
(2.891353038 0.2524772885 0)
(2.891357244 0.2525934368 0)
(2.891385171 0.2526827798 0)
(2.891350637 0.2528471851 0)
(3 3.032480575e-14 0)
(3 8.197757057e-15 0)
(3 -9.652489009e-14 0)
(3 2.959962292e-12 0)
(3 3.052974478e-11 0)
(3 2.994422308e-10 0)
(2.999999999 2.286740905e-09 0)
(2.999999991 1.396277181e-08 0)
(2.999999951 7.919751693e-08 0)
(2.999999769 3.76618938e-07 0)
(2.999999021 1.627572427e-06 0)
(2.999996185 6.482901809e-06 0)
(2.999987213 2.2042603e-05 0)
(2.999959509 7.23037967e-05 0)
(2.999885641 0.0002045000449 0)
(2.999709672 0.0005384399361 0)
(2.999303055 0.001343295144 0)
(2.998533192 0.002811598227 0)
(2.997075863 0.005901613838 0)
(2.994596054 0.01093774888 0)
(2.990697482 0.01907699771 0)
(2.985365455 0.03203341573 0)
(2.979085298 0.04503131178 0)
(2.969508314 0.06691906757 0)
(2.961087257 0.0894730446 0)
(2.95120911 0.1120561818 0)
(2.939885512 0.1423055088 0)
(2.937507003 0.1508535643 0)
(2.926980621 0.1736705573 0)
(2.916820732 0.2076707034 0)
(2.915610303 0.2057812422 0)
(2.916002656 0.2066995033 0)
(2.908085523 0.2265372943 0)
(2.907489622 0.2293676317 0)
(2.907056015 0.2341708165 0)
(2.900769958 0.2403528517 0)
(2.898649748 0.2439426966 0)
(2.898039649 0.2449488741 0)
(2.895359442 0.2480845945 0)
(2.894642501 0.2514574859 0)
(2.893498749 0.2538766523 0)
(2.891998965 0.2560456571 0)
(2.890960455 0.2571204631 0)
(2.890649297 0.2588127437 0)
(2.89033019 0.2590007779 0)
(2.889995831 0.2581708994 0)
(2.889826926 0.2578815543 0)
(2.889924929 0.2571710216 0)
(2.890047927 0.2558253115 0)
(2.890322294 0.254417875 0)
(2.890770178 0.2530024382 0)
(2.890848897 0.2520044987 0)
(2.890726749 0.251810702 0)
(2.890990856 0.2512531807 0)
(2.891228708 0.2508905823 0)
(2.891356024 0.2511452605 0)
(2.891494958 0.2513478651 0)
(2.891652123 0.2513718515 0)
(2.891880607 0.2516350568 0)
(2.891992715 0.252015156 0)
(2.891965225 0.2522645187 0)
(2.891795686 0.25240478 0)
(2.891663616 0.2524216022 0)
(2.891640665 0.2524170055 0)
(2.891603861 0.2524090705 0)
(2.891566469 0.2523977132 0)
(2.891621606 0.2523106263 0)
(3 2.336030332e-14 0)
(3 1.962210283e-14 0)
(3 1.881169897e-14 0)
(3 1.730677101e-14 0)
(3 1.960924291e-14 0)
(3 -3.684883896e-14 0)
(3 4.238874499e-13 0)
(3 4.769534242e-13 0)
(3 8.628474852e-12 0)
(3 1.128454392e-10 0)
(2.999999999 8.528171894e-10 0)
(2.999999996 6.054149992e-09 0)
(2.999999978 3.597438562e-08 0)
(2.99999989 1.765404186e-07 0)
(2.999999487 8.527720982e-07 0)
(2.999997988 3.396901349e-06 0)
(2.999992844 1.226085715e-05 0)
(2.999976042 4.230450979e-05 0)
(2.999931098 0.0001233127529 0)
(2.999812682 0.0003446962555 0)
(2.999537045 0.0008603043837 0)
(2.998964396 0.002005157937 0)
(2.997886289 0.004201456563 0)
(2.9959547 0.008063586139 0)
(2.99267767 0.01540402 0)
(2.988719243 0.02359058754 0)
(2.981984749 0.03844649879 0)
(2.973708594 0.05994341772 0)
(2.966680917 0.07453439377 0)
(2.953523476 0.1047438404 0)
(2.946608504 0.126442308 0)
(2.938421393 0.1482750035 0)
(2.922331789 0.187903598 0)
(2.920730249 0.1940353579 0)
(2.918650867 0.2065999073 0)
(2.90574915 0.2383707744 0)
(2.903313849 0.2431509696 0)
(2.902709248 0.2462226288 0)
(2.896488238 0.2595795477 0)
(2.894754888 0.2638396181 0)
(2.892968019 0.2637763031 0)
(2.892676403 0.266479488 0)
(2.891577031 0.2648489648 0)
(2.891268444 0.2627020615 0)
(2.89027678 0.2591675549 0)
(2.889770629 0.2563358236 0)
(2.8899721 0.2560173209 0)
(2.889684117 0.2552901203 0)
(2.890091594 0.254002644 0)
(2.890221739 0.2536762551 0)
(2.890359172 0.2534655328 0)
(2.890475927 0.2532249548 0)
(2.890689294 0.2533312694 0)
(2.891027998 0.253799802 0)
(2.891167413 0.2541800463 0)
(2.89141895 0.2546546781 0)
(2.891552653 0.2545961756 0)
(2.891834194 0.2538547393 0)
(2.891912343 0.2535044991 0)
(2.891956091 0.2533836149 0)
(2.891897411 0.2532697282 0)
(2.891708258 0.2530501217 0)
(2.891581311 0.2526644707 0)
(2.891596474 0.2524766287 0)
(2.891522953 0.2522675967 0)
(2.89146319 0.2520026462 0)
(2.89163881 0.2518291079 0)
(3 2.314423122e-14 0)
(3 2.171922748e-14 0)
(3 1.994914424e-14 0)
(3 1.866160169e-14 0)
(3 1.755519156e-14 0)
(3 1.606652796e-14 0)
(3 1.371649145e-14 0)
(3 8.396387926e-15 0)
(3 1.350007697e-16 0)
(3 -1.6389018e-15 0)
(3 1.333425117e-13 0)
(3 -2.123298314e-13 0)
(3 3.02120185e-12 0)
(3 3.738383902e-11 0)
(3 3.33897979e-10 0)
(2.999999998 2.585078929e-09 0)
(2.99999999 1.558144454e-08 0)
(2.999999946 8.599768992e-08 0)
(2.999999746 4.181812936e-07 0)
(2.999998951 1.745223957e-06 0)
(2.999995918 6.988798114e-06 0)
(2.999986289 2.374826775e-05 0)
(2.99995798 7.55386463e-05 0)
(2.999880258 0.0002175831203 0)
(2.999700244 0.0005534199146 0)
(2.999288788 0.001381930541 0)
(2.998476553 0.002935720646 0)
(2.997031643 0.005946246377 0)
(2.994564216 0.01121294587 0)
(2.990615122 0.01924828229 0)
(2.985276305 0.03207604857 0)
(2.978900116 0.04617780321 0)
(2.969906294 0.06610571517 0)
(2.961651712 0.0876881382 0)
(2.951324556 0.1123665068 0)
(2.939545536 0.1443675657 0)
(2.937525015 0.1507398907 0)
(2.930329385 0.167533344 0)
(2.917511302 0.2047088801 0)
(2.915257233 0.207818692 0)
(2.916522932 0.20616825 0)
(2.909326719 0.2242618534 0)
(2.907946596 0.2277666068 0)
(2.907892246 0.2318667056 0)
(2.902141379 0.2380505607 0)