/*--------------------------------*- C++ -*----------------------------------*\
  =========                 |
  \\      /  F ield         | OpenFOAM: The Open Source CFD Toolbox
   \\    /   O peration     | Website:  https://openfoam.org
    \\  /    A nd           | Version:  7
     \\/     M anipulation  |
\*---------------------------------------------------------------------------*/
FoamFile
{
    version     2.0;
    format      ascii;
    class       volScalarField;
    location    "4.3";
    object      T;
}
// * * * * * * * * * * * * * * * * * * * * * * * * * * * * * * * * * * * * * //

dimensions      [0 0 0 1 0 0 0];

internalField   nonuniform List<scalar> 
2222
(
1.10300367
1.096295114
1.093473544
1.092325796
1.092824945
1.094491016
1.095893888
1.096258755
1.096221349
1.095982619
1.095782973
1.095585652
1.095366749
1.094882277
1.094870363
1.09496942
1.094908944
1.094338919
0.9598029233
1.059620974
1.093208601
1.102886869
1.103536902
1.099264552
1.093990548
1.090569137
1.089974363
1.091742132
1.09373726
1.094635612
1.095042579
1.095166149
1.095023215
1.094849443
1.094674538
1.094335086
1.093850078
1.093979172
1.09463959
1.095058552
1.094633735
0.942514675
1.023430687
1.072219799
1.088681311
1.092188821
1.090202739
1.088619599
1.088032557
1.089695228
1.090303374
1.090520613
1.091142748
1.091773595
1.092245739
1.092443618
1.092483507
1.09247926
1.09221377
1.092242427
1.093088121
1.09414044
1.094424597
1.093853081
0.9359660761
0.9908645863
1.05035531
1.076800245
1.081858319
1.081728584
1.083266772
1.086056065
1.086943108
1.086071214
1.08565321
1.086273403
1.087257145
1.088142913
1.088780579
1.089188883
1.089355285
1.089488748
1.090165306
1.091295674
1.092001447
1.092094955
1.091519796
0.9312425354
0.9694111788
1.02527832
1.064845798
1.075761766
1.077429526
1.080190445
1.081562368
1.081235781
1.080613923
1.080431897
1.08103892
1.082563065
1.084098224
1.085015114
1.085384634
1.085454611
1.085706815
1.086551601
1.0874195
1.088096516
1.088327194
1.08793261
0.9279773123
0.9603652222
1.013362574
1.054858306
1.072510864
1.076077128
1.077173786
1.076095576
1.074523829
1.074161365
1.074695731
1.076332241
1.078437999
1.079691528
1.080320801
1.080547752
1.080602624
1.08088999
1.081531719
1.08220026
1.08295115
1.08352355
1.083395996
1.082748019
0.9265991629
0.9523278294
1.007354492
1.051460484
1.070323016
1.07440944
1.074134894
1.071855993
1.069233113
1.068546272
1.069737642
1.072210534
1.073795501
1.074861194
1.075489603
1.075541825
1.075603991
1.075813462
1.076127269
1.076599193
1.077359295
1.0781633
1.078224422
1.077801131
0.9221584706
0.9394997303
0.9864336158
1.042347187
1.066152614
1.070453689
1.068563688
1.065749558
1.065104239
1.064961112
1.066598729
1.067654343
1.068259516
1.069017262
1.069897048
1.070427577
1.070798351
1.07091868
1.070958803
1.071195373
1.07186708
1.072777511
1.073052327
1.072678574
0.918272081
0.9303414913
0.9585543896
1.016829094
1.057207515
1.063549185
1.060742749
1.06037255
1.061496025
1.062748829
1.063003827
1.062668396
1.062330039
1.0627826
1.063817843
1.064700809
1.065324504
1.065570883
1.065593062
1.065852267
1.066714907
1.067652813
1.067989018
1.067527457
0.9166892351
0.9249148349
0.9446193724
0.9890719982
1.036297073
1.052464061
1.054968125
1.056450209
1.058741825
1.059154901
1.058521739
1.05713352
1.056310494
1.057111744
1.058021852
1.059018486
1.059732879
1.059852709
1.059898809
1.060328662
1.061393458
1.062159632
1.062289663
1.06180679
0.9143166537
0.9203595618
0.9365626934
0.9730722385
1.017052921
1.04134746
1.050370756
1.053554111
1.054821236
1.054470024
1.052627561
1.051051637
1.051322994
1.052135719
1.053090543
1.053825488
1.05404619
1.053982536
1.054105921
1.054819261
1.055657615
1.056337944
1.056351683
1.055707026
0.9115387634
0.9154034661
0.9243659752
0.9587139498
1.004451008
1.033283455
1.046582846
1.049372629
1.049923083
1.047975275
1.046018264
1.045695985
1.046623328
1.047549994
1.048219752
1.048747272
1.048780274
1.04858017
1.048686473
1.049153293
1.049635982
1.050046934
1.050032107
1.049600176
1.049275444
0.9094165519
0.9116631472
0.9154148042
0.9381856819
0.9873008681
1.027465375
1.041267472
1.04355284
1.04246259
1.040645288
1.039893647
1.040595752
1.041638933
1.042184124
1.042763468
1.04319087
1.043399594
1.043121977
1.043152644
1.043481709
1.0434425
1.043736284
1.043799614
1.043436653
1.04304181
0.9081995765
0.9093450172
0.9113126992
0.9224343065
0.9618676878
1.01514604
1.034043537
1.035403856
1.033706922
1.033918485
1.033969651
1.035338732
1.036006367
1.03627604
1.036377102
1.036778543
1.037326781
1.037579007
1.037541965
1.037367013
1.037450413
1.037937062
1.038095799
1.038022832
1.037415535
0.9068257964
0.906977205
0.9074765493
0.914064367
0.9414082108
0.9878896184
1.01863163
1.025274521
1.026161897
1.027569351
1.028834888
1.029623613
1.029575543
1.028836611
1.029141661
1.030042868
1.031098353
1.031502709
1.031430122
1.031406195
1.031730351
1.032438891
1.032636414
1.032514018
1.031730456
0.9058300188
0.9048340362
0.9022222054
0.9051660335
0.9265739225
0.9660735028
1.000590165
1.015792168
1.02044173
1.022737098
1.023277399
1.023484735
1.022245611
1.021970611
1.022832974
1.023929394
1.025071729
1.025581804
1.025492694
1.025559705
1.026210085
1.026849696
1.02711049
1.026910024
1.026124274
0.9048690903
0.9033931163
0.8986716583
0.8962779183
0.9110499286
0.9498541346
0.9876333658
1.008208463
1.016022939
1.017743456
1.017937767
1.016698868
1.01577027
1.016394744
1.017362773
1.018477859
1.019462699
1.019875897
1.019804311
1.019924453
1.020648613
1.021242221
1.021514779
1.020790656
1.019985094
0.9034168024
0.9018614428
0.8967070248
0.8915325875
0.8971401624
0.9290177666
0.9774138775
1.004198313
1.01114479
1.012917823
1.011713992
1.010548688
1.010603537
1.011718606
1.012755943
1.013500003
1.014143584
1.014389861
1.014424262
1.014580391
1.015066289
1.015194998
1.015410405
1.014719903
1.014251285
0.9021922009
0.9012240325
0.8947401687
0.88838337
0.8890744623
0.9089287436
0.958719043
0.9960245231
1.006067064
1.007110458
1.005499299
1.00553579
1.006444594
1.007556992
1.008245916
1.008520463
1.008860048
1.009257344
1.009477314
1.00958497
1.009631559
1.009611049
1.009805179
1.00931964
1.008983103
1.009088835
0.9017900358
0.9010419674
0.8934108234
0.8844774327
0.8829182261
0.8973595562
0.9361890204
0.9803595718
0.9984324381
1.000641961
1.000604975
1.001540343
1.002865303
1.003585523
1.003200306
1.003207783
1.003841944
1.004574511
1.004972174
1.005062071
1.004969713
1.005021918
1.005204207
1.004947643
1.004579532
1.004562249
0.9023270615
0.9004754378
0.8932436134
0.8818539327
0.8762307067
0.8868446036
0.9211783966
0.963910349
0.9883080393
0.9956893745
0.9968637362
0.9981928161
0.9992974316
0.9988821273
0.9984076353
0.9987528375
0.999571685
1.000463828
1.001011644
1.001188682
1.001192299
1.001426039
1.001646982
1.001488146
1.001021472
1.00076887
0.9025733204
0.899897646
0.8931520634
0.8805894625
0.8717398631
0.8756090585
0.9048714736
0.9510968595
0.9805743873
0.9922475695
0.9945658702
0.9956402072
0.9955508697
0.9948385946
0.9949119034
0.9955196637
0.9962544433
0.9970044568
0.9976035036
0.9978420398
0.9980186979
0.9984797921
0.998784934
0.9986873155
0.9981500158
0.9978286508
0.9028351529
0.8997259705
0.8927241128
0.8794811907
0.8686002944
0.8678017775
0.8860672876
0.935407119
0.9749754774
0.9893223997
0.9925203703
0.9933338618
0.99234357
0.9922452417
0.9929094461
0.9935463529
0.9941286429
0.9946428329
0.9950186546
0.9950850008
0.9953335531
0.9960308
0.9964715133
0.9967806777
0.9962001416
0.9961179912
0.9029015007
0.8997115112
0.8922757985
0.8782643348
0.8652333738
0.8623954231
0.8742997232
0.9141210345
0.9650324738
0.9866749125
0.9908719565
0.9905053703
0.9900402761
0.990688
0.9917303746
0.9923345485
0.9927518094
0.9931323661
0.9933468234
0.9935169114
0.9939815026
0.9947638502
0.9953339767
0.9957643583
0.9951996633
0.9951587962
0.9021633305
0.90001935
0.8922418401
0.8777631624
0.8626793176
0.8569792308
0.8667159315
0.8988446264
0.9481694477
0.981848354
0.9884518049
0.9879467732
0.9884441551
0.9897179855
0.9907588456
0.9912060475
0.9915301888
0.9920502086
0.9924865994
0.9928696562
0.9935111634
0.9942321756
0.9948567952
0.9951321977
0.994616153
0.9944770293
0.9944595026
0.9019492777
0.9005011482
0.8923929422
0.8776240342
0.861290842
0.8530998292
0.8582148485
0.8871105891
0.9344468155
0.9727220597
0.9844092413
0.9863479584
0.9873666297
0.9889598619
0.9895648974
0.9896853812
0.9901808976
0.991073534
0.9918714992
0.992512607
0.9932365231
0.9938923735
0.9944568386
0.9946207439
0.9940151626
0.9939007891
0.9938890532
0.9024171064
0.9010159395
0.892616163
0.8775648921
0.8603713835
0.8503411089
0.8511198059
0.8716046877
0.9227272655
0.9656662443
0.9823609323
0.9859483002
0.9874615318
0.9883673616
0.9881962667
0.9883669827
0.9891759034
0.9902021503
0.9912227636
0.9921220271
0.9929524
0.9935259819
0.9939753957
0.9938730676
0.9931397674
0.9929164825
0.9929034555
0.9031366878
0.901789997
0.8932767988
0.8776227977
0.8596973355
0.847826156
0.8465235911
0.8583937977
0.9034352826
0.9577707553
0.9816784032
0.9862506478
0.9875723866
0.9875843071
0.9874106059
0.9881462802
0.9890657512
0.9898845139
0.990796618
0.9917411586
0.9925045709
0.9929297443
0.9931069311
0.9930355709
0.9924110641
0.9921924405
0.9922811947
0.9042735015
0.9027214548
0.8943041458
0.878282211
0.8593340313
0.8459414609
0.8425779345
0.8513787209
0.8836089984
0.9415027968
0.9763791554
0.9861004884
0.9877177925
0.9868993122
0.9878677688
0.9888777327
0.9896440678
0.9902261181
0.9908508807
0.9915255917
0.9920684346
0.9923308273
0.9924859096
0.993021038
0.9924887684
0.9922613794
0.992369732
0.9064848908
0.9036479164
0.8953563686
0.878931562
0.8589309769
0.8443306033
0.8394307764
0.8458897817
0.8723565487
0.920655702
0.9664755064
0.9852621633
0.986841775
0.9873790211
0.9888231877
0.9897605979
0.9903333968
0.9907632443
0.9912036394
0.9917853809
0.992095848
0.9923009274
0.9927498212
0.9935474875
0.9930663499
0.9927933006
0.9929061139
0.9081840699
0.9046406776
0.8965196853
0.8797472773
0.8585467128
0.8429215317
0.8374203014
0.8406036642
0.8622926206
0.9084404824
0.9574726738
0.9820927454
0.9866903997
0.9881737029
0.9894999702
0.9903988163
0.9907663174
0.9911524035
0.991701423
0.9922155521
0.9924030794
0.9926983935
0.9934279169
0.9942904436
0.9938811288
0.9935132887
0.9933990539
0.9091071455
0.905509114
0.897359427
0.8805145253
0.8585233165
0.8421018587
0.8357346844
0.8370926568
0.8513488061
0.8978156598
0.9512886653
0.9808088178
0.988123846
0.9892937994
0.9902969403
0.9907081
0.9907796755
0.9913107223
0.9920229853
0.9924395243
0.9927277648
0.9933007249
0.9942917501
0.9949291629
0.9945049535
0.9939288583
0.9936015255
0.9935406357
0.9091658403
0.9062069976
0.8979575371
0.8812398148
0.8588068807
0.8415748595
0.8345177238
0.8347894532
0.8442457174
0.8796669445
0.9424063201
0.9808135878
0.989173166
0.9905567656
0.9912703675
0.9905792892
0.9907208247
0.9915113839
0.9922737568
0.9926987756
0.9931564706
0.9940594717
0.9950274255
0.9955261986
0.9949855589
0.9940650557
0.9936255334
0.993616037
0.9093283201
0.9066816151
0.8984837824
0.8818354532
0.8594026868
0.841411315
0.8334903972
0.8327479852
0.839902029
0.8647173768
0.921471163
0.9719855953
0.9879112512
0.9916300611
0.9911004566
0.9911695076
0.9917492994
0.9925194354
0.9930410514
0.9935616169
0.9942143799
0.9950779595
0.9957699512
0.995775009
0.9950667934
0.9941534147
0.9940208146
0.9943071892
0.9093935618
0.9069629793
0.8988096233
0.8823329879
0.8604325509
0.8413623777
0.8324007357
0.8311115535
0.8359004699
0.8565384118
0.8995092479
0.9537163224
0.9827150183
0.9910131813
0.9914395907
0.992457513
0.993370027
0.9940548751
0.9943930596
0.9949121641
0.9956699983
0.9962831355
0.9964699783
0.996255702
0.9958005684
0.9951855115
0.9951011601
0.9953588442
0.9093229403
0.9074072915
0.8992382892
0.8830134118
0.8611841196
0.8413568594
0.8315288329
0.8298674288
0.8328746373
0.8492074301
0.8891439542
0.9388673136
0.9771552913
0.9905078647
0.9928943873
0.9947445573
0.9954993719
0.9957450453
0.996052165
0.9966747282
0.9972872304
0.9975309848
0.9973916944
0.9976291006
0.9974206622
0.9967499775
0.996534895
0.9967415286
0.9100178089
0.9078049931
0.8995931156
0.8833681687
0.8613447813
0.8412618478
0.8309585201
0.8291614078
0.8312852423
0.8426851653
0.8788506739
0.9338349064
0.976634157
0.9920794872
0.9955418372
0.9967174885
0.9970642075
0.9972952711
0.9976488351
0.9982905177
0.9988268704
0.9987270088
0.9987396332
0.9993577085
0.9995148585
0.998737964
0.9984411844
0.9985826507
0.9113270071
0.9076766617
0.8995354552
0.883351391
0.8612782328
0.8411874023
0.8307184433
0.8288936905
0.8304299999
0.8385674557
0.8648475818
0.9266643511
0.9777389164
0.9950144251
0.9975945849
0.9981810976
0.9983342313
0.998261073
0.9988182619
0.9996460425
0.9998708814
0.9997613177
1.000329146
1.001354494
1.001755164
1.000897437
1.000455752
1.000369709
1.000911496
0.911802301
0.90728838
0.8990792089
0.8829764521
0.861198973
0.8413130614
0.830575496
0.8284879391
0.8295511864
0.8357301923
0.8554251238
0.9061215213
0.9702295695
0.9957589428
0.9988206381
0.9993267898
0.9987528235
0.99912723
0.9998277024
1.000528773
1.000617916
1.000908786
1.001922977
1.003329982
1.003480222
1.002632207
1.002228694
1.001745725
1.001980167
0.9115941265
0.906543182
0.8981716787
0.8824210806
0.861170886
0.841984769
0.8305843073
0.8279636822
0.8288307758
0.8334585205
0.8494034031
0.8875176156
0.9488983418
0.9887408908
0.9980644455
0.9994862604
0.9997555765
1.000536539
1.001202006
1.001593086
1.001883313
1.002413926
1.003586279
1.004791337
1.004764756
1.004008935
1.00317666
1.002698147
1.003077041
0.9110601739
0.9058320252
0.8973659841
0.8818685319
0.8613094211
0.8427535984
0.8308103694
0.8276472632
0.8284579071
0.8320873945
0.8441022543
0.8765877367
0.9280712381
0.9746928684
0.9956471004
1.000209744
1.001068346
1.001975312
1.002631909
1.002958828
1.003401009
1.004103622
1.005100347
1.005685231
1.005536016
1.004534036
1.004031885
1.004020828
1.004477312
0.9105931365
0.9054500489
0.8964904276
0.8813666206
0.8614941242
0.8430282947
0.8310355035
0.8274548254
0.8282463304
0.8313754238
0.8401362214
0.866293426
0.9176403289
0.9664497895
0.9944247495
1.001568894
1.003140451
1.003874713
1.004303004
1.00453132
1.005002442
1.00570828
1.006211786
1.006296423
1.006252701
1.005697064
1.005238826
1.005240196
1.00573174
0.9106367833
0.905045574
0.8957884548
0.8810303667
0.8614710025
0.8430799246
0.8312323769
0.827370747
0.8280741273
0.8307617004
0.8377600669
0.857063736
0.9054888787
0.964925788
0.9962662124
1.0038808
1.005012959
1.005365076
1.005470739
1.005820092
1.00640489
1.006812915
1.006920622
1.00706522
1.007316808
1.007198848
1.006496022
1.00651196
1.007046753
0.9106070138
0.904482889
0.8950429436
0.8805619211
0.8611998525
0.8431618376
0.8315867564
0.8274358025
0.827900571
0.8301838215
0.8361424116
0.8512695306
0.8897440454
0.9570732045
0.9958572833
1.005163524
1.006043186
1.006072653
1.006072896
1.00645995
1.007039108
1.007315413
1.007396736
1.007906478
1.008574512
1.008434865
1.007670021
1.007614775
1.007933927
0.9103504049
0.9039089096
0.8942650226
0.8798909308
0.8606546665
0.8432481252
0.83211542
0.8279509572
0.8278649223
0.8299314127
0.8350117308
0.8468198739
0.878251319
0.937498383
0.9912875036
1.00541759
1.006508489
1.005793063
1.0061768
1.006713878
1.007272003
1.007575701
1.007774171
1.0085202
1.009593346
1.009117853
1.008281785
1.008207464
1.008485787
1.00955581
0.9100662754
0.9032962178
0.8933031573
0.8789834872
0.8603157832
0.8432974651
0.8327500893
0.828325482
0.8278625166
0.8299152887
0.8344904363
0.8435291041
0.8678696068
0.9189408659
0.9754241364
1.001033153
1.005299014
1.005725998
1.006501932
1.006961654
1.007215909
1.007341235
1.00776365
1.00894527
1.009931131
1.0093983
1.008471764
1.008398188
1.00860377
1.009766308
0.9099315551
0.9027379157
0.8928051519
0.8785086569
0.8600079223
0.8433783317
0.8331609149
0.8286009062
0.8278411168
0.8299331869
0.8342336693
0.8413965977
0.8585748674
0.9030099761
0.9571067931
0.9921022435
1.004355746
1.006035009
1.006825634
1.007349054
1.007678945
1.00787026
1.008259848
1.009226096
1.010020318
1.00942047
1.009078064
1.008835569
1.008997628
1.010125539
0.9102544328
0.9025563476
0.8925244322
0.8781084762
0.8598591165
0.8432770152
0.8333213596
0.8288235247
0.8278487
0.8299696024
0.8339072961
0.8398958012
0.85271764
0.8872365547
0.9466127938
0.9868978479
1.004267834
1.007265838
1.007777166
1.008159331
1.008252528
1.008346103
1.008796005
1.009401307
1.009872639
1.009870187
1.009477829
1.009212676
1.009430237
1.010455143
0.9114441557
0.9034599752
0.8924205298
0.8779157378
0.8596038614
0.8430153211
0.8332478806
0.8290335333
0.8279733006
0.82996094
0.833682298
0.8387805229
0.8491317099
0.8763967794
0.9338778064
0.9867994418
1.005451036
1.008589163
1.008911265
1.00870773
1.008636315
1.00867842
1.00919191
1.009493095
1.010076841
1.010429093
1.00982945
1.009631507
1.009788882
1.010644739
0.9120717394
0.9044888938
0.8926177252
0.8776820342
0.8590249719
0.8423405562
0.8331579152
0.8291782676
0.8280929826
0.8299865149
0.8335941003
0.8382220694
0.8462802518
0.8690214485
0.9178894592
0.9808681867
1.004782246
1.008646698
1.009195016
1.008807191
1.008838464
1.009008605
1.009344178
1.009711175
1.010612411
1.011080767
1.01023562
1.009876666
1.009938095
1.010689714
0.9121985965
0.9051853568
0.8929754009
0.8771841198
0.8581669898
0.8415813648
0.8330067759
0.8294827191
0.828299019
0.8299842939
0.8336255519
0.8381246003
0.8442050755
0.8604248298
0.9046501423
0.9636949811
1.000786113
1.008229718
1.008625912
1.008941576
1.008986348
1.009181727
1.009426311
1.010165428
1.011186568
1.011431666
1.010373155
1.01002559
1.010027704
1.01071061
0.911629296
0.9058914405
0.8932273382
0.8765233326
0.8569669044
0.8408046018
0.8329096251
0.8298614402
0.8283678712
0.8299752332
0.8337482455
0.838146017
0.8430043058
0.8539926694
0.888998492
0.9471434258
0.9907759497
1.004959819
1.007581071
1.008854798
1.009208947
1.009435989
1.009711391
1.01048213
1.011277188
1.011364091
1.010543931
1.010344347
1.010158118
1.010673863
1.011595998
0.9117770924
0.906720544
0.8935147062
0.8753113858
0.8555068113
0.8400013617
0.8328759899
0.8298795855
0.8283838166
0.8300502187
0.8338887855
0.8381512706
0.8423671787
0.8507480268
0.8751646593
0.9310472285
0.9790649401
1.001403482
1.007558206
1.008866007
1.009600196
1.009780625
1.009956692
1.010469588
1.01114843
1.011299522
1.011036195
1.010590837
1.010353402
1.01082665
1.011964297
0.9123231898
0.9077671354
0.8940300057
0.8744957557
0.8541165464
0.8392983186
0.8325639574
0.8297333723
0.8283954538
0.8301437087
0.8340250267
0.8381872347
0.8419065988
0.8484988197
0.8676982989
0.913375508
0.9711952803
1.000209441
1.00852088
1.009746495
1.010120064
1.010063749
1.010014755
1.010189464
1.010782105
1.011475064
1.01158775
1.010722788
1.010654035
1.011329846
1.012396976
0.9131580408
0.909221734
0.8948909931
0.8740746386
0.8529443886
0.8383989854
0.8320781248
0.8294053962
0.8284197615
0.830384664
0.834139327
0.8381540598
0.8415579769
0.8463358848
0.8614511785
0.8999704829
0.9617839507
1.000933176
1.009647795
1.010426249
1.010197319
1.009940857
1.009829022
1.009898114
1.010724309
1.01196105
1.012025934
1.01099725
1.010990575
1.011731043
1.012590195
0.9142705613
0.9115327246
0.8964549809
0.8738997418
0.8519928955
0.8374504222
0.8313046709
0.8291691052
0.8285031769
0.8306802021
0.8342177793
0.8381912516
0.8414292238
0.844935081
0.8550838096
0.8903959817
0.9485706202
0.9977100806
1.009165536
1.010465821
1.009939131
1.009703735
1.00970244
1.00996743
1.011227825
1.012575101
1.012473496
1.011340178
1.011105728
1.011709052
1.012446064
0.9160161771
0.9139063384
0.8981389215
0.8738085385
0.8511569352
0.8365275552
0.830680103
0.8290007119
0.8288600291
0.8308566045
0.8344165864
0.8383549109
0.8414189351
0.8442979309
0.8513379442
0.8769811374
0.9346872795
0.9847962
1.006538574
1.009496788
1.009743422
1.01000675
1.010042198
1.010614725
1.012110323
1.013081433
1.012580799
1.011285272
1.010984031
1.011448316
1.012060546
0.9174704
0.9157630176
0.8995067226
0.8738027135
0.8504805376
0.8355597224
0.8302117673
0.8290709565
0.8290792003
0.8309936199
0.8346373816
0.8385444083
0.8413930256
0.8438159278
0.8491100002
0.8664314468
0.9157056832
0.9707978234
0.9992925598
1.007570956
1.009844922
1.010427451
1.01068557
1.011591966
1.012446567
1.012996865
1.012331826
1.011133648
1.010711115
1.011111748
1.011882124
0.9184062174
0.9173230209
0.9005585178
0.8737831193
0.8497431192
0.8347600392
0.8299437821
0.8291279259
0.8290333061
0.8311206815
0.8349228718
0.8386891645
0.8413464531
0.8433505067
0.8473609914
0.860808388
0.8968557193
0.9579654969
0.9931334409
1.006861252
1.010496275
1.011154869
1.011377182
1.011746837
1.012259689
1.012673859
1.012035037
1.010819224
1.010677763
1.011061454
1.012131816
0.9181151098
0.9187345235
0.9014518777
0.8736189974
0.8492204568
0.8343393614
0.8296448038
0.8289618738
0.8288786029
0.8313286417
0.835313474
0.8387986966
0.8413066742
0.8431281204
0.8459216538
0.855844218
0.8866690223
0.9441965143
0.9920628558
1.008292569
1.01125047
1.011568503
1.011373677
1.011478472
1.011845353
1.012287257
1.011714431
1.011141748
1.011065073
1.011465355
1.012724126
1.013314429
0.9185079627
0.9199901125
0.9023705532
0.8735716164
0.8490421725
0.8341257192
0.8293651485
0.828622454
0.828867431
0.8317548105
0.835585185
0.8388939687
0.841356824
0.8430865559
0.8451514451
0.8518757514
0.8782218716
0.9299846074
0.987387073
1.008799183
1.011350062
1.011489351
1.011060676
1.011006508
1.011357353
1.011770821
1.011964745
1.011810849
1.011590372
1.011901428
1.013153023
1.013444228
0.9195180718
0.9213420985
0.903535568
0.8739006622
0.8490144907
0.8340655756
0.8290748758
0.8283291024
0.8291359625
0.8320469491
0.8357615235
0.8390308589
0.8415016216
0.8431316451
0.8448743425
0.8495929726
0.867365117
0.9178439251
0.9772646878
1.007305923
1.010966159
1.010834762
1.010452673
1.010539169
1.010924661
1.011747597
1.012846966
1.012469205
1.011759744
1.011871288
1.013090185
1.013238745
0.9204476672
0.9223242194
0.9046379207
0.8750081057
0.8491994471
0.8340166318
0.8288539958
0.8282791064
0.829210848
0.8321382891
0.835903249
0.8391693482
0.8416494598
0.8431273646
0.8445596677
0.8481190543
0.8607382414
0.9010137636
0.9609960332
0.9984504019
1.008461793
1.009854127
1.010117992
1.010315233
1.010824325
1.012328079
1.013627106
1.012524618
1.01155928
1.011558738
1.012808027
1.012898104
0.92091101
0.9226597597
0.9051579977
0.8765431928
0.8497364826
0.8341253841
0.8287727616
0.8282887776
0.8291923134
0.8322163132
0.8361432258
0.8393871934
0.8416876413
0.843044039
0.8442484738
0.8468633656
0.8561685229
0.8851872174
0.9447931993
0.9885821648
1.005763507
1.009602522
1.010003736
1.010598069
1.011728658
1.013212754
1.013590463
1.012237567
1.011270036
1.011181776
1.0122992
1.01272038
0.9210395494
0.9226673317
0.9052201734
0.8772437769
0.8505983488
0.8340256913
0.8287815563
0.8283054652
0.8292820894
0.8324779859
0.8366044343
0.8396062642
0.8416635828
0.8429774757
0.8440999325
0.8458884797
0.8523407258
0.8768123499
0.9308123278
0.9806734382
1.003597613
1.010209452
1.011027805
1.011553457
1.012335561
1.013176187
1.013287074
1.011867129
1.010855894
1.010897922
1.012070487
1.013027381
0.9195856996
0.9220296051
0.9050673371
0.8774706651
0.850884515
0.8339433255
0.8288425576
0.8283863196
0.8295735868
0.8329441145
0.8369200533
0.8397022085
0.8416582824
0.8429550799
0.8440218992
0.8454085132
0.850102333
0.8687129391
0.9139611715
0.9751383611
1.004157936
1.011266111
1.011714154
1.011851241
1.0121839
1.012766714
1.012796964
1.011395477
1.010691416
1.010749207
1.012123224
1.013366777
0.916911759
0.9203814106
0.9048101696
0.8777858183
0.8509500019
0.8340641933
0.8289500999
0.8284132173
0.8298606573
0.8332408602
0.8370784682
0.8397014562
0.8416709357
0.8430701725
0.8439935927
0.8451331927
0.8483976322
0.8603514712
0.8995384766
0.9630083629
1.002304658
1.011163513
1.011749221
1.011455371
1.011546726
1.012128054
1.012323274
1.011457849
1.010938915
1.011081584
1.012461474
1.013490984
1.012699294
0.914845293
0.9187825036
0.9042909695
0.8779460869
0.8513804738
0.8346646481
0.8290502456
0.828555508
0.8300818065
0.8334163284
0.8371491929
0.8397406321
0.841909337
0.843220859
0.8439627912
0.8448721751
0.847132119
0.8561746838
0.8877298848
0.9455306717
0.9943000063
1.010374884
1.010884019
1.01045271
1.010892711
1.011513222
1.012171285
1.01182512
1.011355421
1.011460199
1.012620808
1.013422492
1.012576089
0.9130057704
0.916864515
0.9037799189
0.8776893431
0.8518944489
0.8350240217
0.8291369922
0.8288136774
0.8303361744
0.8336919849
0.8373690624
0.8399791432
0.8420929775
0.8432261291
0.8439286436
0.8447651934
0.8463548433
0.8525143291
0.8762605509
0.9325595931
0.9835804612
1.005900176
1.009130135
1.010023554
1.010558811
1.011274267
1.012349214
1.012611737
1.011576808
1.011273838
1.012332093
1.013237515
1.012389341
0.911119374
0.9146993817
0.9031288163
0.8770468693
0.8518871861
0.8350830417
0.8293349643
0.8291105929
0.8305190207
0.8340511698
0.8378749881
0.8403359808
0.8420847468
0.8431701685
0.843925031
0.844727389
0.8459154704
0.8502568218
0.8683023497
0.9172309942
0.9747531528
1.001767243
1.008170057
1.009796773
1.010541937
1.011670964
1.012973685
1.012950878
1.011309938
1.010895234
1.011925125
1.012963585
1.012058826
0.9092301491
0.912452903
0.9020979316
0.876232265
0.8515050975
0.8352282727
0.8296200665
0.8293517117
0.8307585495
0.8345935673
0.8383752215
0.8404866983
0.8420064956
0.8431637179
0.8439392534
0.8447247607
0.8456685538
0.8487105469
0.8605696694
0.8986430178
0.9629021675
0.9973094382
1.008594796
1.010735549
1.011313806
1.012266606
1.013063595
1.012757156
1.010924939
1.010376076
1.011318943
1.012741328
1.011825478
0.9074371705
0.9100901772
0.9008592473
0.8753989969
0.8511986512
0.8354718291
0.8298089279
0.8293379411
0.8311047046
0.8350568401
0.8386425814
0.840539232
0.8420020462
0.8432666391
0.8441191279
0.8447746386
0.8454658255
0.8472132183
0.8553175762
0.8859996014
0.9449544613
0.9939539348
1.009430574
1.011378426
1.011635249
1.012164788
1.01276813
1.012414728
1.010505396
1.010061733
1.010965523
1.012663001
1.011955727
0.9058194554
0.9076441934
0.8993811637
0.8745615459
0.851101655
0.8357084903
0.8297003781
0.8294058473
0.8314499596
0.8354072772
0.8387643292
0.8405764233
0.8421821979
0.8436282824
0.8443382346
0.8448367086
0.8453563681
0.8465830503
0.85289969
0.8768539094
0.9285686925
0.98740003
1.008667115
1.011108716
1.011398013
1.011432447
1.012267213
1.011998729
1.010269452
1.009951669
1.010832303
1.012949706
1.012435768
0.9046450137
0.9059346654
0.8977783888
0.8736116992
0.8507739988
0.8358190299
0.8296252536
0.8295810098
0.8317635556
0.8357033936
0.8390534028
0.8407870103
0.8425386974
0.8437872809
0.8443811032
0.8448377083
0.8453084908
0.846295832
0.8504049084
0.8682513812
0.9182375764
0.9740437543
1.005583194
1.010445264
1.010202944
1.010731272
1.01173677
1.011750822
1.010271105
1.01013956
1.011064695
1.013346451
1.012676205
0.9037751145
0.904868672
0.8966201098
0.872408576
0.8499821792
0.8354349877
0.8295829707
0.8297234843
0.8320660977
0.8360905913
0.8395210654
0.841226668
0.8427035926
0.8438026402
0.844341968
0.844815337
0.8452599296
0.8459533699
0.848545244
0.8611850387
0.9035750157
0.9636299414
0.9979603163
1.007999624
1.009130387
1.01025357
1.011345046
1.011783935
1.010571219
1.010504327
1.011304085
1.013318031
1.012567184
1.011685591
0.9030573629
0.9040634208
0.8959836849
0.8709750663
0.8489032518
0.8347102771
0.8294725769
0.8298362242
0.832410119
0.8365937122
0.8400612302
0.8415783779
0.8427081196
0.8437949121
0.8444021399
0.8448898196
0.8452715456
0.8457324903
0.8474045799
0.8552967427
0.8865567842
0.9518629708
0.9924843563
1.006054646
1.008797619
1.010267517
1.011372262
1.012182814
1.010961555
1.010319854
1.011035961
1.013020498
1.012273736
1.011250567
0.9024773598
0.9029043848
0.8948752874
0.8692595377
0.8473283409
0.8338643841
0.8292581686
0.829842632
0.8326729922
0.8371162656
0.8404293917
0.8418107394
0.8427602555
0.8439282833
0.844768372
0.8451452298
0.8453545569
0.8455646529
0.846600685
0.852544403
0.8756972904
0.9315508862
0.988078431
1.005490257
1.009610261
1.010810562
1.011692968
1.012563236
1.010931539
1.009958927
1.010511599
1.012668301
1.011739055
1.011009792
0.902289897
0.9016086632
0.8929852538
0.8672013704
0.8453411218
0.8330167786
0.8289553556
0.8297343023
0.832926308
0.8375060722
0.8406518681
0.8419206457
0.8429107444
0.8443320873
0.8451796037
0.8453265724
0.8453857135
0.8454987295
0.8462226759
0.8505648026
0.8682829285
0.914061674
0.9773840098
1.004921751
1.010106536
1.010988777
1.01197826
0.9023679761
0.9007274046
)
;

boundaryField
{
    inlet
    {
        type            fixedValue;
        value           nonuniform 0();
    }
    outlet
    {
        type            inletOutlet;
        inletValue      nonuniform 0();
        value           nonuniform 0();
    }
    bottom
    {
        type            slip;
    }
    top
    {
        type            slip;
    }
    obstacle
    {
        type            zeroGradient;
    }
    defaultFaces
    {
        type            empty;
    }
    procBoundary21to15
    {
        type            processor;
        value           nonuniform List<scalar> 
24
(
1.103021924
1.098617734
1.096036978
1.095271638
1.094775669
1.094928802
1.095287666
1.095798889
1.096085809
1.096100363
1.09600757
1.095903654
1.095658001
1.095595394
1.095393254
1.095369937
1.095017043
1.094026503
0.9796082029
1.100084224
1.107651045
1.110593546
1.109323828
1.109323828
)
;
    }
    procBoundary21to22
    {
        type            processor;
        value           nonuniform List<scalar> 
69
(
1.093040993
1.092956333
1.092268263
1.090319841
1.087071566
1.087071566
1.081785763
1.076995776
1.071856274
1.066769771
1.061210266
1.055248141
1.055248141
1.048790404
1.042616832
1.03663143
1.030886327
1.025366217
1.019481686
1.014175832
1.014175832
1.009106981
1.004480465
1.000473091
0.9975424201
0.9959373787
0.9951528538
0.9951528538
0.9946285932
0.9939510801
0.9929445563
0.9924506464
0.9926403728
0.9931009304
0.9934589516
0.9934589516
0.9940997097
0.9943601245
0.9951841587
0.9961950161
0.997656997
0.9993359021
0.9993359021
1.001027175
1.002279509
1.003738235
1.005209447