/*--------------------------------*- C++ -*----------------------------------*\
  =========                 |
  \\      /  F ield         | OpenFOAM: The Open Source CFD Toolbox
   \\    /   O peration     | Website:  https://openfoam.org
    \\  /    A nd           | Version:  7
     \\/     M anipulation  |
\*---------------------------------------------------------------------------*/
FoamFile
{
    version     2.0;
    format      ascii;
    class       volScalarField;
    location    "3.6";
    object      rho;
}
// * * * * * * * * * * * * * * * * * * * * * * * * * * * * * * * * * * * * * //

dimensions      [1 -3 0 0 0 0 0];

internalField   nonuniform List<scalar> 
2222
(
2.296930404
2.291764151
2.295632429
2.295532677
2.296009852
2.298116752
2.302361117
2.30526906
2.306346376
2.306141706
2.303639393
2.302401428
2.303385882
2.286294959
2.290540211
2.298801572
2.308442699
2.314177883
2.314920457
2.313880409
2.309281268
2.306054397
2.306477403
2.309347206
2.314791688
2.319155589
2.319339827
2.318120279
2.315056158
2.310392738
2.308292757
2.308096449
2.308888226
2.286490762
2.294200436
2.304779199
2.311627653
2.312723391
2.312159372
2.308485409
2.305199072
2.305401714
2.30820372
2.314175268
2.319384455
2.319860593
2.318700848
2.315651798
2.310850172
2.308542515
2.308327181
2.309088129
2.312125363
2.315036925
2.315457527
2.314953931
2.313272636
2.310956793
2.310176098
2.310404329
2.311821601
2.314692113
2.316678784
2.316833451
2.316372471
2.314755882
2.312364193
2.311394622
2.3113222
2.311861857
2.313377006
2.314246908
2.314275728
2.314007396
2.313236048
2.312334514
2.312005029
2.31193536
2.312168776
2.313102938
2.313896512
2.314093188
2.314043323
2.313722504
2.313170193
2.312741266
2.312598135
2.312577338
2.312878649
2.313406742
2.313717259
2.313768342
2.313671417
2.313444647
2.313074675
2.312731612
2.312608369
2.312597937
2.312858359
2.313357919
2.296359033
2.296763253
2.29807059
2.301180884
2.303694726
2.305206547
2.305299127
2.302645538
2.301080797
2.302006043
2.305254301
2.308805459
2.310234356
2.310615425
2.310844271
2.31073155
2.309347203
2.30850545
2.308761543
2.309818971
2.311367746
2.312773237
2.313534241
2.313660502
2.313681362
2.313238196
2.312545942
2.312048019
2.311895583
2.312069527
2.312478894
2.3126269
2.312762141
2.312795578
2.312525946
2.312484234
2.31246638
2.312338818
2.31220502
2.31217533
2.312433561
2.312903243
2.313335842
2.313456416
2.313344942
2.312869388
2.312163941
2.311909015
2.311956735
2.312273298
2.312883799
2.31341104
2.313516566
2.313393801
2.312969562
2.312335261
2.312072001
2.312070653
2.312258003
2.31275495
2.313287783
2.313430527
2.313363666
2.313058654
2.312481213
2.312161908
2.312269806
2.29295824
2.291153862
2.291462495
2.293910709
2.297075643
2.301436101
2.303723193
2.302893993
2.301882432
2.3013511
2.300305981
2.299984094
2.300454659
2.302232725
2.305845957
2.30999166
2.311734787
2.312232275
2.312634218
2.312488249
2.311479435
2.310870721
2.310864799
2.311019512
2.311654882
2.312111548
2.312063813
2.311629016
2.310120702
2.308195763
2.307707972
2.307985403
2.309147348
2.311416741
2.313418774
2.313895926
2.313892489
2.312984465
2.311041108
2.310154226
2.310202478
2.310821559
2.312211372
2.313222737
2.313335708
2.313120341
2.312097078
2.310598753
2.310025904
2.310124157
2.31078147
2.311986843
2.312895231
2.313077367
2.313014524
2.312381803
2.311233771
2.310676427
2.310711644
2.311120474
2.31198194
2.312749343
2.312963384
2.312965945
2.312652094
2.311732608
2.311449098
2.35462953
2.342980338
2.331693584
2.324601051
2.317424364
2.31275403
2.308132602
2.303763944
2.302265056
2.300961766
2.298816467
2.296322969
2.296182914
2.297604583
2.300916897
2.305278741
2.30900883
2.310276586
2.310637085
2.310402793
2.308558767
2.306817283
2.306802937
2.307192727
2.308222236
2.310025827
2.31077815
2.310760431
2.310125217
2.308405186
2.307212615
2.307296606
2.308131675
2.310082248
2.311859746
2.312144798
2.311977586
2.311328556
2.309976804
2.308780664
2.30874256
2.309270981
2.310394861
2.311295948
2.31154689
2.311511143
2.311278624
2.310590786
2.309600432
2.30928575
2.309439487
2.309952312
2.310625346
2.311095097
2.311152592
2.311041164
2.310726711
2.310125931
2.309831951
2.309931554
2.310305
2.31082735
2.31127451
2.311398388
2.311345716
2.3110736
2.310770193
2.376049869
2.371750309
2.36108825
2.340621008
2.31464751
2.301532418
2.300314016
2.301189305
2.30459321
2.304975105
2.304178002
2.303361651
2.30154144
2.300595563
2.301034645
2.302548009
2.304978217
2.305989995
2.305855311
2.305091247
2.303200546
2.300798014
2.300185646
2.300981641
2.303061549
2.306581665
2.309376029
2.309983229
2.3101042
2.310053874
2.309186156
2.30784216
2.307625106
2.307772882
2.308564499
2.309755987
2.310170573
2.31013597
2.309779154
2.308869282
2.307926462
2.307749445
2.307971862
2.308848414
2.310112884
2.31065658
2.310709142
2.310600195
2.310123519
2.309306829
2.308814097
2.308798154
2.309021338
2.309624763
2.310178547
2.310310556
2.310304616
2.310136792
2.309696061
2.309270727
2.309214163
2.309379569
2.309731064
2.310105436
2.310256718
2.310255821
2.310317173
2.313678872
2.325341704
2.327944251
2.325671994
2.327150804
2.329713523
2.329095468
2.330400388
2.336373034
2.338713844
2.335395478
2.328220714
2.31972934
2.311401436
2.302138959
2.29837141
2.29689226
2.295934821
2.296838835
2.299419199
2.300052545
2.299405718
2.298312889
2.299192441
2.30214247
2.304975658
2.307867406
2.309935625
2.310385149
2.310353046
2.309491467
2.307756309
2.305707462
2.305085826
2.305228297
2.306080552
2.307821043
2.309215405
2.309504811
2.309448791
2.30914856
2.308293923
2.307622356
2.307619332
2.308158897
2.309176532
2.309983544
2.310122255
2.309943251
2.309509021
2.308760636
2.308092208
2.307981839
2.308159688
2.308812273
2.309735227
2.310136175
2.310120049
2.309931259
2.309452914
2.308663809
2.308250007
2.308270611
2.308556408
2.309242511
2.309912211
2.31005537
2.123221077
2.194183782
2.288809719
2.314585635
2.327376712
2.349568861
2.351473401
2.348333378
2.347284517
2.345889226
2.343348525
2.338181226
2.326732912
2.311971619
2.302710045
2.299224058
2.299138612
2.299807713
2.30188371
2.305693738
2.309203873
2.309640452
2.30826883
2.306171909
2.304195116
2.302141082
2.301891546
2.302453414
2.304061995
2.305664646
2.306698429
2.306436426
2.305537604
2.305095872
2.30549396
2.306131317
2.30696584
2.308630601
2.310274655
2.310605982
2.310473007
2.309846971
2.308501641
2.3070909
2.306750842
2.30690173
2.307679808
2.309213179
2.310276086
2.310376167
2.310252189
2.309554123
2.308496831
2.308100285
2.308125917
2.308670986
2.309794625
2.310419694
2.310389726
2.310015206
2.309245637
2.308283638
2.307940287
2.307991407
2.308416653
2.309408311
2.310302156
1.655937159
1.749411788
1.88278487
1.997871173
2.082616335
2.19546445
2.236496665
2.254540711
2.281280311
2.288313632
2.294354085
2.305005988
2.317003245
2.319303541
2.322375374
2.32520559
2.324244922
2.323176875
2.322915443
2.322924162
2.323624534
2.322642333
2.318792333
2.312415907
2.305668569
2.300251049
2.297414446
2.29729848
2.297949335
2.300257101
2.304167242
2.308425841
2.309601358
2.30961526
2.3090708
2.307791414
2.307102036
2.30719049
2.308229899
2.309954454
2.310541171
2.310412521
2.309438017
2.307895644
2.306781593
2.306786486
2.307296644
2.30849605
2.310417029
2.311543006
2.311584386
2.311236607
2.310236128
2.30881915
2.308125382
2.30808333
2.308421294
2.309406789
2.310396392
2.310606088
2.310445274
2.309827614
2.30900477
2.308822482
2.308929679
2.309171298
2.310046907
1.416342811
1.434443096
1.472412298
1.541031121
1.618042295
1.72507326
1.846721688
1.950001016
2.078714499
2.157506979
2.202303598
2.254973618
2.304224893
2.313334713
2.327129224
2.336999501
2.336302811
2.333538743
2.327212617
2.319693454
2.312576571
2.309672698
2.308382963
2.307739773
2.308028922
2.307041432
2.304643817
2.303930571
2.304086997
2.305645662
2.309154221
2.312090757
2.311808591
2.310832242
2.309401482
2.307064153
2.304466371
2.30392038
2.304288847
2.305906115
2.308311304
2.31020302
2.310952094
2.31098783
2.310510085
2.309716771
2.309135566
2.309157163
2.309857763
2.311199555
2.311795602
2.311655976
2.311109071
2.310110675
2.308967477
2.308634759
2.308748145
2.309291418
2.310424072
2.311562032
2.31184665
2.311795166
2.311364573
2.31043314
2.30984542
2.309770077
2.30986607
1.400114387
1.400417045
1.401483027
1.404903356
1.412380637
1.428486266
1.463812195
1.513483203
1.58794763
1.702578638
1.807018925
1.918341525
2.033398365
2.103249639
2.171851073
2.248363354
2.26250767
2.277281562
2.284630385
2.280598148
2.28361064
2.29863678
2.309474133
2.314215597
2.323042486
2.328591716
2.328503347
2.326741616
2.321707956
2.317596199
2.31511643
2.31310838
2.310929769
2.3085606
2.307323616
2.305976841
2.303763975
2.302634455
2.302919175
2.304232725
2.30740891
2.31176658
2.313809988
2.313885345
2.313619885
2.312545534
2.310453815
2.308834359
2.308597094
2.308806638
2.30985359
2.311117236
2.311609094
2.311670726
2.311316733
2.31073815
2.310594898
2.310672814
2.311099794
2.312016366
2.312772162
2.312805179
2.312522642
2.311802897
2.31084016
2.310505054
2.310573262
1.400005079
1.400005393
1.400007748
1.400021352
1.400080214
1.40030639
1.401151722
1.403563713
1.409409054
1.424981906
1.452455531
1.49425056
1.57195219
1.667983489
1.771496034
1.895961022
1.99209203
2.081285869
2.1932234
2.231102526
2.259618061
2.293009605
2.304921898
2.311631486
2.322379375
2.326200803
2.326227882
2.324731332
2.318051819
2.306840145
2.30022675
2.301442814
2.30324699
2.305539007
2.309475663
2.311960001
2.311968592
2.311763388
2.311497109
2.310578855
2.310729669
2.311758167
2.3120481
2.311518396
2.311193715
2.310670784
2.309470786
2.307929831
2.307763571
2.308234008
2.309445008
2.311389534
2.313491263
2.314107043
2.314128606
2.31390499
2.313022412
2.311921012
2.311535577
2.311497802
2.311790716
2.31239014
2.312650039
2.312664049
2.31239618
2.311772722
2.311640929
1.40000504
1.40000504
1.40000504
1.400005042
1.400005062
1.400005265
1.400006817
1.400015559
1.400057011
1.400243137
1.40087375
1.402599413
1.40784468
1.420092086
1.441760887
1.485686487
1.553159918
1.628219994
1.742266818
1.863284017
1.960241566
2.078740374
2.138281714
2.179321535
2.232418277
2.257127767
2.270715244
2.285057703
2.285342351
2.288051153
2.298096987
2.306610973
2.310981216
2.315459875
2.323039558
2.327856075
2.32772959
2.326476345
2.322951479
2.316585159
2.310638215
2.306486975
2.304290523
2.304554517
2.306487111
2.308540384
2.309519791
2.309973544
2.310290709
2.311214603
2.31214101
2.312916507
2.314057992
2.3150717
2.31511224
2.314634881
2.313417056
2.311756365
2.310886389
2.31088284
2.311185041
2.31207576
2.313480178
2.314256481
2.314378415
2.314232219
2.313453879
1.40000504
1.40000504
1.40000504
1.40000504
1.40000504
1.40000504
1.40000504
1.400005041
1.400005053
1.400005195
1.400006199
1.400012008
1.400043279
1.400178626
1.40062927
1.402103871
1.406375618
1.415166107
1.435543988
1.47698954
1.529093905
1.609927569
1.719084828
1.822834966
1.948747345
2.041188403
2.1067066
2.193868217
2.24899957
2.273419347
2.300703895
2.308471314
2.309434357
2.314085033
2.318330326
2.321101569
2.320895716
2.3176122
2.310655104
2.304994474
2.303587134
2.303894475
2.304851342
2.306671063
2.310543046
2.31554661
2.31702615
2.316720383
2.315362469
2.314374211
2.312622925
2.311348867
2.311079195
2.311341311
2.31196639
2.312316988
2.312085348
2.311385194
2.311237793
2.311746333
2.312580324
2.313717322
2.315005157
2.315605463
2.315592476
2.31528348
2.314182822
1.40000504
1.40000504
1.40000504
1.40000504
1.40000504
1.40000504
1.40000504
1.40000504
1.40000504
1.40000504
1.40000504
1.40000504
1.400005048
1.400005136
1.400005789
1.400010034
1.400032588
1.400124389
1.400488509
1.401774645
1.404898061
1.412586984
1.431388654
1.461471529
1.514167293
1.600837974
1.686429568
1.794758443
1.914653381
2.004484771
2.115943834
2.172400132
2.203444334
2.244408302
2.253652079
2.263739286
2.277616574
2.28495794
2.293323622
2.303854822
2.312969023
2.316752418
2.319339828
2.323124868
2.324977881
2.325804823
2.325088671
2.32242567
2.317894015
2.313086786
2.308766404
2.306304275
2.306364784
2.307231117
2.309160042
2.311523881
2.313487353
2.314713129
2.315205926
2.31530078
2.314952654
2.31483065
2.3150776
2.315447813
2.3152716
2.31482862
2.313927487
1.40000504
1.40000504
1.40000504
1.40000504
1.40000504
1.40000504
1.40000504
1.40000504
1.40000504
1.40000504
1.40000504
1.40000504
1.40000504
1.40000504
1.40000504
1.40000504
1.400005045
1.400005099
1.400005587
1.400008793
1.400024464
1.400094403
1.400388356
1.40131202
1.403921632
1.411407593
1.42542493
1.451958125
1.506945773
1.574774595
1.665567179
1.780098158
1.879391507
2.00514594
2.092665778
2.148686233
2.21531562
2.257607023
2.280024327
2.308007251
2.314097183
2.313001868
2.316062032
2.318577965
2.318021903
2.315242386
2.311175398
2.306657708
2.304476008
2.305144452
2.307634855
2.308983327
2.310305263
2.312337078
2.315445453
2.317746665
2.317483812
2.316998949
2.316142532
2.314519089
2.312849536
2.311905705
2.311868213
2.312429361
2.313161456
2.313521528
2.313822524
1.40000504
1.40000504
1.40000504
1.40000504
1.40000504
1.40000504
1.40000504
1.40000504
1.40000504
1.40000504
1.40000504
1.40000504
1.40000504
1.40000504
1.40000504
1.40000504
1.40000504
1.40000504
1.40000504
1.40000504
1.400005043
1.400005079
1.400005416
1.40000758
1.40001949
1.400077929
1.400292646
1.401000555
1.40341987
1.409144564
1.421290702
1.449444059
1.490652684
1.55455806
1.658204665
1.753705731
1.867260896
1.976762249
2.053481653
2.152124855
2.197050267
2.222639796
2.258415616
2.26352446
2.267951546
2.279092041
2.289234577
2.29750782
2.305491225
2.315357466
2.322317497
2.325112989
2.325410003
2.324770416
2.323935054
2.322279095
2.319175964
2.314894328
2.311427988
2.309195574
2.308580812
2.308659975
2.30915847
2.310712306
2.313416108
2.315936566
2.317375071
1.40000504
1.40000504
1.40000504
1.40000504
1.40000504
1.40000504
1.40000504
1.40000504
1.40000504
1.40000504
1.40000504
1.40000504
1.40000504
1.40000504
1.40000504
1.40000504
1.40000504
1.40000504
1.40000504
1.40000504
1.40000504
1.40000504
1.40000504
1.40000504
1.400005042
1.400005067
1.400005286
1.400006867
1.400016442
1.400060228
1.400227178
1.400870942
1.402730723
1.40738316
1.420334518
1.442917802
1.480139288
1.550527136
1.632609454
1.737002982
1.85635215
1.949709648
2.06617026
2.144297737
2.19111875
2.2481625
2.277643791
2.287959637
2.308161209
2.318751917
2.318415525
2.3186886
2.318637275
2.31550298
2.309573804
2.306604832
2.306715731
2.306764978
2.307753483
2.310729899
2.312725115
2.313855046
2.314800469
2.316160548
2.316943566
2.318034755
2.317717119
1.40000504
1.40000504
1.40000504
1.40000504
1.40000504
1.40000504
1.40000504
1.40000504
1.40000504
1.40000504
1.40000504
1.40000504
1.40000504
1.40000504
1.40000504
1.40000504
1.40000504
1.40000504
1.40000504
1.40000504
1.40000504
1.40000504
1.40000504
1.40000504
1.40000504
1.40000504
1.40000504
1.40000504
1.400005041
1.400005058
1.40000522
1.400006451
1.400013435
1.400047199
1.400202233
1.400726311
1.402218882
1.40684889
1.41712522
1.436962509
1.479806672
1.536827096
1.614468723
1.732274835
1.834408431
1.948951677
2.049350273
2.109759192
2.187424731
2.229080449
2.240964441
2.265666228
2.272997436
2.272355763
2.281522481
2.298428842
2.306231872
2.312194413
2.318322681
2.32725118
2.327701123
2.325919377
2.323457732
2.320403145
2.316949296
2.314257398
2.31235366
1.40000504
1.40000504
1.40000504
1.40000504
1.40000504
1.40000504
1.40000504
1.40000504
1.40000504
1.40000504
1.40000504
1.40000504
1.40000504
1.40000504
1.40000504
1.40000504
1.40000504
1.40000504
1.40000504
1.40000504
1.40000504
1.40000504
1.40000504
1.40000504
1.40000504
1.40000504
1.40000504
1.40000504
1.40000504
1.40000504
1.40000504
1.40000504
1.400005041
1.400005053
1.400005184
1.400006111
1.400011563
1.400040879
1.40016516
1.400591562
1.40208905
1.406036463
1.414580886
1.436646407
1.472963126
1.525565853
1.616044044
1.71376485
1.827403533
1.946125026
2.02927135
2.126528041
2.202321894
2.234758046
2.270126117
2.296652659
2.300500893
2.306761607
2.317438754
2.320337871
2.320854558
2.31921498
2.31281517
2.302877636
2.301780476
2.303789605
2.30719846
1.40000504
1.40000504
1.40000504
1.40000504
1.40000504
1.40000504
1.40000504
1.40000504
1.40000504
1.40000504
1.40000504
1.40000504
1.40000504
1.40000504
1.40000504
1.40000504
1.40000504
1.40000504
1.40000504
1.40000504
1.40000504
1.40000504
1.40000504
1.40000504
1.40000504
1.40000504
1.40000504
1.40000504
1.40000504
1.40000504
1.40000504
1.40000504
1.40000504
1.40000504
1.40000504
1.40000504
1.40000504
1.40000505
1.400005148
1.400005899
1.400010761
1.400034921
1.400135539
1.400556672
1.401890237
1.405216164
1.414544092
1.433616052
1.465780539
1.529249241
1.608706979
1.69944204
1.826142933
1.931990172
2.035857589
2.130242007
2.168191833
2.209489634
2.25203556
2.258379329
2.270303575
2.284929141
2.290044703
2.293246621
2.301218241
2.311029936
2.318227425
1.40000504
1.40000504
1.40000504
1.40000504
1.40000504
1.40000504
1.40000504
1.40000504
1.40000504
1.40000504
1.40000504
1.40000504
1.40000504
1.40000504
1.40000504
1.40000504
1.40000504
1.40000504
1.40000504
1.40000504
1.40000504
1.40000504
1.40000504
1.40000504
1.40000504
1.40000504
1.40000504
1.40000504
1.40000504
1.40000504
1.40000504
1.40000504
1.40000504
1.40000504
1.40000504
1.40000504
1.40000504
1.40000504
1.40000504
1.40000504
1.400005041
1.400005047
1.400005127
1.400005807
1.400009994
1.400030778
1.400128705
1.400507253
1.401644513
1.405233135
1.414084969
1.430387674
1.467835657
1.526556931
1.599083116
1.707701646
1.819820725
1.933733816
2.048958462
2.117169446
2.171970928
2.246552964
2.277623561
2.287041956
2.306326912
2.316278329
2.314463208
1.40000504
1.40000504
1.40000504
1.40000504
1.40000504
1.40000504
1.40000504
1.40000504
1.40000504
1.40000504
1.40000504
1.40000504
1.40000504
1.40000504
1.40000504
1.40000504
1.40000504
1.40000504
1.40000504
1.40000504
1.40000504
1.40000504
1.40000504
1.40000504
1.40000504
1.40000504
1.40000504
1.40000504
1.40000504
1.40000504
1.40000504
1.40000504
1.40000504
1.40000504
1.40000504
1.40000504
1.40000504
1.40000504
1.40000504
1.40000504
1.40000504
1.40000504
1.40000504
1.40000504
1.400005041
1.400005046
1.40000512
1.400005707
1.400009379
1.400030027
1.400123673
1.400451522
1.401681664
1.405217772
1.413056221
1.431783269
1.467970891
1.519582571
1.607058262
1.715525772
1.816311478
1.93404125
2.038050781
2.109836749
2.188151405
2.242875472
2.247514565
1.40000504
1.40000504
1.40000504
1.40000504
1.40000504
1.40000504
1.40000504
1.40000504
1.40000504
1.40000504
1.40000504
1.40000504
1.40000504
1.40000504
1.40000504
1.40000504
1.40000504
1.40000504
1.40000504
1.40000504
1.40000504
1.40000504
1.40000504
1.40000504
1.40000504
1.40000504
1.40000504
1.40000504
1.40000504
1.40000504
1.40000504
1.40000504
1.40000504
1.40000504
1.40000504
1.40000504
1.40000504
1.40000504
1.40000504
1.40000504
1.40000504
1.40000504
1.40000504
1.40000504
1.40000504
1.40000504
1.40000504
1.40000504
1.40000504
1.400005046
1.400005112
1.400005646
1.40000951
1.400029806
1.400118293
1.400466839
1.401719789
1.404932074
1.413921918
1.433460997
1.466190655
1.524320205
1.612791455
1.716405198
1.827748915
1.935415672
2.047832929
1.40000504
1.40000504
1.40000504
1.40000504
1.40000504
1.40000504
1.40000504
1.40000504
1.40000504
1.40000504
1.40000504
1.40000504
1.40000504
1.40000504
1.40000504
1.40000504
1.40000504
1.40000504
1.40000504
1.40000504
1.40000504
1.40000504
1.40000504
1.40000504
1.40000504
1.40000504
1.40000504
1.40000504
1.40000504
1.40000504
1.40000504
1.40000504
1.40000504
1.40000504
1.40000504
1.40000504
1.40000504
1.40000504
1.40000504
1.40000504
1.40000504
1.40000504
1.40000504
1.40000504
1.40000504
1.40000504
1.40000504
1.40000504
1.40000504
1.40000504
1.40000504
1.40000504
1.40000504
1.400005046
1.400005112
1.400005685
1.400009598
1.40002934
1.400127253
1.400512108
1.401679328
1.40541682
1.414373901
1.434316649
1.471007532
1.533185132
1.597312195
1.40000504
1.40000504
1.40000504
1.40000504
1.40000504
1.40000504
1.40000504
1.40000504
1.40000504
1.40000504
1.40000504
1.40000504
1.40000504
1.40000504
1.40000504
1.40000504
1.40000504
1.40000504
1.40000504
1.40000504
1.40000504
1.40000504
1.40000504
1.40000504
1.40000504
1.40000504
1.40000504
1.40000504
1.40000504
1.40000504
1.40000504
1.40000504
1.40000504
1.40000504
1.40000504
1.40000504
1.40000504
1.40000504
1.40000504
1.40000504
1.40000504
1.40000504
1.40000504
1.40000504
1.40000504
1.40000504
1.40000504
1.40000504
1.40000504
1.40000504
1.40000504
1.40000504
1.40000504
1.40000504
1.40000504
1.40000504
1.400005041
1.400005046
1.400005121
1.400005764
1.40000967
1.400033626
1.400133666
1.400578547
1.401750143
1.409266901
1.408848128
1.40000504
1.40000504
1.40000504
1.40000504
1.40000504
1.40000504
1.40000504
1.40000504
1.40000504
1.40000504
1.40000504
1.40000504
1.40000504
1.40000504
1.40000504
1.40000504
1.40000504
1.40000504
1.40000504
1.40000504
1.40000504
1.40000504
1.40000504
1.40000504
1.40000504
1.40000504
1.40000504
1.40000504
1.40000504
1.40000504
1.40000504
1.40000504
1.40000504
1.40000504
1.40000504
1.40000504
1.40000504
1.40000504
1.40000504
1.40000504
1.40000504
1.40000504
1.40000504
1.40000504
1.40000504
1.40000504
1.40000504
1.40000504
1.40000504
1.40000504
1.40000504
1.40000504
1.40000504
1.40000504
1.40000504
1.40000504
1.40000504
1.40000504
1.40000504
1.40000504
1.40000504
1.400005048
1.400005132
1.40000595
1.400009756
1.400130988
1.39987121
1.40000504
1.40000504
1.40000504
1.40000504
1.40000504
1.40000504
1.40000504
1.40000504
1.40000504
1.40000504
1.40000504
1.40000504
1.40000504
1.40000504
1.40000504
1.40000504
1.40000504
1.40000504
1.40000504
1.40000504
1.40000504
1.40000504
1.40000504
1.40000504
1.40000504
1.40000504
1.40000504
1.40000504
1.40000504
1.40000504
1.40000504
1.40000504
1.40000504
1.40000504
1.40000504
1.40000504
1.40000504
1.40000504
1.40000504
1.40000504
1.40000504
1.40000504
1.40000504
1.40000504
1.40000504
1.40000504
1.40000504
1.40000504
1.40000504
1.40000504
1.40000504
1.40000504
1.40000504
1.40000504
1.40000504
1.40000504
1.40000504
1.40000504
1.40000504
1.40000504
1.40000504
1.40000504
1.40000504
1.400005041
1.40000504
1.400005351
1.399989034
1.40000504
1.40000504
1.40000504
1.40000504
1.40000504
1.40000504
1.40000504
1.40000504
1.40000504
1.40000504
1.40000504
1.40000504
1.40000504
1.40000504
1.40000504
1.40000504
1.40000504
1.40000504
1.40000504
1.40000504
1.40000504
1.40000504
1.40000504
1.40000504
1.40000504
1.40000504
1.40000504
1.40000504
1.40000504
1.40000504
1.40000504
1.40000504
1.40000504
1.40000504
1.40000504
1.40000504
1.40000504
1.40000504
1.40000504
1.40000504
1.40000504
1.40000504
1.40000504
1.40000504
1.40000504
1.40000504
1.40000504
1.40000504
1.40000504
1.40000504
1.40000504
1.40000504
1.40000504
1.40000504
1.40000504
1.40000504
1.40000504
1.40000504
1.40000504
1.40000504
1.40000504
1.40000504
1.40000504
1.40000504
1.40000504
1.40000504
1.400004691
1.40000504
1.40000504
1.40000504
1.40000504
1.40000504
1.40000504
1.40000504
1.40000504
1.40000504
1.40000504
1.40000504
1.40000504
1.40000504
1.40000504
1.40000504
1.40000504
1.40000504
1.40000504
1.40000504
1.40000504
1.40000504
1.40000504
1.40000504
1.40000504
1.40000504
1.40000504
1.40000504
1.40000504
1.40000504
1.40000504
1.40000504
1.40000504
1.40000504
1.40000504
1.40000504
1.40000504
1.40000504
1.40000504
1.40000504
1.40000504
1.40000504
1.40000504
1.40000504
1.40000504
1.40000504
1.40000504
1.40000504
1.40000504
1.40000504
1.40000504
1.40000504
1.40000504
1.40000504
1.40000504
1.40000504
1.40000504
1.40000504
1.40000504
1.40000504
1.40000504
1.40000504
1.40000504
1.40000504
1.40000504
1.40000504
1.40000504
1.400005039
1.40000504
1.40000504
1.40000504
1.40000504
1.40000504
1.40000504
1.40000504
1.40000504
1.40000504
1.40000504
1.40000504
1.40000504
1.40000504
1.40000504
1.40000504
1.40000504
1.40000504
1.40000504
1.40000504
1.40000504
1.40000504
1.40000504
1.40000504
1.40000504
1.40000504
1.40000504
1.40000504
1.40000504
1.40000504
1.40000504
1.40000504
1.40000504
1.40000504
1.40000504
1.40000504
1.40000504
1.40000504
1.40000504
1.40000504
1.40000504
1.40000504
1.40000504
1.40000504
1.40000504
1.40000504
1.40000504
1.40000504
1.40000504
1.40000504
1.40000504
1.40000504
1.40000504
1.40000504
1.40000504
1.40000504
1.40000504
1.40000504
1.40000504
1.40000504
1.40000504
1.40000504
1.40000504
1.40000504
1.40000504
1.40000504
1.40000504
1.40000504
1.40000504
1.40000504
1.40000504
1.40000504
1.40000504
1.40000504
1.40000504
1.40000504
1.40000504
1.40000504
1.40000504
1.40000504
1.40000504
1.40000504
1.40000504
1.40000504
1.40000504
1.40000504
1.40000504
1.40000504
1.40000504
1.40000504
1.40000504
1.40000504
1.40000504
1.40000504
1.40000504
1.40000504
1.40000504
1.40000504
1.40000504
1.40000504
1.40000504
1.40000504
1.40000504
1.40000504
1.40000504
1.40000504
1.40000504
1.40000504
1.40000504
1.40000504
1.40000504
1.40000504
1.40000504
1.40000504
1.40000504
1.40000504
1.40000504
1.40000504
1.40000504
1.40000504
1.40000504
1.40000504
1.40000504
1.40000504
1.40000504
1.40000504
1.40000504
1.40000504
1.40000504
1.40000504
1.40000504
1.40000504
1.40000504
1.40000504
1.40000504
1.40000504
1.40000504
1.40000504
1.40000504
1.40000504
1.40000504
1.40000504
1.40000504
1.40000504
1.40000504
1.40000504
1.40000504
1.40000504
1.40000504
1.40000504
1.40000504
1.40000504
1.40000504
1.40000504
1.40000504
1.40000504
1.40000504
1.40000504
1.40000504
1.40000504
1.40000504
1.40000504
1.40000504
1.40000504
1.40000504
1.40000504
1.40000504
1.40000504
1.40000504
1.40000504
1.40000504
1.40000504
1.40000504
1.40000504
1.40000504
1.40000504
1.40000504
1.40000504
1.40000504
1.40000504
1.40000504
1.40000504
1.40000504
1.40000504
1.40000504
1.40000504
1.40000504
1.40000504
1.40000504
1.40000504
1.40000504
1.40000504
1.40000504
1.40000504
1.40000504
1.40000504
1.40000504
1.40000504
1.40000504
1.40000504
1.40000504
1.40000504
1.40000504
1.40000504
1.40000504
1.40000504
1.40000504
1.40000504
1.40000504
1.40000504
1.40000504
1.40000504
1.40000504
1.40000504
1.40000504
1.40000504
1.40000504
1.40000504
1.40000504
1.40000504
1.40000504
1.40000504
1.40000504
1.40000504
1.40000504
1.40000504
1.40000504
1.40000504
1.40000504
1.40000504
1.40000504
1.40000504
1.40000504
1.40000504
1.40000504
1.40000504
1.40000504
1.40000504
1.40000504
1.40000504
1.40000504
1.40000504
1.40000504
1.40000504
1.40000504
1.40000504
1.40000504
)
;

boundaryField
{
    inlet
    {
        type            calculated;
        value           nonuniform 0();
    }
    outlet
    {
        type            calculated;
        value           nonuniform 0();
    }
    bottom
    {
        type            calculated;
        value           nonuniform 0();
    }
    top
    {
        type            calculated;
        value           nonuniform 0();
    }
    obstacle
    {
        type            calculated;
        value           nonuniform List<scalar> 
87
(
2.286490762
2.294200436
2.304779199
2.311627653
2.312723391
2.312159372
2.308485409
2.305199072
2.305401714
2.30820372
2.314175268
2.319384455
2.319860593
2.318700848
2.315651798
2.310850172
2.308542515
2.308327181
2.309088129
2.312125363
2.315036925
2.315457527
2.314953931
2.313272636
2.310956793
2.310176098
2.310404329
2.311821601
2.314692113
2.316678784
2.316833451
2.316372471
2.314755882
2.312364193
2.311394622
2.3113222
2.311861857
2.313377006
2.314246908
2.314275728
2.314007396
2.313236048
2.312334514
2.312005029
2.31193536
2.312168776
2.313102938
2.313896512
2.314093188
2.314043323
2.313722504
2.313170193
2.312741266
2.312598135
2.312577338
2.312878649
2.313406742
2.313717259
2.313768342
2.313671417
2.313444647
2.313074675
2.312731612
2.312608369
2.312597937
2.312858359
2.313357919
2.286294959
2.290540211
2.298801572
2.308442699
2.314177883
2.314920457
2.313880409
2.309281268
2.306054397
2.306477403
2.309347206
2.314791688
2.319155589
2.319339827
2.318120279
2.315056158
2.310392738
2.308292757
2.308096449
2.308888226
)
;
    }
    defaultFaces
    {
        type            empty;
    }
    procBoundary20to13
    {
        type            processor;
        value           nonuniform List<scalar> 3(2.307313437 2.299294911 2.285256093);
    }
    procBoundary20to14
    {
        type            processor;
        value           nonuniform List<scalar> 
23
(
2.356180816
2.34505954
2.290750395
2.290750395
2.291575118
2.294615819
2.298475155
2.302675845
2.303288387
2.302746788
2.302843084
2.302377265
2.306155179
2.306155179
2.309210796
2.310493242
2.310922049
2.311190962
2.31112263
2.309923726
2.30924789
2.309451753
2.312084527
)
;
    }
    procBoundary20to19
    {
        type            processor;
        value           nonuniform List<scalar> 
32
(
2.283029856
2.296705807
2.301723193
2.362570187
2.377455912
2.304476172
2.045514507
1.560745179
1.406094648
1.400027902
1.400005042
1.40000504
1.40000504
1.40000504
1.40000504
1.40000504
1.40000504
1.40000504
1.40000504
1.40000504
1.40000504
1.40000504
1.40000504
1.40000504
1.40000504
1.40000504
1.40000504
1.40000504
1.40000504
1.40000504
1.40000504
1.40000504
)
;
    }
    procBoundary20to25
    {
        type            processor;
        value           nonuniform List<scalar> 4(1.40000504 1.40000504 1.40000504 1.40000504);
    }
    procBoundary20to26
    {
        type            processor;
        value           nonuniform List<scalar> 
71
(
1.40000504
1.40000504
1.40000504
1.40000504
1.40000504
1.40000504
1.40000504
1.40000504
1.40000504
1.40000504
1.40000504
1.40000504
1.40000504
1.40000504
1.40000504
1.40000504
1.40000504
1.40000504
1.40000504
1.40000504
1.40000504
1.40000504
1.40000504
1.40000504
1.40000504
1.40000504
1.40000504
1.40000504
1.40000504
1.40000504
1.40000504
1.40000504
1.40000504
1.40000504
1.40000504
1.40000504
1.40000504
1.40000504
1.40000504
1.40000504
1.40000504
1.40000504
1.40000504
1.40000504
1.40000504
1.40000504
1.40000504
1.40000504
1.40000504
1.40000504
1.40000504
1.40000504
1.40000504
1.40000504
1.40000504
1.40000504
1.40000504
1.40000504
1.40000504
1.40000504
1.40000504
1.40000504
1.40000504
1.40000504
1.40000504
1.40000504
1.40000504
1.40000504
1.40000504
1.40000504
1.40000504