/*--------------------------------*- C++ -*----------------------------------*\
  =========                 |
  \\      /  F ield         | OpenFOAM: The Open Source CFD Toolbox
   \\    /   O peration     | Website:  https://openfoam.org
    \\  /    A nd           | Version:  7
     \\/     M anipulation  |
\*---------------------------------------------------------------------------*/
FoamFile
{
    version     2.0;
    format      ascii;
    class       volScalarField;
    location    "3.8";
    object      rho;
}
// * * * * * * * * * * * * * * * * * * * * * * * * * * * * * * * * * * * * * //

dimensions      [1 -3 0 0 0 0 0];

internalField   nonuniform List<scalar> 
2223
(
0.7907279309
0.7817019881
0.7752608877
1.330392762
1.293336589
1.262833807
1.236946457
1.208166221
1.178889344
1.158701999
1.139222015
1.115036188
1.08844669
1.07263491
1.057952093
1.039725318
1.016285237
1.00206446
0.9903558669
0.9767257509
0.9576104234
0.9440591542
0.9361182929
0.9268017795
0.9131538498
0.8981169657
0.8907462682
0.8834222651
0.8738433734
0.8598736759
0.8518269567
0.8464379345
0.8398317579
0.8301221754
0.8200501299
0.8151666284
0.8099075395
0.8033378789
0.7936389704
0.7871692907
1.360760742
1.323601323
1.292327527
1.265634232
1.235808331
1.205337874
1.184296231
1.164145873
1.139095382
1.111600135
1.095385437
1.08031641
1.061394178
1.037115446
1.022493574
1.010473199
0.9964006663
0.9765178133
0.962394395
0.9539835674
0.9441889369
0.9299235437
0.9142935557
0.906811368
0.8994339881
0.8896801956
0.8753808758
0.8671902259
0.8617476585
0.854973496
0.8448766068
0.8343538976
0.8291221545
0.8236483422
0.8167537373
0.8065498154
0.7996016542
1.391912106
1.35395849
1.322111074
1.294728852
1.263885083
1.232108395
1.210178119
1.189399642
1.163546454
1.135158018
1.118477556
1.1029447
1.083270944
1.058103865
1.043145243
1.03091758
1.016457357
0.9958685839
0.9812305592
0.9726304636
0.9625273071
0.9477016936
0.9317728038
0.9242443326
0.9166147311
0.9064179608
0.891427669
0.882770499
0.8770247814
0.8699409492
0.8593887486
0.8484480651
0.8429038818
0.8372536612
0.8299787547
0.819205369
0.8127734249
1.423672283
1.385009075
1.352458186
1.324228148
1.292268865
1.25917533
1.236379137
1.215006091
1.188267656
1.158932935
1.141773998
1.125757372
1.105365758
1.079425413
1.064159917
1.051684444
1.036795715
1.015394241
1.000230834
0.9912687832
0.9807679433
0.9652880635
0.9488043783
0.9409190304
0.9329764599
0.9224219842
0.9069321673
0.8980056317
0.892257097
0.8851025235
0.8742452346
0.8629371415
0.8573194047
0.8515273327
0.8437395281
0.8333336171
0.8265073902
1.456177424
1.416495468
1.383136442
1.353934599
1.320806749
1.286449771
1.262830831
1.240857905
1.21327224
1.182984923
1.165339165
1.148873594
1.127792899
1.101062751
1.085466614
1.072745464
1.057398025
1.035170253
1.019431836
1.010216404
0.999352744
0.9833369133
0.9665027895
0.9585881299
0.9504793883
0.939564039
0.9234455591
0.9142442945
0.9082964499
0.9008483718
0.8895016129
0.8777530189
0.8719835958
0.8656846139
0.8576688404
0.8483440539
0.8386431373
1.488501893
1.448235063
1.414202409
1.384093554
1.349694459
1.314004698
1.28955292
1.266955053
1.238478236
1.207265911
1.189204277
1.172337886
1.150616667
1.123124029
1.107132777
1.094095227
1.078258614
1.055129513
1.038895218
1.029420902
1.018222262
1.001602965
0.9843586524
0.9760533716
0.9675018054
0.9560555285
0.9392490967
0.9296303593
0.9236402994
0.9161153778
0.90448353
0.8925690714
0.8867393432
0.8799802439
0.8725383869
0.8629841137
0.8509986614
1.521848517
1.480247638
1.445190567
1.414294358
1.37877959
1.341852258
1.316523987
1.293223135
1.263876208
1.231758974
1.21329715
1.196073122
1.173717801
1.145424646
1.128987891
1.115618093
1.09926879
1.075291964
1.058512939
1.048808031
1.03727551
1.020100262
1.002427094
0.9939892726
0.9852112263
0.973400003
0.9559787582
0.9461911034
0.9401363379
0.9323500745
0.9202314386
0.9082602131
0.901714788
0.8948063495
0.8880077058
0.8759666806
0.8651845274
1.55434588
1.512583859
1.476323055
1.444549961
1.40801278
1.370047787
1.343918777
1.319885948
1.289608729
1.256630356
1.237805062
1.220217041
1.197211006
1.168038529
1.151067208
1.137309557
1.120426781
1.095571202
1.078375477
1.068470809
1.056625959
1.038873267
1.020749249
1.012027585
1.002914439
0.9906024171
0.9724592997
0.9622488896
0.955961761
0.947933126
0.9355650487
0.9233901841
0.9161957658
0.9102179932
0.9022282672
0.8895867318
0.8814079
1.587539471
1.544992823
1.507681256
1.474944008
1.437320012
1.398398985
1.371652945
1.346966583
1.315782684
1.281950528
1.262662036
1.244635132
1.220927417
1.190816692
1.173292316
1.159177005
1.141776737
1.116122001
1.098468705
1.088374142
1.076215194
1.057888354
1.039252391
1.030296351
1.020893812
1.008158145
0.9893897892
0.979002821
0.9726419981
0.9644623275
0.9519393687
0.9388972575
0.9317210581
0.9261667177
0.9157918242
0.9053319431
0.9031768408
1.621065227
1.577001944
1.539040253
1.505614373
1.46694978
1.426923727
1.399666037
1.374419297
1.342343973
1.307749896
1.287974442
1.269442268
1.24497806
1.213812288
1.195710206
1.181248168
1.16334058
1.136911595
1.118921214
1.108624116
1.096131717
1.077194149
1.057963363
1.04875201
1.03909384
1.025914633
1.006526817
0.9958619279
0.9891245993
0.9807865578
0.9678346735
0.9537157932
0.9475125239
0.9400807303
0.9301250204
0.9226093254
0.9390789447
1.65588243
1.60969342
1.570531895
1.536502391
1.497037552
1.455882989
1.428075553
1.402282497
1.369306168
1.333967974
1.313657604
1.294581018
1.269343232
1.237079051
1.218408226
1.203646602
1.18525448
1.158117134
1.139768331
1.12923746
1.116367547
1.09680809
1.076934507
1.067416687
1.057466711
1.043848273
1.023859111
1.012889001
1.006125462
0.9976733613
0.9840583706
0.9704914934
0.9633859962
0.9543189413
0.946287483
0.9489742887
1.052562242
1.69013407
1.642511894
1.602339006
1.567664035
1.52753894
1.485333805
1.456919141
1.430555174
1.396637225
1.360520625
1.339697371
1.32008505
1.294054839
1.260624075
1.241383788
1.226338142
1.207471426
1.179634398
1.160995805
1.150200391
1.136922687
1.116709034
1.096143344
1.086331985
1.076135325
1.062098824
1.041554678
1.030257519
1.023436131
1.014357688
1.000277943
0.9880604947
0.9768581208
0.9693100498
0.9653737956
1.004656505
1.28855865
1.724898266
1.675847536
1.634674283
1.599275942
1.558535641
1.515419483
1.486309281
1.459355053
1.424481916
1.387445648
1.366042882
1.345868001
1.319033071
1.284463032
1.264687469
1.249406254
1.230083868
1.201564332
1.182597425
1.171507111
1.157783021
1.13692507
1.115657829
1.105501775
1.095032404
1.08056451
1.059391337
1.047899646
1.040866841
1.031169116
1.018364353
1.004168331
0.9917486148
0.9865178898
0.9980616756
1.181189729
1.571530755
1.76051919
1.709629298
1.667397627
1.631171222
1.58981402
1.545994775
1.516183915
1.488603809
1.452829569
1.41478391
1.392731142
1.371959923
1.344252753
1.308500646
1.288221448
1.272728055
1.252962105
1.223739786
1.204452738
1.193049641
1.178871165
1.157358247
1.13539644
1.124925732
1.114205294
1.099281666
1.077524809
1.066145837
1.058184089
1.048736001
1.036755721
1.018504767
1.009126818
1.008885742
1.090009245
1.473214843
1.815076508
1.795746238
1.744188476
1.700580874
1.663722552
1.621739309
1.577155943
1.546478823
1.518152644
1.481495995
1.442396098
1.419638641
1.398257455
1.36969129
1.332836931
1.312087651
1.296410626
1.276199555
1.24625359
1.226585158
1.214863598
1.20023338
1.178080456
1.155421321
1.144628893
1.133604104
1.118180164
1.096096792
1.084367698
1.075548249
1.067405597
1.052476343
1.035193883
1.02966965
1.056674417
1.34090357
1.750685872
1.938309209
1.831140366
1.779169462
1.734290867
1.696723568
1.654108212
1.608838958
1.577223483
1.547990626
1.510374019
1.470125731
1.446654605
1.424713192
1.39533484
1.357489246
1.336342755
1.320454647
1.299763983
1.269033968
1.248930774
1.236868564
1.221791983
1.198972704
1.175645915
1.164569014
1.153177346
1.137302077
1.115182774
1.102081648
1.094125572
1.085052001
1.068139382
1.054166777
1.062349951
1.212749084
1.658577381
1.963038144
1.989592728
1.864928811
1.814152582
1.768644084
1.730330993
1.686841635
1.640659227
1.608116025
1.578012109
1.539429459
1.497971927
1.473767498
1.451290046
1.421184782
1.382535168
1.361021759
1.344883634
1.323671738
1.292117556
1.271488537
1.259095023
1.243599503
1.220107125
1.19616954
1.184761775
1.172976744
1.156815407
1.134301974
1.120012452
1.113365999
1.100780238
1.086416563
1.079393581
1.15166121
1.535112768
1.923006263
2.036213328
2.023893205
1.901151915
1.849073645
1.803431467
1.764416068
1.719819997
1.672480253
1.63906384
1.608194312
1.568665285
1.525995444
1.501099714
1.478128703
1.447334329
1.408007048
1.386168763
1.36968788
1.347899088
1.31549245
1.294280851
1.281559206
1.265652531
1.241450663
1.216991755
1.205127401
1.193069623
1.176586057
1.152893281
1.140193914
1.130299584
1.117820289
1.108005258
1.127913229
1.392114665
1.895542601
2.045306737
2.049871197
2.03669446
1.938050039
1.884395762
1.838236543
1.798518541
1.752822352
1.704265692
1.670094367
1.638624057
1.598187314
1.554300796
1.528721033
1.505248885
1.473780819
1.433857174
1.41164393
1.394738879
1.372337423
1.339083998
1.31726649
1.304258796
1.287979663
1.263101357
1.238141394
1.225758902
1.21361791
1.196242227
1.172883223
1.159950922
1.146891961
1.135642154
1.141636905
1.284597503
1.736221893
2.123360922
2.12319983
2.097300204
2.060096496
1.974925684
1.920497433
1.873568773
1.832921031
1.785961246
1.736120689
1.701297152
1.669361229
1.628089446
1.583073754
1.556856473
1.532884325
1.500703156
1.460158389
1.437510492
1.420050133
1.396961732
1.362849994
1.340440804
1.327183
1.310583315
1.285055352
1.259515566
1.246884345
1.234162478
1.216258765
1.19549541
1.176343671
1.165656505
1.15974432
1.228090963
1.637309732
2.024016917
2.165604999
2.173634795
2.152615797
2.11116734
2.013024417
1.957293437
1.909467742
1.867696485
1.819496217
1.76841473
1.732947662
1.700542888
1.658403051
1.612299021
1.58548267
1.561021844
1.528125756
1.486928723
1.463746188
1.445650906
1.421828766
1.38685919
1.363908296
1.350419298
1.333538026
1.307355441
1.281290593
1.26855092
1.254614596
1.237847048
1.215867725
1.193996415
1.187176359
1.206736725
1.48126139
2.02534936
2.166581753
2.19647289
2.190442127
2.168800385
2.140046026
2.051907825
1.995020715
1.946074087
1.903168722
1.853833924
1.801587567
1.765380771
1.732366244
1.689306212
1.642210383
1.614848232
1.589911895
1.556287342
1.514354515
1.490541264
1.471690339
1.447023683
1.411118271
1.387626057
1.373948849
1.356779629
1.32991722
1.303920762
1.290083738
1.2760333
1.260230536
1.234020011
1.215105692
1.221300075
1.363201243
1.858247429
2.282210718
2.268280336
2.241620198
2.206610896
2.175755447
2.153668267
2.093871822
2.033329715
1.983421288
1.939753073
1.88940512
1.835959124
1.798932398
1.765227472
1.721119182
1.67295494
1.645004703
1.619576708
1.585211021
1.54249283
1.517950976
1.49831051
1.472773895
1.435915489
1.411938485
1.398093105
1.380489829
1.353102866
1.327294311
1.311402811
1.299679781
1.279361736
1.254802166
1.243629411
1.31465641
1.743630213
2.162183521
2.342637593
2.337633378
2.309638998
2.260263223
2.211085198
2.174376774
2.136594054
2.074098058
2.021757048
1.977181841
1.926009859
1.871537931
1.833637823
1.799095742
1.753976956
1.704885153
1.676297149
1.650287912
1.61515653
1.571609181
1.546235538
1.525767068
1.499295163
1.46134239
1.436943233
1.422749657
1.404713536
1.377218012
1.350264042
1.334783549
1.321558307
1.299128343
1.280859808
1.298235502
1.592616508
2.192475512
2.324189898
2.334869968
2.344028637
2.330548089
2.297227829
2.251697869
2.206195382
2.179659216
2.116683475
2.062161312
2.016027693
1.963516312
1.90783243
1.869054015
1.833673433
1.787565888
1.737655265
1.70842021
1.681773602
1.645774946
1.601433856
1.575248858
1.55396641
1.526567744
1.487574405
1.462889626
1.448082217
1.429860747
1.401956479
1.373662209
1.359907075
1.341929468
1.320819011
1.324856239
1.485596083
2.009671716
2.46848505
2.448461803
2.393232213
2.351935168
2.331480405
2.313717524
2.285769006
2.247920935
2.221704112
2.15860446
2.10286163
2.055367587
2.001644179
1.944827663
1.905299299
1.869206773
1.822203483
1.771605791
1.741548736
1.714056665
1.677068195
1.63182397
1.604965889
1.583011087
1.554712992
1.5147423
1.489741833
1.4740647
1.45584614
1.426340973
1.401048295
1.380926057
1.364854049
1.353187369
1.437226517
1.9188725
2.345047992
2.529881695
2.516823512
2.468614652
2.407011691
2.35617761
2.330946197
2.30851392
2.278685649
2.260790205
2.198806607
2.143171279
2.094750699
2.040023276
1.982300338
1.941941681
1.904997617
1.857025608
1.805926221
1.775233711
1.746936586
1.708980752
1.662793542
1.635197226
1.612500498
1.583381736
1.542646117
1.516975172
1.501134023
1.481418698
1.452618533
1.426437152
1.402846728
1.392207991
1.418705302
1.760515372
2.405489691
2.520035828
2.523835224
2.513116899
2.492811668
2.456639841
2.407727202
2.362104196
2.325412183
2.293705298
2.300886369
2.238755102
2.183052551
2.133721644
2.077879295
2.019454574
1.978432424
1.940774925
1.89195204
1.840486997
1.809183224
1.779974324
1.741094877
1.694304143
1.66616694
1.642619234
1.612750324
1.571018095
1.545138193
1.528319615
1.507632043
1.481869976
1.448312187
1.427717115
1.437734516
1.645513399
2.228615334
2.663640805
2.645382383
2.579417944
2.522055986
2.502194637
2.480552309
2.445854513
2.400019782
2.352072446
2.311349234
2.339966902
2.278054604
2.222180692
2.171823117
2.115067304
2.056366871
2.014985965
1.976517661
1.926636384
1.874824556
1.843046964
1.81296591
1.773101716
1.725939968
1.697470032
1.673005996
1.642325986
1.599382061
1.574428786
1.554426221
1.536674524
1.505687178
1.474110877
1.464394644
1.581867859
2.142247822
2.561623546
2.724464282
2.715040223
2.658816972
2.581799679
2.526665511
2.496707933
2.46778356
2.429589428
2.382989653
2.335095141
2.377623948
2.315566856
2.25921613
2.208405173
2.151121382
2.09248894
2.050842813
2.011564266
1.960705534
1.908518383
1.876526677
1.845788957
1.805083082
1.757691446
1.728855274
1.703745284
1.671761386
1.629007425
1.602243365
1.582813289
1.562386768
1.529295837
1.507620444
1.549890448
1.974803881
2.650815085
2.747188358
2.745079966
2.725946223
2.688191609
2.634142015
2.57093577
2.519600892
2.482243851
2.447598869
2.408758538
2.364200729
2.412602332
2.351876485
2.294765553
2.243882718
2.186278498
2.12765233
2.085803726
2.045713038
1.993954916
1.941769501
1.909832181
1.878424619
1.836804142
1.789172878
1.760304755
1.734029003
1.701177389
1.658978123
1.628875256
1.612230897
1.586061696
1.556258469
1.568132491
1.855865912
2.49504156
2.889219078
2.86894346
2.794493049
2.725851037
2.69312893
2.659738668
2.61229462
2.556276433
2.505745625
2.467042826
2.431837005
2.392688527
2.448641029
2.38744293
2.329584856
2.278544626
2.220490645
2.161865085
2.119728437
2.078730741
2.025984782
1.973934408
1.942105612
1.910158715
1.867512063
1.819787218
1.791085983
1.763423378
1.730583201
1.686925519
1.659771461
1.63578827
1.61244546
1.600771498
1.773936434
2.439582283
2.81864601
2.938885869
2.919690534
2.852324105
2.76612497
2.708095316
2.671968493
2.634538454
2.587777598
2.535486787
2.487762028
2.446981288
2.40856527
2.485250396
2.422597153
2.363480341
2.312185066
2.253603755
2.194734871
2.152343382
2.110681132
2.056974418
2.005351432
1.973620839
1.941259969
1.897244864
1.850279243
1.820408183
1.793589315
1.758148037
1.717683331
1.685683749
1.660848808
1.649223231
1.724817177
2.268249709
2.947545052
2.978302278
2.962886888
2.928028554
2.880174868
2.815386025
2.745625106
2.693617134
2.652743371
2.609682183
2.560966626
2.51129029
2.467033307
2.428711474
2.523286499
2.457564026
2.397370004
2.345837608
2.286380472
2.227116481
2.184409164
2.142133534
2.0873347
2.036155693
2.004484677
1.971466102
1.926244306
1.879712482
1.849229978
1.821960628
1.785776456
1.747504532
1.707191337
1.690119587
1.728463561
2.140835244
2.814272558
3.13442119
3.112615855
3.026969403
2.939430946
2.898171784
2.85271796
2.791883575
2.727005813
2.672665865
2.627648177
2.583476995
2.536544467
2.48977982
2.447058772
2.562251456
2.492720886
2.43215897
2.380016359
2.319120404
2.259207097
2.216072479
2.173329234
2.117286591
2.066661094
2.034830056
2.001097744
1.954787943
1.90811152
1.878572523
1.848552955
1.81651036
1.769927983
1.73578512
1.743648229
2.034256111
2.794247736
3.10173659
3.155902812
3.133779155
3.065951484
2.976496545
2.914537852
2.865726408
2.814841072
2.756628219
2.698098157
2.648148268
2.605114172
2.562377106
2.51755326
2.472203181
2.601122864
2.528004049
2.467431323
2.414678568
2.352178636
2.29178122
2.248230181
2.205001905
2.147477521
2.097513969
2.064748077
2.030806087
1.98256414
1.937708523
1.904677898
1.878422995
1.840902687
1.794308977
1.785789097
1.94574736
2.639272317
3.259216921
3.234651675
3.180626063
3.127104505
3.078595333
3.012593287
2.94076065
2.883630412
2.836073473
2.785218684
2.729214205
2.675341592
2.62891684
2.587401238
2.545399136
2.500751464
2.639898248
2.564043613
2.503524158
2.449944666
2.385903345
2.325299802
2.281398777
2.237248153
2.178361674
2.128437749
2.095292547
2.059600323
2.011196303
1.965552059
1.933323917
1.904246231
1.864294093
1.833582987
1.920153414
2.528061159
3.147207612
3.3807821
3.333036188
3.236103215
3.145715276
3.095570093
3.043984627
2.978848185
2.913098278
2.857904881
2.807830237
2.756121599
2.702498625
2.651506899
2.605796012
2.563109426
2.520302848
2.675559462
2.601108662
2.540874997
2.486028986
2.4206098
2.359890646
2.315578122
2.270035062
2.210062901
2.159460948
2.126392891
2.088468305
2.041007614
1.991834394
1.963072575
1.926185165
1.892885365
1.923124223
2.38610992
3.216851536
3.406286463
3.403698869
3.362821578
3.281754543
3.185704252
3.11741413
3.065704393
3.008339618
2.944315434
2.883596357
2.830969191
2.781900328
2.731339604
2.679728299
2.630528468
2.585352903
2.542377742
2.710575149
2.638749934
2.578793089
2.522498269
2.455810395
2.395205556
2.350115139
2.303373604
2.242022724
2.192011889
2.156230855
2.1195441
2.069091652
2.024346605
1.985081719
1.950490895
1.958807006
2.300690338
3.073306709
3.541723345
3.501134989
3.424368233
3.361065972
3.301430816
3.2247258
3.149756399
3.092323649
3.040588454
2.982863668
2.920294573
2.860439029
2.80616719
2.754798904
2.703652902
2.652629338
2.603686724
2.557535679
2.746380233
2.67626407
2.61654949
2.55861938
2.491179546
2.43065722
2.385187103
2.336505693
2.274990601
2.223810611
2.188235541
2.14907082
2.101159828
2.051159695
2.010989506
2.002707154
2.217921101
3.027595433
3.53063513
3.650342382
3.586263621
3.468380979
3.375514719
3.320141351
3.259630228
3.188876499
3.122203265
3.065333436
3.008708195
2.947913393
2.885660799
2.827660591
2.775258196
2.725231711
2.674930093
2.624974705
2.577113966
2.782278621
2.714567389
2.654174737
2.594569645
2.526572197
2.46617362
2.419967416
2.370100623
2.307947664
2.256573886
2.219073831
2.181304039
2.130601922
2.076621962
2.055051609
2.17898236
2.883402455
3.628819013
3.689850465
3.667461322
3.605784794
3.513674202
3.413244535
3.344169381
3.287019406
3.222843436
3.15315519
3.088707478
3.030918076
2.973817208
2.914386555
2.855272609
2.799915448
2.748247706
2.6977718
2.647302519
2.597716197
2.821525159
2.753733853
2.691376113
2.631124071
2.561611503
2.502541772
2.453901533
2.404318061
2.340236367
2.291708039
2.249258375
2.213957288
2.155081065
2.111326838
2.171184554
2.779960658
3.581406168
3.863235396
3.808980353
3.691033155
3.617106556
3.551041169
3.462673111
3.378268319
3.313567605
3.253306817
3.187331096
3.119152004
3.055498711
2.995920216
2.936700632
2.876931666
2.818813195
2.764550794
2.713499902
2.663860475
2.614825464
2.859479786
2.792100466
2.728578309
2.66694898
2.597821821
2.537640095
2.489748803
2.436751792
2.376209245
2.32251404
2.286007451
2.238710858
2.18341522
2.1969277
2.668154903
3.596712411
3.838317077
3.900123209
3.84546519
3.735636404
3.644649001
3.577388029
3.498068664
3.411281854
3.337488932
3.276415248
3.214767088
3.147652053
3.079957989
3.017108761
2.958112835
2.899779237
2.841506961
2.785297585
2.732577744
2.682801997
2.634512587
2.899041331
2.829932648
2.764943656
2.703332863
2.63367636
2.573902366
2.524149857
2.471920078
2.409864282
2.358865989
2.315173452
2.264839517
2.258892798
2.565424543
3.508784998
4.079000559
4.046722967
3.941312397
3.858829913
3.775232768
3.682594869
3.603526544
3.528669078
3.447870549
3.369336437
3.301370276
3.238616406
3.17377321
3.106112861
3.040064122
2.978117235
2.918865668
2.860452595
2.80324312
2.748759369
2.697481858
2.648366654
2.936460183
2.867310728
2.801581718
2.739138418
2.670313569
2.609759812
2.560043631
2.50563254
2.445580673
2.392091139
2.343146111
2.320345259
2.53725909
3.441812036
3.998410493
4.168137195
4.106448429
3.982684889
3.883352341
3.805424187
3.71820826
3.631805364
3.55393492
3.476219177
3.397286637
3.323767741
3.257756397
3.193997757
3.128091856
3.061003398
2.996299522
2.935469218
2.877173661
2.820333634
2.765459738
2.713439916
2.664045519
2.976011605
2.903862211
2.839537699
2.774331576
2.707609302
2.644325209
2.595440531
2.539518057
2.48063182
2.420479115
2.387228402
2.500616792
3.322133495
4.207535543
4.305303901
4.229899043
4.123050951
4.017788993
3.917524128
3.836162034
3.753435831
3.664954993
3.581354681
3.503126327
3.425192633
3.348589935
3.277666891
3.212150518
3.14788367
3.082533264
3.01741491
2.955063303
2.895942251
2.838954333
2.783535593
2.730101403
2.679018665
3.012340718
2.942157188
2.874865839
2.812430943
2.74165809
2.68309654
2.626894115
2.577833166
2.507195474
2.455000987
2.516463602
3.219386188
4.12495807
4.424558659
4.383179214
4.267215112
4.150757419
4.052055381
3.953088919
3.865172754
3.782327157
3.695348175
3.608483527
3.526985271
3.448774342
3.371751654
3.297944245
3.229504589
3.164555425
3.099903247
3.034750859
2.971024437
2.910583824
2.853314403
2.798176696
2.744734344
2.693102975
3.051032699
2.978146184
2.912909051
2.846932738
2.779243083
2.716213444
2.665150486
2.605718935
2.53538853
2.556579352
3.107247844
4.195310186
4.603648208
4.543717999
4.408654628
4.293838224
4.184632216
4.085091228
3.9867379
3.893641436
3.807519777
3.721110617
3.632936897
3.548248601
3.4690308
3.392681338
3.318243133
3.247592174
3.181241655
3.117149284
3.053316853
2.989921376
2.928650594
2.870426153
2.814754765
2.760898639
2.708467629
3.088355588
3.014423333
2.948990874
2.883010696
2.814082978
2.753349871
2.697765986
2.632725882
2.61766257
3.050752343
4.134401218
4.606593214
4.689276525
4.591830776
4.442652457
4.324694707
4.219730096
4.118692885
4.018710919
3.921730813
3.83139474
3.744240426
3.656457879
3.570092607
3.488748997
3.411998914
3.337614986
3.265515239
3.196916431
3.131725617
3.068312752
3.005409926
2.943579074
2.884207087
2.827786784
2.773792557
2.721328844
3.123696639
3.050843852
2.984382984
2.917883991
2.849819344
2.789225447
2.72589191
2.698925339
2.972431897
4.094354929
4.846128009
4.822488461
4.715096952
4.606471911
4.47833831
4.357696921
4.250165687
4.14806325
4.047199466
3.947180385
3.852034846
3.762703316
3.67555455
3.589274692
3.506546954
3.429152727
3.355500204
3.283807632
3.214309286
3.14770703
3.08360013
3.020797256
2.959072438
2.899290828
2.842437097
2.7883356
2.736064074
3.161608284
3.085579418
3.020991389
2.952219982
2.886467395
2.818565473
2.773607772
2.958379575
4.01812289
4.786132422
4.995226742
4.892698587
4.737343903
4.621361374
4.507853147
4.389703934
4.279008265
4.175928843
4.075147796
3.973860273
3.875119206
3.782761313
3.695269173
3.609570103
3.526062954
3.447154954
3.372908208
3.301299948
3.231407628
3.163623526
3.098458178
3.035317946
2.973599246
2.913364449
2.855728883
2.80086564
2.747971564
3.193715813
3.125167259
3.05242749
2.992892241
2.911443225
2.853178358
2.940019388
3.892407453
5.009990853
5.135337157
5.046402866
4.908804145
4.76664596
4.646994294
4.536509527
4.420900936
4.307487511
4.202035346
4.100933879
3.999493335
3.898713721
3.803407743
3.714698132
3.629571013
3.546426647
3.46686817
3.392061174
3.320596313
3.250755707
3.182263908
3.11577054
3.051216265
2.988342432
2.927053419
2.868064948
2.811940633
2.758331667
3.230941533
3.158274616
3.092184483
3.020443187
2.939486065
2.96757003
3.759919776
4.937744033
5.302842984
5.220467787
5.067655877
4.927052587
4.794601658
4.672211374
4.560378713
4.446968734
4.332734494
4.224787476
4.123131903
4.022748732
3.922085868
3.825037953
3.734804381
3.649818602
3.567351881
3.487459969
3.411571373
3.339565918
3.26984514
3.201417891
3.133743208
3.067283481
3.002925965
2.941054619
2.88179786
2.825375611
2.771934012
3.265977487
3.194670118
3.127485768
3.044147258
3.037357498
3.609116864
5.005241471
5.506614925
5.411603903
5.238915926
5.093750106
4.957058001
4.826031436
4.700135543
4.583247121
4.468569742
4.353565552
4.243659516
4.141283101
4.042418771
3.943746198
3.847166046
3.756402235
3.671425548
3.589250914
3.508447986
3.430222439
3.35595975
3.285139991
3.215948601
3.146838907
3.07859563
3.012704955
2.94963229
2.889062761
2.830684225
2.774505156
3.302757541
3.233034887
3.152603112
3.115931803
3.535128183
4.906870998
5.558871186
5.58482476
5.439956949
5.257267762
5.121814629
4.991881696
4.859471202
4.72965141
4.607645381
4.490562401
4.375610601
4.265658774
4.163725723
4.067149526
3.970902701
3.874599167
3.782208614
3.695644512
3.61280158
3.531377316
3.451738083
3.37597398
3.304928011
3.235418193
3.165402457
3.095377484
3.027025893
2.961078678
2.897712048
2.837096597
2.779239937
3.34620954
3.255047383
3.200541061
3.447646095
4.836717041
5.821734709
5.783626402
5.598908834
5.442523764
5.283136501
5.147656475
5.018350527
4.885475208
4.753094905
4.626636594
4.506369455
4.390377854
4.278945161
4.173899333
4.07456357
3.978449294
3.884330796
3.79325773
3.706656782
3.623758301
3.542534682
3.462120789
3.383593343
3.308161265
3.235334547
3.164780083
3.096055646
3.029390124
2.96485178
2.902525484
2.842383711
2.784638624
3.373845789
3.284880921
3.433269021
4.703993375
5.783118274
6.021820452
5.849243558
5.614955128
5.463994042
5.322254353
5.18441485
5.052836165
4.920192933
4.787084535
4.657943119
4.534531809
4.415674018
4.30042446
4.190122121
4.086501305
3.989466903
3.896917769
3.807477731
3.721367011
3.638487125
3.557317877
3.47618277
3.395186773
3.316033484
3.240703998
3.169663001
3.101901252
3.036625138
2.973511499
2.912486511
2.85273677
2.794276683
3.283274641
3.3413443
4.491161815
5.908190854
6.22281307
6.100702406
5.873914137
5.651512918
5.490784021
5.343877479
5.196502113
5.058992609
4.926994498
4.793938838
4.662223008
4.537078763
4.419360816
4.306748277
4.198444339
4.095658206
3.998970028
3.906619902
3.81677969
3.729180931
3.644285516
3.561869832
3.481133234
3.401458616
3.323286111
3.248134703
3.176856498
3.108859159
3.043205467
2.979311984
2.917172745
2.856901023
2.798963842
2.944106864
4.189198924
5.742599646
6.356401685
6.232815906
6.057967012
5.885108593
5.69470346
5.539620418
5.388432239
5.232495328
5.087321769
4.954569409
4.822495342
4.68930451
4.561951298
4.443956012
4.332994419
4.22654511
4.124552565
4.027664866
3.934978333
3.844681149
3.75572143
3.668583116
3.584364126
3.503381809
3.42458477
3.347198363
3.271804756
3.199484995
3.130440882
3.064015515
2.999351306
2.936199888
2.875128228
2.816933148
3.178734731
5.850196514
7.200767085
6.723164552
6.215324031
6.041479853
5.894089996
5.705283542
5.525390283
5.365875271
5.206243475
5.057930314
4.924288484
4.792262637
4.658732501
4.531072354
4.413386492
4.303238994
4.197726672
4.096580472
4.000543637
3.90880582
3.819351547
3.730791272
3.643522777
3.558983127
3.47794013
3.399405327
3.322316135
3.247020703
3.174743015
3.105935906
3.039993148
2.975834991
2.912995767
2.852036991
2.79406341
)
;

boundaryField
{
    inlet
    {
        type            calculated;
        value           nonuniform 0();
    }
    outlet
    {
        type            calculated;
        value           nonuniform 0();
    }
    bottom
    {
        type            calculated;
        value           nonuniform 0();
    }
    top
    {
        type            calculated;
        value           nonuniform List<scalar> 
37
(
3.178734731
5.850196514
7.200767085
6.723164552
6.215324031
6.041479853
5.894089996
5.705283542
5.525390283
5.365875271
5.206243475
5.057930314
4.924288484
4.792262637
4.658732501
4.531072354
4.413386492
4.303238994
4.197726672
4.096580472
4.000543637
3.90880582
3.819351547
3.730791272
3.643522777
3.558983127
3.47794013
3.399405327
3.322316135
3.247020703
3.174743015
3.105935906
3.039993148
2.975834991
2.912995767
2.852036991
2.79406341
)
;
    }
    obstacle
    {
        type            calculated;
        value           nonuniform 0();
    }
    defaultFaces
    {
        type            empty;
    }
    procBoundary33to26
    {
        type            processor;
        value           nonuniform List<scalar> 
27
(
1.352690196
1.382413702
1.415872686
1.448696406
1.481814403
1.514569489
1.54649811
1.579629054
1.612564418
1.649474276
1.683438953
1.719785577
1.753759334
1.789874043
1.822312892
1.856978249
1.893288884
1.931719606
1.972087172
2.00835727
2.049809678
2.091425991
2.134959359
2.175081278
2.216811766
2.258782819
2.302532198
)
;
    }
    procBoundary33to27
    {
        type            processor;
        value           nonuniform List<scalar> 
38
(
0.7778041254
0.7685575285
0.7620791116
1.299595769
1.263557764
1.234037326
1.208794888
1.180855357
1.152709189
1.13337447
1.11461082
1.091264122
1.065528066
1.050078097
1.035737696
1.018193944
0.9957358515
0.981919426
0.9704698085
0.9572124259
0.9386500541
0.9254026994
0.9175807511
0.908550317
0.8955307905
0.8809283601
0.8738062814
0.8668465324
0.8577390499
0.8445200708
0.8371130746
0.8320567847
0.8257683217
0.8164548918
0.8067775278
0.8021479945
0.79716472
0.79716472
)
;
    }
    procBoundary33to32
    {
        type            processor;
        value           nonuniform List<scalar> 
33
(
2.34002572
2.379968014
2.416965387
2.446897972
2.483008051
2.520136715
2.55630157
2.599436918
2.642605045
2.680564558
2.72019075
2.754838175
2.793840365
2.827627735
2.862747036
2.90101193
2.937857482
2.981144919
3.015478149
3.060438211
3.095974281
3.135011095
3.165508485
3.201010778
3.24298647
3.274608798
3.319049597
3.357215041
3.405498164
3.389060077
3.297946285
2.60629186
1.632816634
)
;
    }
    procBoundary33to34
    {
        type            processor;