/*--------------------------------*- C++ -*----------------------------------*\
  =========                 |
  \\      /  F ield         | OpenFOAM: The Open Source CFD Toolbox
   \\    /   O peration     | Website:  https://openfoam.org
    \\  /    A nd           | Version:  7
     \\/     M anipulation  |
\*---------------------------------------------------------------------------*/
FoamFile
{
    version     2.0;
    format      ascii;
    class       volScalarField;
    location    "2";
    object      T;
}
// * * * * * * * * * * * * * * * * * * * * * * * * * * * * * * * * * * * * * //

dimensions      [0 0 0 1 0 0 0];

internalField   nonuniform List<scalar> 
2222
(
1
1
1.000000004
1.000000111
1.000002443
1.000034808
1.000395462
1.002698704
1.013635304
1.043170949
1.097033547
1.147960918
1.186871975
1.218775513
1.229338202
1.22843609
1.226958104
1.224484802
1.22041375
1.214795901
1.209073625
1.20377631
1.198361609
1.192587826
1.186578417
1.180397926
1.173863629
1.167152399
1.160521805
1.153813398
1.147831474
1.13761282
1
1.000000004
1.000000124
1.00000244
1.00004007
1.000362877
1.002775728
1.011437745
1.036411472
1.067255258
1.098381027
1.13291121
1.165930769
1.186352895
1.206652907
1.216887332
1.22348572
1.222571974
1.21881108
1.213930176
1.208965963
1.20377432
1.198099684
1.192274655
1.186297245
1.18000445
1.173443187
1.16693601
1.160445443
1.153739018
1.147705605
1.137498541
1.000000004
1.000000122
1.000002758
1.000035182
1.000425305
1.002459882
1.012639774
1.033256713
1.066018067
1.093401087
1.103908418
1.116530588
1.135329658
1.159697917
1.190127835
1.208930916
1.218997044
1.218341701
1.216129051
1.212868083
1.208799753
1.203541448
1.197610491
1.191961823
1.186071422
1.179656849
1.173177964
1.166946427
1.160590788
1.153854707
1.147816777
1.137665221
1.000000128
1.000002497
1.000042108
1.000357026
1.002977497
1.011304147
1.035416657
1.068359255
1.08780375
1.103178841
1.107145958
1.109923249
1.11664744
1.131382218
1.154095797
1.178756744
1.202430952
1.208606739
1.212332259
1.212026385
1.20960159
1.20457582
1.198982118
1.193721085
1.187813662
1.181319066
1.175073117
1.169070615
1.162824443
1.156114877
1.150190719
1.140226826
1.000002877
1.000035629
1.000442632
1.002451693
1.013282831
1.034103593
1.06390849
1.09591045
1.103598607
1.109165488
1.109394831
1.109666779
1.110624299
1.114350208
1.124145385
1.146038759
1.173192742
1.194016564
1.209348717
1.208270376
1.204195731
1.199440463
1.195354462
1.190216538
1.183573433
1.177373469
1.171805567
1.165816838
1.159387297
1.152973516
1.147462994
1.137787707
1.00004364
1.000361362
1.003045581
1.011418958
1.036149241
1.06911367
1.087364589
1.101396592
1.108277665
1.110947701
1.110823839
1.11024373
1.109820382
1.108730516
1.109757642
1.116910212
1.133734942
1.158672202
1.186688012
1.192459947
1.197989681
1.197766406
1.194952678
1.189039018
1.182526135
1.177026275
1.171364809
1.164956147
1.158554679
1.152400395
1.146992102
1.137432317
1.00045092
1.002491588
1.013541157
1.034469005
1.064852592
1.094555248
1.107122762
1.108893946
1.109712695
1.110894637
1.110974171
1.110592646
1.108950288
1.106700194
1.103341683
1.103561587
1.107737168
1.122946489
1.148283004
1.173402289
1.193926157
1.193919484
1.190441499
1.184805868
1.180854796
1.176349328
1.169902627
1.163186278
1.157550415
1.151815883
1.146176631
1.136420707
1.003055041
1.011626729
1.037083592
1.069005815
1.087959836
1.101237161
1.110230861
1.111043983
1.110783234
1.110596739
1.110337574
1.109239765
1.107010188
1.103994745
1.1006175
1.096799521
1.096188081
1.099237528
1.11092749
1.136408268
1.164073222
1.175732771
1.182455628
1.182060404
1.179958292
1.174751254
1.1678246
1.161847401
1.156674084
1.150953772
1.145225756
1.135592917
1.01355571
1.035105697
1.065894641
1.09495516
1.107789542
1.108010033
1.109477966
1.111115104
1.110980279
1.110453317
1.109294792
1.107311315
1.104471289
1.10114123
1.097647324
1.093790191
1.08993392
1.088439363
1.090648106
1.101413805
1.123569589
1.152105798
1.172951728
1.1788402
1.17599679
1.169857632
1.165283095
1.161232389
1.155751892
1.148900612
1.143354565
1.134495106
1.037382794
1.070025593
1.087966228
1.102724177
1.110772257
1.111088251
1.110719812
1.110758084
1.110507685
1.109525979
1.107549246
1.104809858
1.101513756
1.098085078
1.094420576
1.090656042
1.086599991
1.082679522
1.080683767
1.082203351
1.091481498
1.113864511
1.13926678
1.161338034
1.166057504
1.165816029
1.16459732
1.160533923
1.154019786
1.146977047
1.141907205
1.133421489
1.066628116
1.096577931
1.107088461
1.107785707
1.109521665
1.111397921
1.111297199
1.110767024
1.109614217
1.107737506
1.10506672
1.101820045
1.098378901
1.094712034
1.091047934
1.087075581
1.083253545
1.079139966
1.075139693
1.072865288
1.07428463
1.081795087
1.102521068
1.13150355
1.152311924
1.163343835
1.161736332
1.155762503
1.150140295
1.145997277
1.141527077
1.132580904
1.08840168
1.104296853
1.11056004
1.110638102
1.110576222
1.111182969
1.111066317
1.110064363
1.108053581
1.105375398
1.102131415
1.098639483
1.095002902
1.091195345
1.087316452
1.083489199
1.079556565
1.075699789
1.071569335
1.067657393
1.064999496
1.066031714
1.073385105
1.092379362
1.118686672
1.146140041
1.14968388
1.149888684
1.148948525
1.146342175
1.141582655
1.131665295
1.106783426
1.108041817
1.109627866
1.111241874
1.11136993
1.11114304
1.110262768
1.108382721
1.105678561
1.102363822
1.098935378
1.095224708
1.091445481
1.087475259
1.083658133
1.079797668
1.075840606
1.071920304
1.068118544
1.064025171
1.060138877
1.057294562
1.058257308
1.064013087
1.083136263
1.112404471
1.133226069
1.147027341
1.146567196
1.141806113
1.136458727
1.129153861
1.110569256
1.110599781
1.110683742
1.111323507
1.111346998
1.110610462
1.108792379
1.106056252
1.102776797
1.099191991
1.095540674
1.091765779
1.087740497
1.083929298
1.079956509
1.07596823
1.07199999
1.068269692
1.06441774
1.060475691
1.056428773
1.052580666
1.049657839
1.050334974
1.056408589
1.073107699
1.101258381
1.128206475
1.135020088
1.135638784
1.134288687
1.129020655
1.109775138
1.111494848
1.111583109
1.111516769
1.110777614
1.109049041
1.106421612
1.103159901
1.0995786
1.095878232
1.092019717
1.088095246
1.084259718
1.080222791
1.076158706
1.072060432
1.068393852
1.064488752
1.060437819
1.05656179
1.052803709
1.048985001
1.045022694
1.042206277
1.042809911
1.047887007
1.065618283
1.092920468
1.116570439
1.131125365
1.130991859
1.126079383
1.110978167
1.111622696
1.111633017
1.110915866
1.109225834
1.106648485
1.103412336
1.09992426
1.096259822
1.092271665
1.088326256
1.084524686
1.080619748
1.076344606
1.072212454
1.068432631
1.06440519
1.060397855
1.056409247
1.052880518
1.049039213
1.045193368
1.041494163
1.037712289
1.034921947
1.035446615
1.040462005
1.056055257
1.085397786
1.108815908
1.121929495
1.120876638
1.111934331
1.111824675
1.111088314
1.109438272
1.106926696
1.103679596
1.100142733
1.096551152
1.092603301
1.08850025
1.084772667
1.080900632
1.076533729
1.072359742
1.068459391
1.06441336
1.060170469
1.056286207
1.052857488
1.04888147
1.044971434
1.041421271
1.038090071
1.034438218
1.030388304
1.027715007
1.028068555
1.03314543
1.048301654
1.074473831
1.103982858
1.114963741
1.111994884
1.111290494
1.109679002
1.107184168
1.104028774
1.100442011
1.096812173
1.092907789
1.088773662
1.084976417
1.081085874
1.076667885
1.07237411
1.068587999
1.064504867
1.059994819
1.056045661
1.052611476
1.048766834
1.044790354
1.041209515
1.038086061
1.034273856
1.03060494
1.027048209
1.023228931
1.020650531
1.02102922
1.025047581
1.041428064
1.067418305
1.097827008
1.11141474
1.109859801
1.107435436
1.104292113
1.100810793
1.097133121
1.093217903
1.089079238
1.085184591
1.081285965
1.076797289
1.072408062
1.068621738
1.064555444
1.05988975
1.055824268
1.0523849
1.048648212
1.044535654
1.041086583
1.037811797
1.033875293
1.030150978
1.026834793
1.023791014
1.020045835
1.015959462
1.013518425
1.014027779
1.018864103
1.032261147
1.071402052
1.110098276
1.107729893
1.104629468
1.101157421
1.097539145
1.093544574
1.089355874
1.085411926
1.081479462
1.076936976
1.072418267
1.068605013
1.064534952
1.059833515
1.05568813
1.052358212
1.048489899
1.044226897
1.040740412
1.037429458
1.03351729
1.029636781
1.026536913
1.023591865
1.01969603
1.016162884
1.012816526
1.009302669
1.007077396
1.007522341
1.011013257
1.039533486
1.107975207
1.104960891
1.101497373
1.097937965
1.093949988
1.089652625
1.085665913
1.081680478
1.077053077
1.072353667
1.068511864
1.064609479
1.059795244
1.055595011
1.052281546
1.048373404
1.043909836
1.040360198
1.037152492
1.033178685
1.02908385
1.026159259
1.023110731
1.019100135
1.015482976
1.012541888
1.00993855
1.006300949
1.002244063
1.000100337
1.000260318
1.013755072
1.105288791
1.101839086
1.09828177
1.094391673
1.089992367
1.085873701
1.081859512
1.077186384
1.072325258
1.068402587
1.06462503
1.059932922
1.05539642
1.05206663
1.048311572
1.04373231
1.040072519
1.036918861
1.032762763
1.028529088
1.025529457
1.02262052
1.018662867
1.01471273
1.01222276
1.009623636
1.005811584
1.002495869
0.998924722
0.9951994334
0.993766155
0.9980003801
1.102205813
1.098605038
1.094786696
1.09037723
1.08605677
1.082038244
1.07734056
1.07239951
1.068317123
1.0645203
1.059951344
1.055297859
1.051809606
1.048250581
1.043729882
1.039782558
1.03646342
1.032369274
1.027956204
1.024990182
1.022257868
1.01814401
1.014126411
1.0117246
1.008964174
1.005373222
1.00141766
0.9983943087
0.9961311295
0.9920548299
0.9890081717
0.9883636092
1.098950065
1.095112426
1.090716139
1.086229267
1.082187201
1.077602201
1.072416693
1.068291103
1.064469229
1.05988166
1.055238199
1.05165966
1.048103548
1.043644353
1.03939052
1.035990702
1.031997754
1.027627641
1.024620424
1.021759359
1.017635807
1.01342586
1.010953953
1.0086058
1.004606704
1.000536158
0.9979655717
0.9950100053
0.9923487784
0.9886230254
0.9853383626
0.9821985506
1.095408386
1.091024989
1.086401693
1.082291349
1.077867905
1.072522561
1.068100217
1.064554517
1.059972716
1.055069611
1.051433942
1.047935742
1.043399074
1.039020292
1.035585533
1.031771467
1.027427638
1.024124555
1.021204497
1.017003269
1.012669518
1.010432626
1.007979986
1.004032475
0.9999063399
0.9967766138
0.9946505592
0.9912415632
0.9877772303
0.9849130711
0.9820407571
0.9780687793
1.091269253
1.086606818
1.082313128
1.078023756
1.072807182
1.067960536
1.064490509
1.060273105
1.054889837
1.050980842
1.047722895
1.043321327
1.038639362
1.035141821
1.031500424
1.027103231
1.023599261
1.020623177
1.01653688
1.012218354
1.009727451
1.007433537
1.003364061
0.9986134004
0.9962225253
0.9936356718
0.9908114118
0.987201403
0.9835094644
0.9813107872
0.9789253535
0.9743905605
1.08676732
1.082404791
1.078062487
1.073106484
1.068081175
1.06426092
1.060363442
1.05501017
1.050441189
1.047403696
1.043388252
1.038342024
1.034483154
1.030991985
1.026840171
1.023157364
1.020148386
1.016245968
1.011706445
1.009038125
1.006581643
1.00246098
0.9979661257
0.9950715806
0.9931729195
0.9901795454
0.9862838864
0.9828231721
0.9799437015
0.9779652624
0.9753889585
0.9706126753
1.082511535
1.078245949
1.073241747
1.068262718
1.064159334
1.060228614
1.055217125
1.050217783
1.04689655
1.043264974
1.038150848
1.03378301
1.030453067
1.026637575
1.022914884
1.019631595
1.015621959
1.011154429
1.008215754
1.005818753
1.001893541
0.9969108311
0.994518873
0.9922582439
0.9893025375
0.9856263797
0.9814572244
0.9791738635
0.9771952057
0.9744295381
0.9711673926
0.9667372575
1.078471453
1.07343454
1.068192594
1.064190517
1.060211612
1.055225721
1.050080446
1.046436078
1.042916123
1.038023803
1.033323361
1.029976724
1.026383851
1.022511964
1.018979769
1.014914792
1.010423348
1.007544846
1.005236924
1.001186119
0.9962614723
0.9932830808
0.9914367051
0.988457604
0.9845242334
0.9809343566
0.9781516651
0.9764758214
0.9737829028
0.9696292124
0.9668217518
0.9632180743
1.073793069
1.068193998
1.064031818
1.060328535
1.05517227
1.049725227
1.04599844
1.042649318
1.037961376
1.032931292
1.029487287
1.026032716
1.021959793
1.018284376
1.014386376
1.009947142
1.006802935
1.004398446
1.000597461
0.9950829051
0.9923012753
0.9904918061
0.9877630473
0.9839647498
0.9799429113
0.9773224965
0.9753970885
0.9727913846
0.9685660922
0.9651595368
0.9635983613
0.9600135721
1.068500214
1.063764096
1.06017059
1.055314563
1.049337218
1.045461345
1.042422284
1.037937409
1.032529021
1.028775075
1.025683217
1.021670086
1.017545713
1.013797824
1.009547863
1.005974091
1.003366344
0.9997200037
0.994526824
0.9912360496
0.9896791261
0.9871138461
0.9829483989
0.978973687
0.9760517329
0.9742577118
0.9718987686
0.9676140389
0.9639667569
0.962532924
0.9607989546
0.9563794851
1.063654553
1.059842411
1.055412239
1.04933434
1.044835455
1.041943023
1.037845586
1.032209556
1.02804812
1.025187079
1.02154779
1.016977701
1.012784591
1.008884596
1.005315873
1.002416593
0.998967921
0.9939937369
0.9905071069
0.9886653767
0.9860689184
0.9820759403
0.9777244296
0.975058396
0.9732265376
0.971036403
0.9670026246
0.9625403637
0.961153896
0.9596534596
0.9568381425
0.9522372984
1.059625988
1.055386776
1.049500803
1.044313772
1.041329382
1.037599714
1.032073741
1.027509297
1.024556145
1.021132356
1.016490456
1.011779043
1.007949217
1.00469834
1.001783256
0.9980989353
0.9933079958
0.9895752373
0.9877183756
0.9851993628
0.9809955834
0.97705265
0.9742843763
0.9722136387
0.9698259659
0.9660173304
0.961257981
0.9594354073
0.9584474265
0.9557222914
0.9524914215
0.9487063331
1.055314243
1.049490739
1.043899375
1.040747478
1.03740543
1.03199818
1.026964666
1.023934473
1.020456979
1.01585869
1.011116166
1.007138222
1.003920102
1.000987301
0.9973236447
0.9922955305
0.9885713738
0.9868085234
0.9844648151
0.9802454701
0.9758668354
0.9733445375
0.9710821364
0.9684610967
0.9648380921
0.9603370313
0.9581272775
0.9572519334
0.9551585486
0.9511759171
0.9487435858
0.9453185929
1.049520942
1.04354245
1.040189687
1.037166315
1.031975789
1.026233938
1.023102058
1.01999969
1.015182599
1.010369706
1.006587896
1.003093852
0.9999480204
0.9964925125
0.9916359339
0.987521055
0.9857363016
0.9836752802
0.9793894128
0.9745597501
0.9720014871
0.9700297735
0.9674151205
0.9639270829
0.9597399416
0.9571354723
0.9559503639
0.9540448316
0.950095127
0.9466717542
0.9451505889
0.9415805135
1.043481607
1.039538283
1.036608691
1.031918107
1.025601276
1.022035464
1.019476318
1.014936628
1.009304519
1.005656287
1.002522465
0.9989698797
0.9954918103
0.991239838
0.9867614925
0.9844652481
0.9824784712
0.9787209429
0.9733063971
0.9706525888
0.968936129
0.9664118655
0.962877075
0.9587192878
0.9557779735
0.9544475482
0.9527674348
0.9491629572
0.9451287645
0.9436529729
0.9421383539
0.9379208411
1.03893435
1.035827242
1.031633989
1.025484563
1.021036802
1.018544709
1.014728794
1.008426106
1.004193783
1.001741862
0.9985236324
0.9944756027
0.9904000329
0.9861961479
0.983297534
0.9811838685
0.9778400555
0.9726639771
0.9693779765
0.9677109812
0.9652387461
0.9616508149
0.9575590215
0.9543939298
0.9529664158
0.9515807894
0.9485764102
0.9440856006
0.9420498724
0.9407241012
0.9381450355
0.9334465341
1.035218392
1.031240034
1.025457451
1.020339556
1.017385841
1.013943177
1.00821762
1.002850595
1.000556582
0.9979800758
0.9938112029
0.9891099691
0.9852427072
0.9823870026
0.9800318157
0.9767393086
0.9717885606
0.9681573563
0.9664128972
0.9639846202
0.9603543225
0.9565759632
0.9535083939
0.9516630167
0.9501977244
0.9476174623
0.9430171922
0.9400610529
0.9389772164
0.9368060334
0.933259629
0.9293585908
1.030927168
1.025072641
1.019557212
1.016357735
1.013040058
1.007897504
1.002320064
0.9993355981
0.9969370222
0.993148774
0.9879758997
0.9838954079
0.9813131121
0.9790052898
0.975677403
0.9707260678
0.966855241
0.9652646428
0.9631466353
0.9592651108
0.9553445302
0.9526496029
0.9504639722
0.9484844287
0.9459701921
0.9417748084
0.9382141871
0.9371046973
0.9356274401
0.9319863682
0.9289579897
0.9261296177
1.024623654
1.018586969
1.015394283
1.012468408
1.007492421
1.001650441
0.9982622138
0.9957500643
0.9921559644
0.9873061576
0.9827883587
0.9800803506
0.9778430658
0.9747219754
0.9697087483
0.9654136085
0.9637622793
0.9620166822
0.9582754019
0.9536856506
0.9512362596
0.9493559043
0.9470934336
0.9444825104
0.9409048914
0.9372460753
0.935685098
0.9343080301
0.9312373924
0.9270496674
0.9255791834
0.9227930127
1.017975942
1.014332671
1.011703019
1.007067349
1.000592219
0.9969117817
0.9947856797
0.9913605089
0.9865189452
0.9820957849
0.9789734011
0.9764564978
0.9734817738
0.9689803608
0.9640644489
0.9621033886
0.9607035281
0.957570839
0.9523757881
0.9496615873
0.9482220764
0.9459834663
0.9430273708
0.9396053617
0.9359502946
0.9338846013
0.9325517148
0.9299475325
0.9256579319
0.9234371748
0.9223755141
0.9190101823
1.013151207
1.010390725
1.00646838
0.9999143894
0.9954733992
0.9936950663
0.9908084639
0.9855838793
0.9808276339
0.9778623114
0.9751265486
0.9719750829
0.9680171717
0.9633478955
0.9606072841
0.9591148969
0.95656963
0.9515830174
0.9478542785
0.9465554902
0.9445581348
0.9414971037
0.938073828
0.9344973349
0.9321359122
0.9309210202
0.9288321226
0.9245689394
0.9217303521
0.9206726511
0.9190769812
0.9152020352
1.009093459
1.005590442
0.999867118
0.9944488197
0.9922755209
0.9898223215
0.984798304
0.979152738
0.9763939332
0.974052712
0.9707835814
0.9668835256
0.9627290187
0.9595071199
0.9576341345
0.9552659612
0.950771103
0.9462812211
0.9447662782
0.9429551179
0.9399043127
0.9366270049
0.9334096955
0.9306308679
0.9291131351
0.9274829164
0.9238340702
0.9199071781
0.9189993078
0.9177927973
0.9152941418
0.9109735672
1.004927061
0.9995606344
0.9936783722
0.9907348301
0.9883397282
0.9840345184
0.9780854689
0.9749026593
0.9728708976
0.9698344677
0.9656383013
0.9614053052
0.9580856845
0.9559590171
0.9536510688
0.9496701007
0.9449058818
0.9429644827
0.9414423505
0.9384171251
0.9350955602
0.932349219
0.9293835973
0.9272143775
0.9256272063
0.9228590187
0.9184403137
0.9165953306
0.9157990731
0.9136026892
0.9102659713
0.9067049399
0.9989093155
0.9925129506
0.9892035635
0.9870454678
0.9832805302
0.9777003116
0.9736709566
0.9714294359
0.9685354663
0.964402503
0.9598519555
0.9564481704
0.9543794868
0.9523736852
0.9488202007
0.9438872675
0.9413509112
0.9399906252
0.9370978565
0.933104534
0.9305575551
0.9281334475
0.9254389786
0.9236243882
0.9215555187
0.9175932682
0.9143805926
0.9135977942
0.9121878773
0.9089536959
0.9065234866
0.9037832629
0.9914635455
0.987695142
0.9858983374
0.9826251213
0.9769265581
0.97214959
0.9697067049
0.9669980927
0.9631030088
0.9587306396
0.9551532815
0.9528450174
0.9508458341
0.9476954734
0.942559599
0.9391887414
0.938029104
0.9359289066
0.9314991078
0.9283298901
0.9265718259
0.924088889
0.9215746395
0.9195747361
0.9165598339
0.9129206547
0.9117592232
0.9107269069
0.9079794751
0.9046195237
0.9030820914
0.9002985922
0.986274639
0.9841630454
0.9814702933
0.9760043477
0.9702599321
0.9678716159
0.9658069836
0.9621428477
0.9576801509
0.9541892559
0.9515674725
0.9492093677
0.9462602834
0.9413332155
0.9369375873
0.9357080914
0.9343205289
0.9306159544
0.9262278794
0.9247563761
0.9230199438
0.9202374962
0.9178510662
0.915393007
0.9119740911
0.9097090498
0.9086889328
0.9063765086
0.9025095777
0.9005350555
0.8994510736
0.8963235781
0.9821078035
0.9796816938
0.9752843736
0.9689621217
0.9660032816
0.9644236186
0.9612445123
0.9561381412
0.9523846742
0.9499801396
0.9473449221
0.9442571856
0.9402310162
0.9355673402
0.9335927742
0.932486271
0.9298970125
0.9251138696
0.9227634006
0.9214515187
0.9189057259
0.9157624774
0.9132721433
0.9101362899
0.9072163691
0.9061261556
0.9045731326
0.9011473771
0.8988938008
0.8979250901
0.896386277
0.8924718733
0.9779744472
0.9744517759
0.9687201098
0.9642427247
0.9624644018
0.9599585811
0.954765298
0.9500941166
0.948162127
0.9459967084
0.9427262375
0.9390037641
0.9349828124
0.9320711666
0.9304867783
0.9281506623
0.9237332865
0.920184918
0.9190200196
0.9169839728
0.9137167035
0.9112803845
0.9087651
0.9059544689
0.9045272584
0.9033957984
0.9006080953
0.8971266324
0.8959297635
0.8944530806
0.891679059
0.887156241
0.9733209888
0.9679816298
0.9626750155
0.9601967594
0.9579799701
0.9538162799
0.9484116178
0.9460696216
0.9443093983
0.941301613
0.9372622397
0.933421601
0.9303525937
0.9284304151
0.9262838867
0.9223461404
0.9181389132
0.9169145771
0.9154921938
0.9125531905
0.9099568556
0.9079141043
0.904915034
0.9025200938
0.9013413692
0.8992726525
0.8950965959
0.8931499266
0.8920291659
0.8898037772
0.8863017874
0.8836918631
0.9665870702
0.9611646121
0.9583679135
0.9562785606
0.9527207243
0.9477174598
0.9444424281
0.9424937138
0.9397831515
0.9356355158
0.9312968401
0.9282206601
0.9262039089
0.9242356463
0.9209640618
0.916940743
0.9151501663
0.9138400187
0.9109884058
0.9075407637
0.9055893882
0.9031589494
0.9000891725
0.8986938647
0.8972626835
0.8941073924
0.8908124597
0.8893244594
0.8874316463
0.8840919528
0.880978563
0.8816943617
0.9596660193
0.9568298745
0.9547424291
0.9512953587
0.9463557082
0.942585465
0.9403868468
0.9377779455
0.9341247443
0.9297073998
0.9261804869
0.9242169221
0.9225607074
0.9198361416
0.9157484883
0.913001023
0.9116400448
0.9091996454
0.9049260741
0.9029350747
0.9015866369
0.8989294689
0.8964834359
0.8953430583
0.8933272597
0.8895034783
0.8873896639
0.8854617443
0.8828885618
0.8808827095
0.8800668326
0.8851274978
0.9550101244
0.9530986346
0.9499853121
0.9447310186
0.9405135738
0.9383513623
0.9357969927
0.9322671826
0.9284620834
0.9248471776
0.9223041077
0.9205243952
0.9181398622
0.9139164224
0.9102098266
0.9090174802
0.9075123284
0.9039597915
0.9006781797
0.8995132492
0.8978255774
0.894700051
0.893018638
0.891385761
0.8879441515
0.8845971692
0.8824769323
0.8802777284
0.8790517012
0.879434056
0.8817213571
0.9073172534
0.9506314869
0.9481166527
0.9433096514
0.9381996922
0.9360931518
0.9341248811
0.930622558
0.9266829609
0.9236955971
0.9208813948
0.9183938814
0.916081584
0.9124572993
0.9079502684
0.9064088884
0.9055407908
0.9032020951
0.8987295437
0.8968725286
0.8958105742
0.8933253358
0.8903169464
0.8885970806
0.8856014933
0.8815583185
0.8800502306
0.879335231
0.8782748979
0.8788515107
0.8853966962
0.9028245123
0.9509504212
0.946179914
0.9424138835
0.9368769611
0.9340350293
0.9324602592
0.9293234186
0.92441965
0.9211613971
0.9188255926
0.9158649684
0.9133983989
0.910829289
0.9069956854
0.9040158716
0.9030393905
0.9013802958
0.8973136417
0.8943227897
0.8934931248
0.8918732024
0.8881857138
0.8856434172
0.8830866204
0.8797970148
0.878256796
0.8778659639
0.8780832909
0.8805976753
0.8919420035
0.9210439443
0.9505901624
0.9815098415
0.9411509084
0.9360420767
0.931634197
0.929988766
0.9278020409
0.9228423865
0.9181688957
0.9165220294
0.9140474659
0.9109250299
0.9090030233
0.9064485354
0.9025609027
0.9006243178
0.8993601624
0.8963488873
0.8922292464
0.8906802653
0.889391975
0.8860429186
0.8830236064
0.8806013405
0.877738408
0.876018402
0.8762859986
0.8771002355
0.8844172821
0.9039018115
0.9342052703
0.9710774682
0.9922776042
1.000704635
0.934824239
0.9292157808
0.9267290149
0.9251677682
0.9216436236
0.9159351767
0.9141206514
0.9127363728
0.9093999859
0.9064847556
0.9044180363
0.9011449704
0.8980337011
0.8967995154
0.8946462954
0.8901093594
0.887518135
0.8864199236
0.8840083554
0.8806748002
0.8784350769
0.8757803391
0.8750520854
0.8752873765
0.8784731115
0.8899938182
0.921857516
0.9544360732
0.9827470672
0.9904047557
0.9984173691
1.003908501
0.9274566609
0.9237337267
0.9225514543
0.9205069224
0.9156198635
0.9118721251
0.9107337305
0.908209888
0.9039725568
0.9013155167
0.8988909336
0.8954889567
0.8938074042
0.8922419301
0.8890501176
0.8854958893
0.8840653608
0.882319447
0.878486424
0.8758343672
0.8739245438
0.8739181314
0.8750450373
0.8815423983
0.9045207341
0.9356864959
0.9644575546
0.9838318069
0.9995457945
0.9995596138
1.001060422
1.003261589
0.9223399155
0.9200967195
0.9183018816
0.9144324424
0.9090117441
0.9071574622
0.9055217976
0.9016126024
0.8981193023
0.8964196381
0.8938831629
0.8914370253
0.8902733292
0.8881792369
0.8843487265
0.8814298807
0.8792293542
0.8751877888
0.872705133
0.8731071739
0.8736075664
0.8770502095
0.8913390212
0.917703282
0.9550984172
0.9878528023
0.9956736612
1.000085783
1.003941568
1.005122895
1.005021177
1.004777815
0.917844508
0.9154359483
0.9123138822
0.9066523364
0.9033506643
0.9024243518
0.9002576769
0.8963626433
0.8944743699
0.8930189749
0.8901329724
0.8876934129
0.8857770749
0.8821727227
0.8777282579
0.8757765745
0.8736222223
0.8718050758
0.8720039623
0.8734370126
0.8811511566
0.9060426056
0.9375004298
0.971319551
0.9826072073
0.9966127869
1.000257572
1.002616658
1.004644742
1.005388275
1.005675536
1.005516866
0.9122569315
0.9094670743
0.9055444928
0.9015421331
0.9000480618
0.8985815721
0.8953658852
0.8920136016
0.8905004474
0.8880708346
0.8845077263
0.8819130228
0.8784233467
0.8743814941
0.8731437002
0.8720185907
0.8710769362
0.8713698389
0.8747800574
0.8917997189
0.9212082069
0.9581739794
0.9842183195
1.000539185
1.001351789
1.002887004
1.002777221
1.002485974
1.002873467
1.003718408
1.00486633
1.005448148
0.9079153105
0.9045436844
0.9006826038
0.8980015398
0.8960259441
0.8929765561
0.888747983
0.8866537509
0.8846963276
0.8813042582
0.8787429682
0.8767505201
0.873030775
0.8709468729
0.8705204508
0.8699368496
0.8711686979
0.8801596163
0.9026425622
0.942272851
0.9781607308
0.9893219667
0.9948169129
1.002902618
1.004778518
1.004921094
1.004880745
1.004041796
1.00367463
1.0038699
1.004490241
1.005300952
0.9022988855
0.8980518014
0.8948817154
0.8925881793
0.8897147269
0.8857639499
0.883780208
0.8826704106
0.8800015783
0.8771405599
0.8744414981
0.8711182287
0.8680039207
0.8681963887
0.8688936034
0.8731152835
0.8915968675
0.9231365082
0.9583761234
0.976203614
0.9943125241
1.000719672
1.000550185
1.002437858
1.0042892
1.005182059
1.005233693
1.005061474
1.004821252
1.004819734
1.005021824
1.005432727
0.8943279177
0.8915058598
0.8901413759
0.8881076408
0.8848009114
0.8821334953
0.88075314
0.8780659326
0.87436873
0.870854385
0.867484737
0.8667868907
0.8670454679
0.8687683798
0.8802455624
0.9045663924
0.9435076725
0.9781867186
0.9984627471
1.000362156
1.002876787
1.005016745
1.005337412
1.004890989
1.005090815
1.005079249
1.005154982
1.005288696
1.005312256
1.005415343
1.005607657
1.005728494
0.8892797125
0.8878332488
0.8865259753
0.8835912938
0.8795399654
0.8770540129
0.8743617841
0.8701116292
0.8675944953
0.8658481773
0.8659612416
0.8667162489
0.8723040526
0.8907611545
0.9269757822
0.9628892756
0.9818070839
0.9913508969
1.003261291
1.004169632
1.004696832
1.005419273
1.005952225
1.005796718
1.005553951
1.005294927
1.005091874
1.005177532
1.005332708
1.005447504
1.005626819
1.005808021
0.8845110813
0.8827373164
0.8803602082
0.8755694502
0.8723958537
0.8710937977
0.867871687
0.8655407999
0.8648821169
0.8650981403
0.8671411139
0.8802557095
0.9078509581
0.9444382618
0.9739074984
0.9993870546
1.003193998
1.00068016
1.002438452
1.003762995
1.003864193
1.004114396
1.004979047
1.005461157
1.005549103
1.005493871
1.005368593
1.005240718
1.005230274
1.00528418
1.005495025
1.005836978
0.878274248
0.8769066415
0.874022468
0.8698749182
0.8680942414
0.866150975
0.8630692824
0.8630607724
0.8638414609
0.8710063307
0.8907905525
0.9308724573
0.9688891007
0.9945031098
0.9987716029
1.004013743
1.00586495
1.005351611
1.004849082
1.00480333
1.004541521
1.004445419
1.004722213
1.005149069
1.005437639
1.00569251
1.005690838
1.005625541
1.005534893
1.005550925
1.005670974
1.005970994
0.8742313586
0.8723014389
0.86806912
0.8645384667
0.8628652579
0.8617447827
0.861876872
0.8645852052
0.8773100538
0.9101382514
0.950557787
0.9753751929
0.9888565588
1.001048575
1.001009557
1.002025347
1.003909213
1.00569109
1.005784876
1.00576378
1.005672608
1.005477033
1.005501538
1.005679603
1.005744015
1.005867067
1.005986848
1.006038489
1.006015338
1.006016512
1.006078216
1.006211711
0.8682545788
0.8648246366
0.8609294301
0.860753792
0.8609476138
0.8618060389
0.8699901579
0.8932537188
0.9283409077
0.966611136
0.9966819065
1.00230677
1.001345052
1.003263249
1.003586916
1.003626401
1.004514438
1.005363977
1.005880324
1.006092723
1.006212773
1.006396798
1.006445275
1.006398941
1.006212386
1.006152186
1.006235817
1.006318465
1.006345064
1.006401181
1.006424506
1.006424646
0.861905195
0.8598684455
0.8599269009
0.8604327837
0.8644124253
0.8793640847
0.9174991747
0.9521545723
0.9816611311
0.9902591272
1.001634132
1.005892384
1.005738922
1.006009511
)
;

boundaryField
{
    inlet
    {
        type            fixedValue;
        value           nonuniform 0();
    }
    outlet
    {
        type            inletOutlet;
        inletValue      uniform 1;
        value           nonuniform List<scalar> 
69
(
1.137613207
1.137498479
1.137664958
1.140226909
1.137787851
1.137432903
1.136421184
1.135593108
1.134496299
1.133422785
1.132581235
1.131665184
1.129153771
1.12901921
1.126079147
1.120876404
1.114963312
1.097826471
1.071401333
1.039531794
1.013756559
0.997998895
0.9883602756
0.9822022314
0.9780728221
0.9743873431
0.9706056094
0.9667368945
0.963228948
0.9600198722
0.9563708685
0.9522303151
0.9487136683
0.9453252745
0.9415812095
0.9379095574
0.9334299808
0.9293619109
0.9261457963
0.9228016423
0.9190090642
0.9151940207
0.9109571954
0.906706619
0.9037939727
0.9003012228
0.8963277885
0.8924706765
0.8871493999
0.8836913039
0.8816954182
0.8851292884
0.9073216059
0.9509440409
0.9814898521
1.000698737
1.003905941
1.003259762
1.004779082
1.00551565
1.005449505
1.005306381
1.005438315
1.005731277
1.005809989
1.005839113
1.005974177
1.006213428
1.006424057
)
;
    }
    bottom
    {
        type            slip;
    }
    top
    {
        type            slip;
    }
    obstacle
    {
        type            zeroGradient;
    }
    defaultFaces
    {
        type            empty;
    }
    procBoundary5to4
    {
        type            processor;
        value           nonuniform List<scalar> 
69
(
1
1
1
1.000000005
1.000000135
1.000002685
1.000037346
1.00037312
1.002550589
1.011832801
1.035420673
1.070267907
1.097056835
1.104871622
1.10793327
1.110735737
1.111927971
1.112037037
1.112104606
1.111633968
1.11025158
1.108205134
1.105591208
1.10253569
1.099244187
1.095672172
1.091540926
1.08690538
1.082595746
1.078592264
1.074116306
1.068865406
1.063655153
1.059470369
1.05512258