/*--------------------------------*- C++ -*----------------------------------*\
  =========                 |
  \\      /  F ield         | OpenFOAM: The Open Source CFD Toolbox
   \\    /   O peration     | Website:  https://openfoam.org
    \\  /    A nd           | Version:  7
     \\/     M anipulation  |
\*---------------------------------------------------------------------------*/
FoamFile
{
    version     2.0;
    format      ascii;
    class       volScalarField;
    location    "1.1";
    object      rho;
}
// * * * * * * * * * * * * * * * * * * * * * * * * * * * * * * * * * * * * * //

dimensions      [1 -3 0 0 0 0 0];

internalField   nonuniform List<scalar> 
2222
(
1.007065569
1.000284232
0.9962273631
0.9874486794
0.9737607105
0.966026078
1.35508745
1.33821088
1.315906137
1.283937778
1.266704022
1.251621158
1.222433365
1.201428159
1.194054064
1.179471354
1.155257377
1.144494581
1.136105968
1.115332097
1.096368197
1.091384818
1.082529748
1.062381664
1.052588342
1.050000466
1.041410763
1.023529907
1.016504754
1.013563523
1.00406789
0.9891212589
0.9816482497
0.9753573556
0.9628733803
0.9539655772
0.9534957962
1.324008752
1.307966113
1.282403236
1.251783082
1.237809398
1.22247216
1.19529579
1.179680703
1.170345298
1.15062909
1.128824437
1.121979692
1.11242245
1.090918655
1.07915718
1.074950758
1.063671088
1.04408231
1.036481062
1.031765358
1.018356788
1.001127691
0.9967479978
0.9924869903
0.9797707534
0.9673549991
0.9651261389
0.9603862051
0.9500716418
0.9470185451
0.9481527111
1.293013995
1.276414982
1.248077406
1.222210589
1.210966486
1.194979866
1.168876181
1.15580494
1.14502863
1.122885925
1.105730741
1.099628386
1.088364267
1.068035155
1.058665794
1.052095766
1.03608497
1.019899594
1.015947201
1.009787275
0.994246489
0.9846513356
0.9835308638
0.978402286
0.9649217634
0.9566083598
0.9537943646
0.9472751768
0.9403080418
0.9412119583
0.9469194271
1.260290553
1.245616158
1.218895449
1.196954683
1.184500081
1.164137883
1.138522394
1.128791211
1.119247703
1.099478932
1.08639657
1.078603216
1.063352087
1.04537751
1.039125917
1.031432376
1.013901714
1.004496103
1.00195714
0.994308895
0.9787805919
0.9723503753
0.9694612492
0.9609779931
0.9457607671
0.9404629985
0.9383759674
0.9371632651
0.9386630495
0.9559509346
1.013449145
1.230941281
1.214495873
1.18474629
1.166532783
1.156446174
1.137372569
1.116852208
1.10671947
1.093646538
1.071720826
1.061319574
1.054345515
1.039277257
1.025973015
1.021562208
1.01357677
0.9971670671
0.9883455372
0.9833889155
0.9717102957
0.9566966321
0.9521330291
0.9477328103
0.9365117023
0.9319390612
0.9345833575
0.9363305185
0.9436707762
0.9790188013
1.076294607
1.184263449
1.200623562
1.182452128
1.153405303
1.138330154
1.128317681
1.107905478
1.090572981
1.082639353
1.069567035
1.050643697
1.041235668
1.032804872
1.016100911
1.004238687
0.9987930637
0.987777038
0.9726428105
0.967380744
0.9619549357
0.9479732128
0.9424840692
0.9410302469
0.9365071367
0.9310013049
0.9316239865
0.9355977079
0.9566898949
1.026055761
1.137621151
1.249479365
1.334952494
1.169471993
1.153801977
1.12882643
1.115205699
1.102736734
1.079795412
1.064514295
1.057304871
1.044136403
1.027420719
1.019217838
1.01015397
0.9941134734
0.9866800247
0.9815236549
0.9705950919
0.9604009686
0.9565124003
0.9492946034
0.9374698295
0.9339534292
0.9319629647
0.9290022133
0.9290514742
0.9397724313
0.9834898068
1.081154089
1.218641918
1.327732942
1.357010744
1.374251028
1.14098478
1.121443381
1.096260384
1.085287371
1.07388677
1.053215885
1.041501272
1.033245376
1.016937608
1.002295319
0.9964438215
0.98729893
0.9728755385
0.9679748951
0.964050105
0.9539655323
0.9461299434
0.9412877889
0.9304377816
0.9235779131
0.9241555667
0.9248038496
0.9291753038
0.9526489917
1.033192106
1.144534578
1.266845463
1.31398807
1.357836077
1.36724625
1.371693562
1.111363986
1.08887608
1.067700145
1.059604296
1.047488695
1.027312692
1.018277823
1.011639083
0.9972166052
0.9855403731
0.979579483
0.9688043774
0.9560958541
0.9503133769
0.9439679216
0.9314972629
0.9280686675
0.9253058654
0.921604213
0.9214222223
0.9234726963
0.9383428671
0.9947072682
1.092561258
1.219046156
1.324555276
1.376180645
1.371384968
1.375269165
1.377638737
1.377956875
1.081820967
1.061385777
1.043947094
1.035815648
1.021586888
1.002173802
0.9937908826
0.9860543752
0.9699423669
0.9611927601
0.9566322843
0.9470415697
0.940376523
0.9382698009
0.9312360173
0.9242784251
0.9239604569
0.9234079068
0.9218354475
0.9288292343
0.9639424826
1.057970427
1.174295275
1.287439324
1.320329098
1.355602968
1.387385039
1.386274054
1.386052764
1.387002624
1.387935245
1.053114815
1.027571506
1.01357436
1.006708334
0.9922666134
0.9777221644
0.9731271376
0.9651845876
0.9509183246
0.9459470539
0.9415621177
0.9314195338
0.9265049812
0.9245303716
0.9187340464
0.9179781626
0.919476352
0.9229938589
0.9402231509
1.007640541
1.118142392
1.238400281
1.319353901
1.380479888
1.381759409
1.378878171
1.382754439
1.385019045
1.38625128
1.387912711
1.388883678
1.024105118
1.001803512
0.9930121767
0.9867168471
0.9715235848
0.9605283274
0.9562866983
0.9474409792
0.9360307726
0.9335545275
0.9290035614
0.9209283766
0.9202184119
0.9186549165
0.9160363276
0.9167470176
0.9271409143
0.9714583963
1.060578994
1.198300612
1.315245881
1.359549941
1.370057945
1.389335505
1.392079803
1.389927348
1.387234988
1.386037534
1.385085313
1.38553363
1.386188813
0.9962244237
0.9769048225
0.9689928736
0.9607082487
0.9429682068
0.9369842349
0.9341050786
0.9254041045
0.919034083
0.9184635594
0.9149688267
0.9123951171
0.9142099827
0.9156706851
0.920353111
0.9454011917
1.026764037
1.136026953
1.262069711
1.307181383
1.35244889
1.374564216
1.372324814
1.379188531
1.386315362
1.389842225
1.389084477
1.387666635
1.385712971
1.383879524
1.383606147
0.9658055181
0.9502420272
0.9472610784
0.9403275723
0.9278176431
0.9270883392
0.925348126
0.9181526414
0.9161892857
0.9154394758
0.9127168134
0.9115574981
0.9136998712
0.9267671683
0.9835672746
1.08716508
1.217624511
1.31505292
1.375140601
1.375371128
1.375245658
1.378732164
1.376224167
1.378801773
1.38417518
1.387877748
1.388490976
1.388259016
1.387023048
1.384956593
1.384055313
0.9432061923
0.9384450486
0.9370208689
0.9293017521
0.9219998812
0.9215062593
0.9185007241
0.912403689
0.9123306814
0.9127605494
0.912062468
0.9178119287
0.9507924863
1.03083394
1.171081385
1.303348215
1.344176895
1.3596227
1.384885923
1.387552957
1.386126463
1.386339716
1.386456201
1.385973238
1.386329627
1.387033688
1.387312345
1.387353601
1.387138646
1.386657554
1.386289217
0.9267262614
0.9251338696
0.9228568736
0.913978523
0.9114454083
0.911528235
0.9090714842
0.907877409
0.9083407499
0.9116624039
0.9289505548
0.993790266
1.101787743
1.232236666
1.292638692
1.348992619
1.365591605
1.368244129
1.377479519
1.383960091
1.386918765
1.387276485
1.388387986
1.388705958
1.388356514
1.387536454
1.386979184
1.386558011
1.386750819
1.386889396
1.387066631
0.9109149715
0.9113396977
0.9101441402
0.9068884999
0.9070571044
0.9080441877
0.9074914255
0.9079297246
0.9165614113
0.9607055968
1.048092135
1.182457771
1.300882347
1.368572053
1.370111
1.378412896
1.383344884
1.382892502
1.383572466
1.386063118
1.386129328
1.386025763
1.386828956
1.387748081
1.388143038
1.387611625
1.386901727
1.386542027
1.38620785
1.386479647
1.386746157
0.9082176056
0.9089927596
0.908440881
0.9067662905
0.9071963125
0.908099351
0.9128546483
0.9377657877
1.008861276
1.128410575
1.250790424
1.305594646
1.342017134
1.383565348
1.384858024
1.385601635
1.387193687
1.389113398
1.388972597
1.388430997
1.38643859
1.384895056
1.384605467
1.3849918
1.385786042
1.386461359
1.386570014
1.386571078
1.386479385
1.386128078
1.386046333
0.9081237135
0.908228604
0.9079325835
0.9073768788
0.9091113365
0.9211655077
0.976291489
1.07519818
1.20999584
1.307804381
1.370110461
1.378164489
1.369803636
1.377125464
1.382206039
1.38467278
1.386992451
1.388460329
1.388297697
1.387648431
1.386887742
1.385386414
1.384617218
1.384837543
1.385300383
1.385968872
1.386427224
1.386535994
1.386565604
1.386297679
1.386203754
0.9057942503
0.9058708698
0.9064498842
0.9129544943
0.94636322
1.024252785
1.163583884
1.285347369
1.342584009
1.35109342
1.380257626
1.389163662
1.38732794
1.384340896
1.38475245
1.38374333
1.383358963
1.384081927
1.385033387
1.385561841
1.385685154
1.385784424
1.385776887
1.385779498
1.385850176
1.386101188
1.386346763
1.386484438
1.386490063
1.386510969
1.386589191
0.904859687
0.9081733391
0.9263138015
0.9912206233
1.099042127
1.228932588
1.287872364
1.3418928
1.370798385
1.366906607
1.373861991
1.382958716
1.388597873
1.387946285
1.387029001
1.385013451
1.383336469
1.383278207
1.383866531
1.384429347
1.38458803
1.385098494
1.385634059
1.385903791
1.386040245
1.386086635
1.386090432
1.386190143
1.386279677
1.386396456
1.386571985
0.9141286561
0.9570873965
1.046424181
1.180885658
1.29554077
1.362844485
1.367343471
1.375548747
1.38469907
1.386113065
1.383320726
1.38532965
1.387241375
1.387914119
1.387366923
1.386475508
1.385358369
1.38467406
1.384711287
1.384725863
1.384560847
1.38464536
1.384985498
1.385368445
1.38549305
1.385563745
1.385733621
1.38598102
1.386078291
1.386170528
1.386343072
0.9990395797
1.130287833
1.265855281
1.326774923
1.346844452
1.379345009
1.382558233
1.383631435
1.387618402
1.389901542
1.389420678
1.388154331
1.387569227
1.38703135
1.386871392
1.386109477
1.385406805
1.385607336
1.385694488
1.38550412
1.385057737
1.384735169
1.384638908
1.384879816
1.38536683
1.385736526
1.386072786
1.386277551
1.386251545
1.38621316
1.386184511
1.201832106
1.271258968
1.341375227
1.369969344
1.367340199
1.375066643
1.380850242
1.381666935
1.383059498
1.38621158
1.388897599
1.388521771
1.387705946
1.386723057
1.385862311
1.384527851
1.38420366
1.384530953
1.385156668
1.385318081
1.385355739
1.385099563
1.384916119
1.385240623
1.38561767
1.385882241
1.386208383
1.386354297
1.386341264
1.386261257
1.386172365
1.356687764
1.365647649
1.375452635
1.383872064
1.384775079
1.38369505
1.384349575
1.383408823
1.383136034
1.383793014
1.386430467
1.387221677
1.386988866
1.386458192
1.38478767
1.38315178
1.38284599
1.383016901
1.383576448
1.384375183
1.385140083
1.385151894
1.385133437
1.385516026
1.385797179
1.385897909
1.386038698
1.386104899
1.386108901
1.3860308
1.38608657
1.376270024
1.382727225
1.383102348
1.383187227
1.384619155
1.385154978
1.385033893
1.384608311
1.383927164
1.384115321
1.385337838
1.385831992
1.385631782
1.384972711
1.38392713
1.382509162
1.382421587
1.382651142
1.383271464
1.384079021
1.384719448
1.384847507
1.38491292
1.38530389
1.385579886
1.385489321
1.385355026
1.385335863
1.385375779
1.385592033
1.38585209
1.376767147
1.381110276
1.380790656
1.381422325
1.382898323
1.383785706
1.384671818
1.385138819
1.385198346
1.385086849
1.384538822
1.384052877
1.383690992
1.383584368
1.383416997
1.382860702
1.3827588
1.382968438
1.383392706
1.383945391
1.384373935
1.38440421
1.384485822
1.384771381
1.384860693
1.384747933
1.384545646
1.384472857
1.38447932
1.384586181
1.384869238
1.382271263
1.382263906
1.38142415
1.381400499
1.382586671
1.383623573
1.384096091
1.384414129
1.384315556
1.384102924
1.383788447
1.383425865
1.383007417
1.382943516
1.3828992
1.3827217
1.382814187
1.383107419
1.383541459
1.384130046
1.384235383
1.384120188
1.38408297
1.384031986
1.383996679
1.383980654
1.383811256
1.383710159
1.383663719
1.38368468
1.38382285
1.38229481
1.381965019
1.381219086
1.381192014
1.382279398
1.383633998
1.383850249
1.383671115
1.38310189
1.382889049
1.382682887
1.38231978
1.382172667
1.382069171
1.381938796
1.381920587
1.382107373
1.382467921
1.383084134
1.383483643
1.383548717
1.383525318
1.383512487
1.383392767
1.383313781
1.383205757
1.38288939
1.382616424
1.382536242
1.382544683
1.38264428
1.378757786
1.380554319
1.381431332
1.382197299
1.383121151
1.38373211
1.383464
1.382394997
1.381322599
1.380852725
1.380644844
1.380589463
1.380719817
1.380971302
1.381245388
1.381500722
1.381544843
1.381447043
1.381389775
1.381320566
1.381354265
1.381531348
1.381662424
1.381819931
1.381891963
1.381793894
1.381474833
1.381275818
1.381192821
1.381198999
1.381285347
1.374396732
1.377944059
1.379830081
1.380876148
1.382195858
1.383093191
1.383450874
1.383295262
1.381985315
1.379685318
1.377682431
1.377339369
1.377645033
1.378266725
1.378889733
1.379417603
1.379974629
1.38071546
1.381362771
1.381515438
1.38140722
1.380873326
1.380093733
1.37979377
1.379787233
1.38000912
1.3801173
1.380110245
1.379758463
1.379683133
1.379458386
1.379558028
1.374430084
1.378020426
1.379652172
1.38032493
1.381552576
1.382337102
1.382721723
1.382425603
1.381435623
1.379425361
1.377264738
1.376741479
1.376948241
1.377461439
1.377961136
1.378363066
1.378723915
1.379201847
1.380438902
1.381512785
1.381830125
1.38209086
1.381926785
1.381397912
1.380771846
1.380332211
1.38009291
1.379955988
1.379313941
1.379213417
1.378853888
1.378868274
1.374320612
1.377736628
1.379522281
1.380000182
1.381130084
1.381741604
1.38198956
1.381444311
1.38033542
1.379715507
1.378573963
1.377570125
1.377519919
1.377796418
1.377926696
1.378089648
1.378413919
1.378686718
1.379145606
1.380138918
1.381307844
1.381837447
1.382022319
1.382126514
1.381971601
1.381659253
1.3813642
1.380796389
1.37965311
1.379300932
1.378751483
1.378735169
1.374951488
1.378633104
1.38034902
1.38085424
1.381586574
1.381919222
1.381746006
1.380579189
1.379353989
1.379329739
1.379214861
1.379073436
1.379372016
1.379956302
1.380249636
1.379651525
1.37870202
1.378310629
1.378524406
1.378762674
1.379662746
1.380792064
1.381498396
1.38187157
1.382090401
1.381807491
1.381875485
1.381795913
1.381136708
1.380961009
1.380397862
1.379570927
1.375653324
1.379711743
1.381580811
1.382192758
1.382563859
1.382664228
1.38225046
1.380864947
1.379599415
1.379154805
1.379348895
1.379786491
1.380293396
1.381161609
1.382181337
1.38234172
1.381348968
1.379022311
1.377970844
1.377903024
1.378387785
1.379359075
1.380191103
1.380931137
1.381204293
1.381841155
1.381772479
1.382217819
1.381767327
1.382175925
1.382416175
1.381978875
1.375969128
1.380021112
1.382566193
1.383242076
1.383335857
1.383186162
1.382520427
1.381024513
1.379828061
1.379504764
1.379577296
1.380010817
1.380632421
1.381334839
1.382651126
1.383426069
1.383320996
1.381769223
1.378720892
1.37732293
1.377614184
1.37832899
1.379150298
1.380118412
1.380370075
1.380902045
1.381012573
1.381510251
1.382180672
1.382775547
1.382955813
1.383288747
1.376178039
1.37993653
1.382682464
1.383545465
1.383763586
1.383592214
1.382830382
1.38120679
1.379919235
1.379634349
1.379660178
1.380032724
1.380470451
1.381072003
1.382131915
1.382906111
1.383220453
1.38310195
1.381415163
1.37824183
1.377287212
1.377753233
1.378370837
1.379502195
1.379949148
1.379829135
1.37959708
1.379357601
1.380679027
1.382125186
1.382705944
1.383230942
1.376642581
1.379739674
1.382057973
1.382795962
1.383030803
1.382959059
1.382553894
1.381153515
1.379651272
1.379177787
1.379168027
1.379599035
1.379980238
1.380567676
1.381382956
1.382322979
1.383157046
1.383027769
1.382763869
1.380775808
1.378509644
1.378048224
1.378272397
1.379632934
1.379911717
1.379161133
1.378881317
1.378584905
1.378227601
1.379274198
1.382037533
1.383430116
1.376969218
1.379470508
1.381179592
1.381655668
1.382034231
1.3820961
1.382071214
1.380751502
1.379180325
1.37859125
1.37845949
1.378620941
1.379270381
1.379956459
1.380680067
1.381864043
1.383008308
1.382734019
1.382586512
1.382270962
1.380768097
1.379612544
1.3793263
1.37967413
1.379658354
1.379407838
1.378593523
1.377986344
1.377646427
1.377858729
1.379027792
1.381966506
1.374182682
1.377266326
1.379013912
1.380218943
1.381175157
1.381706951
1.381666905
1.380574996
1.379115781
1.377979851
1.377465825
1.377414809
1.377875533
1.378571153
1.378870002
1.37903333
1.379229104
1.3803373
1.381989822
1.382621545
1.381855165
1.381971549
1.380911098
1.380806868
1.380447404
1.380373406
1.380247856
1.379210756
1.377732571
1.377307835
1.377377514
1.377667137
1.378876334
1.374822798
1.378302948
1.379084785
1.379960956
1.380770772
1.380952271
1.380271379
1.379232874
1.378252219
1.377686249
1.377170938
1.377186861
1.377923534
1.378487483
1.378723661
1.37868768
1.378468958
1.377985106
1.378571863
1.380359954
1.381760784
1.381583589
1.381810653
1.381409116
1.381699594
1.381846846
1.38163425
1.381169163
1.379537492
1.377515034
1.377028054
1.377176372
1.377818505
1.37562165
1.379544951
1.380560231
1.381061204
1.381148301
1.380953057
1.379914385
1.378807617
1.378138718
1.377788515
1.377581311
1.377873112
1.378548712
1.378864524
1.378990829
1.378771201
1.378219736
1.377543524
1.377160617
1.377645907
1.379724165
1.381363278
1.381348499
1.381719905
1.381782736
1.382138372
1.382477935
1.382640807
1.382072123
1.380198267
1.3779062
1.377342291
1.37774915
1.376436941
1.380858234
1.382491767
1.382740201
1.382578173
1.381945813
1.380403129
1.379081679
1.378369297
1.378456446
1.378595492
1.379161409
1.379735964
1.380299583
1.380388779
1.380036712
1.379124602
1.377516525
1.3767252
1.376452871
1.377613538
1.379691245
1.380929341
1.381456122
1.381761771
1.382229682
1.382795185
1.382635355
1.383154984
1.382616316
1.380943874
1.378696583
1.377970605
1.376924367
1.381377936
1.383310396
1.383682622
1.383598703
1.383211775
1.381934791
1.380156664
1.379060906
1.37907833
1.379178215
1.379480553
1.380118523
1.380906667
1.381585328
1.381542164
1.380832735
1.378934665
1.376485804
1.376413783
1.377022169
1.378110762
1.379316595
1.380108971
1.380946002
1.381740149
1.382615112
1.383016336
1.382972464
1.382932649
1.382821149
1.381394992
1.37921656
1.376594792
1.381318434
1.383669416
1.384235858
1.384297388
1.384086445
1.382988992
1.380988508
1.379361256
1.37926513
1.379376578
1.379598042
1.380187221
1.380964269
1.381700131
1.382144709
1.381822708
1.380953004
1.378771453
1.377016159
1.377105183
1.37751534
1.378431164
1.378660845
1.379095954
1.3794427
1.380761633
1.382774923
1.383212897
1.383447188
1.383034618
1.382710774
1.381680388
1.376573947
1.380976315
1.383819603
1.384508267
1.384625403
1.384453798
1.383337959
1.381344906
1.379507506
1.378885318
1.378845867
1.379197586
1.379886773
1.380721453
1.381792979
1.382431922
1.382521349
1.381840991
1.380707556
1.37947513
1.378597342
1.377878233
1.378246586
1.378701501
1.378449213
1.378284515
1.378315004
1.379839657
1.382506372
1.383640463
1.383498903
1.383388096
1.382880145
1.376908996
1.380569383
1.383540694
1.384530416
1.384665195
1.38448434
1.383343374
1.381388484
1.379015248
1.377618338
1.37755955
1.377963831
1.378604793
1.379778522
1.381309523
1.382764264
1.382890134
1.382213737
1.381658687
1.380951538
1.380749652
1.379989875
1.379160881
1.3792697
1.378858464
1.37854102
1.377966519
1.377443726
1.379187583
1.382187194
1.383697092
1.383670931
1.375831147
1.377330232
1.380543827
1.382222997
1.383028355
1.38308
1.382863151
1.382236722
1.380869525
1.37874484
1.377333779
1.377159515
1.377285731
1.377557247
1.37804647
1.37964227
1.381854846
1.382781369
1.382259529
1.382183396
1.381751646
1.381895618
1.381470112
1.381066383
1.381099297
1.380677499
1.37952939
1.377932112
1.377734673
1.377368353
1.378585619
1.381984551
1.383406593
1.375644758
1.377618989
1.380581484
1.381473684
1.38169232
1.38152344
1.380776834
1.379999531
1.379551284
1.378667944
1.377561755
1.377317865
1.377727939
1.377674532
1.377669079
1.378055998
1.378897534
1.380576631
1.381898837
1.382376345
1.382493699
1.382547202
1.382263283
1.382184777
1.382209874
1.382154188
1.38162871
1.379831259
1.377695705
1.376945984
1.377344751
1.37854558
1.381328499
1.375197842
1.377743389
1.380482734
1.380961123
1.380971699
1.380800896
1.380028336
1.378712892
1.378539873
1.378587361
1.378296178
1.378092922
1.378483687
1.37823481
1.377934835
1.378031727
1.377596735
1.377689312
1.378434688
1.380159867
1.381975315
1.38283337
1.382709308
1.382728901
1.382807166
1.382872054
1.382500054
1.381778529
1.379417033
1.377446074
1.376950413
1.377415235
1.378578338
1.375200023
1.378071376
1.380850217
1.381403931
1.381433101
1.381237528
1.380379554
1.37910418
1.378407642
1.378704336
1.378890335
1.379017027
1.379248046
1.379503622
1.378932191
1.378032514
1.377806552
1.376547785
1.376308382
1.376911802
1.378872151
1.381149213
1.382335096
1.38286393
1.383156731
1.383306722
1.383060724
1.382505457
1.381351495
1.379085748
1.377291126
1.377283345
1.377865848
1.375770293
1.378702673
1.381374822
1.381989496
1.3821163
1.382008997
1.38126594
1.37978279
1.378606888
1.378855012
1.379297478
1.379497792
1.379687112
1.380110892
1.380547391
1.379876653
1.378511365
1.377170915
1.375903348
1.376016201
1.376569788
1.377604912
1.379273154
1.380908006
1.382161451
1.382918475
1.383206822
1.382993024
1.382106594
1.380439579
1.378889779
1.3777567
1.377680543
1.376112219
1.379321286
1.381827092
1.382468193
1.382608986
1.382578501
1.381974831
1.380330042
1.37875052
1.378267458
1.3784986
1.379149335
1.379968028
1.380578621
1.381057336
1.381313593
1.380699447
1.379399307
1.37671011
1.376297154
1.376056257
1.376321358
1.376809812
1.377735389
1.379052419
1.380659219
1.38245715
1.382917936
1.38253686
1.381565193
1.380304854
1.379160861
1.378523313
1.37567326
1.378953467
1.381641605
1.382169164
1.382242362
1.382347075
1.382181781
1.380560909
1.37842756
1.376702465
1.376596425
1.377267233
1.378834635
1.380553156
1.3814565
1.38207008
1.382059273
1.381235145
1.379816878
1.377215578
1.376031605
1.376005678
1.376277908
1.37673755
1.377588905
1.378289574
1.379738928
1.38197419
1.382868318
1.382388825
1.381424966
1.38050984
1.379901352
1.375405543
1.378549979
1.380817709
1.381238682
1.381201933
1.381051378
1.380611081
1.379329833
1.377512903
1.376008607
1.37558061
1.375694033
1.376523058
1.378752869
1.381492941
1.382503838
1.382822054
1.382369685
1.381344154
1.380391112
1.378577943
1.376908723
1.376616607
1.37688768
1.377016953
1.37772371
1.378046719
1.379787023
1.382317038
1.382766013
1.382200395
1.381457852
1.381004699
1.375651071
1.375925397
1.378979978
1.380571911
1.380772211
1.380611204
1.379853778
1.378714004
1.377449228
1.376736159
1.37599756
1.375515339
1.375792913
1.375799154
1.376469401
1.379061026
1.382149814
1.383110384
1.383017194
1.382358886
1.381976771
1.381178627
1.38008462
1.378873368
1.377954139
1.377737844
1.377912831
1.378447471
1.378930027
1.380334994
1.382366728
1.382554937
1.38224709
1.381577512
1.376591898
1.376815651
1.379775501
1.38094529
1.380973849
1.380418822
1.37956361
1.377732296
1.376701049
1.376432304
1.376437231
1.37595866
1.376176599
1.376197914
1.376318542
1.376793361
1.378993073
1.382075641
1.382894927
1.383163061
1.382932633
1.382278624
1.3817537
1.381371152
1.380518609
1.380128387
1.379333697
1.379453108
1.379047368
1.379101236
1.380766332
1.382245929
1.382660354
1.382180936
1.377260596
1.377653199
1.380274269
1.381357237
1.38127026
1.380089076
1.379218056
1.377820022
1.377148316
1.376958271
1.377113768
1.377205567
1.376662151
1.376846925
1.376673373
1.376464029
1.376669339
1.378388123
1.381720883
1.383262228
1.383341073
1.383345002
1.383054039
1.382523975
1.382059952
1.381482937
1.381092133
1.379894587
1.379536478
1.379196666
1.379051317
1.380522746
1.381844774
1.38257842
1.377439367
1.377891129
1.380679533
1.381583775
1.381511968
1.381129247
1.380225957
1.379011862
1.377903977
1.377965845
1.37795428
1.378064591
1.378192888
1.377918073
1.377071947
1.376826906
1.376000204
1.376093019
1.378223563
1.381922009
1.383593909
1.384065898
1.383937165
1.383337202
1.382925634
1.382284941
1.381918908
1.381229136
1.38020555
1.379415034
1.378030783
1.378520312
1.379383658
1.381217298
1.376471204
1.377653255
1.380929286
1.38145111
1.381511271
1.381888647
1.381114839
1.379838411
1.378546513
1.378627637
1.378628666
1.3786342
1.379100649
1.378917345
1.378721212
1.377820257
1.376843055
1.375816981
1.376194325
1.378089425
1.381444847
1.383708562
1.384167449
1.383913229
1.383375553
1.382968984
1.382419352
1.382029027
1.380656535
1.37979787
1.37894253
1.377427949
1.377998849
1.378419673
1.37514874
1.376402181
1.379846179
1.380909922
1.381081887
1.381324984
1.381389355
1.380455792
1.378962911
1.378248492
1.378302055
1.378566425
1.379437471
1.379871788
1.379737968
1.378962511
1.378242092
1.376931023
1.375666054
1.376239717
1.377565102
1.380154249
1.382654084
1.383532386
1.383342167
1.383149043
1.382549783
1.382055207
1.381112008
1.380433904
1.379824117
1.378406477
1.377345094
1.377780175
1.375040712
1.375885654
1.378343299
1.379010858
1.378881473
1.378621723
1.379297654
1.379221748
1.378302475
1.377149065
1.377092737
1.377561658
1.378919626
1.380098964
1.380324736
1.380022405
1.379051667
1.378317117
1.37699656
1.376396241
1.376039387
1.376925921
1.378861696
1.380851968
1.381829336
1.381878928
1.381566317
1.380872443
1.380396018
1.380315037
1.379661598
1.379335787
1.378253234
1.377474603
1.375517443
1.376216384
1.377869964
1.378375698
1.377707915
1.37644434
1.376220782
1.376559604
1.376717418
1.376034816
1.375869494
1.376218999
1.377402197
1.379427217
1.38048293
1.380610952
1.379902893
1.378831787
1.378419332
1.376890832
1.376873353
1.376943243
1.377396944
1.378013121
1.379495739
1.379892994
1.379996837
1.37963451
1.379434945
1.379487439
1.379458663
1.379210691
1.379337836
1.378134862
1.376692213
1.377308184
1.378620363
1.378339473
1.377938121
1.376789344
1.375782749
1.375556856
1.375465753
1.376001465
1.376018327
1.376110221
1.376932677
1.37845928
1.379949975
1.380601091
1.380669121
1.379721402
1.378336564
1.377211886
1.37780143
1.377066717
1.377007021
1.378078379
1.378155777
1.379288035
1.379296044
1.37944066
1.379165472
1.379484763
1.37957094
1.379426562
1.379823708
1.379027098
1.377947019
1.378756649
1.379916834
1.379388081
1.378781391
1.377467714
1.375844541
1.375874889
1.375951215
1.376254713
1.376575565
1.376731381
1.377468996
1.37847592
1.379659626
1.380434102
1.381238734
1.380685923
1.379513679
1.379438835
1.378117968
1.377847845
1.378156587
1.378300703
1.378965029
1.379657733
1.380025455
1.380026786
1.379866625
1.380077187
1.379702377
1.379999577
1.379599321
1.378744435
1.378886438
1.379934882
1.380923312
1.38075809
1.379862005
1.377870232
1.376313051
1.376427065
1.376759031
1.376517828
1.376819641
1.377250347
1.377981954
1.379045031
1.379963077
1.38075228
1.381290445
1.381216539
1.381321994
1.381247609
1.380206545
1.379221266
1.379317194
1.378571142
1.379914159
1.380301985
1.381113654
1.38103885
1.381161082
1.380609427
1.380244116
1.380339976
1.380248642
1.377947625
1.378609626
1.380422104
1.381564949
1.381829848
1.380963667
1.379375623
1.37772812
1.377067353
1.377146491
1.377297332
1.377550834
1.378076761
1.378964306
1.379861574
1.380614215
1.381660173
1.381894996
1.382502267
1.382637267
1.382525712
1.382349459
1.381144227
1.380176015
1.379622012
1.379408182
1.380524508
1.381358797
1.381720103
1.382035646
1.381649664
1.381424762
1.380649912
1.3810232
1.377893644
1.378348244
1.380366062
1.381701069
1.38188465
1.381628653
1.380265275
1.378673151
1.377350657
1.377117492
1.377536268
1.377862925
1.378553631
1.379593925
1.380568408
1.381542379
1.382613859
1.38301448
1.383510914
1.383605087
1.383737728
1.383585485
1.382166769
1.380362665
1.380403249
1.379523515
1.380435091
1.38117531
1.381782336
1.382021818
1.382414811
1.382124033
1.38126621
1.381044663
1.378478118
1.378540248
1.379664632
1.380257974
1.37977856
1.379795826
1.379672583
1.378638603
1.376828393
1.376123003
1.376175341
1.376511755
1.37741289
1.378801226
1.380648854
1.381843925
1.382527635
1.383450298
1.383907183
1.384214568
1.384556915
1.384153709
1.382971715
1.381047511
1.379995289
1.379785979
1.379476949
1.379904216
1.379643692
1.378803408
)
;

boundaryField
{
    inlet
    {
        type            calculated;
        value           nonuniform 0();
    }
    outlet
    {
        type            calculated;
        value           nonuniform 0();
    }
    bottom
    {
        type            calculated;
        value           nonuniform 0();
    }
    top
    {
        type            calculated;
        value           nonuniform 0();
    }
    obstacle
    {
        type            calculated;
        value           nonuniform 0();
    }
    defaultFaces
    {
        type            empty;
    }
    procBoundary10to4
    {
        type            processor;
        value           nonuniform List<scalar> 
32
(
1.020484807
1.012628177
1.009772966
1.003116479
0.9926834116
0.9851607397
1.388977649
1.368962626
1.34760518
1.312894033
1.292251303
1.280069133
1.256269816
1.229784748
1.219170424
1.205305934
1.17715916
1.163098619
1.158328864
1.144183193
1.120605056
1.112306474
1.106007634
1.088441319
1.070351497
1.065709424
1.05892416
1.041513508
1.031213947
1.028518956
1.021488145
1.021488145
)
;
    }
    procBoundary10to5
    {
        type            processor;
        value           uniform 0.9588227312;
    }
    procBoundary10to9
    {
        type            processor;
        value           nonuniform List<scalar> 
55
(
1.388423855
1.352042316
1.317783838
1.280510938
1.248304727
1.21621304
1.179816787
1.152269339
1.123224929
1.089767617
1.064885193
1.036864976
1.00827815
0.9837116991
0.9575291274
0.9393294939
0.9185036019
0.9114550005
0.9099302484
0.9061732861
0.9046662373
0.9059193203
0.9342014857
1.071484267
1.277992193
1.335811411
1.370487431
1.384133291
1.382555052
1.3764483
1.3764483
1.372207347
1.371938074
1.372095303
1.372295096
1.372894285
1.373089941
1.373225662
1.37364549
1.373971241
1.373971241
1.374780107
1.375067849
1.375507432
1.375821483
1.375725763
1.375530248
1.375537978
1.375705146
1.375705146
1.376337732
1.375844161
1.375254807
1.375026023
1.375567061
)
;
    }
    procBoundary10to11
    {
        type            processor;
        value           nonuniform List<scalar> 
70
(
0.9507510049
0.9482051594
0.9768591648
1.117340125
1.291609866
1.381247509
1.38944173
1.381520386
1.383106439
1.388257613
1.388635457
1.386987117
1.384242288
1.384375218
1.386292563
1.387141425
1.386960722
1.386176755
1.386278989
1.386688028
1.386720198
1.386472746
1.386196334
1.386155549
1.386191927
1.386002163
1.385181017
1.384047253
1.382878761
1.381658962
1.380182112
1.378894982
1.378758007
1.378670074
1.38033865
1.38286773
1.383428099
1.383825913
1.383523815
1.38163493
1.379170568
1.378528575
1.378085682
1.378180027
1.380047827
1.381887452