/*--------------------------------*- C++ -*----------------------------------*\
  =========                 |
  \\      /  F ield         | OpenFOAM: The Open Source CFD Toolbox
   \\    /   O peration     | Website:  https://openfoam.org
    \\  /    A nd           | Version:  7
     \\/     M anipulation  |
\*---------------------------------------------------------------------------*/
FoamFile
{
    version     2.0;
    format      ascii;
    class       volScalarField;
    location    "1";
    object      T;
}
// * * * * * * * * * * * * * * * * * * * * * * * * * * * * * * * * * * * * * //

dimensions      [0 0 0 1 0 0 0];

internalField   nonuniform List<scalar> 
2222
(
1.138444981
1.137296777
1.137164082
1.138170067
1.139474703
1.138713455
1.138544448
1.139168875
1.138864387
1.211304094
1.189339857
1.150957442
1.115993709
1.087762332
1.071842285
1.063460652
1.055501699
1.045781697
1.034204793
1.023817664
1.015546003
1.009243258
1.004645203
0.9996450468
0.9939874506
0.9899555605
0.9893245146
0.9940454797
1.013445023
1.057035304
1.107436036
1.132189018
1.137783567
1.138510114
1.138978691
1.13790383
1.137742815
1.138676903
1.139541289
1.138609726
1.138705356
1.139332826
1.139162913
1.206141821
1.184462805
1.147867822
1.116020073
1.089205799
1.073275264
1.06419518
1.055555871
1.04538672
1.033812802
1.023638599
1.015626735
1.009504999
1.004919419
0.9995518453
0.9938025023
0.9903394894
0.9905767707
0.9970710853
1.021523439
1.070202916
1.115035891
1.134047493
1.138036756
1.138601448
1.139147149
1.138479856
1.13844093
1.139408742
1.139660469
1.138601509
1.138604944
1.139206484
1.139123346
1.202379895
1.18023021
1.145421881
1.116317866
1.090787197
1.074669421
1.064887238
1.055558258
1.044870255
1.033483416
1.023550025
1.015719213
1.009745467
1.005179742
0.9993960695
0.9937320881
0.9909414079
0.9921433418
1.001373648
1.031174352
1.082750039
1.119292575
1.133631227
1.137963574
1.138564765
1.139176848
1.138954843
1.139106523
1.140156059
1.140023908
1.138882078
1.138822049
1.139256204
1.199447707
1.177120473
1.144218953
1.116941364
1.092559134
1.076092234
1.065516175
1.055444243
1.044440119
1.033109476
1.023523719
1.015837921
1.010023298
1.005305201
0.9991804591
0.9937723904
0.9916369876
0.9939254125
1.007170277
1.043453061
1.091298577
1.122120267
1.13488727
1.138567716
1.139006315
1.13922453
1.139321557
1.139656997
1.140764626
1.140589185
1.139341666
1.139273485
1.139499436
1.196867355
1.174805728
1.14364497
1.118022503
1.094439938
1.077467926
1.066047742
1.055065076
1.043989249
1.032825033
1.023532871
1.015997631
1.010303692
1.005322414
0.9988923387
0.9938946861
0.9926556568
0.9966799538
1.014093583
1.055388765
1.101127569
1.127508941
1.137083468
1.139594818
1.139915181
1.139733952
1.139714218
1.140217807
1.141259291
1.14114392
1.139913728
1.139775684
1.139909733
1.194537117
1.173040435
1.143370256
1.119472505
1.096262555
1.078738165
1.066437539
1.054615643
1.043426977
1.032575369
1.023469586
1.016184912
1.010556521
1.005127474
0.9985747573
0.9941139277
0.9938743414
1.000021619
1.022556968
1.069224901
1.114584088
1.133990182
1.138954411
1.140086618
1.140515885
1.140507854
1.140307032
1.140807602
1.141560623
1.14147086
1.140249271
1.139837271
1.140039708
1.192251674
1.171646808
1.143483328
1.12099336
1.09787159
1.079859935
1.066638987
1.0542608
1.042889919
1.032393566
1.023585957
1.016312538
1.010770316
1.004871826
0.9982526784
0.9946218797
0.9953020942
1.003643335
1.032753774
1.084452858
1.127193945
1.137887418
1.140060195
1.140655853
1.140955895
1.141061057
1.140995667
1.14138467
1.141774818
1.141501908
1.1401403
1.139827283
1.139903335
1.190089587
1.17044154
1.143873249
1.122405827
1.099206007
1.080760371
1.066662941
1.053801974
1.042412276
1.032308588
1.023744673
1.01663614
1.010969041
1.004574027
0.998189916
0.9952425258
0.997118597
1.009322396
1.043996322
1.097715138
1.130607162
1.139339839
1.141009565
1.14135368
1.141560941
1.141608654
1.141635219
1.14195981
1.142176258
1.141778538
1.140340015
1.140278523
1.140187796
1.188537362
1.169458455
1.144524361
1.123614029
1.100338604
1.081356461
1.066605879
1.05315115
1.041996555
1.032317601
1.023925045
1.016868129
1.011103507
1.00424278
0.9982666756
0.996226217
0.9997111429
1.016363619
1.057302996
1.10485923
1.130620706
1.139409645
1.141532924
1.141766331
1.14214942
1.142265417
1.142264857
1.142601683
1.142780284
1.1423153
1.140842385
1.140943509
1.140827871
1.187437748
1.168795874
1.145239301
1.124554205
1.101168556
1.081637162
1.06636637
1.052584485
1.041666813
1.032295027
1.023941579
1.017022443
1.011136541
1.00386509
0.9984326626
0.9975128284
1.003389005
1.024677111
1.067991546
1.109069768
1.13243122
1.13985929
1.141826283
1.142379185
1.14275083
1.143003405
1.142955627
1.143326347
1.143509195
1.143007119
1.141589347
1.141739156
1.141592885
1.186455276
1.168326988
1.145824382
1.125268519
1.101669679
1.081667975
1.065971554
1.05214442
1.041488624
1.032370996
1.024320969
1.017453647
1.011001757
1.00352068
0.9988127109
0.9991108857
1.007187484
1.034080409
1.078205828
1.119468289
1.136679904
1.141281628
1.142655763
1.143383455
1.143733266
1.143667138
1.143747716
1.143981823
1.144039128
1.143322708
1.141968613
1.142291884
1.185397548
1.167861882
1.146283862
1.125716132
1.101951641
1.081594061
1.065451671
1.051816521
1.041422706
1.032573565
1.024717879
1.017822935
1.010795987
1.003252506
0.9994878772
1.001005925
1.01216845
1.044259099
1.095132836
1.131762273
1.14118321
1.142716655
1.143451821
1.144151798
1.144719855
1.144737399
1.144551436
1.144421714
1.144209596
1.143159463
1.14144633
1.141910131
1.1840819
1.167245372
1.146759725
1.126062419
1.10201085
1.081408326
1.064917485
1.051789777
1.041417783
1.032888179
1.025167705
1.018190873
1.010612883
1.003304314
1.000466148
1.00348518
1.019219582
1.058825921
1.112862907
1.139180254
1.143689343
1.144159239
1.144353632
1.144696823
1.145394325
1.145685844
1.145348303
1.144987823
1.144639727
1.14348484
1.141403917
1.141676003
1.182260298
1.166446802
1.147372369
1.126411194
1.101949084
1.081080585
1.064422984
1.051371485
1.041473459
1.033258254
1.025678757
1.018502599
1.010377128
1.003565516
1.001770886
1.006860924
1.028138259
1.075445856
1.121102583
1.141728337
1.144970019
1.145445311
1.145479627
1.145594539
1.145978161
1.146399757
1.14612989
1.145766184
1.145309944
1.14410965
1.141931929
1.142125617
1.180336193
1.166152458
1.14812922
1.126783869
1.10177651
1.080682044
1.063997239
1.051170074
1.04164746
1.033671047
1.026258832
1.018748989
1.010179496
1.004028776
1.003458274
1.011526172
1.038851665
1.084507187
1.122775512
1.141540954
1.145515008
1.146315727
1.146346749
1.146614416
1.146885497
1.147005452
1.146931162
1.146679969
1.146249443
1.145021227
1.142726945
1.142834881
1.179460473
1.166085896
1.148959406
1.127189858
1.101591247
1.080300436
1.063676582
1.051311533
1.0418464
1.034082056
1.02683794
1.018898369
1.010108148
1.004835105
1.005770663
1.016506518
1.048509417
1.09020009
1.126736667
1.142931016
1.145929609
1.146648534
1.147113367
1.147192725
1.147459248
1.147781381
1.147731798
1.147603534
1.147255148
1.146037966
1.143892704
1.144009482
1.179000535
1.166217161
1.149834139
1.127630958
1.101481088
1.080045735
1.063376561
1.051044967
1.042079241
1.034783305
1.02739499
1.019005064
1.010214234
1.005867782
1.00833675
1.023031586
1.05734854
1.103123348
1.134583405
1.145399587
1.146787397
1.147429922
1.14798404
1.148355289
1.148643367
1.148512447
1.148314683
1.148118823
1.147578648
1.146563555
1.144997155
1.145187934
1.178752156
1.166646903
1.150793634
1.128100897
1.101419383
1.079932686
1.06311264
1.051035101
1.042505644
1.035400319
1.027885016
1.01899782
1.010454732
1.007344645
1.011820751
1.031375212
1.073041065
1.120557436
1.142387178
1.147637218
1.147420023
1.147914946
1.148697082
1.149552681
1.149656185
1.14920375
1.148862625
1.148407325
1.147386549
1.14603714
1.145684767
1.178642943
1.167225686
1.151874895
1.128591135
1.101342761
1.079842104
1.06298248
1.051104097
1.042919719
1.03580689
1.028303172
1.018889266
1.010884868
1.009069531
1.016008555
1.041933163
1.09178659
1.131861267
1.146922086
1.149105612
1.148764321
1.14864326
1.149098869
1.15037222
1.150785277
1.15034181
1.149618829
1.149049245
1.147809853
1.145811138
1.145466918
1.178602153
1.167920095
1.153184288
1.129099684
1.101310131
1.079752118
1.062860376
1.051235664
1.043345304
1.036551986
1.028538959
1.018725947
1.011643286
1.011296108
1.021282623
1.054562479
1.103792977
1.135803362
1.148823365
1.150111664
1.150255825
1.149989107
1.150195919
1.15101182
1.151844886
1.151508015
1.150665954
1.150059692
1.148720897
1.14655281
1.145481489
1.178429422
1.168744426
1.154516967
1.129682852
1.101424336
1.079751592
1.062780006
1.051445353
1.043848109
1.037095896
1.028544171
1.018835669
1.0129716
1.014346932
1.028540672
1.066756513
1.10933672
1.13968217
1.150373483
1.151315873
1.151331159
1.15158558
1.151651468
1.152183935
1.152706645
1.152632731
1.151870597
1.151237607
1.149981204
1.147576399
1.146115006
1.178289994
1.169714229
1.155785474
1.130380045
1.101612934
1.079766622
1.062763566
1.051727029
1.044309326
1.037481247
1.028521732
1.019089021
1.014543982
1.018155477
1.037621358
1.075547862
1.117077738
1.144666646
1.152611007
1.152633239
1.152338407
1.152757365
1.152943079
1.153687444
1.153790722
1.153853486
1.153187375
1.152458711
1.151205448
1.148979197
1.147144849
1.178471581
1.170656653
1.157034251
1.131110547
1.101885137
1.079873086
1.062823761
1.052073891
1.044784777
1.037722258
1.028337741
1.019371122
1.016533792
1.022695963
1.046088541
1.087436468
1.128563074
1.148178678
1.154051575
1.154110476
1.153680735
1.15361176
1.154326002
1.154887507
1.154954911
1.154868662
1.154167777
1.153478778
1.152416721
1.150213284
1.148364749
1.178977772
1.171538364
1.157921199
1.131634946
1.102326612
1.080101871
1.063035429
1.052536357
1.045345762
1.03775174
1.027905154
1.019969478
1.018737126
1.027391415
1.055941764
1.105535652
1.138466756
1.151073718
1.154524546
1.154595958
1.154650073
1.155011582
1.15562833
1.155993099
1.155937519
1.155518079
1.154397574
1.153283525
1.152452918
1.151271942
1.149699276
1.179417228
1.172384195
1.158311914
1.131729292
1.1028351
1.080431172
1.063430527
1.053101788
1.045812869
1.037693005
1.027670309
1.021156981
1.021467818
1.033504888
1.07194379
1.119867325
1.144934196
1.153699118
1.155529098
1.155315437
1.155195777
1.155940218
1.156929842
1.157335196
1.156821144
1.155985677
1.154718826
1.153149087
1.151810469
1.151182279
1.150951892
1.179587209
1.172802816
1.158504838
1.131609829
1.103317268
1.080844147
1.063899122
1.053696423
1.04625945
1.037590076
1.027799883
1.022660629
1.025150612
1.04358462
1.087715746
1.12872967
1.149482232
1.15568624
1.156241842
1.156632808
1.156502275
1.15679424
1.157768498
1.158658132
1.157785785
1.156819387
1.155666725
1.154105812
1.152125695
1.151126685
1.179362689
1.17293367
1.158536547
1.131432698
1.10372471
1.081202758
1.064416097
1.054340535
1.046705766
1.037429522
1.028163686
1.024613512
1.03011813
1.055305804
1.098413266
1.136757799
1.154508462
1.158029872
1.157892151
1.157775632
1.158227208
1.158278097
1.15881502
1.159443876
1.159020831
1.158243248
1.157074616
1.155301339
1.153078234
1.151681484
1.178620074
1.172764554
1.158481508
1.131236963
1.103939075
1.081689386
1.064984438
1.055021065
1.046963938
1.037182388
1.028822012
1.027180316
1.035792036
1.06418388
1.109266997
1.144921276
1.158029352
1.160377662
1.159944177
1.159546306
1.159613877
1.159956887
1.160364007
1.160698519
1.160532057
1.159910809
1.158676673
1.156995937
1.154686939
1.152859367
1.177519141
1.172070958
1.158093447
1.131075227
1.104027033
1.081688337
1.065511157
1.055622019
1.046994918
1.036938136
1.029897087
1.030092834
1.041577352
1.074755652
1.122697844
1.150076954
1.160302407
1.162205854
1.161957793
1.161454303
1.16137352
1.16207729
1.162121625
1.162341558
1.162198135
1.161297849
1.16010005
1.158673627
1.156324919
1.154304471
1.177066257
1.171166188
1.156909395
1.130711603
1.104130198
1.081826461
1.066147215
1.056181529
1.046945061
1.036807209
1.031348719
1.033568427
1.049354868
1.091551385
1.134125607
1.153719063
1.161703249
1.163155998
1.163231305
1.163196061
1.163331538
1.163844805
1.164142883
1.16416018
1.163653824
1.162120436
1.160669698
1.159793335
1.157868593
1.155637558
1.176384303
1.170208893
1.155356345
1.13004982
1.104309236
1.082155994
1.066815543
1.056710614
1.046820634
1.036946271
1.03322016
1.038117037
1.062009112
1.107500052
1.143748861
1.158573836
1.1630648
1.163893414
1.163856963
1.163985168
1.164888251
1.165843783
1.166125285
1.165834206
1.164904534
1.162835745
1.160517161
1.15964603
1.158564446
1.156917116
1.174833155
1.168627457
1.153988197
1.129328815
1.104485695
1.082658331
1.067571019
1.057184161
1.046626122
1.037501061
1.035773696
1.044495535
1.07492773
1.120702445
1.152794563
1.163089336
1.16478344
1.165082725
1.165370383
1.165415909
1.16584603
1.167232722
1.167964515
1.167365766
1.166198519
1.164140975
1.161395862
1.159761137
1.158470495
1.157652292
1.172401634
1.166281292
1.152489318
1.128737166
1.104768297
1.083311967
1.068426846
1.057588588
1.046434298
1.038753853
1.039194184
1.051939477
1.086401508
1.133030962
1.161195192
1.16730574
1.167683066
1.167166675
1.166996819
1.167440439
1.167631012
1.168180339
1.168910116
1.168758336
1.167879259
1.16604129
1.163175833
1.160906074
1.159082513
1.169617383
1.163850474
1.151092918
1.128419332
1.105149939
1.084134101
1.069318828
1.057880491
1.046563499
1.040426961
1.043238377
1.059885079
1.099757525
1.145376833
1.166158921
1.170412518
1.170787619
1.170243076
1.169569759
1.169468048
1.169926182
1.170022381
1.170053329
1.170173848
1.169524328
1.168176602
1.165378377
1.162411036
1.160223059
1.167344762
1.16181378
1.15005387
1.1285084
1.105765165
1.085162367
1.070213198
1.057898118
1.046752535
1.042583678
1.048102958
1.070327639
1.115195591
1.15351282
1.169268669
1.172980579
1.173511763
1.172939023
1.172290445
1.17216434
1.172211847
1.172269155
1.17209
1.171798336
1.17062364
1.169314518
1.16719453
1.164192972
1.161770505
1.165570434
1.160246123
1.149424594
1.129009668
1.106586807
1.086347477
1.07108128
1.057928568
1.047597562
1.045343459
1.053867947
1.083936784
1.127176507
1.158019403
1.171063188
1.174490904
1.175226513
1.174791872
1.17473357
1.174814956
1.174786263
1.174718261
1.174328265
1.173457467
1.17154953
1.169462002
1.168061038
1.166003516
1.163686861
1.164509753
1.159199161
1.149193989
1.129725293
1.107694908
1.087665021
1.07186781
1.057970333
1.048766845
1.04885819
1.061722757
1.096243445
1.138641187
1.165520208
1.173505353
1.175537654
1.175813749
1.17557833
1.175765951
1.176714736
1.177432794
1.177093502
1.17636732
1.17520637
1.172779053
1.169660887
1.168015649
1.166837269
1.165532262
1.163740623
1.158590789
1.149271113
1.13052528
1.108880962
1.08900564
1.072573589
1.058211868
1.050421103
1.052910843
1.070480511
1.110110327
1.153984035
1.173933153
1.176811697
1.177187588
1.176915222
1.17658699
1.176974593
1.17769717
1.179126458
1.179094717
1.178293081
1.176930294
1.174217361
1.170418767
1.168388569
1.167021548
1.166495852
1.162942994
1.158383621
1.149510382
1.131368782
1.110145398
1.090232585
1.073033991
1.058441198
1.05251326
1.057520666
1.080955426
1.127390756
1.168567095
1.180826546
1.180610452
1.179955233
1.179119783
1.178534563
1.179153756
1.179587564
1.180294104
1.180380122
1.179846599
1.178723707
1.176325692
1.172413596
1.169770873
1.167995444
1.167164382
1.162329047
1.158463181
1.150033253
1.132225329
1.111303714
1.091278132
1.073213614
1.059254949
1.055124451
1.06379596
1.094780822
1.144530393
1.176092253
1.184802034
1.184407328
1.183668839
1.182318699
1.181372358
1.181724423
1.182218193
1.182530289
1.182302084
1.181728913
1.180619324
1.17852183
1.174777776
1.171908512
1.16972586
1.161967638
1.158806206
1.151082782
1.132989601
1.112322517
1.091972886
1.073197996
1.060361411
1.0587795
1.072386465
1.110902967
1.154533859
1.180739265
1.187751977
1.187634788
1.186862039
1.185520819
1.184696708
1.184571871
1.185159893
1.185289678
1.184966091
1.184266456
1.182803809
1.180382848
1.177009113
1.17453472
1.172341115
1.161869227
1.159351979
1.152275512
1.133698716
1.113162937
1.092363032
1.073252651
1.062407078
1.064072485
1.083291697
1.122878031
1.160727486
1.183232524
1.189575014
1.190033578
1.189442204
1.188311509
1.18763714
1.187515863
1.187910902
1.187990998
1.187638749
1.186825104
1.184965452
1.181988578
1.179153052
1.177259912
1.175311524
1.161795882
1.159829791
1.153068882
1.13432479
1.113861689
1.092484669
1.073488744
1.064927541
1.069928458
1.09357459
1.133692528
1.171149213
1.187805989
1.190517766
1.190900827
1.190726909
1.189883362
1.189624804
1.190049115
1.190466883
1.190303375
1.189886486
1.188880387
1.186549804
1.18291978
1.180647069
1.1790921
1.177739472
1.161888332
1.160291054
1.153545726
1.135033206
1.114419358
1.092408624
1.073806585
1.068235581
1.076308321
1.105006936
1.15176505
1.183761543
1.191995997
1.191653213
1.191327721
1.191160724
1.19087296
1.191182938
1.191982285
1.192651421
1.192232537
1.191608306
1.190349453
1.187743156
1.183941463
1.181777043
1.180270715
1.179346613
1.162528908
1.16111509
1.153827136
1.135883588
1.114890866
1.091906074
1.07569659
1.072728944
1.084628687
1.123106204
1.171155885
1.193099497
1.1958262
1.194302915
1.193205519
1.19271882
1.19268431
1.193037857
1.193828889
1.194303682
1.193949297
1.193162424
1.191636961
1.189116381
1.185712312
1.183416059
1.181856433
1.180678868
1.163442172
1.16270997
1.153885643
1.136588029
1.115192283
1.092131667
1.078092771
1.078304918
1.097149515
1.142925114
1.182037256
1.197763499
1.199314442
1.197760923
1.196498801
1.195693901
1.195306618
1.195582921
1.196370511
1.196581501
1.19610967
1.19514276
1.193306945
1.190846621
1.187880783
1.185744385
1.184327571
1.163679534
1.164119227
1.154195865
1.137014831
1.115410185
1.092540344
1.08101385
1.085557005
1.111960008
1.15440054
1.186422992
1.200484722
1.202253106
1.201222583
1.200272695
1.199242264
1.19863604
1.198838428
1.199513951
1.199553802
1.199049994
1.198049167
1.196067094
1.193528793
1.190930193
1.188667404
1.187156674
1.163674794
1.16470598
1.154655298
1.137450881
1.115477622
1.092997362
1.084911689
1.0934851
1.122772377
1.162457068
1.192867738
1.203480191
1.204327926
1.203757113
1.20312619
1.202349202
1.201966366
1.202354619
1.203124671
1.203044549
1.202470948
1.201339669
1.199176286
1.196176381
1.193856531
1.19167912
1.190025744
1.163778552
1.165011387
1.15507968
1.137896157
1.115567881
1.095270879
1.090205988
1.101538279
1.132814054
1.175314754
1.201056007
1.207211541
1.206426769
1.205369175
1.204803154
1.204453506
1.204513475
1.205321602
1.206353689
1.206327295
1.205658473
1.204304881
1.20178603
1.197947681
1.19542891
1.193507512
1.192256689
1.164542465
1.165252134
1.155447196
1.138425204
1.115683977
1.097789731
1.095928437
1.111394995
1.150867812
1.191436235
1.207547333
1.209283374
1.208037061
1.20670657
1.206067194
1.205955142
1.206445343
1.207520546
1.208352421
1.208224
1.207401762
1.205953633
1.203414816
1.199470376
1.196551263
1.194748697
1.193676958
1.166623835
1.165591484
1.15571116
1.139037792
1.115613539
1.101039647
1.103005252
1.126662604
1.171842279
1.203503083
1.212685982
1.212038187
1.210679273
1.209077479
1.208204372
1.20787212
1.208388549
1.20977967
1.210139111
1.209460736
1.20837665
1.206675527
1.20431289
1.201060419
1.198182656
1.196502405
1.195514085
1.168688468
1.166247407
1.156096534
1.13960094
1.117186487
1.105288768
1.112638128
1.144629875
1.186542641
1.210702005
1.217284139
1.216242115
1.214722729
1.21284967
1.211682256
1.21120584
1.211160596
1.212333058
1.212651143
1.211776881
1.210465867
1.208209411
1.205463638
1.202699344
1.200268058
1.198668481
1.197706883
1.169434142
1.167251544
1.156903743
1.140181034
1.119536083
1.111410353
1.124249614
1.159855816
1.196311273
1.217239828
1.221009934
1.220698092
1.219157535
1.217136408
1.215821952
1.215199712
1.215258242
1.215927024
1.216101997
1.215191505
1.213596704
1.211019428
1.207678654
1.205167458
1.203264197
1.201744773
1.17004324
1.168347195
1.157797121
1.140876433
1.122771014
1.119415114
1.136799325
1.173226776
1.208630834
1.22460769
1.225160306
1.224410631
1.222817146
1.221077318
1.21995214
1.219323425
1.219699333
1.220580283
1.220421824
1.219451906
1.217628813
1.214662366
1.210571306
1.207793082
1.206083367
1.204801942
1.170449499
1.169321731
1.158505555
1.141610783
1.126973083
1.128017252
1.149637637
1.189774056
1.222082785
1.231342171
1.230031729
1.227853355
1.225438932
1.224031306
1.223502947
1.223352133
1.223647255
1.224516367
1.224164717
1.223039604
1.221082293
1.217934663
1.213522394
1.210020782
1.207883517
1.206662731
1.170366623
1.170109973
1.15902701
1.143031249
1.13190672
1.136823793
1.165558239
1.20779579
1.231599841
1.236080301
1.233678003
1.230908538
1.228231052
1.226555139
1.226370211
1.226875222
1.227547762
1.227554698
1.226781326
1.225228299
1.222968375
1.220140257
1.216385356
1.212729847
1.210108
1.208935469
1.170614728
1.170639233
1.159666511
1.14537881
1.137294184
1.148229447
1.185128744
1.222220669
1.239217756
1.240161156
1.238267818
1.235224266
1.2322614
1.230221848
1.229636098
1.230489181
1.231822098
1.231719071
1.230471878
1.22835985
1.225693243
1.222721822
1.219432423
1.216088844
1.213348907
1.211818406
1.171466074
1.17048841
1.160189397
1.14907102
1.145133835
1.16409387
1.203799144
1.233173017
1.24524144
1.245702801
1.244184561
1.241115951
1.237770329
1.235679221
1.234650608
1.234653085
1.236120767
1.236319586
1.234590366
1.232039565
1.228863724
1.225408731
1.222377415
1.21967421
1.217223804
1.215387711
1.17228319
1.169394542
1.160514787
1.153595418
1.15601825
1.182417164
1.221756843
1.245514963
1.251535337
1.251436505
1.250270874
1.247502106
1.244104803
1.242084214
1.241183354
1.240602373
1.240868015
1.24067016
1.238650215
1.235791479
1.232098647
1.227946785
1.224780133
1.22251355
1.220702358
1.172759281
1.169179532
1.161761241
1.158782461
1.16766333
1.201049157
1.239916601
1.258124603
1.259793647
1.257998893
1.25549256
1.253312369
1.250514415
1.248710475
1.247902867
1.247160757
1.246334781
1.245036744
1.242725837
1.239555892
1.235606717
1.231213988
1.227532227
1.224966094
1.223689383
1.17295055
1.169142911
1.163529598
1.164448514
1.179557556
1.219701418
1.257516923
1.269074571
1.268521543
1.265218057
1.261155629
1.258201123
1.256145884
1.255039672
1.254203744
1.253321692
1.251817233
1.249737191
1.247054723
1.243661016
1.239726393
1.235429479
1.231401645
1.228336904
1.227045081
1.172849087
1.16942147
1.16596612
1.171349972
1.192870989
1.238853059
1.270299891
1.278027036
1.275479207
1.27186711
1.267569298
1.263599987
1.261188458
1.260653599
1.260584966
1.260379985
1.259059285
1.256548121
1.253272461
1.249430376
1.24522498
1.240943463
1.236846026
1.233351819
1.231345473
1.172350745
1.169680807
1.168859688
1.179688747
1.210524065
1.255037684
1.280376223
1.283750316
1.282377641
1.278777661
1.274652711
1.270286373
1.267104914
1.26614528
1.267053389
1.267905779
1.267059583
1.264342164
1.260480184
1.256175539
1.251588205
1.24724014
1.243132265
1.239452007
1.236792581
1.171789568
1.169859501
1.172706005
1.190755144
1.229754323
1.26839163
1.288001721
1.289574705
1.288846494
1.286134885
1.282722097
1.278387252
1.275091796
1.273557879
1.273710553
1.27490628
1.274251812
1.271239435
1.267007229
1.262309887
1.257348519
1.25296941
1.249078842
1.245581411
1.242614046
1.170522852
1.170328622
1.176916551
1.205717037
1.250676782
1.285198225
1.29505493
1.295730754
1.294864965
1.293185322
1.290983559
1.28727276
1.284260166
1.28258982
1.281584196
1.281189513
1.280067448
1.27688628
1.272489923
1.267449981
1.262265309
1.257830474
1.254321448
1.251303408
1.24826587
1.166882191
1.171853884
1.182288965
1.223001614
1.272315704
1.300797456
1.305212711
1.303657395
1.301706335
1.299796937
1.298642876
1.295968868
1.293520751
1.291828506
1.290286093
1.288381185
1.286123857
1.28294961
1.278319975
1.272978609
1.267659014
1.26319094
1.2598607
1.257421707
1.167347608
1.175164516
1.191119319
1.242669024
1.293504639
1.313611651
1.314988372
1.313293634
1.310178732
1.307141032
1.305247771
1.303530437
1.30210412
1.301032729
1.299689465
1.297606662
1.294553817
1.29069957
1.285748956
1.280450569
1.275200923
1.270529736
1.266932607
1.264714174
1.16719334
1.178776032
1.204186728
1.264092711
1.308144551
1.322160999
1.323147424
1.321124735
1.317895775
1.314699752
1.311733197
1.310099658
1.309719906
1.309798881
1.309665174
1.30799645
1.304767493
1.300659392
1.29519122
1.289813483
1.284541956
1.279912664
1.275979309
1.273197792
1.168012361
1.182807101
1.221209992
1.28125886
1.317230851
1.326801351
1.327377555
1.326538199
1.324244964
1.321582676
1.318683312
1.316185964
1.315663107
1.317079638
1.318629794
1.317639109
1.314743976
1.310380214
1.304814329
1.299360138
1.294074808
1.289493733
1.285526246
1.282117328
1.170166361
1.187409628
1.239312785
1.293398007
1.32233096
1.329994337
1.331287053
1.330682284
1.329396616
1.328148202
1.326090648
1.323759681
1.322209984
1.322116239
1.324247811
1.324410927
1.322027455
1.317646844
1.312404891
1.307025334
1.302016813
1.297535354
1.293971115
1.290554439
1.174464558
1.195980324
1.259240911
1.309091933
1.327678759
1.332403429
1.332730616
1.331724309
1.331350046
1.332566827
1.331823052
1.330676368
1.329177415
1.328218731
1.327601093
1.327153529
1.325296001
1.321917663
1.3174666
1.312544233
1.308124143
1.304191559
1.301400548
1.298831006
1.178486879
1.211628794
1.285027264
1.329134034
1.336190376
1.336961543
1.336189174
1.334326237
1.333036472
1.33374168
1.335007847
1.334836666
1.334351093
1.332819655
1.330787152
1.328859284
1.32664087
1.32409366
1.320379024
1.316478188
1.313025886
1.310195029
1.308085376
1.183041196
1.236364279
1.31374787
1.3442007
1.345103487
1.343067095
1.340715102
1.337917489
1.335874498
1.334652669
1.335083433
1.336456998
1.336572309
1.33573572
1.334157261
1.331869895
1.329099567
1.326211244
1.323186156
1.320449878
1.317701141
1.315344675
1.313977279
1.189884128
1.269714731
1.334501792
1.348505363
1.348613521
1.346141333
1.343295528
1.339642535
1.336865515
1.33562006
1.334736657
1.335442609
1.337509711
1.338087106
1.337320865
1.334934458
1.331565573
1.328381143
1.325680765
1.323756055
1.321634668
1.319821297
1.318541974
1.201762415
1.301510063
1.339910224
1.347154396
1.346942623
1.344647425
1.34217475
1.339586614
1.337791592
1.335798219
1.334917652
1.335235347
1.33676788
1.339296871
1.34010681
1.337965063
1.334415101
1.330709957
1.328205506
1.326522834
1.324777791
1.323080544
1.321755829
1.208045577
1.323946623
1.334848262
1.339513645
1.33967844
1.339089377
1.338389383
1.337772062
1.337996558
1.336721828
1.335939976
1.336572667
1.337957124
1.339991611
1.33970622
1.338111318
1.335100639
1.3318119
1.329317286
1.327285228
1.325631792
1.324412449
1.323115478
1.221074308
1.334865781
1.322828448
1.327251161
1.328711684
1.330421702
1.33299293
1.335397984
1.337299792
1.33733179
1.336713621
1.336226495
1.336342924
1.336999232
1.33672009
1.335269994
1.33299164
1.330515403
1.328257257
1.326156619
1.324693301
1.323945922
1.192993641
1.315134584
1.299474237
1.307850114
1.315422977
1.32103616
1.323847521
1.325126915
1.327355494
1.330322877
1.331958556
1.332936072
1.332331658
1.331722173
1.33123091
1.32997024
1.328473584
1.327295937
1.325913189
1.324588998
1.323440607
1.322860021
1.130840329
1.234004404
1.257411502
1.274542273
1.286459329
)
;

boundaryField
{
    inlet
    {
        type            fixedValue;
        value           nonuniform 0();
    }
    outlet
    {
        type            inletOutlet;
        inletValue      nonuniform 0();
        value           nonuniform 0();
    }
    bottom
    {
        type            slip;
    }
    top
    {
        type            slip;
    }
    obstacle
    {
        type            zeroGradient;
    }
    defaultFaces
    {
        type            empty;
    }
    procBoundary15to9
    {
        type            processor;
        value           nonuniform List<scalar> 
35
(
1.137694991
1.136617911
1.136614404
1.137834726
1.139194381
1.138474501
1.13808174
1.138764805
1.138546101
1.216444783
1.194155715
1.154384223
1.116586381
1.086629977
1.070569758
1.062701755
1.055477794
1.04613799
1.03474038
1.024007988
1.015490667
1.008923711
1.004297115
0.999667695
0.9941899748
0.9897576274
0.9884267167
0.9911909379
1.006307969
1.045533903
1.095087527
1.126033121
1.137038653
1.13823422
1.13823422
)
;
    }
    procBoundary15to10
    {
        type            processor;
        value           nonuniform List<scalar> 
20
(
1.138036674
1.138505083
1.138746037
1.139096665
1.139096665
1.139218563
1.139604301
1.139912767
1.139743854
1.139825122
1.140336189
1.141016879
1.142245849
1.142245849
1.142452028
1.142051255
1.142133542
1.142615531
1.143595635
1.144841163
)
;
    }
    procBoundary15to16
    {
        type            processor;
        value           nonuniform List<scalar> 
70
(
1.146270723
1.146270723
1.146511201
1.146201297
1.146627957
1.147512004
1.148643269
1.150023585
1.151329161
1.151484637
1.151484637
1.152007264
1.152943595
1.154328228
1.15583542
1.157142668
1.158177549
1.158432726
1.158432726
1.159714325
1.161295109
1.163219151
1.165428371
1.167213332
1.168002779
1.168734077
1.168734077
1.17132401
1.174389022
1.177221961
1.179526971
1.180949297
1.183081762
1.183081762
1.185989207
1.188890857
1.191460883
1.19333635
1.195086314
1.197551844
1.200510631
1.200510631
1.203522722
1.205559336
1.20798098
1.211074319
1.214520519
1.219138306
1.219138306
1.222512148
1.226126285
1.230441874
1.235330932
1.240449425
1.245638828
1.254778937
1.254778937
1.262519879
1.270960874
1.279272148
1.287260416
1.295598739
1.306107968
1.306107968
1.312945314
1.318303079
1.320956568
1.32180961
1.323395154
1.323395154
)
;
    }
    procBoundary15to21
    {
        type            processor;
        value           nonuniform List<scalar> 
23
(
1.293026511
1.29766219
1.301348061
1.306749943
1.313422854
1.31892135
1.323668682
1.325321873
1.325542285
1.325199371
1.324086591
1.323349544
1.323221427
1.32274496
1.322225328
1.321930168
1.321970289
1.033047159
1.140986953
1.187416646
1.218447631
1.293026511
1.237339325
)
;
    }
    procBoundary15to22
    {
        type            processor;