/*--------------------------------*- C++ -*----------------------------------*\
  =========                 |
  \\      /  F ield         | OpenFOAM: The Open Source CFD Toolbox
   \\    /   O peration     | Website:  https://openfoam.org
    \\  /    A nd           | Version:  7
     \\/     M anipulation  |
\*---------------------------------------------------------------------------*/
FoamFile
{
    version     2.0;
    format      ascii;
    class       volScalarField;
    location    "0.4";
    object      p;
}
// * * * * * * * * * * * * * * * * * * * * * * * * * * * * * * * * * * * * * //

dimensions      [1 -1 -2 0 0 0 0];

internalField   nonuniform List<scalar> 
2222
(
1.024864559
1.022640818
1.022762425
1.020427045
0.9500072795
0.9521755583
0.9559369769
0.9638906817
0.9769151828
0.9921799055
1.008549457
1.019489729
1.027689428
1.036982929
1.042650818
1.046434697
1.049801218
1.050198829
1.049731358
1.047344365
1.047467214
1.04537985
1.043163132
1.041760768
1.040076527
1.038037585
1.034782082
1.033659637
1.031337776
1.027722982
1.026249356
1.0241991
1.023919587
1.021228958
0.9467069707
0.9468396072
0.9474889094
0.9481926954
0.9497247263
0.9523529428
0.9561209852
0.9633742522
0.976253391
0.9932278862
1.010121124
1.020791107
1.0295687
1.038499112
1.042336963
1.044550634
1.048038257
1.050458612
1.049889376
1.048502003
1.047155955
1.045697988
1.044574883
1.042269543
1.038444144
1.035386933
1.032704631
1.031379023
1.02964032
1.02756677
1.02612116
1.024950088
1.025038342
1.022352825
0.9471805182
0.9473811009
0.9474138785
0.9478837173
0.9491564682
0.9517975817
0.9560240631
0.9633220365
0.9756035636
0.9933249562
1.011286577
1.022055561
1.031059935
1.040368604
1.043554478
1.044840005
1.046562364
1.049770489
1.050375994
1.050440556
1.048612399
1.047481868
1.046223989
1.043075416
1.039106228
1.035616052
1.03278886
1.030252376
1.02729558
1.026259817
1.025126035
1.024556768
1.025415378
1.022833551
0.9477353267
0.9480750802
0.9479516948
0.9481633889
0.949180906
0.9517281643
0.9564531141
0.9641262887
0.9759068248
0.9932207373
1.011888923
1.0234004
1.032566197
1.040928009
1.044997436
1.045480384
1.046176784
1.048318726
1.050901656
1.051552192
1.050067611
1.048925221
1.046942519
1.043328973
1.040119671
1.035690968
1.032767639
1.030511681
1.026725786
1.025088048
1.023967587
1.023007187
1.024004252
1.022313227
0.9482290566
0.9485217114
0.9486629446
0.9488207711
0.9498503058
0.9524175992
0.9574245952
0.965301052
0.9769737284
0.993848285
1.01231155
1.024282097
1.033905149
1.04223282
1.045581928
1.046184406
1.04605754
1.046636939
1.048907856
1.050779072
1.051068183
1.049692754
1.04716047
1.045061689
1.041136786
1.036354648
1.03311481
1.031238937
1.027281597
1.024802204
1.023482312
1.022118077
1.022144267
1.020808747
0.947739556
0.9480594053
0.9486804711
0.9493674803
0.950610419
0.9534064966
0.9587851672
0.967185461
0.9787676566
0.9950399956
1.012961698
1.024709003
1.034816453
1.043749731
1.046445107
1.04710933
1.046320223
1.04492025
1.045614814
1.048360485
1.050078364
1.04958167
1.048384897
1.046703048
1.042450864
1.037783233
1.034082197
1.032018315
1.027828057
1.024839766
1.023327155
1.02178859
1.021359791
1.01948699
0.9470540622
0.9469342482
0.9475542456
0.9486321763
0.9504003722
0.953689491
0.9595751356
0.9686239533
0.9803463566
0.9964846665
1.013752698
1.025179279
1.034903006
1.044412198
1.047588867
1.048040614
1.047012413
1.045666127
1.045328024
1.046155482
1.047841163
1.049038686
1.04889736
1.047186907
1.04357535
1.03890254
1.034743201
1.032476946
1.028213569
1.024963821
1.02353979
1.022233545
1.021900988
1.019806603
0.9466684141
0.9466349072
0.9469569005
0.9477823943
0.9494652512
0.9526871844
0.9589120464
0.9692531034
0.9818667618
0.9974415379
1.014039792
1.025470807
1.034924661
1.043522767
1.047459905
1.048565066
1.047779781
1.046950757
1.04557623
1.045531356
1.046425593
1.04709823
1.046963105
1.045927882
1.043748912
1.039606341
1.035342148
1.032391981
1.028519392
1.025617176
1.024403098
1.023237711
1.022874563
1.020517617
0.946934986
0.9472241481
0.9474117792
0.9479703128
0.9493935803
0.9521996272
0.9576277888
0.9682744084
0.9826461062
0.9975748312
1.013205937
1.02458182
1.034969872
1.042791395
1.046191791
1.048066947
1.048387344
1.046863836
1.04587295
1.045783295
1.045108523
1.045120482
1.044692044
1.043993151
1.042049016
1.038858206
1.035449736
1.03209807
1.028750451
1.026256939
1.025103668
1.023982183
1.023722204
1.021329827
0.9473024514
0.9476934627
0.9481647457
0.9483099719
0.9488068265
0.9501823659
0.9527650049
0.9573549992
0.9674352465
0.9826923601
0.9979566379
1.012469916
1.022749391
1.034386104
1.042836889
1.045546494
1.047475888
1.048628448
1.04795436
1.047248473
1.046783602
1.045925497
1.045496376
1.044736767
1.043032824
1.040292716
1.037543038
1.035114015
1.03236583
1.028901968
1.026463943
1.025088672
1.023892689
1.024040807
1.022144667
0.9474568453
0.9480175772
0.9485933727
0.9490218974
0.9498069667
0.9513108046
0.9537669067
0.95808326
0.9676804753
0.9828812271
0.9988888462
1.012796346
1.021864307
1.033323777
1.043078262
1.045701099
1.047206289
1.048675198
1.04899848
1.048528374
1.048020959
1.047106672
1.046016188
1.044708315
1.042690132
1.039634934
1.036253525
1.034237322
1.032738832
1.028917713
1.026060925
1.024182905
1.023024047
1.023698018
1.022607164
0.9476962741
0.9477979948
0.9480988974
0.9487393212
0.950009625
0.952002021
0.9547358276
0.9592167394
0.9685323861
0.9833829644
1.000059371
1.013785447
1.022188646
1.032736689
1.043207018
1.04604848
1.047225589
1.048483784
1.049546717
1.049092456
1.048776429
1.047486302
1.046221752
1.044810079
1.04290835
1.03981248
1.035988759
1.033624041
1.032452973
1.028916321
1.025836623
1.023884096
1.022497293
1.022884523
1.022430044
0.9479856651
0.9476512076
0.9475912941
0.9478687473
0.9490243283
0.9515634301
0.955216088
0.960810706
0.9695979358
0.9841559317
1.002389921
1.017624817
1.023271865
1.033163236
1.043194102
1.046205325
1.047323371
1.048144663
1.048923854
1.049072252
1.0488151
1.047538749
1.046589039
1.045333818
1.043438598
1.04025153
1.036343115
1.033307939
1.031267651
1.028932933
1.02600858
1.02417053
1.022625393
1.021982599
1.021382914
0.9481936364
0.9477518222
0.9476536401
0.9477312773
0.9484057161
0.9505121261
0.9550005895
0.9617649599
0.971363181
0.985110012
1.003455826
1.019386161
1.025914559
1.034364411
1.043204233
1.04614735
1.047463031
1.048007818
1.048444825
1.049074189
1.048449287
1.047818486
1.047014974
1.04580783
1.043879575
1.040708301
1.036887309
1.03317634
1.030453443
1.028966004
1.026354831
1.024758642
1.022805689
1.021899307
1.020701707
0.9480704645
0.9481047455
0.94802031
0.9480733415
0.9486135645
0.950128737
0.9543619321
0.9622338418
0.9726814862
0.9864854373
1.004430796
1.020345781
1.027959275
1.036707587
1.04351888
1.046044871
1.047614609
1.048122663
1.048390826
1.048912641
1.048551335
1.048281858
1.04738043
1.046104485
1.044222062
1.041352919
1.037215866
1.033477242
1.030559681
1.028540243
1.026526013
1.024998598
1.023582932
1.022034916
1.020614357
0.9471155242
0.9480195009
0.9483671906
0.9486868559
0.9491166875
0.9504076298
0.9544133048
0.9621054628
0.9736162582
0.9875977307
1.004432728
1.020106835
1.028928848
1.038449708
1.044062586
1.046041626
1.047568057
1.048207622
1.048391038
1.048632666
1.048986166
1.048526072
1.047467951
1.046098612
1.044246017
1.041627041
1.037405586
1.033912373
1.031041379
1.02777792
1.026163367
1.025121479
1.023953405
1.022799312
1.020914425
0.9461010073
0.9469343556
0.9481745447
0.9488981108
0.9498916189
0.9515203055
0.9548034738
0.9620247407
0.9741328503
0.988548373
1.004481105
1.018782009
1.028758167
1.039582102
1.044860333
1.046230918
1.047222311
1.047871409
1.048344089
1.048772037
1.049461905
1.048632002
1.047553834
1.046071233
1.04380538
1.040834752
1.037182554
1.034179518
1.031172161
1.027411631
1.025289606
1.02433671
1.023813752
1.023189315
1.02133564
0.9455991787
0.9459791881
0.9472776773
0.948811533
0.9502255092
0.9521503919
0.9555420375
0.9623348452
0.974251877
0.9890428753
1.0049786
1.018020129
1.02715014
1.039371424
1.045396024
1.046522146
1.046882094
1.047248451
1.048052142
1.048810501
1.049629965
1.04883591
1.047879024
1.046237076
1.043525264
1.039886839
1.036255965
1.033631628
1.030948476
1.027344074
1.024803628
1.023444054
1.022920476
1.022988459
1.021688187
0.9456532359
0.9459432029
0.9468109905
0.947990021
0.949967489
0.9525380733
0.9561121939
0.9627802263
0.9745050595
0.9897412025
1.005739069
1.018043242
1.026336409
1.03851343
1.045206342
1.046624703
1.046736659
1.046946301
1.047291247
1.047781365
1.048662401
1.048815456
1.04821133
1.046519089
1.043421393
1.039735181
1.035950477
1.03295779
1.030813507
1.027500424
1.024786588
1.02325557
1.022136478
1.022600374
1.021835471
0.947076944
0.9467690768
0.9468657497
0.9477131577
0.9493936994
0.9524299827
0.9564652022
0.96319267
0.9748658908
0.9908245049
1.006578574
1.018270696
1.026395764
1.038254964
1.044550384
1.04634305
1.046843735
1.047106657
1.04695029
1.046873763
1.047148392
1.047804409
1.047681689
1.046526732
1.04379236
1.040084869
1.036074283
1.032938297
1.030805092
1.027987871
1.025358245
1.023560594
1.022045411
1.022135063
1.021773592
0.9479682313
0.9482360113
0.9478174314
0.9478617955
0.9493045034
0.9522179046
0.9567082694
0.9635745934
0.9752942914
0.9920023717
1.009066166
1.019038806
1.026872596
1.038412706
1.044191519
1.046121893
1.047205647
1.047612347
1.047188623
1.046768425
1.04644145
1.046643993
1.046404156
1.045844238
1.044130556
1.040896611
1.036478559
1.033158734
1.030789628
1.028085946
1.026272931
1.024764966
1.022876613
1.022049378
1.021525721
0.9481676216
0.9488194556
0.9488101013
0.9487861841
0.9494981181
0.9522189544
0.9570219631
0.9640365247
0.9757929931
0.9931598834
1.011382442
1.021791666
1.027473799
1.03874227
1.044215092
1.046242239
1.047767836
1.048309372
1.048000408
1.046986496
1.046274694
1.045855566
1.045363315
1.044943578
1.04402569
1.041464557
1.037408955
1.033532553
1.030636233
1.027932133
1.026272784
1.024916684
1.023883006
1.022411434
1.021264821
0.9475445666
0.9486584902
0.949105717
0.9495258981
0.9502412571
0.9525330083
0.9577150105
0.9652630924
0.9766415896
0.9939778833
1.012076911
1.023965806
1.029324664
1.039291124
1.044476335
1.046512974
1.04822472
1.048760214
1.048886563
1.048240558
1.046337094
1.045640021
1.045124779
1.044569722
1.043375614
1.041401385
1.037970721
1.034014655
1.030683906
1.027632018
1.026095568
1.024897145
1.023948833
1.02308986
1.021100763
0.9468423087
0.9468983416
0.9475148863
0.9486951577
0.9497007488
0.9507212113
0.9531513027
0.9583531374
0.9667676881
0.9785292378
0.9946683915
1.01183891
1.024690498
1.03135275
1.040258135
1.044827788
1.046741038
1.048226301
1.048915648
1.049021791
1.04911285
1.048173456
1.046626601
1.045406147
1.044581732
1.042800295
1.040506327
1.037838963
1.03422202
1.031110345
1.027479961
1.025661821
1.024477094
1.02374045
1.023118182
1.021597423
0.9468232934
0.9465792357
0.9468714941
0.9479184985
0.949348109
0.9507386526
0.9533608535
0.9586025312
0.9676236567
0.9803166609
0.9952421114
1.011056843
1.023640821
1.032640494
1.041350474
1.045197522
1.046543956
1.047460008
1.048008215
1.048867794
1.04932008
1.049138378
1.048353489
1.046535864
1.044654764
1.042494793
1.039700347
1.036578541
1.034082326
1.031333496
1.027617365
1.025331295
1.024076187
1.023206289
1.022783292
1.021734607
0.9476323559
0.9464539331
0.9465522253
0.9475763804
0.9489381383
0.9505698038
0.9533318278
0.958470419
0.967940658
0.9814007956
0.9957696461
1.011171296
1.021670399
1.032750838
1.042424914
1.045447099
1.045973168
1.046290869
1.047028511
1.047998099
1.049287855
1.049750784
1.049024411
1.047674801
1.04531227
1.042499707
1.039338781
1.035590073
1.033131016
1.031112439
1.02808676
1.025248974
1.023693703
1.0226301
1.022190166
1.021550094
0.9481642732
0.9474415106
0.9468927261
0.947339307
0.9486727315
0.9505814761
0.9534872412
0.9584395229
0.9675853324
0.9819216319
0.9963977086
1.011405617
1.020860443
1.03097403
1.043087886
1.046082538
1.045874809
1.04595095
1.046715313
1.047424494
1.048412086
1.049493508
1.049140973
1.047916177
1.046030926
1.043079529
1.039111504
1.034989568
1.032024922
1.030616223
1.028162116
1.025880842
1.023678906
1.022243064
1.021576813
1.021277633
0.9479822956
0.9481225817
0.948024407
0.9480265178
0.9488451582
0.9510533064
0.9542944559
0.9585389224
0.9676057507
0.9820767357
0.9975045835
1.011770187
1.02074226
1.030071066
1.042601569
1.046822578
1.046968292
1.046033853
1.046506825
1.047083229
1.047743166
1.048542929
1.048589645
1.047838416
1.046225132
1.043733181
1.039402745
1.034649993
1.031423216
1.029879821
1.027781175
1.026364234
1.024607979
1.022379842
1.021229949
1.020931047
0.9474060513
0.9480307747
0.9483375595
0.9485239329
0.9492806305
0.9514301555
0.9551217511
0.959768662
0.9679579408
0.9822805138
0.9994993513
1.013157863
1.020773323
1.029811917
1.041149004
1.047026537
1.047833117
1.047463809
1.047135637
1.046808629
1.047144714
1.047563703
1.047808096
1.047275487
1.046067419
1.043791074
1.040214689
1.035123879
1.031035263
1.029079662
1.026995002
1.026313757
1.025256712
1.023724948
1.021697183
1.020677177
0.9470469677
0.9476139169
0.9480374556
0.9483074627
0.949115916
0.951327383
0.9553410569
0.9609088077
0.9693165996
0.9831228486
1.00154273
1.016100672
1.021999414
1.029754878
1.040331176
1.046608346
1.047844811
1.048443124
1.048358874
1.047364038
1.046612303
1.0468593
1.046985187
1.04660649
1.045555319
1.043498136
1.040545203
1.036698449
1.031379744
1.028441097
1.026321088
1.02569694
1.025276164
1.02457546
1.023055727
1.021165763
0.9475352631
0.9475963627
0.9477462769
0.9479563567
0.9486816215
0.9507428043
0.9547914127
0.9610895533
0.9705244837
0.9846561111
1.002789071
1.018041999
1.025393051
1.031956029
1.039841683
1.04552331
1.047120763
1.048324335
1.048789292
1.048495655
1.047166499
1.046291829
1.046271466
1.045981894
1.045039139
1.043114143
1.040515586
1.037470537
1.033060822
1.029581515
1.026435239
1.024871125
1.024719067
1.024443053
1.023614226
1.02190029
0.948107654
0.9481628653
0.9481396355
0.9481525932
0.9485348114
0.9501318451
0.9540049851
0.960889746
0.9710982735
0.985888898
1.003254943
1.018391526
1.027154068
1.035456616
1.04206788
1.044610117
1.045947006
1.047162247
1.04835473
1.048694785
1.048347288
1.04692125
1.045852691
1.045493754
1.04465073
1.042933377
1.040251175
1.037464137
1.033927301
1.03067046
1.027171659
1.02474575
1.023847261
1.023886038
1.023310164
1.022032912
0.9481194644
0.9484146737
0.9487562451
0.9489841815
0.9491876583
0.9503339883
0.9538513591
0.9606905086
0.9714346058
0.986448956
1.003072966
1.01790022
1.027077812
1.036114072
1.044089582
1.045183314
1.045453336
1.04578891
1.047391328
1.048274443
1.048630441
1.048119203
1.046490335
1.045510383
1.044466663
1.042656892
1.039798713
1.036967384
1.03366251
1.030894113
1.027812863
1.02527704
1.023444331
1.023102963
1.022673593
1.021890939
0.9476102754
0.9481382133
0.9489250122
0.9496745327
0.950563629
0.9517359282
0.9544213189
0.960662397
0.9717592817
0.9867998697
1.002565886
1.017328082
1.026672755
1.035695811
1.044300529
1.046068198
1.046123294
1.045507138
1.046468119
1.04764205
1.048379734
1.048293722
1.047011728
1.045822558
1.044589492
1.042530123
1.039472097
1.036211123
1.032954191
1.030464257
1.027930596
1.025839788
1.023850972
1.022552814
1.021806067
1.021595941
0.9467917563
0.9473444674
0.9483605764
0.9496050505
0.9510655023
0.9530383355
0.9559976326
0.9615989524
0.9724550825
0.9872370784
1.002341255
1.016621973
1.026135703
1.035499596
1.043981549
1.046428312
1.046909618
1.046401589
1.046438276
1.047196722
1.047957039
1.048041398
1.047062572
1.046055615
1.0447716
1.042486958
1.039211453
1.035645031
1.032069265
1.029649107
1.027542955
1.025828362
1.024431828
1.022877159
1.021407565
1.02127495
0.9464322617
0.9466155007
0.9474234404
0.9488408486
0.9507038562
0.9534388582
0.9571913898
0.962978079
0.9736234127
0.9881996098
1.002970397
1.016032008
1.025260924
1.035184989
1.043598762
1.046315154
1.047367812
1.047431184
1.047332177
1.047466959
1.047736034
1.0478003
1.046895888
1.046027725
1.044737987
1.042428129
1.039122882
1.035398812
1.031466398
1.028972382
1.027093412
1.025576541
1.024488955
1.023417141
1.02205886
1.02138538
0.9474069413
0.9470271801
0.9469775161
0.9478256474
0.9499649136
0.9530433586
0.9573422491
0.9639173728
0.9748860324
0.9898975308
1.005440293
1.016692473
1.024611991
1.034899195
1.043625741
1.046135793
1.04713416
1.047497493
1.047997904
1.048216777
1.048137046
1.047872954
1.046970946
1.046114538
1.044671551
1.042328512
1.039073231
1.035486114
1.031330453
1.028730206
1.027023566
1.025570944
1.024393947
1.023385091
1.02249258
1.021671416
0.9485589875
0.9484715315
0.9481866435
0.9477897631
0.9477251976
0.949229202
0.9524301566
0.9573955641
0.9646346889
0.975937014
0.9917720158
1.00901615
1.018909292
1.02497414
1.034890864
1.043907884
1.046529542
1.046934415
1.047220755
1.047889578
1.048410253
1.048732533
1.048541332
1.047619846
1.046621262
1.044940458
1.04236478
1.038990823
1.035481452
1.031268064
1.028556994
1.026976727
1.025591639
1.024547927
1.023335975
1.022405361
1.021719658
0.9486408512
0.9485080313
0.9485489196
0.9486206396
0.9487837778
0.9494752012
0.9522013481
0.9573715422
0.9647840334
0.9765101151
0.9934233219
1.011569004
1.021261568
1.026661248
1.035664304
1.043812126
1.046961299
1.0472039
1.047112971
1.047439121
1.048077791
1.048868863
1.048838475
1.048123786
1.04713063
1.045404315
1.042690199
1.039110544
1.035506093
1.03123581
1.028158043
1.026815134
1.025460387
1.024499184
1.023534487
1.022405735
1.021638356
0.9483678547
0.9480910762
0.9482572969
0.9485209909
0.9491929485
0.9502174847
0.952590679
0.9573925095
0.964747649
0.9767473033
0.994205215
1.012199112
1.02229655
1.028674637
1.037318204
1.043617246
1.046531424
1.047223062
1.047100105
1.047128482
1.047647803
1.048453481
1.048257496
1.047817411
1.047019462
1.04550285
1.042921835
1.039429011
1.035855814
1.031566192
1.027843552
1.026707875
1.025306103
1.024201607
1.023348768
1.022343803
1.021602465
0.9480252197
0.9478002528
0.9479494801
0.9482216864
0.9490958181
0.9503134624
0.9527626737
0.9574160455
0.9650225765
0.9770996146
0.994281759
1.011782996
1.022170014
1.029680926
1.038768813
1.044016734
1.045863163
1.046869612
1.046959476
1.046960561
1.047458049
1.048001352
1.047547311
1.047248876
1.046537784
1.045245927
1.042911181
1.039774296
1.036376041
1.032274179
1.027993912
1.02667095
1.025151143
1.023974471
1.023059273
1.022048156
1.021502834
0.9475251095
0.9476140081
0.9479095678
0.948368699
0.9491534288
0.9504259722
0.9529018199
0.957472098
0.9653764223
0.9776976042
0.9941886999
1.010792472
1.021362273
1.029934583
1.039691261
1.044618531
1.04578068
1.046510251
1.046857439
1.047035309
1.047763269
1.047940106
1.047229471
1.04686297
1.046087215
1.044932151
1.042744453
1.0398561
1.036629725
1.032768731
1.028455241
1.026620398
1.02504434
1.023944868
1.023011261
1.022061049
1.021627077
0.9471338512
0.9475496489
0.9478356429
0.9483586144
0.9491762861
0.950744551
0.9533861793
0.9579634059
0.9660245449
0.9785717463
0.9943628974
1.010159395
1.020674755
1.029784685
1.040016693
1.044628404
1.045796464
1.046411261
1.046861185
1.047386851
1.048364551
1.048355175
1.047220593
1.04651311
1.045822291
1.044731647
1.042550893
1.039673102
1.036486395
1.032608536
1.028645929
1.026779333
1.025187913
1.024090918
1.023073049
1.02248032
1.02210208
0.9471259051
0.9478130034
0.9480047432
0.9484926772
0.9492163645
0.9508593951
0.9537594695
0.958517187
0.9667367514
0.979692964
0.9951560838
1.010251769
1.020231605
1.029332515
1.040007763
1.044728125
1.045909368
1.046449096
1.046893932
1.047698991
1.048936432
1.048935095
1.047409864
1.046274785
1.045736142
1.044562791
1.042263421
1.039246068
1.035878574
1.032044842
1.028638314
1.027251942
1.025646645
1.024426167
1.023097771
1.022993764
1.022529259
0.947588568
0.9482324831
0.9483993326
0.9488619419
0.9494432284
0.9510184743
0.9541470235
0.9593049034
0.967527093
0.980816816
0.9968873589
1.011192517
1.020127843
1.028984886
1.040020143
1.045164983
1.046311604
1.046627166
1.046981763
1.047904798
1.049263574
1.049264996
1.047568655
1.046283511
1.045797154
1.044413251
1.041906921
1.038682149
1.035083529
1.031622416
1.028597212
1.02739611
1.026057434
1.02478847
1.023107493
1.023256061
1.022622094
0.9482871378
0.9485244817
0.9486885795
0.9490539017
0.9496438046
0.951246043
0.9545359079
0.9601204856
0.9682882594
0.9819719459
0.9992995783
1.013027398
1.020690117
1.029138172
1.040087578
1.045505069
1.046719842
1.046769303
1.047056946
1.047973699
1.049299249
1.049294423
1.047742557
1.046577716
1.04595674
1.04435213
1.041666028
1.038278203
1.034588833
1.03132178
1.028239956
1.027162916
1.025887095
1.02473434
1.023105511
1.023245902
1.022328147
0.9486985902
0.948394827
0.9485501002
0.9488254645
0.9496735288
0.9515139625
0.9549526498
0.9607402148
0.9689847135
0.9831400765
1.00153585
1.015262946
1.02212846
1.029854989
1.040375264
1.045515586
1.046834225
1.046803516
1.047140215
1.047859832
1.049005088
1.049206261
1.047943608
1.046905214
1.046111719
1.044444964
1.041823488
1.038489306
1.034721261
1.030879802
1.027637271
1.026703533
1.025647151
1.024607586
1.023112147
1.02299196
1.021917018
0.9486291629
0.9481942467
0.9483529424
0.9486093697
0.9496217168
0.9516138967
0.9553736507
0.9612272089
0.9697035535
0.9843947974
1.002695459
1.016475992
1.023278286
1.030759911
1.040907516
1.045372834
1.046666443
1.046776427
1.047166873
1.047693708
1.048718792
1.049062879
1.048084275
1.047107463
1.046245834
1.044712233
1.04240003
1.039211887
1.035100229
1.030599839
1.026980649
1.026326187
1.025258404
1.024264876
1.023188214
1.022772056
1.021368497
0.9483793401
0.9478994623
0.9480876039
0.9485366954
0.9495466204
0.9514431115
0.9553301409
0.9613820172
0.970502576
0.9854530301
1.002895599
1.016759271
1.023907453
1.031571067
1.041514803
1.045170565
1.046453454
1.046714755
1.04713986
1.04731118
1.048131877
1.048570941
1.048161565
1.04742736
1.046602049
1.045117569
1.042683164
1.039402507
1.035280352
1.030785587
1.026943142
1.026212048
1.025022379
1.024137419
1.023044937
1.022685928
1.020956758
0.9475353964
0.9477809471
0.948128953
0.948676288
0.9496175796
0.9515211511
0.9552143044
0.9613208425
0.9710556755
0.9858647403
1.002845779
1.016607461
1.024451031
1.03232887
1.04175663
1.044838436
1.046235377
1.046668546
1.046787086
1.047111879
1.047868789
1.048711451
1.048485177
1.047843092
1.046941072
1.045080032
1.042343957
1.038972107
1.0351413
1.031282763
1.027602946
1.026363683
1.025184912
1.02433691
1.022990157
1.022667128
1.020967974
0.9471406018
0.9469608956
0.9478379658
0.9484780455
0.9491572998
0.9499037862
0.9517798591
0.9552870837
0.9614775198
0.9715499553
0.9861843034
1.002451847
1.016538311
1.025110828
1.033268471
1.041816244
1.044744151
1.046194101
1.046755328
1.046837293
1.047375307
1.048138575
1.048169349
1.047831679
1.047765019
1.046754392
1.044738847
1.04189286
1.038643964
1.035062108
1.03164172
1.028261163
1.026650862
1.025363441
1.024422855
1.022918653
1.022836203
1.02152897
0.9469445836
0.9468749889
0.9478274515
0.9487896834
0.9494171405
0.9501988765
0.95224027
0.9557582369
0.9619372187
0.9722791834
0.9866187987
1.002759799
1.017020196
1.025710008
1.034021426
1.042070661
1.044835927
1.046329435
1.04703983
1.04701642
1.04783192
1.048621285
1.048321035
1.047446365
1.047197941
1.046322421
1.044229795
1.041416768
1.038515844
1.035229626
1.031654345
1.028433957
1.026853562
1.025487744
1.024372357
1.022995131
1.023184123
1.022366459
0.9472236358
0.9472149956
0.9478478153
0.9485048027
0.9494500653
0.950509686
0.9526487413
0.9563423731
0.9627287702
0.9731793422
0.9874467632
1.003649542
1.017254637
1.025127672
1.03377105
1.042318405
1.045133333
1.046523061
1.047187791
1.047278
1.048159577
1.049033665
1.048428534
1.047107351
1.046597983
1.045719515
1.043765803
1.041241083
1.038563773
1.035128084
1.031392978
1.028160125
1.026750165
1.025550695
1.024276537
1.023108754
1.023357926
1.022731037
0.9477212867
0.9476914118
0.9478133908
0.9482533143
0.9491758174
0.9505990983
0.9529811571
0.9569398711
0.963416388
0.9738854085
0.9887909378
1.005921861
1.017972569
1.025082404
1.033614285
1.042737005
1.045420612
1.046672173
1.047153598
1.04736784
1.04852255
1.049451238
1.048521698
1.046718876
1.045932953
1.045288196
1.043715307
1.041330704
1.038431129
1.034748533
1.03096092
1.027761682
1.02650841
1.02577777
1.02438312
1.023130815
1.023523434
1.022996736
0.9480836966
0.9480039125
0.9479057249
0.94821118
0.9490776514
0.9506114953
0.9531443322
0.9574629412
0.9640227821
0.9745912452
0.9903943917
1.008679912
1.018910461
1.025289096
1.033847316
1.043161472
1.045676927
1.046736296
1.046939933
1.047105881
1.048384922
1.049486496
1.048472611
1.046279075
1.045603363
1.045352332
1.043890009
1.041710235
1.038445182
1.034389701
1.03041575
1.027397203
1.026133824
1.0258348
1.024573553
1.023206361
1.023366195
1.022647001
0.9483555657
0.9483658902
0.9480659985
0.9482379316
0.9490913174
0.9505648397
0.9531702763
0.9577560883
0.9644631205
0.9753164029
0.9924196776
1.010570516
1.019146066
1.025518663
1.034448445
1.043519044
1.045878902
1.046849881
1.046750314
1.04674097
1.047961412
1.049101814
1.048179915
1.04610041
1.045760458
1.045570378
1.044262747
1.041823916
1.038528158
1.034124103
1.030070295
1.02727478
1.02624522
1.026041083
1.02458122
1.023110254
1.022863273
1.021481908
0.9485360666
0.9485928478
0.9483825457
0.9485186858
0.9491452522
0.9506134678
0.9533256469
0.957850991
0.9648678144
0.9762727102
0.9938543541
1.011727706
1.019564304
1.025903007
1.035295182
1.043680282
1.045974915
1.046846572
1.046638825
1.046481188
1.047611935
1.048528234
1.048171531
1.046592471
1.046116594
1.046078792
1.044448174
1.041782209
1.038607473
1.034521009
1.030069841
1.027452325
1.02622264
1.025691425
1.02436031
1.022689711
1.021922092
1.020573712
0.9484374574
0.9483751614
0.9486716414
0.9488329008
0.9491697372
0.9504736726
0.9534290508
0.957943974
0.9656657549
0.9774686854
0.9946776587
1.012272762
1.020008766
1.026821794
1.036200098
1.043831003
1.045939985
1.046657943
1.046716065
1.046400145
1.047469292
1.048240425
1.048237744
1.047118815
1.046856852
1.046221796
1.044284854
1.041585673
1.038482724
1.034723931
1.030586162
1.027637124
1.026149288
1.025543848
1.024016717
1.022162259
1.021606747
1.020573601
0.9478552051
0.948100066
0.9485291893
0.9488916782
0.949290317
0.9505240255
0.9534293902
0.9583743346
0.9665248279
0.9788162679
0.9951991558
1.012270026
1.020446
1.027594817
1.036935576
1.044108806
1.046171128
1.046988444
1.047164753
1.046636203
1.047806458
1.048480994
1.048386587
1.04780027
1.04735088
1.046226657
1.043977916
1.041220921
1.038353115
1.034896997
1.03112872
1.027968595
1.02612268
1.025356985
1.023751208
1.022207653
1.021874048
1.020782809
0.9475407831
0.9480540811
0.9480357723
0.9488870292
0.9495300512
0.9509544597
0.9538612686
0.958979975
0.9673740002
0.9798276159
0.9949817441
1.012739057
1.020840461
1.028039263
1.037520854
1.044545376
1.046418085
1.047192704
1.047447758
1.046957755
1.048164688
1.048794449
1.048638714
1.048131164
1.04747088
1.046078562
1.043544473
1.040980229
1.038270412
1.034945727
1.031143048
1.028159326
1.026167963
1.025378683
1.023859788
1.022561957
1.022517369
1.021130152
0.9474589858
0.947911041
0.9480615638
0.9490780388
0.9496499669
0.9512952204
0.9542965388
0.9595458492
0.9679218923
0.9806088357
0.9950278419
1.013228812
1.021545927
1.028450402
1.037704839
1.044797103
1.046667876
1.047148138
1.047177468
1.047149565
1.048425537
1.049087064
1.048860133
1.048050623
1.0470791
1.045659133
1.043438962
1.040850135
1.038010561
1.034701151
1.030949402
1.028125292
1.026361393
1.025607281
1.024122566
1.023104937
1.023330432
1.021857191
0.9473286162
0.9476067866
0.9481788209
0.9491656601
0.9499827682
0.9516597021
0.9547634911
0.9601775249
0.968563265
0.9814880539
0.9959601092
1.014816934
1.021433274
1.028914843
1.038230445
1.044882402
1.046531578
1.046916775
1.046927017
1.047222166
1.048612418
1.049328945
1.048947638
)
;

boundaryField
{
    inlet
    {
        type            fixedValue;
        value           nonuniform 0();
    }
    outlet
    {
        type            zeroGradient;
    }
    bottom
    {
        type            slip;
    }
    top
    {
        type            slip;
    }
    obstacle
    {
        type            zeroGradient;
    }
    defaultFaces
    {
        type            empty;
    }
    procBoundary17to11
    {
        type            processor;
        value           nonuniform List<scalar> 
36
(
1.023147114
1.021725428
1.022056775
1.01998646
0.9494123224
0.9513957371
0.9555512322
0.9641353401
0.9761699069
0.9907367446
1.006464843
1.017562436
1.02656532
1.037164018
1.04478055
1.048746597
1.050137734
1.048847852
1.048216236
1.047709536
1.045963172
1.045345867
1.044750493
1.043715006
1.042582459
1.040233216
1.037093538
1.03521062
1.030493525
1.026269735
1.026269735
0.9462803711
0.9468899719
0.948133985
0.9489173395
0.9489173395
)
;
    }
    procBoundary17to16
    {
        type            processor;
        value           nonuniform List<scalar> 
64
(
0.9467071693
0.947711528
0.9483167552
0.948130292
0.9474402933
0.9469935493
0.946970394
0.9470997284
0.9470997284
0.9472376791
0.9478362862
0.9483249285
0.9487318515
0.9489626063
0.948127038
0.9465623277
0.9455865031
0.945590928
0.946002529
0.9472081028
0.9474514103
0.9474402056
0.9470040272
0.9470040272
0.947714341
0.94855784
0.9489681282
0.9487942161
0.9479361419
0.9472075695
0.9466197316
0.9473050642
0.9480415002
0.9481108058
0.9475145045
0.9467579623
0.9466222908
0.9475710286
0.9475710286
0.9488127509
0.9490808087
0.948927414
0.9485032205
0.9478628995
0.9473530837
0.9472128717
0.9476366109
0.9483101275
0.9486314854
0.9487328115
0.9484396169
0.9476702787
0.9476702787
0.9476008448
0.9475079609
0.9477393344
0.948096516
0.9483122796
0.9484377198
0.948604189
0.9486354065
0.9480314456
0.947646535
0.9477808572
)
;
    }
    procBoundary17to22
    {
        type            processor;
        value           uniform 0.9477729451;
    }
    procBoundary17to23
    {
        type            processor;
        value           nonuniform List<scalar> 
39
(
1.047673429
1.046592172
1.045768729
1.04367966
1.040829726
1.037717262
1.034038906
1.030222387
1.027756432