/*--------------------------------*- C++ -*----------------------------------*\
  =========                 |
  \\      /  F ield         | OpenFOAM: The Open Source CFD Toolbox
   \\    /   O peration     | Website:  https://openfoam.org
    \\  /    A nd           | Version:  7
     \\/     M anipulation  |
\*---------------------------------------------------------------------------*/
FoamFile
{
    version     2.0;
    format      ascii;
    class       volVectorField;
    location    "0.3";
    object      U;
}
// * * * * * * * * * * * * * * * * * * * * * * * * * * * * * * * * * * * * * //

dimensions      [0 1 -1 0 0 0 0];

internalField   nonuniform List<vector> 5((3.001035216 -0.0009766764707 0) (3.00075248 0.001577895429 0) (3.005264935 0.007193151048 0) (3.000527523 0.01222308926 0) (3.010580693 0.03083956202 0));

boundaryField
{
    inlet
    {
        type            fixedValue;
        value           nonuniform 0();
    }
    outlet
    {
        type            inletOutlet;
        inletValue      uniform (3 0 0);
        value           nonuniform List<vector> 2((3.00075248 0.001577895429 0) (3.000527523 0.01222308926 0));
    }
    bottom
    {
        type            slip;
    }
    top
    {
        type            slip;
    }
    obstacle
    {
        type            slip;
    }
    defaultFaces
    {
        type            empty;
    }
    procBoundary5to4
    {
        type            processor;
        value           nonuniform List<vector> 3((3.000076247 -0.003535710951 0) (3.003290136 -0.01076056919 0) (3.014010412 0.004828887246 0));
    }
    procBoundary5to11
    {
        type            processor;
        value           nonuniform List<vector> 3((3.00056621 0.02490704069 0) (3.00056621 0.02490704069 0) (3.017257485 0.03346636705 0));
    }
}


// ************************************************************************* //
