/*--------------------------------*- C++ -*----------------------------------*\
  =========                 |
  \\      /  F ield         | OpenFOAM: The Open Source CFD Toolbox
   \\    /   O peration     | Website:  https://openfoam.org
    \\  /    A nd           | Version:  7
     \\/     M anipulation  |
\*---------------------------------------------------------------------------*/
FoamFile
{
    version     2.0;
    format      ascii;
    class       volScalarField;
    location    "3.8";
    object      p;
}
// * * * * * * * * * * * * * * * * * * * * * * * * * * * * * * * * * * * * * //

dimensions      [1 -1 -2 0 0 0 0];

internalField   nonuniform List<scalar> 
2225
(
0.4639733264
0.4625424165
0.4628445649
0.4721574127
0.5620146452
0.7996336847
1.00201173
1.0641697
1.064218819
1.053533096
1.028482061
1.001957749
0.9750934892
0.5419611149
0.5368441477
0.5314687669
0.5267674486
0.5231154293
0.5195693619
0.515258995
0.5108018409
0.5079077414
0.504734422
0.5011437054
0.4956247738
0.4914623638
0.4898191453
0.4875003161
0.484418276
0.4807374795
0.4774789526
0.4736608562
0.4717379507
0.4716075461
0.4743255043
0.5106686106
0.6953807276
0.967020482
1.056768258
1.067322578
1.064844584
1.051163005
1.038202994
1.020732612
0.9871813206
0.5527768138
0.5475029259
0.5419185404
0.5373697271
0.533938175
0.5305104232
0.5260748455
0.5209016399
0.5174880497
0.5140138909
0.5101620828
0.50448395
0.5007733068
0.4989539567
0.4965134922
0.4940285549
0.4905152649
0.4853536201
0.4812899964
0.4805771076
0.4813558903
0.493284217
0.6009427511
0.8509742808
1.061413834
1.097439797
1.092504413
1.078315777
1.054724432
1.034784291
1.016904048
0.9896646945
0.5640320925
0.5587255852
0.552844678
0.5479967529
0.5444556971
0.5410324009
0.5368880937
0.5319025917
0.528135789
0.5241844166
0.5197822709
0.5132708309
0.5091756761
0.5068169146
0.5041921526
0.502248707
0.4983349766
0.4918129353
0.4893126362
0.4895827164
0.493421829
0.5378740927
0.7510640092
1.002074164
1.103566126
1.102330866
1.094431673
1.082766621
1.065981798
1.043177639
1.023861836
1.000731646
0.5744325882
0.5689489059
0.5628751332
0.5579511442
0.5543372262
0.5506726227
0.5461314815
0.5411692347
0.5375035947
0.5335084489
0.5291218371
0.522701908
0.5180073038
0.5149235797
0.5126496941
0.5107796289
0.5054464646
0.4995078358
0.49865791
0.4996787031
0.5154801744
0.6420580183
0.913934868
1.097903822
1.131313765
1.125704711
1.112504134
1.087116776
1.063792922
1.042982731
1.027610692
1.004577984
0.5865433838
0.5806994417
0.5740994272
0.5689286997
0.5651778324
0.56133083
0.556405328
0.5509816699
0.5472036878
0.5431363466
0.5389515837
0.5330193596
0.5275764118
0.5244863405
0.5227646955
0.51978158
0.5131443801
0.5087789482
0.5089680105
0.5137484706
0.5687939045
0.8107984953
1.057586196
1.138895934
1.136527681
1.12709953
1.114746137
1.097856637
1.07524847
1.054207746
1.038872916
1.017072991
0.5987657966
0.592527909
0.5852102901
0.5794763443
0.575507543
0.5714735805
0.5664441142
0.5610919455
0.55716399
0.5529445013
0.5488070405
0.5425982427
0.5361316584
0.5336945476
0.5320126832
0.527891826
0.5216774116
0.5195776711
0.5203014319
0.5394980144
0.6879779385
0.9754063496
1.150386598
1.167646427
1.161336923
1.144510675
1.118543217
1.09481227
1.075587017
1.056132518
1.041478639
1.019759122
0.610528987
0.604299941
0.5969489239
0.5908848018
0.5864313793
0.5819005113
0.5762279779
0.5703441433
0.5662940083
0.5620954996
0.5580002475
0.5512125388
0.5442561423
0.5424384479
0.5401619657
0.5353157751
0.5305298311
0.5304442878
0.5366766005
0.605093716
0.8642161934
1.121171125
1.187888618
1.183013257
1.162918145
1.140887867
1.116473151
1.097497581
1.085126142
1.071321059
1.058473403
1.032998496
0.6226902575
0.616490934
0.6092493347
0.6031831409
0.5985036596
0.5938048226
0.587860968
0.581198611
0.5767307329
0.5726622439
0.5681750709
0.5609058803
0.5545539306
0.5521199366
0.5484463606
0.5437706996
0.5417229734
0.5429459587
0.5699324063
0.737625634
1.068681713
1.180534405
1.197199688
1.188237365
1.168828959
1.147921217
1.13411889
1.117283499
1.09861028
1.081779725
1.064915
1.034931621
0.6342296441
0.6277629149
0.6200382215
0.6137830268
0.6090712741
0.604345419
0.5982466819
0.5911332037
0.58652942
0.5825446693
0.5773879018
0.5701687268
0.5645732558
0.5610554176
0.5565660861
0.5537005721
0.5539327083
0.5618198103
0.6517251508
0.9329949678
1.1877572
1.230030882
1.225827571
1.213841612
1.192062562
1.164168376
1.136973678
1.117412115
1.09933761
1.083415066
1.069550391
1.043664951
0.646481934
0.6400025731
0.6321306049
0.6255932324
0.6207851557
0.615996121
0.6096714139
0.6022617271
0.5976459922
0.5931033323
0.587664368
0.580669893
0.5745679699
0.5687763528
0.5651835937
0.5639316215
0.5669002675
0.6036376781
0.8020681637
1.131887764
1.26038267
1.258483687
1.24203835
1.212221304
1.186691336
1.161876248
1.142493499
1.125703652
1.108892473
1.090349247
1.074931843
1.049712851
0.6586078991
0.6518788698
0.6434770145
0.6367469247
0.6319183548
0.6269213716
0.6202351933
0.6128418312
0.608224923
0.6031264913
0.5980839652
0.5920165399
0.5840771395
0.5767465039
0.5747129899
0.5754260242
0.5899543361
0.7058629918
1.015980109
1.253851997
1.276617544
1.266884532
1.241461314
1.213445744
1.191565104
1.174726736
1.157354307
1.139394785
1.121488454
1.103974362
1.088576591
1.058841114
0.6722696524
0.6650983255
0.6556301951
0.6480963756
0.6429294972
0.6374642019
0.6302457167
0.6226482745
0.6176385962
0.6121981748
0.607940385
0.6021582226
0.5921862939
0.5858608288
0.5855319724
0.5897078834
0.6458960676
0.8879800065
1.195847647
1.298784923
1.299654319
1.290464663
1.266750852
1.236929576
1.209635529
1.184226256
1.1627585
1.142969153
1.122983525
1.10292585
1.08673892
1.061097075
0.6849469818
0.6777632433
0.6682841102
0.6607186538
0.6553865238
0.6497311758
0.6427458071
0.6348572962
0.628772649
0.6236696149
0.6199627087
0.6120965956
0.6014172503
0.5979569533
0.5988060525
0.6187869911
0.7721633908
1.09725447
1.320233615
1.32823515
1.315940839
1.288390387
1.259676016
1.233817709
1.210042879
1.189786916
1.170476172
1.151917186
1.133037091
1.111954673
1.094933843
1.070296032
0.6981807036
0.6907235346
0.6807731809
0.6730990311
0.6672273252
0.6611804281
0.6539544449
0.6451613085
0.6380451258
0.6340785809
0.6297756657
0.6202373777
0.6113736136
0.609408859
0.6152150487
0.6893008179
0.9721992455
1.277306743
1.345358774
1.336634491
1.315400208
1.29034976
1.265527745
1.241947265
1.218915282
1.195078796
1.175313427
1.160071844
1.144857208
1.127233073
1.109935866
1.076848486
0.7113571302
0.7034397744
0.6928991283
0.6847369246
0.6786665455
0.6731314932
0.6660197845
0.6557313583
0.6488200808
0.6453412347
0.6388889207
0.6294056878
0.623498955
0.623425336
0.6507761296
0.8512551266
1.175776718
1.365816265
1.37600211
1.362862487
1.341950476
1.313316953
1.28366544
1.258430231
1.235141974
1.211403733
1.188886633
1.167313178
1.147247788
1.127212302
1.108789804
1.079039622
0.7240345771
0.7162191896
0.7054985411
0.6970706195
0.6912436662
0.6860181387
0.6784978476
0.6674474531
0.6620873719
0.6573646398
0.6493641188
0.6415046549
0.6384360855
0.646817883
0.749687345
1.065209902
1.349964798
1.410713107
1.400510076
1.374080076
1.339141207
1.308475843
1.281996196
1.258267073
1.236899261
1.21758405
1.199169926
1.178791811
1.157017663
1.135274456
1.115326754
1.083229842
0.7382663982
0.7296488059
0.717836291
0.7085279857
0.7026937725
0.6971006371
0.6884958987
0.677952214
0.6723498265
0.6654427441
0.6581086949
0.6528913262
0.654211054
0.6941486948
0.9406927277
1.28488213
1.429039212
1.425201621
1.403537558
1.372462246
1.339730003
1.310521187
1.286911971
1.266843648
1.246670307
1.225410511
1.204923067
1.18581527
1.16653027
1.145857594
1.126684183
1.09427265
0.7511493776
0.7424392342
0.7298505607
0.720224228
0.7151825005
0.7092635569
0.700780732
0.6918202796
0.6842105507
0.6752413852
0.6700241756
0.6679065464
0.6824004935
0.8231330322
1.179909118
1.425028962
1.448586356
1.437431576
1.412172618
1.380390403
1.350856821
1.325626215
1.30444705
1.28495945
1.264686178
1.243135872
1.219121635
1.193214392
1.169525836
1.146482772
1.12735961
1.099739337
0.7660827734
0.7570407386
0.7438627754
0.7340768336
0.7282121289
0.7212480269
0.7134884572
0.7043040443
0.6930884272
0.6853166606
0.6833306792
0.6880550376
0.7522364235
1.05272024
1.380777253
1.480327893
1.474919176
1.455302446
1.426065113
1.395985222
1.367471504
1.340108922
1.314598834
1.290863601
1.268379719
1.246751538
1.224540699
1.200420194
1.177608238
1.154959182
1.135694438
1.104845115
0.7788977462
0.768970899
0.7556529732
0.7462232198
0.7396569823
0.7333230777
0.7268142419
0.7156309926
0.7018207257
0.6975815884
0.697700762
0.7233116428
0.9180819294
1.291349505
1.506143153
1.511185217
1.496732913
1.468164539
1.43373202
1.401872624
1.372399064
1.345485345
1.322234072
1.300600125
1.277880152
1.254057949
1.229447497
1.204058903
1.18023917
1.160495894
1.144419571
1.114952712
0.7933337655
0.7831742358
0.7701452601
0.7603524492
0.7529867751
0.7477316619
0.7409234021
0.7260497718
0.7145743393
0.7123972638
0.7206234081
0.8240334189
1.165293177
1.49685391
1.547477729
1.532390317
1.501564555
1.468580897
1.43695135
1.408203151
1.382338465
1.358293007
1.334598885
1.311403405
1.287726439
1.263568808
1.239718432
1.216528059
1.192835374
1.168663387
1.148668306
1.117583048
0.807206244
0.7968222618
0.7836233329
0.7719067493
0.7649412044
0.7605831158
0.7514041743
0.7358040159
0.7292724244
0.7307636165
0.7727045359
1.03254398
1.428011347
1.575810675
1.565084461
1.540866075
1.509622383
1.476279812
1.446472286
1.419546361
1.394141309
1.368865991
1.342815544
1.31741577
1.292755875
1.267929451
1.242755724
1.219540085
1.199426324
1.177432598
1.158159082
1.126471985
0.8216122205
0.8113910118
0.7974864451
0.7843697355
0.779412005
0.7744784923
0.7624599915
0.7503150327
0.7468982425
0.7625698143
0.9162691259
1.299460091
1.588028066
1.604470121
1.590324981
1.56132759
1.526994028
1.493046772
1.462201695
1.433822034
1.405491633
1.377320689
1.351127914
1.326215147
1.302304124
1.278448257
1.253734713
1.229008964
1.20578198
1.18239357
1.161989219
1.13024114
0.8369190537
0.8264252381
0.8111238004
0.7981040192
0.7930939997
0.7850985669
0.7731357655
0.7660775439
0.7689673448
0.8445866581
1.167241359
1.548751897
1.648529941
1.637044162
1.608921377
1.570282006
1.533207056
1.501537346
1.471466519
1.442427603
1.413279441
1.383988618
1.357296492
1.331579339
1.305862186
1.281273519
1.258343443
1.236374281
1.215017401
1.193320428
1.173515787
1.138492349
0.851731979
0.8404040242
0.8247203815
0.8135596425
0.8065574756
0.7963116668
0.7876450605
0.7868714797
0.81498853
1.03842334
1.459352652
1.676679989
1.674263178
1.653702193
1.617308384
1.577587709
1.540904222
1.508613469
1.478753758
1.448744711
1.41891217
1.390379485
1.364156588
1.338744519
1.313597639
1.289358646
1.265205683
1.24092714
1.218032371
1.196878352
1.178248514
1.144280886
0.8670420239
0.8546129022
0.8398094486
0.8286123884
0.8173298607
0.8083420169
0.8049785557
0.8149719281
0.9385822635
1.31556534
1.675770274
1.710782233
1.693988399
1.660651576
1.621663294
1.583495262
1.550759845
1.521348376
1.49154296
1.461573547
1.432015502
1.403343703
1.37601254
1.349603388
1.324197978
1.300642155
1.277331406
1.252984527
1.22885627
1.204907275
1.184171704
1.14980112
0.8813614859
0.8694032114
0.8559154453
0.8414462032
0.8282256123
0.8233306251
0.8260569227
0.880864542
1.187678456
1.598877143
1.744953717
1.734935111
1.70625655
1.668214929
1.630667819
1.596639402
1.565362403
1.5341572
1.502384584
1.47165105
1.441954931
1.412148101
1.38299489
1.355390702
1.328826418
1.303564183
1.279950825
1.257863579
1.235314162
1.210851058
1.189428315
1.155341722
0.8959678984
0.8854644268
0.8717723995
0.8523582744
0.8422127396
0.8420720966
0.8653737594
1.061356588
1.486269312
1.769330581
1.778877625
1.761057259
1.726956646
1.686183234
1.647664507
1.612502057
1.579413487
1.545913629
1.51124688
1.47842806
1.447647839
1.418235781
1.390460189
1.364527393
1.340035699
1.315327048
1.289475074
1.263326934
1.237614955
1.211989222
1.192028311
1.15997974
0.9111567916
0.9016322174
0.8839249676
0.8635555036
0.8587238171
0.86603855
0.9709954073
1.354476001
1.750062931
1.822402108
1.803617316
1.76591519
1.725953071
1.689761833
1.655428916
1.622509624
1.588580783
1.553550672
1.519713073
1.487503434
1.455835607
1.425687168
1.39844662
1.371672688
1.345244158
1.321537238
1.2982242
1.272564013
1.246888705
1.220525634
1.199119931
1.167096951
0.9282868547
0.9170339001
0.89621502
0.881783502
0.8826304508
0.9269174143
1.22011628
1.678439265
1.853732583
1.843982608
1.815558553
1.774544958
1.733334781
1.697588793
1.664341874
1.631506362
1.598164741
1.563316248
1.527551154
1.49414103
1.462316697
1.431585111
1.404007375
1.379114596
1.353655392
1.327336384
1.300641123
1.273859769
1.249827028
1.226917046
1.2057679
1.17125426
0.9444560533
0.9288423065
0.9095732105
0.9018005116
0.9184693445
1.098468426
1.548955971
1.881324096
1.90190326
1.877690113
1.83845239
1.794072599
1.750384513
1.71096985
1.674324598
1.638659783
1.60327751
1.569172139
1.538088848
1.50776583
1.476941985
1.446516832
1.417109707
1.388674396
1.361077541
1.333718496
1.30684837
1.281596922
1.257073659
1.231916975
1.211058359
1.177771465
0.9589587075
0.9423769745
0.9286825425
0.9316499435
1.025650614
1.415611537
1.861774646
1.953363895
1.933782078
1.892771419
1.844361541
1.79979579
1.759687276
1.72255611
1.687487733
1.652484572
1.617106912
1.58129699
1.544993032
1.510554366
1.479862232
1.451455289
1.424364298
1.396613234
1.367067806
1.337476696
1.308726147
1.282586283
1.260353525
1.237703639
1.217505936
1.184225667
0.9710170979
0.9572295611
0.9544900859
0.9919378123
1.281319863
1.785783481
1.988983566
1.977502598
1.944389576
1.899235865
1.851174316
1.808445635
1.770023915
1.732403461
1.69675547
1.662845687
1.627910432
1.591798533
1.556302569
1.522214123
1.490170979
1.460096797
1.43140923
1.403072757
1.374353534
1.345831594
1.317758463
1.290358877
1.26498154
1.239355083
1.218090118
1.18601172
0.9852196243
0.9774527012
0.9931310621
1.17097868
1.634379622
2.017408747
2.041596699
2.014061174
1.96505752
1.91211676
1.862382278
1.819683659
1.782173891
1.744867997
1.707356828
1.670840877
1.634108233
1.59592118
1.559623982
1.528147833
1.4986128
1.469951891
1.441335449
1.411591367
1.381625512
1.352279801
1.32437696
1.298323792
1.273837191
1.248606806
1.226531952
1.191240537
1.002769039
1.006664765
1.101732474
1.504445796
1.973620427
2.098010433
2.08137166
2.042018331
1.986766754
1.931168711
1.882321523
1.837147425
1.793811021
1.752866801
1.714363649
1.677963763
1.643287702
1.607848982
1.572226319
1.537820266
1.504764924
1.473135631
1.443672404
1.415600352
1.387614053
1.358825525
1.329601157
1.30152433
1.275246897
1.253249987
1.234461855
1.198811465
1.026213339
1.064366485
1.365676689
1.898023487
2.12623153
2.119085677
2.086422796
2.035296703
1.982372808
1.932769253
1.887943779
1.84887425
1.810509099
1.769123061
1.727187367
1.686261056
1.648201139
1.61454427
1.581905841
1.548266175
1.51483511
1.482697023
1.452493983
1.423137053
1.393255117
1.363863361
1.335934217
1.309124728
1.283266945
1.258183213
1.236757684
1.201938442
1.065615525
1.242909709
1.734138883
2.163319994
2.182364628
2.151244663
2.097511764
2.040890972
1.989355813
1.942832868
1.901872501
1.860512866
1.819329834
1.782256427
1.742182708
1.698513799
1.657228111
1.618990476
1.582999795
1.549763396
1.518270014
1.488654502
1.460530794
1.431196967
1.399940222
1.367952933
1.337297268
1.309405429
1.285489523
1.26181066
1.241438364
1.207375975
1.175562184
1.605093699
2.0648158
2.23246517
2.226188051
2.194044722
2.139241288
2.078003889
2.012936935
1.959957213
1.915542204
1.872329224
1.829153387
1.786695671
1.744806875
1.70430383
1.664943093
1.626289523
1.589974186
1.557777612
1.528570401
1.499838957
1.469031061
1.436558459
1.406094587
1.375508838
1.345044417
1.316511806
1.290565376
1.264271422
1.243004486
1.208917279
1.458288603
2.027278658
2.252895909
2.250852639
2.225631436
2.180795902
2.127607479
2.072193131
2.022813288
1.976661987
1.93081269
1.885510099
1.839639008
1.79356
1.750610269
1.710910819
1.674208439
1.639905529
1.60439582
1.56864198
1.536141051
1.507107683
1.477144758
1.444165806
1.412908812
1.38939254
1.36208206
1.330297189
1.298714478
1.269803438
1.248888715
1.215890743
1.861564048
2.327993112
2.346400198
2.297536743
2.233098026
2.178748309
2.127209234
2.07654842
2.031880734
1.992510988
1.95074516
1.901674278
1.85207404
1.803568441
1.759521106
1.71970916
1.680820338
1.642508282
1.606241334
1.571788627
1.538747601
1.509315275
1.483054963
1.455069212
1.423942482
1.39010797
1.35742854
1.326292532
1.29836534
1.271093063
1.250202519
1.223157258
2.201572873
2.393170866
2.382420693
2.345742637
2.282052772
2.214088275
2.154310328
2.101347406
2.045756508
1.99363236
1.947509094
1.90423386
1.861473429
1.817033064
1.772089212
1.730347722
1.687779179
1.645936369
1.609115341
1.577074768
1.547615074
1.519655286
1.491487466
1.460773724
1.427876304
1.392376921
1.358514953
1.328878658
1.302923129
1.276534339
1.255903259
1.224254139
2.405033678
2.405127135
2.380649234
2.331659112
2.272157845
2.208602456
2.149834245
2.09628232
2.04880845
2.001144144
1.956484444
1.916915273
1.873958305
1.8277423
1.780728121
1.736966958
1.695995042
1.653892826
1.616621603
1.584695279
1.555665973
1.526006122
1.496076923
1.466021958
1.433346147
1.39886948
1.365041364
1.334481691
1.30704059
1.281914703
1.26172567
1.226970009
2.464557319
2.387831903
2.329049824
2.274026129
2.216014276
2.157882412
2.103055668
2.054454466
2.008598077
1.969182125
1.929080818
1.883437863
1.83633516
1.790773585
1.744847706
1.706951454
1.675397367
1.64043727
1.606777329
1.574504586
1.540694016
1.503430159
1.46854884
1.434471858
1.400646759
1.369026158
1.339639312
1.312555864
1.28860055
1.26757829
1.230967527
2.529754069
2.449898083
2.369471002
2.30253309
2.24448657
2.188565443
2.13223607
2.072239895
2.018785998
1.970739504
1.926859893
1.891988489
1.856540928
1.813624918
1.766947251
1.719282085
1.674348275
1.635124423
1.600431408
1.567415553
1.53566571
1.504788014
1.471844896
1.439345717
1.407108321
1.373846226
1.343319093
1.316503946
1.293099373
1.278242098
1.243705587
2.51416674
2.442468231
2.367418148
2.299036268
2.238132701
2.180870324
2.12517722
2.07525211
2.028543457
1.980771208
1.937426109
1.896674981
1.851478694
1.806204403
1.761925596
1.719467606
1.678311044
1.638303143
1.602757828
1.569389553
1.538446131
1.508711834
1.475980029
1.443564106
1.412146135
1.380860522
1.350581896
1.322632848
1.299353001
1.277836351
1.239857824
2.509493419
2.445429972
2.377494803
2.309108751
2.244364005
2.184857051
2.129250028
2.08050142
2.036735209
1.997164661
1.953841158
1.90415357
1.855397595
1.808483149
1.765378259
1.722266348
1.683528664
1.653582226
1.621483251
1.589069807
1.557891902
1.525525071
1.486266932
1.448447751
1.413765537
1.381857537
1.356754255
1.334063892
1.307423395
1.281231717
1.241902968
2.517001653
2.450180583
2.388621271
2.330670361
2.272662029
2.210501791
2.150383956
2.094072249
2.045307639
2.000156331
1.95323124
1.90466409
1.865056789
1.828727673
1.78550011
1.73878201
1.692319003
1.651276914
1.616258191
1.584160129
1.552311669
1.520693604
1.489553061
1.453920424
1.420371707
1.389856713
1.361281191
1.333495957
1.305705078
1.288105186
1.255504904
2.53516467
2.464994236
2.401176286
2.336254214
2.268814657
2.204905089
2.146773777
2.096288737
2.048746151
2.001517037
1.956386588
1.913481941
1.870237265
1.825039168
1.779740459
1.735099369
1.693733371
1.653270308
1.617620561
1.585559632
1.55356783
1.521116046
1.494358571
1.469595663
1.439097522
1.405009786
1.367265453
1.335525978
1.309752831
1.288118066
1.251349562
2.553546799
2.485160359
2.415952269
2.34602483
2.276480541
2.211433474
2.153168615
2.102501309
2.054778008
2.005425008
1.959617175
1.919067457
1.874246978
1.827209575
1.781981205
1.738917126
1.698191691
1.658795019
1.622059978
1.588898988
1.557114821
1.526581881
1.496987468
1.465733888
1.433618542
1.399545301
1.366709716
1.337106809
1.311204173
1.290191716
1.252928729
2.561386147
2.492769754
2.420226512
2.353479474
2.299000704
2.242591513
2.180329419
2.118711829
2.063762646
2.014294766
1.968240493
1.925382328
1.879424079
1.830481282
1.785569073
1.74490849
1.70477852
1.666470929
1.629159615
1.595042345
1.562619931
1.531766834
1.500115063
1.467602264
1.434832058
1.401741057
1.371174445
1.343483657
1.313746217
1.294260432
1.265033649
2.567130617
2.501101913
2.434363478
2.370068411
2.304625679
2.237903246
2.17531755
2.119115579
2.065549514
2.021635345
1.981331173
1.934957496
1.887007102
1.839175196
1.794495712
1.751752735
1.707449675
1.669447661
1.642161375
1.61089157
1.57839815
1.546698171
1.514504103
1.481829396
1.448860499
1.416894367
1.38711938
1.358368603
1.327167813
1.299641798
1.260180904
2.573970651
2.509910614
2.451425504
2.386342667
2.313406684
2.243488245
2.179670985
2.12325215
2.073278164
2.025370682
1.97719158
1.930104019
1.88649507
1.847190143
1.804626302
1.757169423
1.712136845
1.67450467
1.638522795
1.603808802
1.570871017
1.538630605
1.506224029
1.473856545
1.442054099
1.411518412
1.381926806
1.352434159
1.322838125
1.29913338
1.259915832
2.585930788
2.521063397
2.456686423
2.387317449
2.315794766
2.250488654
2.190340504
2.132817924
2.081016575
2.029225088
1.979819485
1.935182834
1.895253228
1.853946299
1.808404749
1.761097745
1.717595778
1.67821791
1.64007825
1.605017604
1.571902466
1.539188369
1.506439402
1.474005138
1.442577318
1.412597421
1.382966169
1.353498392
1.32504288
1.301572237
1.262733647
2.597927822
2.530165089
2.461167654
2.392186473
2.32475283
2.258002996
2.197330831
2.143052121
2.0932457
2.047564909
2.001988188
1.957665105
1.913882996
1.869033244
1.823256105
1.778868726
1.736679005
1.695974542
1.657493709
1.621466193
1.586811975
1.552739922
1.519626083
1.487946923
1.457291713
1.426909284
1.396367534
1.36670517
1.338330798
1.314311
1.275182816
2.604915478
2.536256351
2.466941548
2.39725741
2.329318566
2.267077847
2.207817367
2.146657825
2.09001747
2.039202806
1.992089514
1.947409229
1.904178982
1.859730881
1.814819344
1.771846254
1.729130418
1.687401071
1.64883185
1.61318696
1.579279357
1.545444362
1.51226037
1.480861169
1.450487302
1.419948739
1.389437677
1.360245609
1.332275774
1.30819748
1.268857448
2.612549069
2.5424199
2.474175636
2.406733136
2.338459313
2.272544313
2.212007692
2.152665269
2.094415356
2.042078763
1.993643977
1.947081798
1.903200556
1.859152069
1.814767114
1.772422728
1.730629361
1.68791893
1.64879578
1.612854068
1.579060356
1.545247977
1.511540926
1.480062078
1.449976194
1.420056014
1.389432966
1.360345774
1.332382004
1.308273783
1.268461466
2.634375479
2.555333771
2.482015448
2.413717743
2.347062047
2.280048672
2.214922533
2.163906367
2.117280951
2.065633876
2.014500554
1.959254416
1.907551817
1.862657954
1.819145486
1.774889862
1.735448794
1.701491951
1.664558027
1.628140546
1.59362611
1.558948055
1.520812498
1.483698753
1.451128997
1.423722238
1.399951108
1.372961925
1.344243552
1.319585484
1.278775016
2.622288094
2.557963999
2.49038651
2.422400558
2.354660851
2.288359732
2.225781476
2.168348596
2.110595438
2.054731221
2.00316264
1.958358766
1.911167908
1.866647796
1.823662626
1.780895876
1.73937737
1.696689964
1.656436763
1.61895457
1.58324355
1.550537267
1.518565861
1.485908362
1.454539151
1.425459761
1.396483746
1.366899616
1.336966618
1.311379318
1.27252246
2.621594088
2.562100961
2.506860387
2.44078735
2.368472038
2.300393711
2.237092886
2.173263532
2.112447336
2.055866015
2.002735583
1.961189572
1.926694025
1.885083421
1.840234709
1.794030593
1.745048007
1.697503717
1.655721128
1.618142375
1.582215343
1.548768212
1.523746808
1.498738567
1.469066172
1.43621837
1.399969321
1.366243021
1.335592407
1.310096089
1.271615786
2.631885437
2.565959254
2.500223569
2.435097958
2.37049054
2.305894772
2.241995286
2.177196744
2.114788351
2.058278894
2.007871199
1.963672201
1.918932704
1.875106772
1.83296444
1.790210915
1.742985884
1.697392258
1.657142964
1.619418721
1.583864857
1.552302126
1.522655579
1.492109017
1.460645641
1.427546682
1.394912194
1.364684189
1.335617349
1.311066915
1.272647063
2.640905189
2.569006178
2.500281767
2.436574203
2.374643855
2.310816793
2.24859149
2.186124861
2.120710721
2.062293492
2.012507055
1.965721682
1.919410965
1.875132116
1.832952751
1.790608479
1.747117184
1.702590595
1.661007938
1.621810242
1.586822073
1.555488814
1.523961226
1.492980512
1.46105913
1.42815369
1.397117477
1.367653179
1.337541731
1.31289781
1.273613282
2.642010427
2.576490185
2.510704758
2.445259689
2.381171838
2.316332908
2.249914346
2.188712666
2.138461609
2.084919223
2.033816159
1.985464498
1.939562723
1.893160397
1.841879529
1.792320128
1.752564263
1.717126582
1.676537598
1.637727853
1.603443231
1.571153483
1.539072938
1.506759376
1.473752277
1.441312624
1.409995171
1.378834618
1.347807067
1.322875742
1.283131736
2.644768382
2.571998744
2.504701251
2.442817442
2.381199119
2.316854569
2.252801834
2.192254113
2.12908637
2.072990173
2.021646729
1.973255017
1.92744108
1.882744731
1.838814227
1.79519223
1.75347493
1.709217294
1.666530668
1.62788151
1.593380966
1.560929311
1.529140009
1.497256755
1.4650361
1.43311447
1.40143902
1.369911787
1.339145638
1.314000295
1.27441296
2.643442633
2.574294133
2.507647326
2.44707085
2.386592751
2.322485901
2.256308484
2.193299567
2.129864984
2.07388076
2.022393621
1.973993511
1.927913524
1.883799535
1.841587094
1.799978471
1.755328858
1.709771528
1.667033477
1.628405382
1.593455923
1.560611177
1.528564723
1.496707481
1.464906338
1.43319205
1.401294304
1.369652746
1.338823676
1.313392576
1.274017527
2.641829681
2.581105632
2.531156336
2.473331698
2.411625049
2.346161994
2.272786174
2.198011222
2.144125143
2.091873594
2.04091981
1.992901701
1.947562073
1.904395014
1.862148829
1.818359735
1.771795753
1.725667778
1.682316337
1.642763967
1.60681741
1.573306552
1.541004498
1.509355414
1.477796743
1.44571418
1.413053925
1.380852297
1.349280412
1.323199927
1.283616736
2.647771934
2.581932121
2.517416431
2.455078473
2.392363657
2.327013028
2.25882926
2.194172753
2.133390358
2.078137673
2.026708408
1.978965669
1.93439604
1.891767993
1.849069009
1.804401394
1.75815285
1.712556909
1.669397847
1.629739021
1.593631973
1.560132781
1.528241734
1.497368257
1.466560023
1.434987695
1.402621324
1.370533493
1.338858499
1.312780013
1.273649715
2.659345315
2.584197639
2.515691707
2.452366415
2.389418262
2.323801411
2.257207598
2.193177789
2.131078962
2.075037167
2.024540423
1.978004092
1.93413157
1.891364291
1.847727295
1.802282324
1.756027072
1.710741734
1.66773941
1.62795738
1.591565566
1.557886343
1.526112691
1.495580423
1.465116991
1.433785087
1.401490477
1.369379069
1.337560513
1.31146323
1.272422484
2.661424869
2.587999002
2.520162999
2.456143337
2.392589578
2.327677615
2.262968574
2.198445082
2.135570213
2.078547317
2.027732367
1.981697295
1.938292242
1.895454141
1.851326409
1.805414075
1.758683409
1.712982372
1.669587444
1.629384043
1.592636237
1.558852779
1.52721338
1.496867989
1.466536248
1.43525247
1.402866348
1.370645071
1.338688101
1.312586808
1.273522251
2.681335317
2.609504188
2.5428938
2.478728209
2.414538867
2.349850932
2.284415248
2.217919664
2.15446944
2.097510868
2.047219087
2.0015055
1.957684796
1.913792463
1.868550153
1.821809411
1.774657524
1.728605092
1.68454624
1.64335991
1.605746965
1.57165551
1.540190178
1.510059019
1.479716184
1.44812519
1.415232893
1.382518087
1.350183302
1.323915513
1.284505151
2.655828065
2.584464585
2.517649977
2.453104637
2.389329396
2.326427236
2.262532421
2.197004312
2.133745195
2.076629508
2.026679725
1.981934775
1.93923373
1.896262463
1.851468738
1.804726806
1.757513167
1.711688379
1.667940165
1.627022341
1.58963631
1.555866134
1.524855123
1.495365378
1.465721276
1.434716451
1.402180476
1.369760108
1.337552408
1.311533493
1.272711673
)
;

boundaryField
{
    inlet
    {
        type            fixedValue;
        value           nonuniform 0();
    }
    outlet
    {
        type            zeroGradient;
    }
    bottom
    {
        type            slip;
    }
    top
    {
        type            slip;
    }
    obstacle
    {
        type            zeroGradient;
    }
    defaultFaces
    {
        type            empty;
    }
    procBoundary35to29
    {
        type            processor;
        value           nonuniform List<scalar> 
33
(
0.4572250603
0.4542184879
0.4536364472
0.4556581656
0.4836469548
0.6452699254
0.9036923345
1.03961845
1.043653775
1.032039618
1.010319689
0.9955177693
1.012226414
0.5318486768
0.5267643053
0.5211506964
0.5163124628
0.5129280469
0.50972068
0.5059497964
0.5018662227
0.4989623256
0.4957439157
0.4921721421
0.4867326201
0.4829950081
0.4815254225
0.4796489535
0.4766944158
0.4723895349
0.4697435735
0.4670417968
0.4670417968
)
;
    }
    procBoundary35to34
    {
        type            processor;
        value           nonuniform List<scalar> 
71
(
0.5471586061
0.5582092216
0.5696106872
0.580262859
0.5927996611
0.605253391
0.6170005703
0.6291015236
0.6407903176
0.6532132417
0.6654657475
0.6793869111
0.6921645837
0.7053073688
0.7189494755
0.7316173274
0.7465762621
0.7595467219
0.7744395372
0.7880497479
0.8028275939
0.8174994938
0.8321572855
0.8475699077
0.8618384253
0.8775799995
0.8929882472
0.9084871227
0.9232103185
0.9377565783
0.9531380265
0.9707699581
0.9868873037
0.9995071674
1.011901843
1.027896223
1.04913461
1.081068491
1.1419154
1.337025528
1.765474254
2.255588569
2.531094082
2.531094082
2.573706628
2.569961551
2.572707002
2.604412801
2.610415046
2.61567321
2.624497242
2.63278629
2.643914455
2.655886312
2.666360094
2.673000565
2.682804294
2.710252852
2.694043028
2.694240238
2.703634861
2.713173069
2.714735639
2.719734024
2.720310164
2.726621997
2.727850927
2.733865449
2.738555364
2.760492548
2.733751128
)
;
    }
}


// ************************************************************************* //
