/*--------------------------------*- C++ -*----------------------------------*\
  =========                 |
  \\      /  F ield         | OpenFOAM: The Open Source CFD Toolbox
   \\    /   O peration     | Website:  https://openfoam.org
    \\  /    A nd           | Version:  7
     \\/     M anipulation  |
\*---------------------------------------------------------------------------*/
FoamFile
{
    version     2.0;
    format      ascii;
    class       volVectorField;
    location    "1";
    object      U;
}
// * * * * * * * * * * * * * * * * * * * * * * * * * * * * * * * * * * * * * //

dimensions      [0 1 -1 0 0 0 0];

internalField   nonuniform List<vector> 
2222
(
(3 -2.45477079e-15 0)
(3 -1.329501829e-15 0)
(3 -2.349408449e-16 0)
(3 -3.644232016e-16 0)
(3 -1.449257305e-15 0)
(3 -1.985516531e-15 0)
(3 -3.06784026e-15 0)
(3 -3.5690971e-15 0)
(3 -4.012937273e-15 0)
(3 -4.295782929e-15 0)
(3 -4.111075415e-15 0)
(3 -4.027365193e-15 0)
(3 -4.418416056e-15 0)
(3 -4.914862236e-15 0)
(3 -4.85703823e-15 0)
(3 -5.535689939e-15 0)
(3 -5.588622564e-15 0)
(3 -4.892844766e-15 0)
(3 -4.47191649e-15 0)
(3 -5.124700937e-15 0)
(3 -6.025180532e-15 0)
(3 -6.06513387e-15 0)
(3 -1.427980354e-15 0)
(3 -1.349965987e-15 0)
(3 -2.818730885e-16 0)
(3 1.209303204e-16 0)
(3 2.010533746e-16 0)
(3 5.585556775e-16 0)
(3 9.52091916e-17 0)
(3 -8.0561028e-17 0)
(3 -4.860005291e-16 0)
(3 -1.142306082e-15 0)
(3 -1.3923973e-15 0)
(3 -1.508864957e-15 0)
(3 -1.848252606e-15 0)
(3 -2.332654674e-15 0)
(3 -3.096730689e-15 0)
(3 -4.084403932e-15 0)
(3 -4.577842932e-15 0)
(3 -5.237963354e-15 0)
(3 -5.179540542e-15 0)
(3 -5.361079654e-15 0)
(3 -5.776093902e-15 0)
(3 -4.961253095e-15 0)
(3 -5.779784549e-15 0)
(3 -5.672602789e-15 0)
(3 -5.266006735e-15 0)
(3 -4.554698379e-15 0)
(3 -3.910067578e-15 0)
(3 -3.540587116e-15 0)
(3 -3.672297303e-15 0)
(3 -3.766738638e-15 0)
(3 -4.350157812e-15 0)
(3 -5.215232223e-15 0)
(3 -6.286330155e-15 0)
(3 -6.441045709e-15 0)
(3 -6.080958866e-15 0)
(3 -5.536458614e-15 0)
(3 -5.536564787e-15 0)
(3 -5.152448965e-15 0)
(3 -5.350169135e-15 0)
(3 -4.899888288e-15 0)
(3 -4.716960824e-15 0)
(3 -4.043774049e-15 0)
(3 -2.549402562e-15 0)
(3 -1.702761373e-15 0)
(3 -1.18607747e-15 0)
(3 -1.517491737e-15 0)
(3 -1.221736383e-15 0)
(3 -2.043673529e-16 0)
(3 -2.151459401e-15 0)
(3 -3.586033297e-15 0)
(3 -4.087221554e-15 0)
(3 -4.023119277e-15 0)
(3 -4.397252801e-15 0)
(3 -4.103945667e-15 0)
(3 -5.698795264e-15 0)
(3 -6.127218818e-15 0)
(3 -5.629370917e-15 0)
(3 -5.259420041e-15 0)
(3 -5.072893336e-15 0)
(3 -5.055448536e-15 0)
(3 -5.731461711e-15 0)
(3 -6.31371669e-15 0)
(3 -6.547521938e-15 0)
(3 -6.260146847e-15 0)
(3 -6.144748505e-15 0)
(3 -6.16694808e-15 0)
(3 -6.025700156e-15 0)
(3 -1.29252611e-15 0)
(3 -1.043437901e-15 0)
(3 -1.124348767e-15 0)
(3 -1.054282846e-15 0)
(3 -8.795726928e-16 0)
(3 -6.606683388e-16 0)
(3 4.775391606e-16 0)
(3 1.622640005e-16 0)
(3 -6.088301664e-16 0)
(3 -1.185021593e-15 0)
(3 -1.808061107e-15 0)
(3 -3.337044766e-15 0)
(3 -4.481402232e-15 0)
(3 -4.360508138e-15 0)
(3 -4.335019821e-15 0)
(3 -3.767111571e-15 0)
(3 -4.174501569e-15 0)
(3 -4.738929389e-15 0)
(3 -6.141607993e-15 0)
(3 -5.99127829e-15 0)
(3 -5.007788223e-15 0)
(3 -3.688222871e-15 0)
(3 -3.448878543e-15 0)
(3 -3.746503218e-15 0)
(3 -4.163999645e-15 0)
(3 -4.440055989e-15 0)
(3 -5.106836303e-15 0)
(3 -4.880517701e-15 0)
(3 -4.890426468e-15 0)
(3 -5.198565145e-15 0)
(3 -6.11335512e-15 0)
(3 -6.945442193e-15 0)
(3 -6.526360871e-15 0)
(3 -6.069689192e-15 0)
(3 -5.923855852e-15 0)
(3 -4.98416819e-15 0)
(3 -4.431553248e-15 0)
(3 -3.474718765e-15 0)
(3 -2.512705985e-15 0)
(3 -2.27258063e-15 0)
(3 -1.098290545e-15 0)
(3 -2.474700581e-16 0)
(3 -6.282577504e-16 0)
(3 -8.005101186e-16 0)
(3 -1.628918866e-15 0)
(3 -2.809825001e-15 0)
(3 -2.894100913e-15 0)
(3 -2.582106738e-15 0)
(3 -3.035942946e-15 0)
(3 -3.257997693e-15 0)
(3 -3.365658828e-15 0)
(3 -3.550912832e-15 0)
(3 -4.145871209e-15 0)
(3 -4.344351032e-15 0)
(3 -3.817338695e-15 0)
(3 -3.542204171e-15 0)
(3 -3.426185438e-15 0)
(3 -3.376204811e-15 0)
(3 -3.894578179e-15 0)
(3 -4.041655979e-15 0)
(3 -3.990082168e-15 0)
(3 -3.866266262e-15 0)
(3 -3.852894233e-15 0)
(3 -3.677375876e-15 0)
(3 -2.782781345e-15 0)
(3 -2.081884601e-15 0)
(3 -2.623155904e-15 0)
(3 -1.006440232e-15 0)
(3 -5.451618391e-16 0)
(3 5.938308865e-16 0)
(3 6.806470959e-16 0)
(3 9.240491107e-16 0)
(3 6.435134606e-16 0)
(3 3.800080731e-16 0)
(3 -1.652071681e-17 0)
(3 -1.512380353e-15 0)
(3 -2.32163946e-15 0)
(3 -3.348897113e-15 0)
(3 -2.866918156e-15 0)
(3 -2.845090286e-15 0)
(3 -2.745852252e-15 0)
(3 -2.835026796e-15 0)
(3 -2.768194518e-15 0)
(3 -4.596297529e-15 0)
(3 -4.434153225e-15 0)
(3 -5.145569095e-15 0)
(3 -5.751802116e-15 0)
(3 -5.480631643e-15 0)
(3 -5.0601896e-15 0)
(3 -5.01277179e-15 0)
(3 -5.676178023e-15 0)
(3 -7.410475293e-15 0)
(3 -7.414807407e-15 0)
(3 -7.08209272e-15 0)
(3 -6.714066402e-15 0)
(3 -6.64566571e-15 0)
(3 -6.419916118e-15 0)
(3 -6.268688832e-15 0)
(3 -6.932366059e-15 0)
(3 -6.9947268e-15 0)
(3 -6.767639591e-15 0)
(3 -5.860072103e-15 0)
(3 -4.794457277e-15 0)
(3 -4.023809826e-15 0)
(3 -3.10989393e-15 0)
(3 -1.872492764e-15 0)
(3 -2.173579514e-15 0)
(3 -1.783047709e-15 0)
(3 -1.437541861e-15 0)
(3 -2.603149774e-15 0)
(3 -3.503630732e-15 0)
(3 -3.562333568e-15 0)
(3 -3.739521462e-15 0)
(3 -2.771070183e-15 0)
(3 -1.671279467e-15 0)
(3 -1.432916905e-15 0)
(3 -1.174655908e-15 0)
(3 -1.52401082e-15 0)
(3 -3.086747994e-15 0)
(3 -3.606881018e-15 0)
(3 -5.27347729e-15 0)
(3 -5.221152711e-15 0)
(3 -4.83571954e-15 0)
(3 -4.119215418e-15 0)
(3 -3.104701869e-15 0)
(3 -2.333704047e-15 0)
(3 -2.607472918e-15 0)
(3 -3.790502152e-15 0)
(3 -3.513697073e-15 0)
(3 -2.385505942e-15 0)
(3 -1.593855764e-15 0)
(3 -2.151325323e-15 0)
(3 1.80314157e-15 0)
(3 2.116660621e-15 0)
(3 2.981332185e-15 0)
(3 4.087480693e-15 0)
(3 4.22484296e-15 0)
(3 4.170586386e-15 0)
(3 3.112857241e-15 0)
(3 1.977414875e-15 0)
(3 1.13366719e-15 0)
(3 2.34277368e-16 0)
(3 1.828765918e-16 0)
(3 8.824696389e-16 0)
(3 5.660988128e-16 0)
(3 1.90897363e-17 0)
(3 -8.574920117e-16 0)
(3 -3.855839292e-15 0)
(3 -5.357319467e-15 0)
(3 -5.041547309e-15 0)
(3 -3.364327232e-15 0)
(3 -3.130232054e-15 0)
(3 -3.109389442e-15 0)
(3 -2.88666413e-15 0)
(3 -3.033485656e-15 0)
(3 -3.948601129e-15 0)
(3 -5.464179822e-15 0)
(3 -5.886266041e-15 0)
(3 -5.80801764e-15 0)
(3 -6.018641704e-15 0)
(3 -6.172999589e-15 0)
(3 -6.31025459e-15 0)
(3 -5.780769409e-15 0)
(3 -5.673953641e-15 0)
(3 -5.747492266e-15 0)
(3 -5.569026049e-15 0)
(3 -5.20453608e-15 0)
(3 -4.922730949e-15 0)
(3 -4.561692938e-15 0)
(3 -4.220821712e-15 0)
(3 -3.886101645e-15 0)
(3 -3.553439808e-15 0)
(3 -3.392119399e-15 0)
(3 -2.985606859e-15 0)
(3 -2.922229346e-15 0)
(3 -4.22945141e-15 0)
(3 -4.565292606e-15 0)
(3 -4.45247426e-15 0)
(3 -4.654940656e-15 0)
(3 -3.787194294e-15 0)
(3 -1.187760609e-15 0)
(3 -8.50627049e-16 0)
(3 -1.299653324e-15 0)
(3 -1.520719458e-15 0)
(3 -1.828890581e-15 0)
(3 -1.551677317e-15 0)
(3 -2.255506606e-15 0)
(3 -2.410004607e-15 0)
(3 -2.88411708e-15 0)
(3 -3.261540262e-15 0)
(3 -2.629387636e-15 0)
(3 -2.117082141e-15 0)
(3 -2.230862001e-15 0)
(3 -2.287751099e-15 0)
(3 -2.198935445e-15 0)
(3 -2.799990314e-15 0)
(3 -2.718628593e-15 0)
(3 -3.065995957e-15 0)
(3 5.34152561e-15 0)
(3 5.612058921e-15 0)
(3 5.483825202e-15 0)
(3 4.502193926e-15 0)
(3 4.730380465e-15 0)
(3 4.01650385e-15 0)
(3 4.613834614e-15 0)
(3 5.325573229e-15 0)
(3 5.638874668e-15 0)
(3 4.916119407e-15 0)
(3 5.128295257e-15 0)
(3 5.547362565e-15 0)
(3 4.441032416e-15 0)
(3 3.059734364e-15 0)
(3 1.392315364e-15 0)
(3 -3.186041654e-16 0)
(3 -2.058530086e-15 0)
(3 -2.442082265e-15 0)
(3 -2.188256538e-15 0)
(3 -1.272418014e-15 0)
(3 -1.915789157e-15 0)
(3 -2.424853139e-15 0)
(3 -2.845377148e-15 0)
(3 -4.170210082e-15 0)
(3 -4.852368169e-15 0)
(3 -4.301711836e-15 0)
(3 -3.786900359e-15 0)
(3 -3.648697032e-15 0)
(3 -3.878187155e-15 0)
(3 -4.904767755e-15 0)
(3 -5.933652756e-15 0)
(3 -5.736219464e-15 0)
(3 -5.725250355e-15 0)
(3 -5.542317757e-15 0)
(3 -4.787636555e-15 0)
(3 -4.143139767e-15 0)
(3 -3.576481391e-15 0)
(3 -3.990967225e-15 0)
(3 -4.245395709e-15 0)
(3 -4.669439377e-15 0)
(3 -3.767156992e-15 0)
(3 -2.511475487e-15 0)
(3 -2.850325135e-15 0)
(3 -3.367002667e-15 0)
(3 -3.52357562e-15 0)
(3 -2.9633424e-15 0)
(3 -2.136733882e-15 0)
(3 -2.207212471e-15 0)
(3 -2.528934635e-15 0)
(3 -1.378569976e-15 0)
(3 -6.272609435e-16 0)
(3 -4.445767611e-16 0)
(3 7.154852607e-16 0)
(3 2.019762757e-15 0)
(3 1.85486082e-15 0)
(3 1.931712702e-15 0)
(3 3.018670181e-16 0)
(3 -3.80780326e-16 0)
(3 -2.80878398e-16 0)
(3 -6.672415261e-17 0)
(3 -4.555585968e-16 0)
(3 -1.506851925e-16 0)
(3 3.605571579e-16 0)
(3 -1.109377987e-15 0)
(3 -2.054991761e-15 0)
(3 -1.578602336e-15 0)
(3 5.815970744e-15 0)
(3 5.689310735e-15 0)
(3 5.166442775e-15 0)
(3 4.678596544e-15 0)
(3 4.990723091e-15 0)
(3 4.861849343e-15 0)
(3 5.730917609e-15 0)
(3 6.113805987e-15 0)
(3 7.214439904e-15 0)
(3 7.909823661e-15 0)
(3 7.777222762e-15 0)
(3 6.669064495e-15 0)
(3 4.829597854e-15 0)
(3 3.629578667e-15 0)
(3 1.171939383e-15 0)
(3 3.356471984e-16 0)
(3 -4.206506505e-16 0)
(3 -9.199396452e-16 0)
(3 -1.922381811e-15 0)
(3 -2.583887865e-15 0)
(3 -3.805844694e-15 0)
(3 -4.579565493e-15 0)
(3 -4.317418762e-15 0)
(3 -3.557166791e-15 0)
(3 -2.663099208e-15 0)
(3 -2.805615641e-15 0)
(3 -3.528524362e-15 0)
(3 -4.328786435e-15 0)
(3 -5.128547336e-15 0)
(3 -5.678441824e-15 0)
(3 -5.836422941e-15 0)
(3 -5.857851749e-15 0)
(3 -3.937265329e-15 0)
(3 -3.595774994e-15 0)
(3 -3.206750151e-15 0)
(3 -3.123327259e-15 0)
(3 -2.639701212e-15 0)
(3 -3.240797774e-15 0)
(3 -3.349377276e-15 0)
(3 -3.503413474e-15 0)
(3 -4.169817478e-15 0)
(3 -5.614025096e-15 0)
(3 -4.29781635e-15 0)
(3 -2.069452338e-15 0)
(3 -9.012522501e-16 0)
(3 9.985778257e-17 0)
(3 -2.290564513e-16 0)
(3 -4.986174492e-16 0)
(3 -5.367347898e-16 0)
(3 -5.285216806e-16 0)
(3 -2.122773006e-16 0)
(3 4.404530408e-16 0)
(3 1.20229022e-15 0)
(3 1.705243566e-15 0)
(3 1.839241232e-15 0)
(3 1.906852398e-15 0)
(3 1.639774e-15 0)
(3 6.375744282e-16 0)
(3 2.316431557e-16 0)
(3 7.86919133e-17 0)
(3 -3.102016694e-16 0)
(3 -5.079764689e-16 0)
(3 -2.775956407e-16 0)
(3 -1.711939558e-17 0)
(3 -2.842242812e-16 0)
(3 2.47651277e-16 0)
(3 3.773221773e-15 0)
(3 4.046406539e-15 0)
(3 4.131103724e-15 0)
(3 5.346984571e-15 0)
(3 6.188507333e-15 0)
(3 7.10109381e-15 0)
(3 6.565845136e-15 0)
(3 5.65298981e-15 0)
(3 5.113810224e-15 0)
(3 6.666844501e-15 0)
(3 5.652878043e-15 0)
(3 4.493460156e-15 0)
(3 3.547062821e-15 0)
(3 1.711381462e-15 0)
(3 8.401434609e-16 0)
(3 2.992401595e-16 0)
(3 -3.436777504e-16 0)
(3 -1.652592319e-15 0)
(3 -2.393023767e-15 0)
(3 -3.298489152e-15 0)
(3 -3.429767253e-15 0)
(3 -3.122828157e-15 0)
(3 -3.095922631e-15 0)
(3 -3.376342227e-15 0)
(3 -3.579901098e-15 0)
(3 -3.82811255e-15 0)
(3 -3.378133669e-15 0)
(3 -4.232637205e-15 0)
(3 -4.468104688e-15 0)
(3 -3.250493752e-15 0)
(3 -1.917203505e-15 0)
(3 -1.588178534e-15 0)
(3 -1.315604353e-15 0)
(3 3.653660057e-16 0)
(3 5.290867755e-16 0)
(3 -8.156370453e-16 0)
(3 -2.927871093e-15 0)
(3 -3.380629972e-15 0)
(3 -3.155086636e-15 0)
(3 -2.934570192e-15 0)
(3 -3.397670018e-15 0)
(3 -4.748497695e-15 0)
(3 -4.484903944e-15 0)
(3 -2.722139278e-15 0)
(3 -1.734865819e-15 0)
(3 -2.618851691e-15 0)
(3 -3.473668553e-15 0)
(3 -2.77568949e-15 0)
(3 -2.248772629e-15 0)
(3 -2.306787022e-15 0)
(3 -1.273577587e-15 0)
(3 6.044539822e-16 0)
(3 5.87960297e-16 0)
(3 8.827804849e-16 0)
(3 2.04208539e-16 0)
(3 -3.348649575e-16 0)
(3 -1.097599648e-15 0)
(3 1.614426954e-16 0)
(3 -4.58858387e-17 0)
(3 -1.018316802e-15 0)
(3 -9.513289757e-16 0)
(3 -1.429645924e-17 0)
(3 3.155883623e-16 0)
(3 2.914793422e-16 0)
(3 5.696106404e-16 0)
(3 7.081757633e-16 0)
(3 2.732295155e-15 0)
(3 2.491547917e-15 0)
(3 3.131256598e-15 0)
(3 4.304603603e-15 0)
(3 4.154684114e-15 0)
(3 4.654205478e-15 0)
(3 4.769263623e-15 0)
(3 4.128979192e-15 0)
(3 3.12217173e-15 0)
(3 3.383592033e-15 0)
(3 3.998768281e-15 0)
(3 3.754667825e-15 0)
(3 2.248897738e-15 0)
(3 1.61562318e-15 0)
(3 2.915678445e-16 0)
(3 -4.481473486e-16 0)
(3 -1.030144066e-15 0)
(3 -1.201426997e-15 0)
(3 -1.706347151e-15 0)
(3 -1.307228504e-15 0)
(3 -1.056605016e-15 0)
(3 -1.513426376e-15 0)
(3 -1.238381285e-15 0)
(3 -2.794689442e-15 0)
(3 -3.506355706e-15 0)
(3 -3.803791828e-15 0)
(3 -3.451303818e-15 0)
(3 -2.771237969e-15 0)
(3 -2.057515811e-15 0)
(3 -1.263217329e-15 0)
(3 -6.627779461e-16 0)
(3 -5.172587804e-16 0)
(3 -8.603545716e-16 0)
(3 -1.723437639e-15 0)
(3 -1.726434544e-15 0)
(3 -2.513221004e-15 0)
(3 -3.43708151e-15 0)
(3 -2.834284697e-15 0)
(3 -2.581025829e-15 0)
(3 -2.510671836e-15 0)
(3 -2.546669781e-15 0)
(3 -2.266375796e-15 0)
(3 -2.18338382e-15 0)
(3 -2.728246153e-15 0)
(3 -3.903961294e-15 0)
(3 -6.095896335e-15 0)
(3 -5.953452729e-15 0)
(3 -5.936029701e-15 0)
(3 -5.453105678e-15 0)
(3 -3.990089066e-15 0)
(3 -2.280081112e-15 0)
(3 -1.342934769e-15 0)
(3 -1.121588395e-15 0)
(3 -1.92133828e-15 0)
(3 -2.272066043e-15 0)
(3 -2.425988496e-15 0)
(3 -2.569874338e-15 0)
(3 -1.494813848e-15 0)
(3 -9.953759565e-16 0)
(3 -2.236143061e-16 0)
(3 -2.87313291e-17 0)
(3 1.927448141e-16 0)
(3 1.829326938e-16 0)
(3 6.953537686e-17 0)
(3 -2.632106119e-16 0)
(3 -9.513473279e-16 0)
(3 1.822405499e-15 0)
(3 -3.295219603e-16 0)
(3 -3.170999402e-16 0)
(3 -2.576972996e-16 0)
(3 1.34075746e-16 0)
(3 1.025978637e-16 0)
(3 1.463630746e-17 0)
(3 2.685920218e-16 0)
(3 9.564954275e-16 0)
(3 7.887635594e-16 0)
(3 1.330239063e-15 0)
(3 2.109814926e-15 0)
(3 -1.239149991e-16 0)
(3 -7.216700319e-16 0)
(3 -1.06313563e-15 0)
(3 -1.308892325e-15 0)
(3 -1.20470369e-15 0)
(3 -1.176274797e-15 0)
(3 -1.27779504e-15 0)
(3 -1.305807232e-15 0)
(3 -1.378018603e-15 0)
(3 -1.823295098e-15 0)
(3 -2.129797149e-15 0)
(3 -2.051608462e-15 0)
(3 -1.925179162e-15 0)
(3 -1.308320424e-15 0)
(3 -1.141578755e-15 0)
(3 -6.179044799e-16 0)
(3 -7.924518165e-16 0)
(3 -1.808935584e-15 0)
(3 -3.070195936e-15 0)
(3 -3.427806784e-15 0)
(3 -3.580384832e-15 0)
(3 -4.713357689e-15 0)
(3 -4.906857474e-15 0)
(3 -4.332268741e-15 0)
(3 -4.062873609e-15 0)
(3 -3.628821927e-15 0)
(3 -3.856527077e-15 0)
(3 -3.703560182e-15 0)
(3 -3.503447687e-15 0)
(3 -2.828107278e-15 0)
(3 -2.788382341e-15 0)
(3 -3.22822536e-15 0)
(3 -4.39518821e-15 0)
(3 -4.906123764e-15 0)
(3 -4.344504832e-15 0)
(3 -4.352103511e-15 0)
(3 -3.762192667e-15 0)
(3 -2.819299038e-15 0)
(3 -3.425274919e-15 0)
(3 -3.178016029e-15 0)
(3 -2.565618623e-15 0)
(3 -2.45793083e-15 0)
(3 -1.828221001e-15 0)
(3 -1.247853996e-15 0)
(3 -2.010855349e-16 0)
(3 -9.03575458e-16 0)
(3 -1.830378844e-15 0)
(3 -2.043624239e-15 0)
(3 -2.293855938e-15 0)
(3 -2.281497027e-15 0)
(3 -2.74953768e-15 0)
(3 -3.605167234e-15 0)
(3 -3.973610036e-15 0)
(3 -3.522259766e-15 0)
(3 1.326854809e-15 0)
(3 1.103714171e-15 0)
(3 1.777511336e-16 0)
(3 -5.913163785e-16 0)
(3 -2.755367198e-16 0)
(3 -6.329048847e-16 0)
(3 -1.152962408e-15 0)
(3 -1.401762846e-15 0)
(3 -1.090682925e-15 0)
(3 -5.200442203e-16 0)
(3 -7.505698863e-16 0)
(3 -2.360682096e-16 0)
(3 4.52034176e-16 0)
(3 1.166124271e-15 0)
(3 1.320166313e-15 0)
(3 1.134106341e-15 0)
(3 1.038283432e-15 0)
(3 8.691423343e-16 0)
(3 -2.087755614e-16 0)
(3 -1.934887563e-15 0)
(3 -1.589071824e-15 0)
(3 -2.148124146e-15 0)
(3 -2.476182871e-15 0)
(3 -1.861211178e-15 0)
(3 -1.823640759e-15 0)
(3 -1.900460077e-15 0)
(3 -1.849625213e-15 0)
(3 -1.340205198e-15 0)
(3 -7.42482877e-16 0)
(3 -1.511870548e-15 0)
(3 -2.58544526e-15 0)
(3 -3.006179192e-15 0)
(3 -3.706346069e-15 0)
(3 -4.45740557e-15 0)
(3 -4.904695343e-15 0)
(3 -5.046282846e-15 0)
(3 -3.974174612e-15 0)
(3 -5.02555848e-15 0)
(3 -5.822396786e-15 0)
(3 -5.415325093e-15 0)
(3 -4.237589948e-15 0)
(3 -3.623017682e-15 0)
(3 -3.577821372e-15 0)
(3 -4.246215499e-15 0)
(3 -3.759466184e-15 0)
(3 -3.216781837e-15 0)
(3 -2.714420047e-15 0)
(3 -2.676037598e-15 0)
(3 -2.638210598e-15 0)
(3 -2.891247425e-15 0)
(3 -3.129346689e-15 0)
(3 -2.606081442e-15 0)
(3 -2.170933886e-15 0)
(3 -1.87283928e-15 0)
(3 -1.600084794e-15 0)
(3 -2.815991622e-16 0)
(3 1.762107115e-15 0)
(3 1.291399488e-15 0)
(3 -1.16887698e-15 0)
(3 -2.90377009e-15 0)
(3 -2.832139786e-15 0)
(3 -2.385396301e-15 0)
(3 -3.170666787e-15 0)
(3 -4.220988125e-15 0)
(3 -4.542132942e-15 0)
(3 -4.191849555e-15 0)
(3 -2.544535643e-16 0)
(3 9.48825623e-16 0)
(3 7.145626178e-16 0)
(3 9.657794397e-16 0)
(3 4.71259478e-16 0)
(3 -6.561254401e-16 0)
(3 -1.210830705e-15 0)
(3 -2.203325914e-16 0)
(3 -2.140048395e-15 0)
(3 -2.6636716e-15 0)
(3 -2.785215299e-15 0)
(3 -1.484757233e-15 0)
(3 -4.605681979e-16 0)
(3 1.200728714e-15 0)
(3 1.646088906e-15 0)
(3 1.39559093e-15 0)
(3 8.862869377e-16 0)
(3 3.702022886e-16 0)
(3 -4.146098221e-16 0)
(3 -1.628549359e-15 0)
(3 -2.402993272e-15 0)
(3 -1.760807837e-15 0)
(3 -1.439320762e-15 0)
(3 -8.508173749e-16 0)
(3 -1.089143466e-16 0)
(3 -8.539543681e-16 0)
(3 -1.692998989e-15 0)
(3 -2.311178152e-15 0)
(3 -1.92065757e-15 0)
(3 -3.369454489e-15 0)
(3 -3.614353258e-15 0)
(3 -4.019814799e-15 0)
(3 -4.208037194e-15 0)
(3 -3.659181713e-15 0)
(3 -3.928420586e-15 0)
(3 -3.963965077e-15 0)
(3 -3.617563403e-15 0)
(3 -3.351010921e-15 0)
(3 -2.569322956e-15 0)
(3 -2.594089727e-15 0)
(3 -2.606644843e-15 0)
(3 -2.390474173e-15 0)
(3 -1.282066672e-15 0)
(3 -1.230531761e-15 0)
(3 -1.216479797e-15 0)
(3 -1.461128357e-15 0)
(3 -2.649217427e-15 0)
(3 -3.365492519e-15 0)
(3 -3.22771522e-15 0)
(3 -3.012837886e-15 0)
(3 -2.076647367e-15 0)
(3 -1.853251785e-15 0)
(3 -2.35051513e-15 0)
(3 -2.270869164e-15 0)
(3 -2.348271663e-15 0)
(3 -2.637939526e-15 0)
(3 -2.623301825e-15 0)
(3 -2.804636993e-15 0)
(3 -3.124676934e-15 0)
(3 -3.157066282e-15 0)
(3 -2.463412595e-15 0)
(3 -2.858145176e-15 0)
(3 -2.787673802e-15 0)
(3 -2.567117681e-15 0)
(3 -2.827055599e-15 0)
(3 -3.658461793e-15 0)
(3 -3.440098573e-15 0)
(3 -8.993969051e-16 0)
(3 -8.953055007e-16 0)
(3 -1.223953871e-15 0)
(3 -2.444855384e-15 0)
(3 -3.245381806e-15 0)
(3 -2.767273735e-15 0)
(3 6.467156875e-16 0)
(3 5.326898155e-16 0)
(3 -3.430358462e-16 0)
(3 -1.385150585e-15 0)
(3 -2.021389599e-15 0)
(3 -1.583347962e-15 0)
(3 -1.748553797e-15 0)
(3 -6.426053569e-16 0)
(3 -1.824101712e-16 0)
(3 -1.344059672e-15 0)
(3 -2.426919353e-15 0)
(3 -2.725589164e-15 0)
(3 -2.894357945e-15 0)
(3 -2.232850083e-15 0)
(3 -1.465915899e-15 0)
(3 -7.633368404e-16 0)
(3 -1.011473238e-15 0)
(3 -3.138417785e-16 0)
(3 -4.444073812e-17 0)
(3 -2.351276504e-16 0)
(3 -1.538329846e-15 0)
(3 -2.67045051e-15 0)
(3 -3.38597623e-15 0)
(3 -3.768992762e-15 0)
(3 -4.266043123e-15 0)
(3 -4.455199894e-15 0)
(3 -4.215327247e-15 0)
(3 -3.554315924e-15 0)
(3 -1.919405002e-15 0)
(3 -1.29783987e-15 0)
(3 -5.861319256e-16 0)
(3 -5.303578076e-16 0)
(3 -8.298168304e-16 0)
(3 -1.16359796e-15 0)
(3 -1.23728841e-15 0)
(3 -1.037599537e-15 0)
(3 -7.68266217e-16 0)
(3 -1.084372513e-15 0)
(3 -2.205875894e-15 0)
(3 -3.327811924e-15 0)
(3 -4.880929131e-15 0)
(3 -5.324870953e-15 0)
(3 -5.227145955e-15 0)
(3 -5.386387873e-15 0)
(3 -6.425012313e-15 0)
(3 -6.038532084e-15 0)
(3 -5.204764892e-15 0)
(3 -4.636948805e-15 0)
(3 -4.562102172e-15 0)
(3 -5.213078434e-15 0)
(3 -5.418910968e-15 0)
(3 -4.606577543e-15 0)
(3 -3.218824499e-15 0)
(3 -2.36363416e-15 0)
(3 -2.709364206e-15 0)
(3 -2.55988775e-15 0)
(3 -2.79789064e-15 0)
(3 -3.305780057e-15 0)
(3 -4.324683185e-15 0)
(3 -4.134514939e-15 0)
(3 -3.833476736e-15 0)
(3 -3.536535173e-15 0)
(3 -3.944245801e-15 0)
(3 -4.421747318e-15 0)
(3 -3.978455743e-15 0)
(3 -3.011041482e-15 0)
(3 -2.169721622e-15 0)
(3 -6.121728312e-16 0)
(3 -5.836589421e-16 0)
(3 -1.578231237e-15 0)
(3 -2.447141906e-15 0)
(3 -3.282147069e-15 0)
(3 -4.675015295e-15 0)
(3 -4.439921014e-15 0)
(3 -4.356074893e-15 0)
(3 -4.497930178e-15 0)
(3 -4.810360866e-15 0)
(3 -4.800443109e-15 0)
(3 -3.779644755e-15 0)
(3 -2.598467923e-15 0)
(3 -1.570280856e-15 0)
(3 -1.859723706e-15 0)
(3 -2.006730735e-15 0)
(3 -2.329429999e-15 0)
(3 -1.547290231e-15 0)
(3 -1.111822182e-15 0)
(3 -1.247427987e-15 0)
(3 -1.931719047e-15 0)
(3 -1.907003112e-15 0)
(3 -2.839690084e-15 0)
(3 -3.371742268e-15 0)
(3 -3.590123631e-15 0)
(3 -3.447482353e-15 0)
(3 -2.246625834e-15 0)
(3 -1.319538042e-15 0)
(3 -8.909411185e-16 0)
(3 -1.07943654e-15 0)
(3 -1.908727496e-15 0)
(3 -2.021146096e-15 0)
(3 -2.310937792e-15 0)
(3 -2.608252111e-15 0)
(3 -2.958656352e-15 0)
(3 -2.588298707e-15 0)
(3 -2.101007595e-15 0)
(3 -5.456943157e-16 0)
(3 4.403316496e-16 0)
(3 -9.284610012e-16 0)
(3 -2.082912392e-15 0)
(3 -2.754153466e-15 0)
(3 -3.243652289e-15 0)
(3 -3.779473265e-15 0)
(3 -5.083231648e-15 0)
(3 -5.60964728e-15 0)
(3 -5.826847418e-15 0)
(3 -5.78828881e-15 0)
(3 -6.066380229e-15 0)
(3 -5.103524056e-15 0)
(3 -2.753816517e-15 0)
(3 -1.273373459e-15 0)
(3 -1.384129619e-15 0)
(3 -2.524048448e-15 0)
(3 -2.686432435e-15 0)
(3 -3.671227918e-15 0)
(3 -3.061446737e-15 0)
(3 -4.993435786e-15 0)
(3 -6.352169832e-15 0)
(3 -6.430053228e-15 0)
(3 -6.11009079e-15 0)
(3 -5.462154143e-15 0)
(3 -4.857331178e-15 0)
(3 -4.852511644e-15 0)
(3 -4.24960795e-15 0)
(3 -3.866129068e-15 0)
(3 -3.741958321e-15 0)
(3 -4.638761595e-15 0)
(3 -4.500305402e-15 0)
(3 -3.863168717e-15 0)
(3 -3.613231792e-15 0)
(3 -2.328444752e-15 0)
(3 -2.431929663e-15 0)
(3 -2.667583415e-15 0)
(3 -3.311127399e-15 0)
(3 -2.831659448e-15 0)
(3 -2.303253185e-15 0)
(3 -2.132862241e-15 0)
(3 -2.694330535e-15 0)
(3 -2.894308147e-15 0)
(3 -1.658898906e-15 0)
(3 -1.343846962e-15 0)
(3 -1.419075177e-15 0)
(3 -6.869321221e-16 0)
(3 -4.988234226e-16 0)
(3 -7.142493482e-16 0)
(3 -1.763075578e-15 0)
(3 -2.940714974e-15 0)
(3 -3.510113204e-15 0)
(3 -2.553584248e-15 0)
(3 -1.284911847e-15 0)
(3 -1.603237751e-15 0)
(3 -9.689239476e-16 0)
(3 -8.88645862e-16 0)
(3 -8.271564747e-16 0)
(3 -7.102991032e-16 0)
(3 -1.163181105e-15 0)
(3 -1.858937546e-15 0)
(3 -3.144102886e-15 0)
(3 -4.262863419e-15 0)
(3 -4.210124164e-15 0)
(3 -4.425105505e-15 0)
(3 -3.564670728e-15 0)
(3 -3.069802284e-15 0)
(3 -2.987931865e-15 0)
(3 -3.340389966e-15 0)
(3 -3.885849556e-15 0)
(3 -4.391664842e-15 0)
(3 -4.524856631e-15 0)
(3 -4.068318513e-15 0)
(3 -4.62566408e-15 0)
(3 -6.344514549e-15 0)
(3 -8.021778846e-15 0)
(3 -7.910802795e-15 0)
(3 -6.524845799e-15 0)
(3 -5.045933502e-15 0)
(3 -4.25332262e-15 0)
(3 -4.637806006e-15 0)
(3 -4.803794127e-15 0)
(3 -5.152245e-15 0)
(3 -5.128779325e-15 0)
(3 -4.893940728e-15 0)
(3 -4.761244445e-15 0)
(3 -5.414160218e-15 0)
(3 -6.987697143e-15 0)
(3 -6.228800168e-15 0)
(3 -4.939778254e-15 0)
(3 -4.567000961e-15 0)
(3 -4.162381728e-15 0)
(3 -4.317347248e-15 0)
(3 -4.059901872e-15 0)
(3 -4.835907891e-15 0)
(3 -5.544850756e-15 0)
(3 -4.822186701e-15 0)
(3 -4.463848544e-15 0)
(3 -4.352253797e-15 0)
(3 -4.559599532e-15 0)
(3 -4.127589703e-15 0)
(3 -1.484887257e-15 0)
(3 -6.323352768e-16 0)
(3 -6.014183614e-16 0)
(3 -4.369829403e-16 0)
(3 -2.553228512e-16 0)
(3 -1.027389899e-15 0)
(3 -2.450858504e-15 0)
(3 -2.001418553e-15 0)
(3 -7.327326726e-16 0)
(3 -1.434591202e-17 0)
(3 -1.900557783e-16 0)
(3 -8.587311913e-16 0)
(3 -1.063875838e-15 0)
(3 -5.570483963e-16 0)
(3 -1.154567911e-15 0)
(3 -1.403323717e-15 0)
(3 -2.264455425e-15 0)
(3 -7.070353471e-16 0)
(3 4.600041591e-17 0)
(3 4.160833264e-16 0)
(3 -2.614989276e-16 0)
(3 -4.695665916e-16 0)
(3 -5.096908165e-16 0)
(3 2.443487389e-16 0)
(3 4.437058875e-16 0)
(3 -3.387861703e-16 0)
(3 -3.939929809e-15 0)
(3 -4.997007512e-15 0)
(3 -5.396727087e-15 0)
(3 -5.990928997e-15 0)
(3 -6.154865505e-15 0)
(3 -6.185047055e-15 0)
(3 -5.033482884e-15 0)
(3 -4.21271773e-15 0)
(3 -3.834167794e-15 0)
(3 -4.179333169e-15 0)
(3 -4.716916662e-15 0)
(3 -5.059930384e-15 0)
(3 -4.707080226e-15 0)
(3 -5.797989268e-15 0)
(3 -6.480636238e-15 0)
(3 -7.017810723e-15 0)
(3 -6.996190478e-15 0)
(3 -6.896398674e-15 0)
(3 -5.81916853e-15 0)
(3 -4.850305291e-15 0)
(3 -4.598564104e-15 0)
(3 -4.242410241e-15 0)
(3 -4.436346966e-15 0)
(3 -4.332660048e-15 0)
(3 -4.715630283e-15 0)
(3 -4.752284508e-15 0)
(3 -3.150341576e-15 0)
(3 -2.97973504e-15 0)
(3 -2.863801651e-15 0)
(3 -3.22933675e-15 0)
(3 -3.18271434e-15 0)
(3 -3.500188787e-15 0)
(3 -3.830206274e-15 0)
(3 -4.507298378e-15 0)
(3 -4.178301321e-15 0)
(3 -3.081903347e-15 0)
(3 -3.434723328e-15 0)
(3 -3.444317637e-15 0)
(3 -3.903375651e-15 0)
(3 -4.279865711e-15 0)
(3 -2.956001683e-15 0)
(3 -2.186122351e-15 0)
(3 -6.773832774e-16 0)
(3 -4.962400811e-16 0)
(3 -1.323150272e-16 0)
(3 9.234935046e-16 0)
(3 1.615541609e-15 0)
(3 1.580888761e-15 0)
(3 1.304013873e-15 0)
(3 9.754163955e-16 0)
(3 2.613762916e-16 0)
(3 -8.379228913e-16 0)
(3 -1.689644553e-15 0)
(3 -2.228408258e-15 0)
(3 -2.267407641e-15 0)
(3 -2.733427167e-15 0)
(3 -1.467826202e-15 0)
(3 -1.542427738e-15 0)
(3 -1.913261335e-15 0)
(3 -1.523853279e-15 0)
(3 -1.298402887e-15 0)
(3 -2.001864615e-15 0)
(3 -2.177329514e-15 0)
(3 -1.949149101e-15 0)
(3 -1.682374332e-15 0)
(3 -1.870539732e-15 0)
(3 -1.94409545e-15 0)
(3 -3.268561442e-15 0)
(3 -3.9622404e-15 0)
(3 -4.063043118e-15 0)
(3 -4.784615578e-15 0)
(3 -5.058825761e-15 0)
(3 -4.453604516e-15 0)
(3 -2.846891299e-15 0)
(3 -1.902244161e-15 0)
(3 -2.413913999e-15 0)
(3 -3.3839138e-15 0)
(3 -3.99102883e-15 0)
(3 -4.061465743e-15 0)
(3 -4.325463599e-15 0)
(3 -4.543586712e-15 0)
(3 -4.97842529e-15 0)
(3 -5.388040557e-15 0)
(3 -6.023611207e-15 0)
(3 -5.833222921e-15 0)
(3 -5.749788233e-15 0)
(3 -4.917015687e-15 0)
(3 -3.792436362e-15 0)
(3 -3.748061611e-15 0)
(3 -3.181125069e-15 0)
(3 -2.907041065e-15 0)
(3 -2.702450682e-15 0)
(3 -1.971521882e-15 0)
(3 -2.325449971e-15 0)
(3 -4.092332648e-15 0)
(3 -4.281105643e-15 0)
(3 -4.008727329e-15 0)
(3 -3.379363889e-15 0)
(3 -4.318840252e-15 0)
(3 -4.783805218e-15 0)
(3 -4.387146496e-15 0)
(3 -4.861935305e-15 0)
(3 -4.520147629e-15 0)
(3 -4.037242262e-15 0)
(3 -3.729269986e-15 0)
(3 -3.158915237e-15 0)
(3 -2.99681405e-15 0)
(3 -1.454097691e-15 0)
(3 -5.134390372e-16 0)
(3 -2.399829147e-17 0)
(3 5.613152695e-16 0)
(3 1.238418166e-15 0)
(3 2.071637997e-15 0)
(3 3.00417859e-15 0)
(3 2.701109086e-15 0)
(3 2.653666066e-15 0)
(3 3.98468874e-15 0)
(3 2.949451031e-15 0)
(3 6.69982716e-16 0)
(3 -3.42532358e-16 0)
(3 4.805397012e-17 0)
(3 5.196527565e-16 0)
(3 -8.010251244e-17 0)
(3 4.067041067e-17 0)
(3 -1.222767749e-15 0)
(3 -2.407423392e-15 0)
(3 -2.442125017e-15 0)
(3 -3.395790203e-15 0)
(3 -4.039108859e-15 0)
(3 -3.843720992e-15 0)
(3 -3.434941954e-15 0)
(3 -2.586076088e-15 0)
(3 -2.500426334e-15 0)
(3 -3.097507355e-15 0)
(3 -2.863196927e-15 0)
(3 -1.731859071e-15 0)
(3 -1.323216171e-15 0)
(3 -1.411735697e-15 0)
(3 -2.504964192e-15 0)
(3 -3.202039588e-15 0)
(3 -2.76510228e-15 0)
(3 -2.136300491e-15 0)
(3 -1.847945323e-15 0)
(3 -2.680769209e-15 0)
(3 -3.027088502e-15 0)
(3 -2.820105511e-15 0)
(3 -2.505642486e-15 0)
(3 -2.299545913e-15 0)
(3 -3.505516869e-15 0)
(3 -5.44400231e-15 0)
(3 -7.216215068e-15 0)
(3 -7.953788546e-15 0)
(3 -7.946266433e-15 0)
(3 -7.300927603e-15 0)
(3 -5.769677077e-15 0)
(3 -3.846843681e-15 0)
(3 -2.518738018e-15 0)
(3 -2.064679533e-15 0)
(3 -2.251030924e-15 0)
(3 -3.479229105e-15 0)
(3 -5.577586378e-15 0)
(3 -6.468593444e-15 0)
(3 -6.679049782e-15 0)
(3 -6.147954361e-15 0)
(3 -4.687378443e-15 0)
(3 -3.657105821e-15 0)
(3 -2.810354714e-15 0)
(3 -2.721660203e-15 0)
(3 -2.102912343e-15 0)
(3 -2.87652275e-15 0)
(3 -2.876132963e-15 0)
(3 -2.60158985e-15 0)
(3 -1.251077222e-15 0)
(3 4.737078639e-16 0)
(3 1.122535428e-15 0)
(3 1.962180519e-15 0)
(3 3.505801184e-15 0)
(3 3.329140881e-15 0)
(3 3.185287722e-15 0)
(3 2.606159986e-15 0)
(3 1.990059204e-15 0)
(3 1.40218337e-15 0)
(3 1.965587315e-15 0)
(3 1.648492948e-15 0)
(3 7.239633337e-16 0)
(3 -1.246170357e-15 0)
(3 -4.861713054e-16 0)
(3 1.513802058e-16 0)
(3 3.005567518e-18 0)
(3 -3.661934024e-16 0)
(3 -1.550868685e-15 0)
(3 -3.53706355e-15 0)
(3 -4.185841131e-15 0)
(3 -4.214636712e-15 0)
(3 -3.990996704e-15 0)
(3 -4.129751923e-15 0)
(3 -3.284078477e-15 0)
(3 -2.476561327e-15 0)
(3 -2.03622537e-15 0)
(3 -1.460721758e-15 0)
(3 -1.452802793e-15 0)
(3 -1.340566042e-15 0)
(3 -1.424219793e-15 0)
(3 -2.028103396e-15 0)
(3 -3.466149069e-15 0)
(3 -4.102831451e-15 0)
(3 -3.639861081e-15 0)
(3 -2.553720878e-15 0)
(3 -1.819027248e-15 0)
(3 -2.286934885e-15 0)
(3 -2.111537127e-15 0)
(3 -1.564947667e-15 0)
(3 -1.694209935e-15 0)
(3 -1.606068441e-15 0)
(3 -3.637693136e-15 0)
(3 -5.093652333e-15 0)
(3 -5.574862389e-15 0)
(3 -6.96635102e-15 0)
(3 -6.908289659e-15 0)
(3 -6.435551463e-15 0)
(3 -6.49894114e-15 0)
(3 -3.768124675e-15 0)
(3 -1.567900182e-15 0)
(3 -3.237363543e-16 0)
(3 -2.032264222e-15 0)
(3 -2.196045117e-15 0)
(3 -2.103000928e-15 0)
(3 -4.471407951e-15 0)
(3 -5.347140441e-15 0)
(3 -5.000788826e-15 0)
(3 -5.231756696e-15 0)
(3 -4.70919845e-15 0)
(3 -4.610116309e-15 0)
(3 -4.740340099e-15 0)
(3 -1.668739817e-15 0)
(3 -1.617573444e-15 0)
(3 -1.332306997e-15 0)
(3 -1.12149785e-15 0)
(3 -3.966367916e-16 0)
(3 8.63039514e-16 0)
(3 1.817243108e-15 0)
(3 2.484188163e-15 0)
(3 3.724622218e-15 0)
(3 3.531954632e-15 0)
(3 2.592061789e-15 0)
(3 2.247642593e-15 0)
(3 2.279082912e-15 0)
(3 1.165557917e-15 0)
(3 -3.87361706e-16 0)
(3 -2.592974764e-16 0)
(3 8.399656099e-17 0)
(3 -1.891162607e-16 0)
(3 -4.053296038e-16 0)
(3 -2.295103422e-16 0)
(3 -4.681680386e-16 0)
(3 -1.407688197e-15 0)
(3 -1.96114485e-15 0)
(3 -2.093422572e-15 0)
(3 -4.571339653e-15 0)
(3 -6.041070223e-15 0)
(3 -5.870690401e-15 0)
(3 -5.140582144e-15 0)
(3 -4.654911847e-15 0)
(3 -4.265707082e-15 0)
(3 -2.964078674e-15 0)
(3 -2.728193838e-15 0)
(3 -3.447143013e-15 0)
(3 -4.053262075e-15 0)
(3 -4.292151243e-15 0)
(3 -4.594520638e-15 0)
(3 -4.06620588e-15 0)
(3 -2.079877995e-15 0)
(3 -1.893564156e-15 0)
(3 -2.459729166e-15 0)
(3 -1.620147164e-15 0)
(3 -1.019754712e-15 0)
(3 -2.450214673e-16 0)
(3 -4.116146785e-16 0)
(3 -2.152338694e-16 0)
(3 -1.957765367e-16 0)
(3 -1.201806682e-15 0)
(3 -2.502666314e-15 0)
(3 -4.338142473e-15 0)
(3 -3.233105371e-15 0)
(3 -3.095031332e-15 0)
(3 -4.072471852e-15 0)
(3 -5.803292425e-15 0)
(3 -5.670795762e-15 0)
(3 -4.435404308e-15 0)
(3 -3.47151602e-15 0)
(3 2.520970168e-15 0)
(3 1.612051333e-15 0)
(3 7.224410368e-16 0)
(3 4.998270035e-17 0)
(3 -2.565130225e-16 0)
(3 -9.766964275e-16 0)
(3 -1.398288535e-15 0)
(3 -2.165156146e-15 0)
(3 -2.735066798e-15 0)
(3 -3.078266022e-15 0)
(3 -3.510230387e-15 0)
(3 -2.798088409e-15 0)