/*--------------------------------*- C++ -*----------------------------------*\
  =========                 |
  \\      /  F ield         | OpenFOAM: The Open Source CFD Toolbox
   \\    /   O peration     | Website:  https://openfoam.org
    \\  /    A nd           | Version:  7
     \\/     M anipulation  |
\*---------------------------------------------------------------------------*/
FoamFile
{
    version     2.0;
    format      ascii;
    class       volScalarField;
    location    "1.4";
    object      p;
}
// * * * * * * * * * * * * * * * * * * * * * * * * * * * * * * * * * * * * * //

dimensions      [1 -1 -2 0 0 0 0];

internalField   nonuniform List<scalar> 
555
(
1
1
1
1
1
1
1
1
1
1
1
1
1.000000002
1.000000081
1.000002349
1.000038714
1
1
1
1
1
1
1
1
1
1
1
1.000000003
1.000000096
1.000002147
1.000044733
1.000481517
1
1
1
1
1
1
1
1
1
1
1.000000003
1.000000083
1.000002485
1.000036444
1.000560839
1.003824084
1
1
1
1
1
1
1
1
1
1.000000002
1.000000091
1.000002002
1.000044702
1.000446678
1.004587578
1.021437426
1
1
1
1
1
1
1
1
1.000000002
1.000000079
1.000002388
1.000035016
1.000564422
1.003746264
1.024793909
1.078778443
1
1
1
1
1
1
1
1.000000002
1.000000083
1.000001938
1.000044521
1.000440489
1.00471295
1.02142258
1.084092843
1.193165972
1
1
1
1
1
1
1.000000002
1.000000077
1.000002313
1.000035015
1.000574893
1.003757522
1.025719456
1.079291253
1.187821511
1.312309226
1
1
1
1
1
1.000000002
1.000000079
1.000001966
1.000044955
1.000446889
1.0048318
1.02150844
1.087140815
1.196346178
1.29509041
1.362352693
1
1
1
1
1.000000002
1.000000076
1.000002317
1.000035793
1.000585625
1.003805199
1.026155738
1.079986364
1.190963591
1.318777784
1.391603845
1.393384704
1
1
1
1.000000002
1.00000008
1.000001997
1.000045467
1.000453306
1.004870071
1.02169559
1.088237062
1.199283663
1.293783582
1.370811837
1.408220755
1.406537279
1
1
1.000000002
1.000000075
1.000002389
1.000036353
1.000585729
1.003826543
1.0261542
1.081116011
1.192797869
1.326100103
1.393488652
1.398219587
1.404162391
1.405076086
1
1.000000002
1.000000084
1.000001989
1.000045638
1.000456664
1.004806188
1.021879823
1.088299019
1.204277891
1.297659136
1.37632414
1.411767553
1.409187022
1.405126493
1.39542936
1.000000002
1.000000072
1.0000024
1.000035883
1.000572984
1.003836762
1.025803663
1.082441267
1.19397921
1.332225914
1.40025625
1.408257087
1.409997575
1.408224248
1.396340789
1.374218327
1.000000083
1.000001896
1.000044029
1.000448428
1.004659279
1.021934594
1.087859164
1.207676711
1.304571824
1.37456669
1.416400847
1.415577984
1.411586603
1.398702445
1.374185457
1.342745426
1.000002278
1.000034416
1.000544511
1.003805935
1.025026802
1.083387756
1.193804613
1.334021639
1.400677222
1.415584879
1.416545159
1.414899736
1.402866784
1.37754472
1.343489614
1.307956944
1.000041609
1.00043429
1.004498716
1.021836672
1.086861202
1.206701545
1.314493161
1.374247712
1.418367605
1.420305108
1.417588827
1.405574446
1.380593358
1.34535338
1.309220731
1.269268658
1.000513469
1.003796225
1.024138929
1.084724777
1.192870669
1.333281406
1.401902063
1.414364738
1.42008115
1.419042954
1.408470457
1.383732205
1.348919742
1.309247612
1.271659459
1.23045395
1.004342745
1.021728264
1.086359395
1.203106722
1.324440427
1.379250188
1.418734982
1.422683495
1.420792943
1.409709662
1.38603487
1.351271096
1.310947189
1.272401555
1.230709276
1.194839489
1.023125898
1.085637755
1.194483509
1.325815721
1.408086439
1.419175383
1.42466748
1.422340884
1.410916718
1.387306743
1.353235039
1.313270455
1.272669286
1.232253205
1.192689471
1.159071717
1.084390777
1.203528331
1.327414923
1.385517487
1.421729099
1.427150871
1.424682956
1.413277535
1.38933057
1.354763179
1.314951371
1.273426143
1.231999264
1.19183882
1.155657827
1.121225621
1.197429447
1.320366567
1.412057118
1.425658114
1.430262302
1.428223662
1.41584296
1.390617533
1.356461669
1.316255505
1.273197222
1.233504375
1.190014719
1.15367345
1.118248446
1.081553933
1.331547607
1.388859781
1.42296094
1.43395075
1.431397739
1.419041532
1.393421577
1.35865372
1.317225593
1.27453237
1.232312122
1.191521499
1.15018045
1.113626455
1.078816522
1.042311172
1.413357429
1.431548743
1.433526122
1.433524457
1.422162854
1.396098483
1.359551487
1.319331241
1.274824523
1.23133784
1.191662179
1.147421143
1.108711636
1.073787562
1.038383115
1.008125727
1.422256305
1.438612744
1.43756997
1.425842872
1.399945135
1.362458559
1.320486936
1.276676683
1.229287554
1.188931064
1.14742117
1.103653868
1.069111129
1.034697276
1.000485725
0.9725988448
1.435219189
1.437556395
1.428743935
1.404235422
1.365697257
1.322556194
1.276595543
1.230222616
1.184585375
1.145841179
1.103547149
1.060905069
1.029572961
0.9924692698
0.962441311
0.9368936356
1.440275782
1.431688014
1.407503294
1.370546862
1.324280922
1.277726457
1.231045263
1.182188108
1.141331795
1.099947554
1.057591718
1.018332387
0.9872499843
0.9545875666
0.9261135439
0.9005546253
1.432455735
1.410580395
1.374097512
1.328115244
1.279107056
1.229934839
1.182923272
1.134039554
1.095010137
1.053944443
1.011579264
0.9781129335
0.9487897745
0.9188057189
0.8887067977
0.8623120253
1.412746123
1.377180587
1.331403009
1.280478391
1.229137637
1.180775535
1.131773836
1.086044633
1.050041342
1.007927066
0.9675898949
0.9374499347
0.9096769614
0.8776329481
0.8486489461
0.8314998868
1.379792038
1.334783848
1.28135511
1.228351614
1.178795257
1.129175891
1.08047168
1.039848744
1.004201433
0.959341644
0.9234745022
0.9004949987
0.8699697646
0.8372574088
0.816238147
0.8012281267
1.337281654
1.283442558
1.228249456
1.175640798
1.126666047
1.073816649
1.029176647
0.9947364508
0.9534074705
0.9116395043
0.8853251537
0.8631582462
0.8282285546
0.8020893987
0.7894002615
0.7686980467
1.287728946
1.227653883
1.172735094
1.121076779
1.068518223
1.019525914
0.9838282568
0.9481546093
0.9030982537
0.8716324661
0.850604794
0.8197381184
0.7850305616
0.7708047425
0.7572049028
0.7339825451
1.228694265
1.166859996
1.11658991
1.063908025
1.011035398
0.9702950558
0.9373698644
0.8943202216
0.8560779836
0.8358829119
0.8113082703
0.7770011808
0.7532567283
0.7408543952
0.7201568663
0.6928204295
1.164244843
1.109235437
1.060514134
1.002302958
0.9565767125
0.9253567095
0.8860579279
0.8434992033
0.8170285106
0.7962115061
0.7644209551
0.7369456854
0.7271516252
0.7113564319
0.6859846982
0.6633312498
1.101817633
1.050624348
0.9944743098
0.9409806504
0.9067596338
0.8752819421
0.8305697782
0.8018696132
0.7846902492
0.7576197948
0.7229582069
0.7047628173
0.6918655202
0.6695645951
0.643979495
0.6307562897
1.037608593
0.9870468264
0.930935432
0.8903191866
0.8618391082
0.8218981466
0.7806031606
0.7618224145
0.744499533
0.7135862958
0.6879498789
)
;

boundaryField
{
    inlet
    {
        type            fixedValue;
        value           nonuniform 0();
    }
    outlet
    {
        type            zeroGradient;
    }
    bottom
    {
        type            slip;
    }
    top
    {
        type            slip;
    }
    obstacle
    {
        type            zeroGradient;
    }
    defaultFaces
    {
        type            empty;
    }
    procBoundary4to3
    {
        type            processor;
        value           nonuniform List<scalar> 
30
(
1
1
1
1
1
1
1
1
1
1
1
1
1
1.000000002
1.000000065
1.000001751
1.000032877
1.00042237
1.003826516
1.021948459
1.085632598
1.205524302
1.318800368
1.391139309
1.434915114
1.439753652
1.439138171
1.434845751
1.41567918
1.382697597
)
;
    }
    procBoundary4to5
    {
        type            processor;
        value           nonuniform List<scalar> 
34
(
1.000536655
1.00445049
1.024081212
1.081108244
1.182622562
1.300037178
1.390896686
1.404705728
1.401135324
1.403386687
1.39619917
1.374491947
1.343081781
1.307118518
1.268722179
1.230800365
1.195592094
1.161445496
1.124360989
1.086638464
1.052159323
1.017113557
0.9826710522
0.9449700473
0.9067910894
0.8720585724
0.840808091
0.8115327345
0.778278157
0.7412529411
0.7094817724
0.6769658555
0.6505968376
0.6233005588
)
;
    }
    procBoundary4to9
    {
        type            processor;
        value           nonuniform List<scalar> 5(1.339317439 1.289630766 1.228690214 1.162694909 1.094322303);
    }
    procBoundary4to10
    {
        type            processor;
        value           nonuniform List<scalar> 
17
(
0.677786236
0.6582144726
0.6339816234
0.6245500572
0.6204236669
0.9734584184
0.9214461321
0.8699124688
0.8404627199
0.8126902797
0.7719362049
0.7428726547
0.7260645729
0.6982504366
0.6625527787
0.677786236
0.6516068422
)
;
    }
}


// ************************************************************************* //
