/*--------------------------------*- C++ -*----------------------------------*\
  =========                 |
  \\      /  F ield         | OpenFOAM: The Open Source CFD Toolbox
   \\    /   O peration     | Website:  https://openfoam.org
    \\  /    A nd           | Version:  7
     \\/     M anipulation  |
\*---------------------------------------------------------------------------*/
FoamFile
{
    version     2.0;
    format      ascii;
    class       volScalarField;
    location    "1.8";
    object      p;
}
// * * * * * * * * * * * * * * * * * * * * * * * * * * * * * * * * * * * * * //

dimensions      [1 -1 -2 0 0 0 0];

internalField   nonuniform List<scalar> 
22
(
0.99887268
0.998250991
0.9762562758
0.9885543505
0.996611926
0.9954995529
0.9758846052
0.9852372046
0.9930692941
0.993374439
0.9755932429
0.9850367241
0.9907609321
0.9959956606
0.9796588193
0.9848576213
0.9908888067
0.996649342
0.9808620921
0.9867251039
0.9917234773
0.9970533121
)
;

boundaryField
{
    inlet
    {
        type            fixedValue;
        value           nonuniform 0();
    }
    outlet
    {
        type            zeroGradient;
    }
    bottom
    {
        type            slip;
    }
    top
    {
        type            slip;
    }
    obstacle
    {
        type            zeroGradient;
    }
    defaultFaces
    {
        type            empty;
    }
    procBoundary23to17
    {
        type            processor;
        value           nonuniform List<scalar> 5(0.996007243 0.9991028201 0.9761852 0.9926274858 0.9926274858);
    }
    procBoundary23to22
    {
        type            processor;
        value           nonuniform List<scalar> 5(1.018948905 1.016459913 1.011959086 1.016023511 1.015637916);
    }
    procBoundary23to29
    {
        type            processor;
        value           nonuniform List<scalar> 4(0.9824042433 0.9892037597 0.9946161377 0.9979416025);
    }
}


// ************************************************************************* //
