/*--------------------------------*- C++ -*----------------------------------*\
  =========                 |
  \\      /  F ield         | OpenFOAM: The Open Source CFD Toolbox
   \\    /   O peration     | Website:  https://openfoam.org
    \\  /    A nd           | Version:  7
     \\/     M anipulation  |
\*---------------------------------------------------------------------------*/
FoamFile
{
    version     2.0;
    format      ascii;
    class       volScalarField;
    location    "1.4";
    object      T;
}
// * * * * * * * * * * * * * * * * * * * * * * * * * * * * * * * * * * * * * //

dimensions      [0 0 0 1 0 0 0];

internalField   nonuniform List<scalar> 
5000
(
1
1
1
1
1
1
1
1
1
1
1
1
1
1
1
1
1
1
1
1
1
1
1
1
1
1
1
1
1
1
1
1
1
1
1
1
1
1
1
1
1
1
1
1
1
1
1
1
1
1
1
1
1
1
1
1
1
1
1
1
1
1
1
1
1
1
1
1
1
1
1
1
1
1
1
1
1
1
1
1
1
1
1
1
1
1
1
1
1
1
1
1
1
1
1
1
1
1
1
1
1
1
1
1
1
1
1
1
1
1
1
1
1
1
1
1
1
1
1
1
1
1
1
1
1
1
1
1
1
1
1
1
1
1
1
1
1
1
1
1
1
1
1
1
1
1
1
1
1
1
1
1
1
1
1
1
1
1
1
1
1
1
1
1
1
1
1
1
1
1
1
1
1
1
1
1
1
1
1
1
1
1
1
1
1
1
1
1
1
1
1
1
1
1
1
1
1
1
1
1
1
1
1
1
1
1
1
1
1
1
1
1
1
1
1
1
1
1
1
1
1
1
1
1
1
1
1
1
1
1
1
1
1
1
1
1
1
1
1
1
1
1
1
1
1
1
1
1
1
1
1
1
1
1
1
1
1
1
1
1
1
1
1
1
1
1
1
1
1
1
1
1
1
1
1
1
1
1
1
1
1
1
1
1
1
1
1
1
1
1
1
1
1
1
1
1
1
1
1
1
1
1
1
1
1
1
1
1
1
1
1
1
1
1
1
1
1
1
1
1
1
1
1
1
1
1
1
1
1
1
1
1
1
1
1
1
1
1
1
1
1
1
1
1
1
1
1
1
1
1
1
1
1
1
1
1
1
1
1
1
1
1
1
1
1
1
1
1
1
1
1
1
1
1
1
1
1
1
1
1
1
1
1
1
1
1
1
1
1
1
1
1
1
1
1
1
1
1
1
1
1
1
1
1
1
1
1
1
1
1
1
1
1
1
1
1
1
1
1
1
1
1
1
1
1
1
1
1
1
1
1
1
1
1
1
1
1
1
1
1
1
1
1
1
1
1
1
1
1
1
1
1
1
1
1
1
1
1
1
1
1
1
1
1
1
1
1
1
1
1
1
1
1
1
1
1
1
1
1
1
1
1
1
1
1
1
1
1
1
1
1
1
1
1
1
1
1
1
1
1
1
1
1
1
1
1
1
1
1
1
1
1
1
1
1
1
1
1
1
1
1
1
1
1
1
1
1
1
1
1
1
1
1
1
1
1
1
1
1
1
1
1
1
1
1
1
1
1
1
1
1
1
1
1
1
1
1
1
1
1
1
1
1
1
1
1
1
1
1
1
1
1
1
1
1
1
1
1
1
1
1
1
1
1
1
1
1
1
1
1
1
1
1
1
1
1
1
1
1
1
1
1
1
1
1
1
1
1
1
1
1
1
1
1
1
1
1
1
1
1
1
1
1
1
1
1
1
1
1
1
1
1
1
1
1
1
1
1
1
1
1
1
1
1
1
1
1
1
1
1
1
1
1
1
1
1
1
1
1
1
1
1
1
1
1
1
1
1
1
1
1
1
1
1
1
1
1
1
1
1
1
1
1
1
1
1
1
1
1
1
1
1
1
1
1
1
1
1
1
1
1
1
1
1
1
1
1
1
1
1
1
1
1
1
1
1
1
1
1
1
1
1
1
1
1
1
1
1
1
1
1
1
1
1
1
1
1
1
1
1
1
1
1
1
1
1
1
1
1
1
1
1
1
1
1
1
1
1
1
1
1
1
1
1
1
1
1
1
1
1
1
1
1
1
1
1
1
1
1
1
1
1
1
1
1
1
1
1
1
1
1
1
1
1
1
1
1
1
1
1
1
1
1
1
1
1
1
1
1
1
1
1
1
1
1
1
1
1
1
1
1
1
1
1
1
1
1
1
1
1
1
1
1
1
1
1
1
1
1
1
1
1
1
1
1
1
1
1
1
1
1
1
1
1
1
1
1
1
1
1
1
1
1
1
1
1
1
1
1
1
1
1
1
1
1
1
1
1
1
1
1
1
1
1
1
1
1
1
1
1
1
1
1
1
1
1
1
1
1
1
1
1
1
1
1
1
1
1
1
1
1
1
1
1
1
1
1
1
1
1
1
1
1
1
1
1
1
1
1
1
1
1
1
1
1
1
1
1
1
1
1
1
1
1
1
1
1
1
1
1
1
1
1
1
1
1
1
1
1
1
1
1
1
1
1
1
1
1
1
1
1
1
1
1
1
1
1
1
1
1
1
1
1
1
1
1
1
1
1
1
1
1
1
1
1
1
1
1
1
0.9999999973
1
1
1
1
1
1
1
1
1
1
1
1
1
1
1
1
1
1
1
1
1
1
1
1.000000002
0.9999999438
1
1
1
1
1
1
1
1
1
1
1
1
1
1
1
1
1
1
1
1
1.000000001
1.000000007
1.000000032
1.000001032
0.9999997044
1
1
1
1
1
1
1
1
1
1
1
1
1
1
1
1
1.000000002
1.000000014
1.000000073
1.000000361
1.000001538
1.00000617
1.000019922
1.000111205
1.000107959
1
1
1
1
1
1
1
1
1
1
1
1.000000001
1.000000005
1.000000033
1.000000166
1.000000714
1.000002766
1.000009427
1.000031146
1.000089041
1.000252569
1.000608988
1.001434519
1.003033895
1.005002227
1
1
1
1
1
1
1
1.000000001
1.00000001
1.000000067
1.000000339
1.000001449
1.000005402
1.000017642
1.00005305
1.000138258
1.000352019
1.000799476
1.001805787
1.00350175
1.00680393
1.011474727
1.018836133
1.027885999
1.037816721
1
1
1
1.000000001
1.000000011
1.000000095
1.000000558
1.000002522
1.000009717
1.000031337
1.000092076
1.00023256
1.000563544
1.001197963
1.002468446
1.004480264
1.008120948
1.013351065
1.021371868
1.030618384
1.042371241
1.054639089
1.067507418
1.080160339
1.089852692
1.000000003
1.000000046
1.000000487
1.000003023
1.0000139
1.000049539
1.000150336
1.0003816
1.000897217
1.001848609
1.003579479
1.006202168
1.010475093
1.016196817
1.024234674
1.033778086
1.045491538
1.058751351
1.070533645
1.080987679
1.090389684
1.100074244
1.105987097
1.111091801
1.113603372
1.000007698
1.000043803
1.000186294
1.000559985
1.001387775
1.002879155
1.005482355
1.009129502
1.014451892
1.021370819
1.029993546
1.039321793
1.050470636
1.062377782
1.074554435
1.087139504
1.098328677
1.107314868
1.111327549
1.11549287
1.120516422
1.122417167
1.122655927
1.123523919
1.123743469
1.001030402
1.003240177
1.00757868
1.013309934
1.020715799
1.029397483
1.038713854
1.047143053
1.057296103
1.067328763
1.0745165
1.082461287
1.090575603
1.097115975
1.101724617
1.105775924
1.110177338
1.114420815
1.11818959
1.121440927
1.124492372
1.124276614
1.12349189
1.122937709
1.122964306
1.015685271
1.033549103
1.051751079
1.069170385
1.084700023
1.098667001
1.11047416
1.122036055
1.131051858
1.136799191
1.142019419
1.14846715
1.150484433
1.149669142
1.147238572
1.14495226
1.142373839
1.139072974
1.134967965
1.130868599
1.126806131
1.123381562
1.121045267
1.119655713
1.119048612
1
1
1
1
1
1
1
1
1
1
1
1.000000004
1.00000019
1.000004394
1.000066055
1.00064569
1.004289188
1.017549988
1.049662194
1.093573535
1.127597755
1.15663197
1.169322187
1.164042988
1.144708552
1
1
1
1
1
1
1
1
1
1
1.000000005
1.000000153
1.000004382
1.000064439
1.000638752
1.003893742
1.015704619
1.038807633
1.064637351
1.087496221
1.11299486
1.128939438
1.146079393
1.145137987
1.135002189
1
1
1
1
1
1
1
1
1
1.000000003
1.000000164
1.000003778
1.000061342
1.000629124
1.003811687
1.01604111
1.037815165
1.062964386
1.077741994
1.084004601
1.092953115
1.104738826
1.118358318
1.129810655
1.122887354
1
1
1
1
1
1
1
1
1.000000003
1.00000011
1.000003784
1.000058856
1.000599619
1.003942217
1.015456951
1.039976145
1.065628633
1.076634233
1.08074341
1.081498677
1.080690915
1.080787644
1.081824883
1.092523532
1.09076956
1
1
1
1
1
1
1
1.000000002
1.000000121
1.000002728
1.000056307
1.000611614
1.003733137
1.016191132
1.04020257
1.063814359
1.081420729
1.083677405
1.083002015
1.079271523
1.071273904
1.058676406
1.050060856
1.051123816
1.057936955
1
1
1
1
1
1
1.000000002
1.000000069
1.000002917
1.000045057
1.000566133
1.003922095
1.015655588
1.040189842
1.069641288
1.077367785
1.083027826
1.084211445
1.080853134
1.070960536
1.057420003
1.041533357
1.02412774
1.016723078
1.021799645
1
1
1
1
1
1.000000001
1.000000071
1.000001792
1.000047469
1.000492945
1.003666841
1.016308001
1.040838873
1.065648697
1.085114895
1.085756503
1.0849501
1.081190476
1.071496135
1.056951338
1.038420962
1.024374829
1.006014781
0.9928326639
0.9878813341
1
1
1
1
1.000000001
1.000000036
1.000001966
1.000031637
1.000514655
1.003425155
1.015624162
1.041150701
1.071498765
1.080111051
1.085962753
1.086381389
1.082155993
1.071453835
1.055410697
1.038960488
1.019808835
1.004571671
0.9897109627
0.9744216266
0.9616380704
1
1
1
1
1.000000034
1.000001037
1.000035955
1.000366085
1.003651208
1.014899611
1.041352612
1.069425694
1.088754458
1.088706787
1.087361906
1.082527734
1.070910216
1.0549986
1.035127929
1.01858712
1.001276056
0.9847456726
0.9714860759
0.9551741058
0.9385371275
1
1
1
1.000000011
1.000001042
1.00001977
1.000424927
1.002760317
1.015924799
1.041090877
1.07120171
1.082803185
1.089899006
1.089561595
1.083879788
1.071471227
1.052986327
1.034583685
1.014800789
0.9970691947
0.9819450692
0.9646282668
0.9531493142
0.938497835
0.9278649197
1
1
1.000000007
1.000000391
1.00002121
1.000253087
1.003166195
1.013393992
1.041643494
1.073177705
1.090914159
1.090381348
1.089666446
1.084441135
1.071183394
1.052371319
1.03115896
1.011712563
0.9936695853
0.9750282385
0.9602604729
0.9437421665
0.9309860817
0.9206869606
0.9210998587
1
1.000000002
1.000000313
1.000009285
1.000283003
1.002139572
1.014601912
1.040904176
1.069214604
1.089888269
1.094668516
1.093308417
1.085221006
1.070437567
1.049782066
1.029561362
1.007650308
0.9885724787
0.9716658566
0.9536864316
0.9413136527
0.928882624
0.9216588081
0.9178730233
0.9205237221
1
1.000000084
1.000008308
1.000146535
1.002407617
1.011660866
1.040192604
1.07806295
1.0906644
1.094887058
1.094622641
1.087837409
1.070425451
1.04944027
1.02594568
1.004177988
0.9841652165
0.9628577401
0.9478580885
0.9311792932
0.919653008
0.9153943027
0.9165995652
0.9182758162
0.9369682985
1
1.00000261
1.000139343
1.001496993
1.01253884
1.039559311
1.070607987
1.096256262
1.098404595
1.096906862
1.087834707
1.07044654
1.046990704
1.021872235
1.000089723
0.9779356079
0.9596767802
0.9412593291
0.927256996
0.9198976671
0.913916272
0.9141653114
0.9188930103
0.9324251037
0.9665764716
1.000000056
1.000055322
1.001472707
1.009692333
1.03837683
1.080298139
1.093238241
1.099690914
1.098621715
1.08941933
1.070218389
1.044246138
1.019142945
0.9944534508
0.9707682907
0.949353413
0.931910478
0.91812192
0.9104345644
0.912164179
0.9143147295
0.9231661185
0.9459136044
0.9675216007
0.9892106796
1.00000546
1.000795452
1.009361662
1.037191514
1.073259932
1.102548895
1.102872939
1.100924225
1.090395351
1.069169933
1.042091813
1.014812234
0.9872232965
0.9656262943
0.945508806
0.9250692807
0.9156355593
0.9106161244
0.9090002565
0.9124063737
0.929714422
0.954692067
0.9767880523
0.9930068055
1.001669644
1.000218545
1.006837712
1.035373961
1.080516593
1.097621164
1.10574538
1.103901567
1.092056696
1.068158683
1.039205204
1.007741982
0.9813487597
0.9552268612
0.9292982238
0.9171009347
0.9070788468
0.9074660978
0.9096841818
0.9187035222
0.9388933281
0.9692414365
0.9922556138
0.9983309395
1.002625802
1.004601901
1.003651579
1.032819752
1.075963394
1.106192531
1.106053259
1.104872805
1.092948728
1.06683159
1.034139234
1.00354692
0.9727587454
0.9467147987
0.9277823472
0.9106152301
0.901598584
0.902216391
0.9066361413
0.9273448704
0.9534498641
0.9799317561
0.9896611275
0.998995802
1.002092982
1.003712565
1.005132212
1.025657224
1.077207463
1.106940528
1.113022063
1.110227152
1.093337779
1.063826119
1.029768884
0.9921355633
0.9611621196
0.9340427958
0.9085682203
0.900474363
0.901442528
0.9022427668
0.912560859
0.9371068578
0.9678597363
0.9904131928
1.004924313
1.00517735
1.005628684
1.005521856
1.005284899
1.005929234
1.0784754
1.104546256
1.110799753
1.110266823
1.095185151
1.064106215
1.020660065
0.9872672694
0.9545118063
0.9207011647
0.9062174669
0.8911490795
0.8919623969
0.8980662459
0.9180324717
0.9534586828
0.9890407166
0.9977958966
1.002776715
1.008947887
1.009855391
1.00929764
1.008815908
1.008419262
1.008740662
1.114996085
1.119011131
1.114916029
1.095080807
1.05714433
1.016050558
0.9713747756
0.9293620569
0.9090504376
0.8892057961
0.8915351515
0.8926867052
0.9042119252
0.935231969
0.9729735541
0.9902791095
1.007271757
1.010419952
1.010389101
1.011032724
1.010938685
1.010405382
1.010380517
1.01038318
1.010974941
1.119001885
1.117474648
1.097400559
1.05651012
1.005242399
0.9598628471
0.9288170386
0.8971973874
0.8768352392
0.8776565371
0.887369634
0.9157646999
0.9580674942
0.9887054942
1.008466211
1.009793396
1.011409125
1.013505514
1.013004921
1.012116421
1.010995225
1.010825631
1.011096767
1.011697644
1.012293292
1.122229384
1.100430911
1.04816897
0.9891319078
0.9370049566
0.8930888309
0.8795755329
0.8763807873
0.8774366209
0.8923605918
0.9372979629
0.9783378777
1.003380152
1.007401701
1.013320567
1.013623081
1.012316321
1.012085747
1.011780141
1.011266903
1.010602455
1.01064618
1.011010762
1.011909968
1.011807923
1.106814129
1.044377843
0.9715950139
0.9092262729
0.8779664529
0.8498043374
0.8508493382
0.8611964771
0.9009637549
0.9598695368
0.9925340858
1.005389665
1.007501045
1.007789993
1.008954746
1.008792244
1.008326216
1.007674735
1.007810667
1.008173345
1.008356283
1.008624537
1.008746436
1.008854923
1.008782703
1.050745221
0.8993820094
0.8436881867
0.8292364656
0.8325944228
0.8353314396
0.8568665197
0.9197365582
0.9722172724
0.9898255854
0.9940128594
1.00011544
0.9989593758
0.9990260591
1.000278796
1.001270693
1.001223222
1.001448843
1.002047812
1.00277188
1.003356202
1.003829076
1.004162247
1.004459349
1.004855723
0.9085086994
0.9161951997
0.8538153994
0.8344447178
0.834815894
0.8440946554
0.8981073577
0.9753092603
0.9951683945
0.9932288628
0.992225785
0.9956707036
0.9935272796
0.9927705739
0.9941910698
0.9961508707
0.9965256252
0.9971026803
0.9980234334
0.9993742833
1.000255815
1.000793483
1.001598167
1.002332135
1.00323402
0.911003211
0.9160071158
0.8621423391
0.8381453814
0.8375592233
0.8544911719
0.9151143912
0.9772841701
0.9932808055
0.9926026993
0.9893472894
0.9943387151
0.9931611252
0.9923223071
0.9932821826
0.9954848188
0.996620445
0.9973981273
0.9981751288
0.9996450228
1.000664237
1.00105754
1.001520492
1.002188413
1.003370834
0.9170050344
0.9136025712
0.8675812525
0.8421772501
0.8402987036
0.8639870568
0.9267548413
0.9757657268
0.9904208039
0.9888097624
0.9858652757
0.9914336249
0.9911789464
0.9911741778
0.99255521
0.9943294758
0.9957402756
0.996925221
0.9976944391
0.9987470384
0.9996982962
1.000180898
1.000427112
1.000600923
1.001693809
0.9204897163
0.9107107558
0.8730979747
0.845915445
0.8447540947
0.8732822095
0.9390359956
0.9751547277
0.9879235834
0.9859260936
0.9829643176
0.9885116502
0.9885878806
0.9894373695
0.9913488219
0.9928905633
0.9941295346
0.9955025214
0.9963728193
0.9969893502
0.9978634184
0.9986241815
0.9988646642
0.9991190453
0.9998614176
0.9228273628
0.9078113794
0.8775108581
0.8492004059
0.8509754601
0.8890765923
0.950307794
0.9750408184
0.9854012971
0.9864425648
0.9832095543
0.9874340414
0.9869579608
0.9878051723
0.9902677356
0.9914728768
0.9921278864
0.993653341
0.9948972066
0.9957248086
0.9964254819
0.997409247
0.9980848187
0.9983183218
0.9987584027
0.9236373394
0.9060991924
0.8805886399
0.8545627907
0.8609759264
0.9110983425
0.9616446673
0.9809834276
0.9862456154
0.9890874809
0.9859814336
0.9891366006
0.9874018979
0.9875595857
0.9899184185
0.9910168932
0.9916081426
0.993221801
0.9950379686
0.9957762876
0.9961439197
0.9973477668
0.999343761
0.9997972747
0.9994737237
0.923277504
0.9051422717
0.8832156798
0.8611108824
0.8745155869
0.927703846
0.9737205068
0.9856989956
0.988027395
0.9909475859
0.987970542
0.9909584034
0.9892359578
0.9888465169
0.990720216
0.9926650971
0.9936349437
0.9952374843
0.9971973649
0.9985654416
0.9988958439
0.9993967201
1.000899439
1.001712668
1.001761481
0.9224144896
0.9058240653
0.8868126718
0.8700965292
0.889623179
0.9413477129
0.9829011484
0.9903765323
0.9907215588
0.9913845364
0.9896006906
0.9928355265
0.9916873174
0.9917742869
0.9933809524
0.9956428315
0.9968188971
0.9981029218
0.9994077168
1.000922928
1.00149781
1.001478943
1.001888296
1.002787589
1.003739892
0.9213195738
0.9067478636
0.8915000343
0.879060671
0.9036863475
0.9612580364
0.9890772763
0.9955760978
0.9950724942
0.9928539339
0.9923326514
0.9961367482
0.9955652913
0.9959110022
0.9972438512
0.9988250159
0.9996620159
1.000432647
1.001182737
1.00246018
1.003202871
1.003113037
1.003106683
1.00383839
1.005118395
0.9199648233
0.9080578378
0.8975373334
0.8912071476
0.9256050636
0.9789266281
0.9958040877
1.002697459
1.00239932
0.9985033303
0.9986181376
1.002590451
1.002056674
1.001755289
1.002755272
1.003377565
1.003845236
1.004168792
1.004414134
1.005215945
1.005962007
1.006152823
1.006135143
1.006362117
1.007470852
0.9183335986
0.9098309991
0.9052666707
0.9080085011
0.9558408995
0.9916004744
1.005377722
1.012113661
1.013215225
1.009666794
1.008382559
1.011148945
1.010001523
1.009241285
1.010283364
1.010463163
1.010735265
1.010896985
1.010850593
1.01097153
1.011416731
1.012064217
1.01224157
1.01198473
1.012395915
0.9183246662
0.9118685262
0.912893693
0.9236747327
0.9798135934
1.008428153
1.019261629
1.023143569
1.024565734
1.022751647
1.019401091
1.020839881
1.018882192
1.018437633
1.019747604
1.019891853
1.020212014
1.020307197
1.020331416
1.019843639
1.019745635
1.020437141
1.020890072
1.020488846
1.019991039
0.9190983611
0.9157777332
0.9214221986
0.9454634468
1.006166456
1.029973902
1.034548122
1.033923827
1.033812585
1.033508661
1.029998546
1.030883222
1.029234858
1.029590994
1.030883843
1.031051023
1.031719062
1.031872389
1.031953556
1.031334537
1.030713282
1.031004353
1.031439003
1.031103379
1.030293875
0.9200107153
0.9217666301
0.9318934993
0.9701860502
1.037273802
1.046937891
1.04860203
1.044758187
1.043284975
1.043031963
1.039767124
1.041378916
1.040606716
1.04116762
1.042391685
1.042913474
1.043616824
1.043931229
1.044053255
1.043855162
1.043109551
1.04283583
1.04323602
1.043136899
1.042690107
0.9222001137
0.9262781174
0.9447688233
0.9954751259
1.056896877
1.059218071
1.056279599
1.054071277
1.051449158
1.050516894
1.049770614
1.052856237
1.052327738
1.052227089
1.053782518
1.054834778
1.0553022
1.055617197
1.055984672
1.056019379
1.055557493
1.054956464
1.055110766
1.055814962
1.055968888
0.9256546417
0.9298317021
0.9620648968
1.03026607
1.071302541
1.06668288
1.062641589
1.062794306
1.06207235
1.059892663
1.060874889
1.064528558
1.063751557
1.063445033
1.064977457
1.066445709
1.066393684
1.066244767
1.06681396
1.067920863
1.06803324
1.067151016
1.066938642
1.06770648
1.068835225
0.9281158652
0.9375091043
0.9842126642
1.061133078
1.081168067
1.074070396
1.071789093
1.073773646
1.07455313
1.071662932
1.072722415
1.076022402
1.075018172
1.073818473
1.075494662
1.077398064
1.077471924
1.076988285
1.077263224
1.078326829
1.07950303
1.079499329
1.07923935
1.079404312
1.080327148
0.9314552866
0.949957914
1.008769213
1.083308058
1.095721044
1.086020954
1.081537325
1.085537561
1.087142391
1.084249194
1.08299166
1.085656238
1.084717645
1.08490556
1.086926249
1.088926899
1.089357003
1.088690455
1.088585863
1.089220905
1.090586827
1.091599232
1.09146623
1.090902496
1.090982404
0.9350608658
0.9617284596
1.034121609
1.107559686
1.110309895
1.100946766
1.093472465
1.095409965
1.097346949
1.094155921
1.092864891
1.095717723
1.095182943
1.096188856
1.098487501
1.10030527
1.100824756
1.100359641
1.099985096
1.10008099
1.100980477
1.102291121
1.102429227
1.101660469
1.101148147
0.9389559951
0.975184631
1.062271551
1.126696673
1.124307471
1.112581733
1.104105406
1.103412757
1.104162127
1.103192109
1.102744716
1.105808498
1.105536854
1.106513385
1.10828598
1.109680726
1.110474669
1.110206081
1.109858114
1.109440055
1.109544009
1.110240613
1.11074708
1.110355129
1.109478338
0.9428456755
0.9913968642
1.093368532
1.141976027
1.131229289
1.114296004
1.109713727
1.110244085
1.110959753
1.110748643
1.110833168
1.114507724
1.114011865
1.114235528
1.115206767
1.116565074
1.117756061
1.117516712
1.117419708
1.116892799
1.116087319
1.115847377
1.116145601
1.116169942
1.115458829
0.9514176652
1.02028557
1.121578856
1.148865679
1.133504235
1.117440188
1.117727476
1.118743406
1.117496293
1.115386342
1.116354667
1.120130109
1.119193947
1.117404879
1.118752126
1.120940891
1.121368401
1.12153466
1.121828075
1.121361408
1.120449445
1.119635574
1.119407813
1.119739692
1.119609887
0.9714056515
1.063601899
1.149111538
1.155007798
1.136050641
1.121023387
1.124862923
1.128101239
1.125902558
1.120938295
1.121527957
1.123779055
1.120666049
1.118679752
1.121156009
1.123628817
1.122313631
1.12190111
1.122358419
1.122484314
1.122050621
1.120890073
1.120839093
1.121246866
1.121433924
0.9883697808
1.114966374
1.167313186
1.162791495
1.138193644
1.122127126
1.126191134
1.133726738
1.130443237
1.123632466
1.123854587
1.125927965
1.121991334
1.120651473
1.123519139
1.124424599
1.123694937
1.12206413
1.122548096
1.123322961
1.123024948
1.121944273
1.121103965
1.121198216
1.121405932
1.014215337
1.163034678
1.183089049
1.169773417
1.141169257
1.12705798
1.130597484
1.133866009
1.12976255
1.123591632
1.124438226
1.126728823
1.123226153
1.122007177
1.12486314
1.124061713
1.12441528
1.122733403
1.123105962
1.123724299
1.123644959
1.123274678
1.121966745
1.121257932
1.120803285
1.012631499
1.150833874
1.185695336
1.173057157
1.14526499
1.131456695
1.131864632
1.130191904
1.126053625
1.122455207
1.123469801
1.125989082
1.123913432
1.122644554
1.124552669
1.124420939
1.124230153
1.12309565
1.123164697
1.12388568
1.123883073
1.123805842
1.122861186
1.121780513
1.120800769
0.9865689575
1.105917077
1.175484694
1.173413944
1.149120466
1.132288023
1.129081055
1.127335066
1.123065723
1.12007988
1.121297616
1.125317204
1.124551221
1.123004513
1.123916699
1.124580573
1.124789209
1.123996692
1.123293377
1.123114354
1.122924558
1.122772354
1.122815432
1.122308837
1.120971055
0.9701071101
1.062599251
1.1511067
1.164195451
1.144128182
1.127779846
1.125068337
1.123727893
1.123230418
1.120381398
1.120536167
1.123893968
1.122378145
1.12102478
1.121519019
1.123102039
1.123851139
1.123684517
1.123300599
1.12223392
1.121014242
1.120899488
1.121524892
1.121622265
1.121061942
0.9513236469
1.027387886
1.120644645
1.147432385
1.134135348
1.118015004
1.117635259
1.121735076
1.122421276
1.117770959
1.117546838
1.120163118
1.117921373
1.116885484
1.118075553
1.120201459
1.120953837
1.121066297
1.121114189
1.120457266
1.119426861
1.118631084
1.118652173
1.119270089
1.119464828
0.9431045567
0.9986855181
1.092736099
1.13058822
1.122616933
1.108901348
1.11019166
1.116354273
1.117070113
1.111991765
1.111623016
1.114483395
1.112830039
1.111882017
1.114237415
1.116162975
1.1167151
1.116210396
1.116366542
1.116238573
1.116503823
1.116304474
1.115395001
1.115381296
1.115598814
0.9396420275
0.975048594
1.065425764
1.119484216
1.114504373
1.101817325
1.10061299
1.104945727
1.106717369
1.10375383
1.103960492
1.106857528
1.105448795
1.104840887
1.107060317
1.109314507
1.110113614
1.109707458
1.109818357
1.110013021
1.110289956
1.110419905
1.11012474
1.109960248
1.10969271
0.9359365493
0.9578878046
1.035030238
1.106327134
1.10896316
1.096660287
1.091147289
1.09283284
1.093610577
1.092715397
1.093683142
1.09697101
1.09613142
1.096020529
1.098353845
1.100182134
1.100780502
1.100473948
1.100983354
1.101505733
1.101929069
1.102126391
1.101904348
1.101657445
1.101393067
0.9312761013
0.9467189125
1.005297238
1.087241592
1.102352727
1.094134559
1.085669074
1.083043493
1.082169152
1.081854614
1.081896219
1.085327463
1.085316031
1.085919539
1.087851402
1.088888377
1.089663225
1.089694091
1.090372437
1.091152835
1.091559059
1.092003203
1.092239061
1.091798712
1.091338786
0.9282096295
0.9390067013
0.9822403481
1.059448439
1.090633697
1.084990721
1.078905811
1.074911717
1.073478479
1.072719287
1.070817293
1.073593862
1.073409857
1.074100079
1.075608297
1.076390595
1.077124056
1.077961631
1.078603126
1.078955179
1.079073057
1.079742575
1.080608244
1.080826731
1.080528641
0.9248426539
0.9323601935
0.9619911471
1.03290956
1.075036952
1.070265414
1.065720265
1.063993649
1.065234158
1.063395759
1.060796142
1.062905015
1.062231969
1.062299322
1.06322957
1.063703311
1.064850807
1.06626607
1.066662758
1.06624942
1.06615068
1.066561344
1.067507569
1.0682183
1.068398712
0.9221015618
0.9251867194
0.945023024
1.002684639
1.052149208
1.05138919
1.051186163
1.053083903
1.054892543
1.052613007
1.051317299
1.053134374
1.052398949
1.051314792
1.051944391
1.052084366
1.05394146
1.054956853
1.05467286
1.053782946
1.053483723
1.053695367
1.054015634
1.054871543
1.055400971
0.9208842075
0.9202729318
0.932088056
0.96782776
1.02730988
1.036996046
1.039948842
1.043174838
1.043939344
1.039612815
1.039960272
1.043178229
1.041573945
1.040077483
1.041357035
1.041918453
1.04275477
1.042683565
1.04262227
1.042128241
1.041967385
1.041989368
1.0417953
1.041842527
1.04229718
0.9189560385
0.9166052396
0.9224092334
0.9440702151
1.005408482
1.026541389
1.031261252
1.033119283
1.03161347
1.028320438
1.028890518
1.031986539
1.030885822
1.029587487
1.030433294
1.031268744
1.031782548
1.031134103
1.030795092
1.030998928
1.03150709
1.031532731
1.031117319
1.030592744
1.030534214
0.918523153
0.9126205596
0.9132010044
0.9241081775
0.9770494791
1.01513481
1.023241717
1.024790965
1.020552164
1.019606892
1.018464105
1.021081429
1.01989122
1.019384545
1.020446967
1.02130893
1.021243379
1.020456535
1.020156308
1.021028251
1.0216734
1.022024421
1.021957216
1.021251759
1.020929049
0.9182716087
0.9099842855
0.9042472978
0.9052697507
0.949753667
1.000523812
1.013213924
1.013750383
1.011777073
1.012112704
1.009037942
1.010870392
1.009322665
1.009448002
1.011051386
1.011495139
1.011155436
1.010884395
1.011229723
1.012560026
1.013151757
1.013632202
1.01405595
1.013768983
1.013607083
0.920022018
0.9077977874
0.8972862771
0.8923657556
0.93160435
0.9792905261
1.00123944
1.004603498
1.004215011
1.004656635
1.001055583
1.002699654
1.001031042
1.001223889
1.002774034
1.00295448
1.002542541
1.00329206
1.004760931
1.005911719
1.006248184
1.006797985
1.007737318
1.008070397
1.00833975
0.9213470145
0.9065661843
0.8915804538
0.8791702445
0.9086464075
0.9624848074
0.9874003787
0.9957378392
0.9973206739
0.9965199713
0.9939871136
0.9965824799
0.9955125301
0.9955684208
0.9968476422
0.996733098
0.9968627334
0.9988580445
1.000816073
1.001276424
1.001292323
1.001789321
1.002798584
1.003542563
1.004453354
0.9219892751
0.9058372131
0.8870850977
0.8692147819
0.8869149144
0.9437574545
0.9757884797
0.9871009875
0.9905179507
0.9877809486
0.9872899841
0.9917126489
0.9915444266
0.9918516271
0.9931411952
0.9936145494
0.9948142797
0.997248763
0.9987415784
0.9989323878
0.9987644331
0.9993854378
1.000451616
1.001508663
1.002110395
0.9231633936
0.9052843839
0.8835615343
0.8617206332
0.8729552961
0.9209943504
0.9675239373
0.9821479543
0.9875460769
0.9846307654
0.9846440394
0.9894107257
0.9890697783
0.9893689149
0.9909857101
0.9928601938
0.9949821981
0.9969133485
0.9976137638
0.9978291861
0.9983123489
0.999402422
1.000602847
1.001262041
1.001279389
0.9235714531
0.9061509859
0.8807147627
0.8547694409
0.8612613338
0.9054325102
0.961588233
0.9813297845
0.9862100848
0.9857532038
0.9846858607
0.9893088411
0.9886810478
0.9884389565
0.9902745103
0.9930509125
0.9952642839
0.9962282347
0.9961009797
0.9968257335
0.9985087262
0.999837483
1.001000676
1.001098055
1.000917545
0.9227692677
0.9078375428
0.8775000701
0.8491454909
0.8514619843
0.8939723017
0.9528742821
0.9797331533
0.9859017658
0.9889677913
0.9859772237
0.9901293513
0.9891341771
0.9887503961
0.9905018871
0.993200763
0.9943122465
0.9942864741
0.9943481769
0.9962203405
0.9985130544
0.9996856525
1.000605086
1.000458628
1.000594668
0.9204199413
0.9108410886
0.8730065758
0.8458887828
0.8449303277
0.8765178297
0.9415471501
0.9780078083
0.9882750979
0.9921174777
0.9872532411
0.9908006688
0.9893981092
0.9893031649
0.9911706922
0.9929410241
0.9926947864
0.9930171064
0.9947906678
0.9966535752
0.9980197795
0.9987780694
0.9995806682
0.9998816814
1.000861306
0.9169989516
0.9137471721
0.867658385
0.842087704
0.8398622671
0.8617496459
0.9311354984
0.9789685637
0.9913336653
0.9922135104
0.9866757382
0.9902418804
0.9890656515
0.9898455381
0.9923999668
0.9931564359
0.9931168991
0.9943211238
0.9965309259
0.997955159
0.9981036266
0.9985755624
0.9997709889
1.000824305
1.001620616
0.9109133905
0.9160605868
0.8620443776
0.8381106501
0.8377235436
0.8537628872
0.9175936137
0.9795467008
0.992884121
0.990112692
0.986628587
0.9913812879
0.9905479485
0.9915794005
0.9941187066
0.9948570727
0.9947221017
0.9958126042
0.9983668134
0.9992122402
0.9991082957
0.9996389799
1.000883
1.001906237
1.002352141
0.9084034108
0.9161342363
0.854992065
0.8344360306
0.8348874406
0.8438777193
0.8951971037
0.9714181094
0.9939230403
0.9897783018
0.9887059157
0.9937094546
0.9925731978
0.9932805993
0.9955276121
0.99639757
0.9965997207
0.9978386759
0.999136819
0.9996452807
1.000059672
1.000915552
1.002123899
1.002702251
1.002615052
1.050751148
0.8993910494
0.8435605891
0.8292246299
0.832564813
0.8352851968
0.8566060858
0.9191109447
0.9720613704
0.9901130968
0.9939569288
1.00012218
0.9991071948
0.9991511858
1.000324676
1.001412101
1.001410938
1.001559136
1.002022051
1.002634037
1.003409848
1.004153829
1.004741544
1.004871215
1.004950781
1.106815345
1.04437095
0.9715983583
0.9092326563
0.8779477245
0.8498028069
0.8508354396
0.8612720659
0.9011544788
0.9597992137
0.992327704
1.005436577
1.007359798
1.007701522
1.008948306
1.008788703
1.008290339
1.007578389
1.007696176
1.008124361
1.008345356
1.008561113
1.008643151
1.00874137
1.008677709
1.122229311
1.100428998
1.048172189
0.9891294604
0.9370132948
0.8930820772
0.8795669984
0.8763703908
0.8774154677
0.8923117146
0.937397234
0.9784597583
1.003220913
1.007407865
1.013359486
1.01359754
1.012307854
1.012130122
1.011800722
1.011254833
1.010602624
1.010707025
1.011112603
1.011879556
1.011736258
1.11900171
1.117474706
1.09740119
1.056505935
1.005245454
0.9598738447
0.9288137073
0.8972054693
0.8768328655
0.8776411759
0.8874279544
0.9157049126
0.957965581
0.9888538548
1.008484052
1.009705772
1.011418215
1.013622838
1.013058957
1.012105616
1.010941473
1.010846737
1.011154299
1.011749683
1.012263212
1.114994925
1.119011213
1.11491635
1.09508133
1.057139533
1.016053476
0.9713591663
0.9293722389
0.9091171729
0.8892027648
0.8915355875
0.8926648881
0.9042101674
0.9352679683
0.9728554909
0.9901930954
1.007382377
1.010474055
1.010407825
1.011027014
1.010900012
1.010406598
1.0104263
1.010458293
1.010996716
1.078475166
1.104545448
1.110799787
1.110267436
1.095185385
1.064107793
1.020656408
0.9872460153
0.9545389486
0.9207057407
0.9061764122
0.8911143781
0.8919402365
0.8980495812
0.9180384553
0.9533405308
0.9889844966
0.997583081
1.002764259
1.009014271
1.009784133
1.009262573
1.00883378
1.008471006
1.008767065
1.025656722
1.077204472
1.106941216
1.113022452
1.110228051
1.093335436
1.063837826
1.029766323
0.9921210887
0.9612120545
0.9340231746
0.9084310467
0.9004497742
0.9014402431
0.9022378688
0.9124537652
0.9369836135
0.967787688
0.990593595
1.004956043
1.00513033
1.005621758
1.005516574
1.005281858
1.005925843
1.003651001
1.032819589
1.075963179
1.10619379
1.10605496
1.104872928
1.092954254
1.066837794
1.034117738
1.00357477
0.9728166264
0.9466489423
0.9277149974
0.9106265603
0.9016059587
0.9021821715
0.9065678528
0.9272926917
0.9534094642
0.9798401752
0.9896622197
0.9989877142
1.002094767
1.003700187
1.005113475
1.000218474
1.006838024
1.035372328
1.080519175
1.097622939
1.105746003
1.103904279
1.092061405
1.068161159
1.039190104
1.007761867
0.9813991084
0.9551630156
0.9292026407
0.9171861185
0.9070763487
0.9074343142
0.909625485
0.918609621
0.9389197292
0.9693776243
0.9922148061
0.9984220635
1.002764869
1.004680807
1.000005458
1.000795442
1.009361778
1.037191246
1.073261899
1.102550926
1.10287643
1.100927813
1.09039528
1.06916247