/*--------------------------------*- C++ -*----------------------------------*\
  =========                 |
  \\      /  F ield         | OpenFOAM: The Open Source CFD Toolbox
   \\    /   O peration     | Website:  https://openfoam.org
    \\  /    A nd           | Version:  7
     \\/     M anipulation  |
\*---------------------------------------------------------------------------*/
FoamFile
{
    version     2.0;
    format      ascii;
    class       volVectorField;
    location    "1.4";
    object      U;
}
// * * * * * * * * * * * * * * * * * * * * * * * * * * * * * * * * * * * * * //

dimensions      [0 1 -1 0 0 0 0];

internalField   nonuniform List<vector> 
5000
(
(3 -6.877397664e-16 0)
(3 -1.476560413e-15 0)
(3 -1.184233707e-15 0)
(3 -2.58692894e-15 0)
(3 -2.819622073e-15 0)
(3 -3.330077828e-15 0)
(3 -3.327324839e-15 0)
(3 -3.124838374e-15 0)
(3 -2.311123269e-15 0)
(3 -1.180798684e-15 0)
(3 -3.326123328e-15 0)
(3 -4.738553434e-15 0)
(3 -4.670569618e-15 0)
(3 -3.182967705e-15 0)
(3 -2.541571772e-15 0)
(3 -2.929168575e-15 0)
(3 -3.244899737e-15 0)
(3 -3.903690189e-15 0)
(3 -1.528730832e-15 0)
(3 -4.742267501e-16 0)
(3 -5.085615611e-16 0)
(3 1.351938422e-15 0)
(3 1.380149493e-15 0)
(3 -5.732113206e-16 0)
(3 -2.192876835e-15 0)
(3 -7.874461221e-17 0)
(3 -3.46156923e-16 0)
(3 1.634928439e-15 0)
(3 -1.902561473e-15 0)
(3 -1.916949223e-15 0)
(3 -1.8627881e-15 0)
(3 -4.295918894e-15 0)
(3 -5.540606411e-15 0)
(3 -3.928427511e-15 0)
(3 -5.36571839e-15 0)
(3 -4.436344172e-15 0)
(3 -6.57370112e-15 0)
(3 -5.402856829e-15 0)
(3 -3.083139187e-15 0)
(3 -1.686422662e-15 0)
(3 -2.375483186e-15 0)
(3 -4.524122443e-15 0)
(3 -6.929969816e-15 0)
(3 -5.6757195e-15 0)
(3 -4.844415776e-15 0)
(3 -4.397267087e-15 0)
(3 -4.355533827e-15 0)
(3 -2.005988196e-15 0)
(3 -1.025014179e-15 0)
(3 -1.747294718e-16 0)
(3 -3.836652034e-17 0)
(3 2.655805994e-15 0)
(3 3.181330401e-15 0)
(3 2.672088788e-15 0)
(3 9.545279092e-16 0)
(3 7.770399847e-16 0)
(3 -8.026154736e-16 0)
(3 -2.083274713e-15 0)
(3 -4.504616307e-15 0)
(3 -2.364294715e-15 0)
(3 -8.863806639e-16 0)
(3 -1.326004367e-15 0)
(3 -2.740325672e-15 0)
(3 -3.526333028e-15 0)
(3 -4.245863106e-15 0)
(3 -3.366352063e-15 0)
(3 -4.232427033e-15 0)
(3 -5.440189422e-15 0)
(3 -9.024378621e-15 0)
(3 -1.110254931e-14 0)
(3 -1.361716716e-14 0)
(3 -1.617382012e-14 0)
(3 -1.463869579e-14 0)
(3 -1.381278906e-14 0)
(3 -1.177995417e-14 0)
(3 -1.268632197e-15 0)
(3 3.067592262e-16 0)
(3 7.686512616e-17 0)
(3 6.130350929e-16 0)
(3 -1.257241051e-15 0)
(3 -1.507256082e-15 0)
(3 -1.055796357e-15 0)
(3 4.910324846e-16 0)
(3 -1.642130838e-15 0)
(3 -2.402532007e-15 0)
(3 -3.405747807e-15 0)
(3 -1.854502029e-15 0)
(3 -1.770268455e-15 0)
(3 -8.686195701e-16 0)
(3 -2.111418034e-15 0)
(3 7.431899973e-17 0)
(3 1.462720579e-15 0)
(3 1.199058951e-15 0)
(3 -6.100568384e-16 0)
(3 -4.312939195e-15 0)
(3 -7.545104263e-15 0)
(3 -7.230124242e-15 0)
(3 -1.300385825e-14 0)
(3 -1.543353019e-14 0)
(3 -1.550067274e-14 0)
(3 4.273654275e-16 0)
(3 3.501344873e-16 0)
(3 -7.265470228e-17 0)
(3 -3.515010627e-15 0)
(3 -3.353970195e-15 0)
(3 -2.710233122e-15 0)
(3 -1.993129852e-15 0)
(3 -9.757393239e-16 0)
(3 -2.61481453e-15 0)
(3 -5.510590681e-15 0)
(3 -7.57268779e-15 0)
(3 -6.858063837e-15 0)
(3 -4.871912964e-15 0)
(3 -2.353176387e-15 0)
(3 -7.216831269e-16 0)
(3 6.62603684e-16 0)
(3 2.858001994e-16 0)
(3 2.776226373e-16 0)
(3 6.784658394e-17 0)
(3 1.608391843e-15 0)
(3 7.922474233e-16 0)
(3 2.916844502e-16 0)
(3 -4.182594971e-15 0)
(3 -8.155845931e-15 0)
(3 -9.83461563e-15 0)
(3 1.106771598e-15 0)
(3 4.841818605e-16 0)
(3 -1.667256995e-15 0)
(3 -3.917790612e-15 0)
(3 -3.62061051e-15 0)
(3 -3.662234615e-15 0)
(3 -3.128006075e-15 0)
(3 -3.361418557e-15 0)
(3 -4.364656062e-15 0)
(3 -2.079788846e-15 0)
(3 -8.468285927e-16 0)
(3 -2.179371159e-16 0)
(3 -1.36820908e-15 0)
(3 -3.454325032e-15 0)
(3 -4.147306897e-15 0)
(3 -2.768323412e-15 0)
(3 -2.803391742e-15 0)
(3 -3.733223648e-15 0)
(3 -3.58032339e-15 0)
(3 -2.956419314e-15 0)
(3 -1.7644235e-15 0)
(3 -1.336361354e-15 0)
(3 2.296257121e-16 0)
(3 -6.927160435e-16 0)
(3 -2.955299328e-15 0)
(3 2.566873323e-16 0)
(3 -7.50726781e-16 0)
(3 -2.593033071e-15 0)
(3 -1.182440523e-15 0)
(3 -2.734796456e-15 0)
(3 -2.963287802e-15 0)
(3 -1.890890832e-15 0)
(3 -1.754119521e-15 0)
(3 -2.484738455e-15 0)
(3 8.077947166e-16 0)
(3 5.201550161e-15 0)
(3 8.176887949e-15 0)
(3 6.941145895e-15 0)
(3 5.321628375e-15 0)
(3 3.930949508e-15 0)
(3 1.498737241e-15 0)
(3 -1.733844807e-15 0)
(3 8.078744669e-16 0)
(3 6.603307215e-16 0)
(3 1.325884284e-15 0)
(3 7.8710342e-16 0)
(3 2.088545579e-15 0)
(3 4.672292024e-15 0)
(3 2.468184068e-15 0)
(3 1.695132061e-15 0)
(3 -1.301371209e-15 0)
(3 -1.339062848e-15 0)
(3 -1.23519965e-16 0)
(3 3.98304366e-15 0)
(3 4.030356707e-15 0)
(3 3.064380576e-15 0)
(3 3.695884047e-15 0)
(3 4.270934744e-15 0)
(3 6.223891897e-15 0)
(3 7.075991471e-15 0)
(3 4.314822083e-15 0)
(3 2.563033705e-15 0)
(3 4.881322646e-15 0)
(3 5.474709688e-15 0)
(3 4.62856666e-15 0)
(3 1.487121976e-15 0)
(3 1.529604257e-17 0)
(3 1.977813833e-15 0)
(3 3.203359472e-15 0)
(3 4.782248196e-15 0)
(3 5.711276721e-15 0)
(3 6.878894911e-15 0)
(3 4.052287117e-15 0)
(3 2.621085446e-15 0)
(3 1.934453915e-15 0)
(3 -5.378418549e-16 0)
(3 5.759256844e-17 0)
(3 1.297892769e-15 0)
(3 1.808246467e-15 0)
(3 3.265494896e-15 0)
(3 4.925599542e-15 0)
(3 5.744967938e-15 0)
(3 7.217151862e-15 0)
(3 8.275610838e-15 0)
(3 7.008139939e-15 0)
(3 5.67926113e-15 0)
(3 5.388232607e-15 0)
(3 5.121402145e-15 0)
(3 4.106514784e-15 0)
(3 3.144746178e-15 0)
(3 2.677383135e-15 0)
(3 3.40044405e-15 0)
(3 2.954160745e-16 0)
(3 1.005206226e-15 0)
(3 7.170333118e-16 0)
(3 2.06072667e-15 0)
(3 4.168007835e-15 0)
(3 4.067873291e-15 0)
(3 4.69437001e-15 0)
(3 2.370522981e-15 0)
(3 8.762601737e-17 0)
(3 -5.446354308e-16 0)
(3 -1.225774948e-15 0)
(3 -5.479457583e-16 0)
(3 -1.914228373e-16 0)
(3 1.518524613e-15 0)
(3 2.053079755e-15 0)
(3 4.210376439e-15 0)
(3 4.230304148e-15 0)
(3 4.180059034e-15 0)
(3 5.719586223e-15 0)
(3 5.437924651e-15 0)
(3 5.102677915e-15 0)
(3 4.483680602e-15 0)
(3 3.965056988e-15 0)
(3 4.489474612e-15 0)
(3 5.932666338e-15 0)
(3 4.669092582e-15 0)
(3 4.457316304e-15 0)
(3 2.997706934e-15 0)
(3 1.32791554e-15 0)
(3 1.685414622e-15 0)
(3 1.972712869e-15 0)
(3 3.449699337e-16 0)
(3 -1.890153193e-15 0)
(3 -6.409626232e-16 0)
(3 -5.938535792e-16 0)
(3 -6.64742381e-16 0)
(3 1.24214703e-15 0)
(3 3.587310121e-15 0)
(3 3.70621262e-15 0)
(3 4.091159189e-15 0)
(3 3.685011373e-15 0)
(3 2.680710688e-15 0)
(3 2.615419215e-15 0)
(3 3.02659534e-15 0)
(3 1.514135727e-15 0)
(3 2.130553543e-15 0)
(3 1.672236275e-15 0)
(3 2.048246696e-15 0)
(3 2.066945319e-15 0)
(3 3.886742007e-15 0)
(3 3.594236331e-15 0)
(3 3.502932621e-15 0)
(3 2.477398193e-15 0)
(3 1.272604908e-15 0)
(3 -6.058459816e-16 0)
(3 -2.304565785e-15 0)
(3 -1.095083414e-15 0)
(3 8.50864594e-17 0)
(3 1.440936924e-15 0)
(3 1.696759698e-15 0)
(3 1.070221998e-15 0)
(3 1.369534636e-15 0)
(3 1.624967258e-15 0)
(3 1.50793179e-15 0)
(3 -4.957240107e-16 0)
(3 -2.860444494e-15 0)
(3 -4.682904354e-15 0)
(3 -5.222270807e-15 0)
(3 -5.987120461e-15 0)
(3 -4.411889891e-15 0)
(3 -2.734487786e-15 0)
(3 -7.229265655e-16 0)
(3 3.146803236e-15 0)
(3 2.98345381e-15 0)
(3 3.455738963e-15 0)
(3 3.77149994e-15 0)
(3 3.474828875e-15 0)
(3 5.550722693e-15 0)
(3 6.983153701e-15 0)
(3 6.107579433e-15 0)
(3 6.209515821e-15 0)
(3 6.964079667e-15 0)
(3 5.135190196e-15 0)
(3 1.31282961e-15 0)
(3 1.740731708e-15 0)
(3 1.24089091e-15 0)
(3 1.381841669e-15 0)
(3 -4.948681201e-16 0)
(3 -3.822687922e-15 0)
(3 -5.797349725e-15 0)
(3 -6.604443825e-15 0)
(3 -5.34874809e-15 0)
(3 -4.023304727e-15 0)
(3 -2.100882215e-15 0)
(3 5.072081102e-16 0)
(3 1.045406982e-15 0)
(3 6.214368073e-15 0)
(3 6.129990089e-15 0)
(3 5.800478561e-15 0)
(3 5.756794283e-15 0)
(3 6.700475564e-15 0)
(3 6.576284591e-15 0)
(3 7.35788864e-15 0)
(3 7.552657503e-15 0)
(3 6.807925451e-15 0)
(3 6.596028278e-15 0)
(3 5.429587665e-15 0)
(3 3.379453193e-15 0)
(3 -1.562752465e-16 0)
(3 3.266670771e-16 0)
(3 1.388736773e-15 0)
(3 8.87090325e-16 0)
(3 1.366719759e-15 0)
(3 1.26833524e-15 0)
(3 1.917667374e-15 0)
(3 2.114449498e-15 0)
(3 2.443200032e-15 0)
(3 3.093476311e-15 0)
(3 6.581521119e-15 0)
(3 6.345217721e-15 0)
(3 4.624412088e-15 0)
(3 3.406028613e-15 0)
(3 3.753734816e-16 0)
(3 1.140751156e-15 0)
(3 1.536912133e-15 0)
(3 1.442889082e-15 0)
(3 1.203852514e-15 0)
(3 5.886519273e-16 0)
(3 -5.679093033e-17 0)
(3 -1.49637137e-15 0)
(3 -7.087668934e-16 0)
(3 -1.078998864e-15 0)
(3 1.110258776e-15 0)
(3 -6.019978084e-16 0)
(3 -1.537317122e-15 0)
(3 -8.127726832e-16 0)
(3 6.444676868e-16 0)
(3 2.448936806e-15 0)
(3 4.736872964e-15 0)
(3 4.360926558e-15 0)
(3 3.896578631e-15 0)
(3 2.155067334e-15 0)
(3 7.408633952e-16 0)
(3 -1.733663847e-15 0)
(3 -2.626689863e-15 0)
(3 -1.39817364e-15 0)
(3 -5.081099273e-15 0)
(3 -5.10903001e-15 0)
(3 -3.608450979e-15 0)
(3 -3.863243975e-15 0)
(3 -3.766236286e-15 0)
(3 -2.997324129e-15 0)
(3 -4.617192227e-15 0)
(3 -5.110304993e-15 0)
(3 -4.307157624e-15 0)
(3 -3.212938371e-15 0)
(3 -1.459811495e-15 0)
(3 -2.945464427e-16 0)
(3 -7.246656373e-16 0)
(3 -1.814773843e-15 0)
(3 -8.086844316e-16 0)
(3 2.470421104e-16 0)
(3 -3.002032039e-16 0)
(3 8.148781358e-16 0)
(3 4.709157448e-16 0)
(3 -3.055782453e-16 0)
(3 9.222625519e-16 0)
(3 2.089218597e-16 0)
(3 -2.295374315e-15 0)
(3 -7.386883989e-15 0)
(3 -8.449266991e-15 0)
(3 -9.092354211e-15 0)
(3 -8.459096115e-15 0)
(3 -7.744700226e-15 0)
(3 -7.847835481e-15 0)
(3 -6.940771443e-15 0)
(3 -5.357724525e-15 0)
(3 -4.897460371e-15 0)
(3 -5.636620291e-15 0)
(3 -4.210597116e-15 0)
(3 -2.935391878e-15 0)
(3 -3.332560318e-16 0)
(3 8.702461296e-16 0)
(3 5.697093379e-17 0)
(3 9.175730217e-16 0)
(3 1.394091152e-15 0)
(3 6.167461361e-16 0)
(3 2.914606861e-16 0)
(3 -7.497412215e-16 0)
(3 5.797870317e-17 0)
(3 -2.660839525e-15 0)
(3 -2.761225848e-15 0)
(3 -1.291994023e-15 0)
(3 -4.744347529e-15 0)
(3 -7.833210545e-15 0)
(3 -1.16562886e-14 0)
(3 -1.093294839e-14 0)
(3 -1.261344994e-14 0)
(3 -1.176265956e-14 0)
(3 -7.816517562e-15 0)
(3 -5.636896822e-15 0)
(3 -4.03582151e-15 0)
(3 -7.22354135e-16 0)
(3 1.616049366e-15 0)
(3 3.687628895e-15 0)
(3 3.33156687e-15 0)
(3 4.107337575e-15 0)
(3 5.58432012e-15 0)
(3 -5.467440089e-17 0)
(3 1.832426372e-15 0)
(3 1.472682157e-15 0)
(3 2.855699083e-16 0)
(3 -8.988955234e-16 0)
(3 -3.20874173e-15 0)
(3 -2.304839306e-15 0)
(3 -2.950780072e-15 0)
(3 -4.929297138e-15 0)
(3 -1.113409756e-14 0)
(3 -1.237732538e-14 0)
(3 -1.10431363e-14 0)
(3 -1.112799631e-14 0)
(3 -5.806384345e-15 0)
(3 -5.085936764e-15 0)
(3 -2.265453195e-15 0)
(3 1.333544209e-15 0)
(3 1.107702042e-15 0)
(3 -4.529400961e-16 0)
(3 -2.111027497e-15 0)
(3 4.428683149e-16 0)
(3 1.127241304e-15 0)
(3 2.491612483e-15 0)
(3 3.791654149e-15 0)
(3 4.398721924e-15 0)
(3 -3.775244974e-16 0)
(3 -6.572267971e-16 0)
(3 -8.763248351e-16 0)
(3 -1.836829218e-15 0)
(3 -4.418387214e-15 0)
(3 -3.733030255e-15 0)
(3 -3.626105878e-15 0)
(3 -3.021765662e-15 0)
(3 -4.023967103e-15 0)
(3 -6.406760175e-15 0)
(3 -5.743482495e-15 0)
(3 -3.327574649e-15 0)
(3 -2.497039682e-15 0)
(3 -5.617240981e-17 0)
(3 3.534961545e-15 0)
(3 3.837299231e-15 0)
(3 2.212501278e-15 0)
(3 2.205975132e-15 0)
(3 2.530140963e-16 0)
(3 -4.593930086e-16 0)
(3 -3.789936145e-16 0)
(3 6.46592432e-16 0)
(3 1.667142153e-15 0)
(3 7.777674605e-16 0)
(3 7.441379379e-16 0)
(3 -1.578348637e-15 0)
(3 -4.609317494e-15 0)
(3 -4.291129277e-15 0)
(3 -3.441740339e-15 0)
(3 -1.753734667e-15 0)
(3 -5.25438928e-16 0)
(3 -4.334502065e-16 0)
(3 -1.217740178e-15 0)
(3 -2.151437268e-15 0)
(3 4.014058656e-16 0)
(3 2.527241306e-15 0)
(3 5.65936949e-15 0)
(3 7.351705696e-15 0)
(3 5.164187024e-15 0)
(3 4.310739591e-15 0)
(3 2.439863287e-15 0)
(3 -1.043633906e-15 0)
(3 -1.034027115e-15 0)
(3 3.351829743e-16 0)
(3 1.869897759e-15 0)
(3 6.822699312e-16 0)
(3 1.507160522e-15 0)
(3 1.803715666e-15 0)
(3 -1.546866555e-16 0)
(3 -5.154895868e-15 0)
(3 2.451681863e-16 0)
(3 -5.733040764e-16 0)
(3 -2.39301056e-15 0)
(3 -3.463814165e-15 0)
(3 -3.098589234e-15 0)
(3 -2.435793939e-15 0)
(3 -2.229217873e-15 0)
(3 -3.471088821e-15 0)
(3 -3.607982239e-15 0)
(3 -1.249197416e-15 0)
(3 2.681984486e-15 0)
(3 3.106345219e-15 0)
(3 3.814115405e-15 0)
(3 1.79217124e-15 0)
(3 -1.246628425e-15 0)
(3 -1.04016435e-15 0)
(3 -4.06586538e-15 0)
(3 -6.986534515e-15 0)
(3 -3.157604551e-15 0)
(3 -1.828763098e-15 0)
(3 -1.210335096e-15 0)
(3 -5.059867338e-16 0)
(3 -7.482976483e-16 0)
(3 -1.379426393e-15 0)
(3 -4.332083428e-15 0)
(3 1.883882542e-15 0)
(3 3.650129247e-15 0)
(3 1.051535243e-15 0)
(3 -2.25789149e-15 0)
(3 -7.38844505e-15 0)
(3 -7.71928824e-15 0)
(3 -9.674318015e-15 0)
(3 -8.797726742e-15 0)
(3 -5.52807606e-15 0)
(3 -3.113281239e-15 0)
(3 -3.110819131e-15 0)
(3 -2.720320512e-15 0)
(3 -3.895960879e-15 0)
(3 -5.118526158e-15 0)
(3 -5.497187e-15 0)
(3 -5.535334321e-15 0)
(3 -6.404406308e-15 0)
(3 -6.657698912e-15 0)
(3 -7.108055918e-15 0)
(3 -6.419874281e-15 0)
(3 -4.721733417e-15 0)
(3 -5.069737939e-15 0)
(3 -6.751002431e-15 0)
(3 -5.662053768e-15 0)
(3 -3.782161909e-15 0)
(3 8.706027387e-16 0)
(3 5.56447668e-16 0)
(3 -1.379989155e-15 0)
(3 -2.59543498e-15 0)
(3 -4.41430998e-15 0)
(3 -7.187347099e-15 0)
(3 -8.070218276e-15 0)
(3 -4.976367679e-15 0)
(3 -1.828409877e-15 0)
(3 -1.425618172e-15 0)
(3 -3.312429267e-15 0)
(3 -5.836231235e-15 0)
(3 -6.592785585e-15 0)
(3 -4.356258435e-15 0)
(3 -1.778021133e-15 0)
(3 -9.44736938e-16 0)
(3 -4.695083926e-16 0)
(3 1.091547629e-15 0)
(3 7.340625209e-17 0)
(3 -1.213643822e-15 0)
(3 -1.731646867e-15 0)
(3 -3.21595703e-15 0)
(3 -3.365901962e-15 0)
(3 -2.640154914e-15 0)
(3 -3.167581746e-15 0)
(3 1.597176535e-16 0)
(3 -3.699015489e-17 0)
(3 -1.888224174e-15 0)
(3 -8.363541448e-16 0)
(3 -1.206787849e-15 0)
(3 -8.774338577e-16 0)
(3 -3.607589175e-16 0)
(3 -7.121941164e-16 0)
(3 -1.560896351e-15 0)
(3 -2.905451615e-15 0)
(3 -4.068424936e-15 0)
(3 -4.578017301e-15 0)
(3 -2.753627676e-15 0)
(3 3.774078486e-17 0)
(3 2.527135338e-15 0)
(3 3.026287137e-15 0)
(3 1.898940081e-15 0)
(3 -3.087726747e-17 0)
(3 -1.50252011e-15 0)
(3 -3.87540061e-17 0)
(3 1.096030452e-16 0)
(3 1.395265874e-15 0)
(3 3.190758393e-15 0)
(3 6.414884248e-15 0)
(3 7.444329615e-15 0)
(3 7.22852031e-17 0)
(3 -9.923128504e-16 0)
(3 1.57804605e-15 0)
(3 2.563657223e-15 0)
(3 3.67449843e-15 0)
(3 4.581110179e-15 0)
(3 3.032870684e-15 0)
(3 1.860419671e-17 0)
(3 -4.473688201e-15 0)
(3 -4.16466026e-15 0)
(3 -3.14946149e-15 0)
(3 1.499835959e-15 0)
(3 2.884507052e-15 0)
(3 2.634825121e-15 0)
(3 1.622955281e-15 0)
(3 1.562035044e-15 0)
(3 1.144063043e-16 0)
(3 -2.611592388e-15 0)
(3 -1.890844875e-15 0)
(3 -1.536450385e-15 0)
(3 -1.108799565e-15 0)
(3 -1.796692083e-15 0)
(3 -8.213188211e-16 0)
(3 -8.168591845e-16 0)
(3 3.269330274e-15 0)
(3 -2.11596827e-15 0)
(3 -2.055249204e-15 0)
(3 -2.003443657e-15 0)
(3 -2.717703614e-15 0)
(3 -1.760112516e-15 0)
(3 -4.375081311e-16 0)
(3 1.999321829e-16 0)
(3 7.393150315e-17 0)
(3 -1.597606354e-16 0)
(3 3.806970082e-16 0)
(3 4.304102452e-16 0)
(3 -1.102264417e-16 0)
(3 -1.373997371e-15 0)
(3 -2.558578523e-15 0)
(3 -3.302965185e-15 0)
(3 -5.291445053e-15 0)
(3 -5.723929358e-15 0)
(3 -2.893652245e-15 0)
(3 -1.618754573e-15 0)
(3 -6.784052584e-16 0)
(3 -6.605002718e-16 0)
(3 -1.764582014e-15 0)
(3 -3.843398327e-15 0)
(3 -4.215202243e-15 0)
(3 -3.50847505e-15 0)
(3 1.617046734e-15 0)
(3 2.536260537e-15 0)
(3 2.373345417e-15 0)
(3 1.494653655e-15 0)
(3 1.403856856e-15 0)
(3 2.559050939e-15 0)
(3 2.736989506e-15 0)
(3 6.3953538e-16 0)
(3 4.946487232e-17 0)
(3 6.696006816e-16 0)
(3 2.023269511e-15 0)
(3 1.392334687e-15 0)
(3 -1.640637417e-16 0)
(3 -2.052255287e-15 0)
(3 -4.952184481e-15 0)
(3 -6.274544241e-15 0)
(3 -5.390243973e-15 0)
(3 -2.646834958e-15 0)
(3 9.004666135e-16 0)
(3 2.249257126e-15 0)
(3 2.655770477e-15 0)
(3 9.585279368e-17 0)
(3 -2.945584146e-15 0)
(3 -3.264234072e-15 0)
(3 -9.70812814e-16 0)
(3 -1.152661062e-14 0)
(3 -1.039170346e-14 0)
(3 -1.07390974e-14 0)
(3 -8.964577618e-15 0)
(3 -7.834748493e-15 0)
(3 -7.587075731e-15 0)
(3 -7.178098737e-15 0)
(3 -7.436469037e-15 0)
(3 -7.856018098e-15 0)
(3 -7.893803757e-15 0)
(3 -5.394777889e-15 0)
(3 -3.505070796e-15 0)
(3 -2.911826445e-15 0)
(3 -3.382031468e-15 0)
(3 -4.650065087e-15 0)
(3 -4.18577246e-15 0)
(3 -2.885474718e-15 0)
(3 -2.509431478e-15 0)
(3 -2.645337194e-15 0)
(3 -1.494009594e-15 0)
(3 4.637278562e-16 0)
(3 -1.107426201e-15 0)
(3 -2.245199885e-15 0)
(3 -2.040477835e-15 0)
(3 -4.089803115e-16 0)
(3 -1.588492109e-14 0)
(3 -1.657838779e-14 0)
(3 -1.679271725e-14 0)
(3 -1.547366853e-14 0)
(3 -1.50828627e-14 0)
(3 -1.522820569e-14 0)
(3 -1.3791273e-14 0)
(3 -1.255261695e-14 0)
(3 -1.16056834e-14 0)
(3 -1.000739466e-14 0)
(3 -9.188237315e-15 0)
(3 -6.674163542e-15 0)
(3 -5.577438172e-15 0)
(3 -5.333718657e-15 0)
(3 -4.239344943e-15 0)
(3 -3.771270499e-15 0)
(3 -4.344204173e-15 0)
(3 -5.744402623e-15 0)
(3 -5.472421396e-15 0)
(3 -4.417210084e-15 0)
(3 -2.555293575e-15 0)
(3 -2.549508416e-15 0)
(3 -1.767285348e-15 0)
(3 -1.713070437e-15 0)
(3 -1.272350487e-15 0)
(3 -1.110334186e-14 0)
(3 -1.136140324e-14 0)
(3 -1.132568976e-14 0)
(3 -1.350195314e-14 0)
(3 -1.644060172e-14 0)
(3 -1.685458822e-14 0)
(3 -1.624964828e-14 0)
(3 -1.477071615e-14 0)
(3 -1.331865278e-14 0)
(3 -1.232255417e-14 0)
(3 -1.128183828e-14 0)
(3 -1.096740232e-14 0)
(3 -9.78239893e-15 0)
(3 -8.820671757e-15 0)
(3 -8.253710613e-15 0)
(3 -8.171185998e-15 0)
(3 -7.949008917e-15 0)
(3 -8.73328503e-15 0)
(3 -7.131201789e-15 0)
(3 -6.07198794e-15 0)
(3 -5.707551335e-15 0)
(3 -5.486847453e-15 0)
(3 -5.498459066e-15 0)
(3 -5.382080332e-15 0)
(3 -5.134894196e-15 0)
(3 -4.099543429e-15 0)
(3 -4.608362734e-15 0)
(3 -5.246994969e-15 0)
(3 -6.685097275e-15 0)
(3 -7.405540504e-15 0)
(3 -8.284077939e-15 0)
(3 -9.29870349e-15 0)
(3 -8.822840988e-15 0)
(3 -9.363043952e-15 0)
(3 -9.73950553e-15 0)
(3 -9.905019699e-15 0)
(3 -1.048837548e-14 0)
(3 -1.022803216e-14 0)
(3 -1.061352079e-14 0)
(3 -1.132918163e-14 0)
(3 -1.230822082e-14 0)
(3 -1.209217162e-14 0)
(3 -1.118077839e-14 0)
(3 -1.004322313e-14 0)
(3 -9.151442725e-15 0)
(3 -8.91223526e-15 0)
(3 -7.874889145e-15 0)
(3 -7.567453198e-15 0)
(3 -6.131950978e-15 0)
(3 -5.326862829e-15 0)
(3 1.186391019e-15 0)
(3 -8.861720512e-18 0)
(3 -7.932550686e-16 0)
(3 -1.253359033e-15 0)
(3 -1.085416973e-15 0)
(3 -2.05176806e-15 0)
(3 -2.767396051e-15 0)
(3 -4.648595234e-15 0)
(3 -4.94976904e-15 0)
(3 -5.293519899e-15 0)
(3 -5.956662516e-15 0)
(3 -6.335482835e-15 0)
(3 -7.402260832e-15 0)
(3 -7.716197986e-15 0)
(3 -8.611513275e-15 0)
(3 -1.065431137e-14 0)
(3 -1.26124321e-14 0)
(3 -1.207821715e-14 0)
(3 -1.185683388e-14 0)
(3 -1.144051718e-14 0)
(3 -1.062396053e-14 0)
(3 -1.022949661e-14 0)
(3 -8.870591246e-15 0)
(3 -8.180943671e-15 0)
(3 -6.771398458e-15 0)
(3 1.107149584e-15 0)
(3 2.83503722e-16 0)
(3 2.664754157e-16 0)
(3 3.174298265e-16 0)
(3 -1.340468415e-16 0)
(3 -8.191271639e-16 0)
(3 -1.851659254e-15 0)
(3 -3.207823637e-15 0)
(3 -3.539556492e-15 0)
(3 -4.032412579e-15 0)
(3 -4.251330679e-15 0)
(3 -4.377011011e-15 0)
(3 -5.148225972e-15 0)
(3 -5.659450581e-15 0)
(3 -6.321867708e-15 0)
(3 -7.284243177e-15 0)
(3 -7.432258947e-15 0)
(3 -9.40620769e-15 0)
(3 -1.209912157e-14 0)
(3 -1.203952221e-14 0)
(3 -1.157036664e-14 0)
(3 -1.183115435e-14 0)
(3 -1.197023591e-14 0)
(3 -1.15283434e-14 0)
(3 -1.073609805e-14 0)
(3 1.81954465e-15 0)
(3 1.450484031e-15 0)
(3 1.216045045e-15 0)
(3 5.815692761e-16 0)
(3 2.38637697e-16 0)
(3 4.445010789e-16 0)
(3 -2.018492623e-17 0)
(3 -4.133912794e-16 0)
(3 -1.816480339e-16 0)
(3 -2.232019946e-16 0)
(3 -7.488985368e-16 0)
(3 -2.050987054e-15 0)
(3 -3.348276286e-15 0)
(3 -5.300891033e-15 0)
(3 -5.996817742e-15 0)
(3 -5.812835702e-15 0)
(3 -4.449291425e-15 0)
(3 -4.213641573e-15 0)
(3 -4.466284253e-15 0)
(3 -5.967890881e-15 0)
(3 -6.307018912e-15 0)
(3 -7.151427245e-15 0)
(3 -8.052023352e-15 0)
(3 -1.021546778e-14 0)
(3 -1.052380772e-14 0)
(3 -2.208007219e-15 0)
(3 -1.842380144e-15 0)
(3 -2.270972964e-15 0)
(3 -3.263005109e-15 0)
(3 -3.49704642e-15 0)
(3 -3.104340192e-15 0)
(3 -2.201066971e-15 0)
(3 -1.618485838e-15 0)
(3 -1.155158371e-15 0)
(3 -8.476845838e-16 0)
(3 -1.83714053e-15 0)
(3 -3.429063883e-15 0)
(3 -6.029333229e-15 0)
(3 -6.889112963e-15 0)
(3 -6.358236886e-15 0)
(3 -5.169598933e-15 0)
(3 -3.57568808e-15 0)
(3 -1.997703178e-15 0)
(3 -2.919551522e-16 0)
(3 -1.598110433e-16 0)
(3 -6.059192263e-16 0)
(3 -1.956988896e-15 0)
(3 -2.85791027e-15 0)
(3 -3.043386151e-15 0)
(3 -4.731760559e-15 0)
(3 2.457620693e-16 0)
(3 2.172272907e-16 0)
(3 -5.07622272e-16 0)
(3 -1.702490058e-15 0)
(3 -3.531078271e-15 0)
(3 -5.444810102e-15 0)
(3 -6.367986397e-15 0)
(3 -6.812366682e-15 0)
(3 -6.518467323e-15 0)
(3 -6.395481702e-15 0)
(3 -5.825748295e-15 0)
(3 -5.703475496e-15 0)
(3 -5.512646332e-15 0)
(3 -5.828097698e-15 0)
(3 -5.511189488e-15 0)
(3 -3.593796109e-15 0)
(3 -3.019085056e-15 0)
(3 -2.241849163e-15 0)
(3 -1.510894247e-15 0)
(3 -7.004240362e-16 0)
(3 -5.022958832e-16 0)
(3 -9.539094494e-16 0)
(3 -1.429873953e-15 0)
(3 7.984673895e-16 0)
(3 -7.387252463e-16 0)
(3 3.958961232e-15 0)
(3 1.69832173e-15 0)
(3 -6.526453133e-16 0)
(3 -7.858000112e-16 0)
(3 -2.318272837e-15 0)
(3 -4.379521004e-15 0)
(3 -4.784812557e-15 0)
(3 -7.036560438e-15 0)
(3 -8.987761347e-15 0)
(3 -9.795724861e-15 0)
(3 -1.101621719e-14 0)
(3 -1.039964571e-14 0)
(3 -8.847214437e-15 0)
(3 -6.847547675e-15 0)
(3 -4.455739381e-15 0)
(3 -3.689581124e-15 0)
(3 -3.61154286e-15 0)
(3 -3.586010821e-15 0)
(3 -3.966402937e-15 0)
(3 -3.323296331e-15 0)
(3 -6.735495248e-16 0)
(3 7.552544531e-15 0)
(3 2.689006927e-14 0)
(3 1.215777453e-13 0)
(3 1.168706569e-13 0)
(3 2.548581104e-15 0)
(3 8.413577208e-16 0)
(3 -8.112021686e-16 0)
(3 -3.12257195e-16 0)
(3 -6.570319125e-16 0)
(3 -9.513112918e-16 0)
(3 -1.667184163e-15 0)
(3 -8.388637209e-16 0)
(3 -2.609200814e-15 0)
(3 -5.288830104e-15 0)
(3 -6.296080101e-15 0)
(3 -7.081788224e-15 0)
(3 -6.68265065e-15 0)
(3 -5.487049549e-15 0)
(3 -5.348758991e-15 0)
(3 -4.599809638e-15 0)
(3 -2.97521207e-15 0)
(3 2.964372631e-15 0)
(3 1.709255554e-14 0)
(3 5.306219903e-14 0)
(3 1.473251275e-13 0)
(3 4.057407569e-13 0)
(3 8.261899165e-13 0)
(3 1.389275082e-12 0)
(3 2.688387275e-12 0)
(3 2.343058334e-15 0)
(3 4.256434015e-15 0)
(3 5.181043365e-15 0)
(3 5.504355775e-15 0)
(3 6.149069998e-15 0)
(3 5.275830971e-15 0)
(3 4.622965722e-15 0)
(3 7.088376359e-15 0)
(3 6.401618894e-15 0)
(3 5.756063217e-15 0)
(3 5.012055782e-15 0)
(3 4.124634024e-15 0)
(3 6.604355413e-15 0)
(3 8.424895156e-15 0)
(3 1.874517019e-14 0)
(3 4.912093873e-14 0)
(3 1.342576029e-13 0)
(3 3.850351095e-13 0)
(3 8.363108954e-13 0)
(3 1.612030057e-12 0)
(3 2.896300481e-12 0)
(3 4.681193712e-12 0)
(3 6.12587781e-12 0)
(3 7.540078013e-12 0)
(3 9.501024657e-11 0)
(3 1.648156066e-15 0)
(3 3.401317583e-15 0)
(3 5.301300996e-15 0)
(3 6.746289108e-15 0)
(3 9.412257757e-15 0)
(3 1.231485601e-14 0)
(3 1.367408518e-14 0)
(3 1.360684118e-14 0)
(3 1.4920785e-14 0)
(3 1.398047302e-14 0)
(3 2.016939169e-14 0)
(3 5.066137158e-14 0)
(3 1.454563961e-13 0)
(3 3.124807208e-13 0)
(3 7.245007367e-13 0)
(3 1.506360622e-12 0)
(3 2.851830424e-12 0)
(3 4.849662079e-12 0)
(3 7.818031162e-12 0)
(3 1.161740622e-11 0)
(3 1.447978509e-11 0)
(3 1.33533244e-11 0)
(3 1.767438227e-11 0)
(3 1.477534907e-11 0)
(3.000000003 5.912864713e-09 0)
(3 2.355189382e-15 0)
(3 2.580005506e-15 0)
(3 2.977386707e-15 0)
(3 4.558421148e-15 0)
(3 7.616112555e-15 0)
(3 9.863351079e-15 0)
(3 1.738863386e-14 0)
(3 2.951702329e-14 0)
(3 6.306356456e-14 0)
(3 2.425757759e-13 0)
(3 6.348455497e-13 0)
(3 1.59312879e-12 0)
(3 2.682556386e-12 0)
(3 4.828587727e-12 0)
(3 7.841548294e-12 0)
(3 1.045496335e-11 0)
(3 1.492340367e-11 0)
(3 1.469261986e-11 0)
(3 2.49736884e-11 0)
(3 2.489015911e-11 0)
(3 2.550137404e-11 0)
(3 1.779109538e-11 0)
(3 4.262823382e-11 0)
(2.999999997 -5.014881234e-09 0)
(3.00000007 1.195384248e-07 0)
(3 5.516824801e-15 0)
(3 5.431166933e-15 0)
(3 5.604862377e-15 0)
(3 7.330800152e-15 0)
(3 1.596465743e-14 0)
(3 5.332834072e-14 0)
(3 3.201949608e-13 0)
(3 8.926071639e-13 0)
(3 2.504226068e-12 0)
(3 4.65362672e-12 0)
(3 8.113674638e-12 0)
(3 1.040443488e-11 0)
(3 1.213936413e-11 0)
(3 2.014691221e-11 0)
(3 2.030359154e-11 0)
(3 2.034918966e-11 0)
(3 2.217079779e-11 0)
(3 1.181617042e-11 0)
(3 1.109524361e-10 0)
(3 -3.612261405e-10 0)
(2.999999999 -1.059879529e-09 0)
(2.99999999 -1.587056653e-08 0)
(2.999999956 -6.631015481e-08 0)
(2.999998779 -2.286989439e-06 0)
(3.00000034 6.250025876e-07 0)
(3 6.287850107e-15 0)
(3 8.125528341e-15 0)
(3 2.445454418e-14 0)
(3 2.795216362e-13 0)
(3 9.241653452e-13 0)
(3 3.243331713e-12 0)
(3 7.440571312e-12 0)
(3 1.137633837e-11 0)
(3 1.834531575e-11 0)
(3 1.814471126e-11 0)
(3 1.83769308e-11 0)
(3 1.896644144e-11 0)
(3 1.654631932e-11 0)
(3 7.88805281e-11 0)
(3 -4.499501691e-10 0)
(3 -1.476288167e-11 0)
(2.999999997 -5.276616016e-09 0)
(2.999999982 -2.58078105e-08 0)
(2.999999898 -1.649295485e-07 0)
(2.999999533 -7.404700872e-07 0)
(2.999997968 -3.400884834e-06 0)
(2.999992244 -1.303637971e-05 0)
(2.999974799 -4.343197588e-05 0)
(2.999872708 -0.0002439691479 0)
(2.999874887 -0.0002139489301 0)
(3 1.275695373e-14 0)
(3 6.085294048e-14 0)
(3 2.974376102e-12 0)
(3 1.061499582e-11 0)
(3 1.477534062e-11 0)
(3 2.80301945e-11 0)
(3 2.969858208e-11 0)
(3 2.965530626e-11 0)
(3 4.147244344e-11 0)
(3 -6.546175538e-11 0)
(3 2.971517708e-10 0)
(2.999999999 -2.221840817e-09 0)
(2.999999993 -8.445257978e-09 0)
(2.999999951 -7.639033208e-08 0)
(2.999999783 -3.277552859e-07 0)
(2.999999016 -1.617177359e-06 0)
(2.999996508 -5.555461968e-06 0)
(2.999987451 -2.159768629e-05 0)
(2.999962118 -6.302225508e-05 0)
(2.999886224 -0.0002041856753 0)
(2.999706349 -0.0005087780411 0)
(2.999254662 -0.001415713494 0)
(2.998433274 -0.002882879314 0)
(2.996568459 -0.007037375216 0)
(2.994617482 -0.01027474751 0)
(3 4.850165939e-13 0)
(3 4.866781125e-13 0)
(3 4.379568278e-11 0)
(3 4.872516176e-11 0)
(3 3.190194955e-11 0)
(3 1.625736794e-10 0)
(3 -4.591403902e-10 0)
(2.999999999 -1.367057457e-09 0)
(2.999999984 -2.302568518e-08 0)
(2.999999908 -1.322068484e-07 0)
(2.999999528 -7.418050717e-07 0)
(2.999998101 -3.001707625e-06 0)
(2.999992922 -1.179032391e-05 0)
(2.999977729 -3.765705432e-05 0)
(2.999934148 -0.0001151243791 0)
(2.999832646 -0.0002993725276 0)
(2.999573718 -0.0007757526855 0)
(2.999074587 -0.001708187751 0)
(2.997902984 -0.004005215619 0)
(2.99620364 -0.007517096895 0)
(2.992400874 -0.01546138161 0)
(2.988775959 -0.02358592655 0)
(2.979818811 -0.04447410564 0)
(2.975440864 -0.05719685019 0)
(2.960640478 -0.09003563634 0)
(3 2.92861902e-12 0)
(3 -2.317918513e-11 0)
(3 4.788625381e-10 0)
(2.999999999 -2.12962988e-09 0)
(2.999999985 -1.913651928e-08 0)
(2.999999863 -2.132796259e-07 0)
(2.999999279 -1.122190053e-06 0)
(2.999996696 -5.545861807e-06 0)
(2.999988003 -2.020560926e-05 0)
(2.999961244 -6.97338029e-05 0)
(2.999894341 -0.0001915689291 0)
(2.99972837 -0.0005215283866 0)
(2.999380681 -0.001184389269 0)
(2.998691782 -0.002651674707 0)
(2.997425462 -0.005342884564 0)
(2.995548775 -0.009742793289 0)
(2.992105344 -0.01753657063 0)
(2.987655134 -0.02851236102 0)
(2.980073212 -0.04805503251 0)
(2.975511526 -0.0622853564 0)
(2.962794646 -0.09555356714 0)
(2.957182138 -0.1140927243 0)
(2.943313276 -0.1519441626 0)
(2.941254086 -0.1624218075 0)
(2.926385914 -0.1966454593 0)
(2.999999996 -5.446007098e-09 0)
(2.999999937 -9.662007215e-08 0)
(2.999999372 -1.009630413e-06 0)
(2.999996262 -6.495941059e-06 0)
(2.999983379 -3.021890156e-05 0)
(2.999943014 -0.0001054929412 0)
(2.999832705 -0.0003349834736 0)
(2.999594274 -0.0008516701707 0)
(2.999059353 -0.001997780986 0)
(2.998165339 -0.004105612971 0)
(2.996484874 -0.008421360741 0)
(2.994449756 -0.013814481 0)
(2.990086377 -0.02499233422 0)
(2.9865474 -0.03627200307 0)
(2.978847751 -0.05932207948 0)
(2.975614123 -0.0768132843 0)
(2.963701037 -0.1154225837 0)
(2.961731662 -0.1322836746 0)
(2.947053035 -0.1781697862 0)
(2.946376507 -0.1916624787 0)
(2.931846041 -0.227218948 0)
(2.930862576 -0.2317610147 0)
(2.916135914 -0.2589144847 0)
(2.912812441 -0.2635999526 0)
(2.904481801 -0.2793278404 0)
(2.999990112 -1.58483515e-05 0)
(2.999947207 -8.998902696e-05 0)
(2.999781798 -0.0003944523643 0)
(2.999406233 -0.001157633303 0)
(2.998625861 -0.002844195448 0)
(2.997212305 -0.006157256006 0)
(2.995184106 -0.01139524572 0)
(2.992855874 -0.01814971602 0)
(2.988306301 -0.03050880926 0)
(2.984094753 -0.04331759461 0)
(2.979577015 -0.06093941472 0)
(2.975768358 -0.07607275513 0)
(2.967431139 -0.1025291757 0)
(2.963973866 -0.1193707866 0)
(2.957365154 -0.149432406 0)
(2.955752351 -0.1663231788 0)
(2.948410398 -0.1874014785 0)
(2.941865707 -0.2063175957 0)
(2.92907741 -0.2321942748 0)
(2.926643031 -0.2366575656 0)
(2.915978834 -0.2484311024 0)
(2.904294037 -0.2601831276 0)
(2.901687189 -0.2637374847 0)
(2.89950407 -0.2643170313 0)
(2.898024048 -0.266113393 0)
(2.998546527 -0.002292469363 0)
(2.995456747 -0.007688178164 0)
(2.990088468 -0.01799218954 0)
(2.982866402 -0.03408214344 0)
(2.973404446 -0.05615889504 0)
(2.966472906 -0.07615800902 0)
(2.952250959 -0.1115265175 0)
(2.944069565 -0.1386366712 0)
(2.93340469 -0.1668404963 0)
(2.923747519 -0.1965348399 0)
(2.908358316 -0.2369455266 0)
(2.905580442 -0.2516420032 0)
(2.891749155 -0.2795295539 0)
(2.88374018 -0.2947539793 0)
(2.874311442 -0.3139503666 0)
(2.86823643 -0.312691636 0)
(2.863960518 -0.3113640141 0)
(2.861975511 -0.3039168518 0)
(2.859684539 -0.3005758182 0)
(2.857409495 -0.2910467998 0)
(2.859809632 -0.284115728 0)
(2.861997371 -0.2813912678 0)
(2.866111256 -0.2796394692 0)
(2.870494638 -0.2758017888 0)
(2.87380867 -0.2717713451 0)
(2.987319621 -0.003735807755 0)
(2.974109988 -0.004474632657 0)
(2.959476412 -0.02166776128 0)
(2.9480826 -0.02580189633 0)
(2.935422816 -0.04550028031 0)
(2.925928088 -0.0605807794 0)
(2.914724141 -0.08034723368 0)
(2.910899941 -0.08508736176 0)
(2.899113715 -0.1116389775 0)
(2.891578434 -0.1332376304 0)
(2.887062769 -0.1417729325 0)
(2.882459897 -0.1579759892 0)
(2.876282817 -0.1775128338 0)
(2.869493609 -0.1913605469 0)
(2.863931058 -0.2081424014 0)
(2.85901892 -0.226211012 0)