/*--------------------------------*- C++ -*----------------------------------*\
  =========                 |
  \\      /  F ield         | OpenFOAM: The Open Source CFD Toolbox
   \\    /   O peration     | Website:  https://openfoam.org
    \\  /    A nd           | Version:  7
     \\/     M anipulation  |
\*---------------------------------------------------------------------------*/
FoamFile
{
    version     2.0;
    format      ascii;
    class       volVectorField;
    location    "1.9";
    object      U;
}
// * * * * * * * * * * * * * * * * * * * * * * * * * * * * * * * * * * * * * //

dimensions      [0 1 -1 0 0 0 0];

internalField   nonuniform List<vector> 
80000
(
(3 2.042862455e-17 0)
(3 3.895574966e-16 0)
(3 1.374631348e-15 0)
(3 2.337678248e-15 0)
(3 2.339053495e-15 0)
(3 1.241173183e-15 0)
(3 1.046472409e-16 0)
(3 -8.790476662e-16 0)
(3 8.559828299e-17 0)
(3 2.996145949e-16 0)
(3 2.612265312e-16 0)
(3 1.311227757e-15 0)
(3 1.111052556e-15 0)
(3 4.42861006e-16 0)
(3 4.44876165e-16 0)
(3 6.266619864e-16 0)
(3 -3.807013053e-16 0)
(3 -7.29853279e-16 0)
(3 -2.141961292e-16 0)
(3 6.339635392e-16 0)
(3 1.485748562e-16 0)
(3 7.192616453e-17 0)
(3 1.014287041e-15 0)
(3 7.220552521e-16 0)
(3 -9.207253803e-16 0)
(3 -1.572489513e-15 0)
(3 -2.285425552e-15 0)
(3 -3.069108477e-15 0)
(3 -1.786390731e-15 0)
(3 4.280215446e-17 0)
(3 6.349366927e-16 0)
(3 8.71052312e-16 0)
(3 9.067920087e-16 0)
(3 -9.013050974e-16 0)
(3 -1.283930138e-15 0)
(3 -7.002164411e-16 0)
(3 -4.538730505e-16 0)
(3 -5.804592253e-16 0)
(3 1.312913359e-16 0)
(3 1.40410328e-15 0)
(3 1.393298695e-15 0)
(3 2.437477367e-15 0)
(3 2.691755535e-15 0)
(3 2.95152429e-15 0)
(3 2.69350673e-15 0)
(3 3.05957345e-15 0)
(3 2.89346149e-15 0)
(3 1.746922225e-15 0)
(3 1.04794001e-15 0)
(3 2.251591304e-15 0)
(3 3.011168278e-15 0)
(3 2.64700979e-15 0)
(3 2.62842353e-15 0)
(3 1.91499506e-15 0)
(3 4.886254542e-17 0)
(3 -5.933265513e-17 0)
(3 2.375029159e-16 0)
(3 -1.241537768e-16 0)
(3 -4.025332543e-16 0)
(3 -2.844979681e-15 0)
(3 -5.090023046e-15 0)
(3 -2.222995814e-15 0)
(3 8.45406228e-16 0)
(3 2.85115094e-15 0)
(3 5.038693802e-15 0)
(3 3.820037479e-15 0)
(3 2.330330996e-15 0)
(3 9.647625235e-16 0)
(3 -3.09802529e-16 0)
(3 -8.830902202e-16 0)
(3 -1.981914665e-16 0)
(3 -4.200057351e-16 0)
(3 5.246441296e-16 0)
(3 5.859493801e-16 0)
(3 1.22626277e-15 0)
(3 1.309797606e-15 0)
(3 2.070127243e-15 0)
(3 2.201948169e-15 0)
(3 2.522724503e-15 0)
(3 2.657625838e-15 0)
(3 1.65690103e-15 0)
(3 -6.868208084e-16 0)
(3 -2.414253162e-15 0)
(3 -3.597407939e-15 0)
(3 -4.179470321e-15 0)
(3 -4.895752155e-15 0)
(3 -3.999979357e-15 0)
(3 -3.543490554e-15 0)
(3 -3.523837388e-15 0)
(3 -7.925476983e-16 0)
(3 1.267103072e-16 0)
(3 9.831686479e-16 0)
(3 2.427635942e-15 0)
(3 4.407774073e-15 0)
(3 5.529431085e-15 0)
(3 5.934743132e-15 0)
(3 4.501307451e-15 0)
(3 3.253347094e-15 0)
(3 3.203869343e-15 0)
(3 2.516179668e-15 0)
(3 -4.302338697e-17 0)
(3 1.131325477e-16 0)
(3 4.28691201e-16 0)
(3 1.169238901e-15 0)
(3 1.042833105e-15 0)
(3 2.009141395e-16 0)
(3 -1.502792883e-15 0)
(3 -2.134364199e-15 0)
(3 -8.21254489e-16 0)
(3 6.191047733e-16 0)
(3 1.13396607e-15 0)
(3 1.753660334e-15 0)
(3 2.181899574e-15 0)
(3 9.313952287e-16 0)
(3 -6.55646363e-16 0)
(3 -9.797736728e-16 0)
(3 -2.10852981e-15 0)
(3 -2.287414996e-15 0)
(3 -1.335056964e-15 0)
(3 2.330017157e-17 0)
(3 3.091884908e-16 0)
(3 4.276676658e-16 0)
(3 -1.600889203e-16 0)
(3 -1.510499983e-15 0)
(3 -2.81898429e-15 0)
(3 -4.038157035e-15 0)
(3 -4.840138656e-15 0)
(3 -5.523037211e-15 0)
(3 -3.158562709e-15 0)
(3 5.8147583e-16 0)
(3 -1.094941281e-16 0)
(3 -1.647860419e-16 0)
(3 -4.561039788e-16 0)
(3 -2.2813525e-15 0)
(3 -5.627124473e-16 0)
(3 -1.254034333e-16 0)
(3 1.340846676e-15 0)
(3 2.26899335e-15 0)
(3 1.957562313e-15 0)
(3 2.975914832e-15 0)
(3 3.405294069e-15 0)
(3 3.838445715e-15 0)
(3 4.772431854e-15 0)
(3 4.724198807e-15 0)
(3 3.082201305e-15 0)
(3 3.181942831e-15 0)
(3 2.842794116e-15 0)
(3 2.451773558e-15 0)
(3 4.019331795e-15 0)
(3 5.276914952e-15 0)
(3 6.110116592e-15 0)
(3 6.211817552e-15 0)
(3 4.802827515e-15 0)
(3 2.908705363e-15 0)
(3 -6.807965715e-16 0)
(3 -1.979965085e-15 0)
(3 -2.328059331e-15 0)
(3 -2.957917469e-15 0)
(3 -3.31069552e-15 0)
(3 -4.739527424e-15 0)
(3 -7.046820965e-15 0)
(3 -5.0637901e-15 0)
(3 2.033145327e-15 0)
(3 2.973992492e-15 0)
(3 4.607464679e-15 0)
(3 4.371356539e-15 0)
(3 2.780797851e-15 0)
(3 1.106647366e-15 0)
(3 -6.406649545e-16 0)
(3 -1.719312987e-15 0)
(3 -1.882447146e-15 0)
(3 -1.695692822e-15 0)
(3 -8.375112778e-16 0)
(3 -1.333421469e-15 0)
(3 1.575968664e-16 0)
(3 9.752403597e-16 0)
(3 3.096798829e-15 0)
(3 4.547254101e-15 0)
(3 4.958035922e-15 0)
(3 4.354723739e-15 0)
(3 1.642734752e-15 0)
(3 -3.72629385e-15 0)
(3 -7.260758423e-15 0)
(3 -9.805136692e-15 0)
(3 -1.118399551e-14 0)
(3 -9.601257716e-15 0)
(3 -7.677718361e-15 0)
(3 -7.0171271e-15 0)
(3 -6.723519565e-15 0)
(3 -2.974727593e-15 0)
(3 1.537678718e-17 0)
(3 1.332477057e-15 0)
(3 2.826878976e-15 0)
(3 6.002012891e-15 0)
(3 6.446133544e-15 0)
(3 6.513054905e-15 0)
(3 5.591714938e-15 0)
(3 3.103920426e-15 0)
(3 2.344703571e-15 0)
(3 1.923066021e-15 0)
(3 -6.171194829e-16 0)
(3 -6.851958272e-16 0)
(3 -2.617622498e-16 0)
(3 -5.031771227e-16 0)
(3 -7.311595928e-16 0)
(3 -7.811749838e-16 0)
(3 -1.376877266e-15 0)
(3 -4.532407104e-16 0)
(3 -4.125486612e-16 0)
(3 -9.163745346e-17 0)
(3 4.453642393e-16 0)
(3 -2.16756396e-16 0)
(3 -1.939925564e-15 0)
(3 -3.174818707e-15 0)
(3 -4.602935641e-15 0)
(3 -5.747212152e-15 0)
(3 -5.362994225e-15 0)
(3 -4.68992779e-15 0)
(3 -3.440393097e-15 0)
(3 -1.781917462e-15 0)
(3 5.061549522e-18 0)
(3 1.554439433e-15 0)
(3 1.942574654e-15 0)
(3 1.835990471e-15 0)
(3 1.772307959e-15 0)
(3 2.389219208e-16 0)
(3 -1.500322458e-15 0)
(3 -3.880009003e-15 0)
(3 -3.198763844e-15 0)
(3 -1.92455645e-15 0)
(3 -9.508883591e-16 0)
(3 -7.476834209e-16 0)
(3 -1.097175352e-15 0)
(3 -8.998771114e-16 0)
(3 1.562581004e-15 0)
(3 3.603781923e-15 0)
(3 4.649572584e-15 0)
(3 5.038884001e-15 0)
(3 5.383357533e-15 0)
(3 5.909003689e-15 0)
(3 6.228748879e-15 0)
(3 7.006661177e-15 0)
(3 6.888914544e-15 0)
(3 7.243573624e-15 0)
(3 6.705117096e-15 0)
(3 4.957449679e-15 0)
(3 4.61123568e-15 0)
(3 5.400688178e-15 0)
(3 7.532606827e-15 0)
(3 8.990321691e-15 0)
(3 1.001752082e-14 0)
(3 9.427162498e-15 0)
(3 7.126606255e-15 0)
(3 3.949960659e-15 0)
(3 6.737370946e-16 0)
(3 -2.069658174e-15 0)
(3 -5.542277982e-15 0)
(3 -7.56454299e-15 0)
(3 -7.211932756e-15 0)
(3 -6.646078041e-15 0)
(3 -6.594926591e-15 0)
(3 -3.703788011e-15 0)
(3 2.391641615e-15 0)
(3 4.916850756e-15 0)
(3 5.168843555e-15 0)
(3 5.847525429e-15 0)
(3 4.427637089e-15 0)
(3 2.859560415e-15 0)
(3 -7.999613447e-16 0)
(3 -3.342161833e-15 0)
(3 -4.671929844e-15 0)
(3 -3.374960643e-15 0)
(3 -1.973758754e-15 0)
(3 -9.981849244e-16 0)
(3 1.695105725e-15 0)
(3 4.478210967e-15 0)
(3 7.138404481e-15 0)
(3 7.584737477e-15 0)
(3 6.191758252e-15 0)
(3 2.966951923e-15 0)
(3 -4.191249405e-16 0)
(3 -4.219193215e-15 0)
(3 -8.804883938e-15 0)
(3 -1.067950942e-14 0)
(3 -1.189517572e-14 0)
(3 -1.314456095e-14 0)
(3 -1.290794806e-14 0)
(3 -1.228701984e-14 0)
(3 -7.827478922e-15 0)
(3 -2.906038756e-15 0)
(3 -6.51033615e-16 0)
(3 2.297610434e-15 0)
(3 7.426206995e-15 0)
(3 9.169291792e-15 0)
(3 9.588077715e-15 0)
(3 1.035759274e-14 0)
(3 8.719279792e-15 0)
(3 5.19083501e-15 0)
(3 -9.030130477e-16 0)
(3 -1.461143134e-15 0)
(3 -3.470610117e-16 0)
(3 -1.057388872e-15 0)
(3 -7.997085003e-16 0)
(3 -1.235175474e-15 0)
(3 -4.49525512e-16 0)
(3 -4.070890476e-16 0)
(3 -2.724849015e-16 0)
(3 -1.165554178e-16 0)
(3 -6.530913776e-16 0)
(3 -1.977491294e-15 0)
(3 -2.993119141e-15 0)
(3 -5.156842913e-15 0)
(3 -7.75158456e-15 0)
(3 -7.979379212e-15 0)
(3 -6.240205454e-15 0)
(3 -5.575331687e-15 0)
(3 -4.021692647e-15 0)
(3 -3.336508463e-15 0)
(3 -3.259772723e-15 0)
(3 -2.848400957e-15 0)
(3 -1.036265247e-15 0)
(3 8.175489041e-16 0)
(3 1.874387468e-15 0)
(3 1.985183969e-15 0)
(3 1.107161142e-15 0)
(3 -1.041995636e-15 0)
(3 -3.873056222e-15 0)
(3 -5.202667419e-15 0)
(3 -5.445525799e-15 0)
(3 -4.992045642e-15 0)
(3 -2.480048259e-15 0)
(3 7.767226929e-16 0)
(3 3.848742206e-15 0)
(3 6.692158159e-15 0)
(3 6.115597034e-15 0)
(3 6.666318185e-15 0)
(3 6.760074222e-15 0)
(3 6.826572014e-15 0)
(3 7.828459566e-15 0)
(3 8.395382304e-15 0)
(3 8.628128964e-15 0)
(3 8.221736663e-15 0)
(3 6.993868252e-15 0)
(3 5.628844296e-15 0)
(3 6.135541094e-15 0)
(3 5.800175223e-15 0)
(3 6.097409574e-15 0)
(3 6.140705422e-15 0)
(3 4.874982972e-15 0)
(3 6.530601847e-15 0)
(3 7.143888718e-15 0)
(3 6.350468875e-15 0)
(3 4.904224017e-15 0)
(3 2.907565163e-15 0)
(3 1.812243522e-15 0)
(3 5.737221597e-17 0)
(3 -7.733109219e-16 0)
(3 -1.000937488e-15 0)
(3 -2.433917952e-15 0)
(3 -3.971485531e-15 0)
(3 -3.793646638e-15 0)
(3 8.27692688e-16 0)
(3 3.701979018e-15 0)
(3 6.748978889e-15 0)
(3 7.264510995e-15 0)
(3 5.954441664e-15 0)
(3 4.592154553e-15 0)
(3 3.423694e-15 0)
(3 -1.058051728e-15 0)
(3 -2.585338889e-15 0)
(3 -3.195466661e-15 0)
(3 -3.152091896e-15 0)
(3 -9.741249203e-16 0)
(3 2.133638017e-16 0)
(3 2.45176948e-15 0)
(3 5.363753189e-15 0)
(3 5.090378667e-15 0)
(3 4.777417945e-15 0)
(3 3.989790834e-15 0)
(3 3.230724774e-15 0)
(3 6.809568085e-16 0)
(3 -2.042790323e-15 0)
(3 -4.875438244e-15 0)
(3 -7.951433426e-15 0)
(3 -1.14101561e-14 0)
(3 -1.580012823e-14 0)
(3 -1.896118434e-14 0)
(3 -1.868721394e-14 0)
(3 -1.210101913e-14 0)
(3 -7.259273704e-15 0)
(3 -1.791366729e-15 0)
(3 2.526751472e-15 0)
(3 7.407695785e-15 0)
(3 8.921801088e-15 0)
(3 1.111788097e-14 0)
(3 1.131156223e-14 0)
(3 9.809806077e-15 0)
(3 7.251884125e-15 0)
(3 4.801434983e-15 0)
(3 2.78050098e-15 0)
(3 -1.063351846e-16 0)
(3 8.785595496e-17 0)
(3 2.84146964e-17 0)
(3 -2.483982796e-16 0)
(3 -7.326621033e-16 0)
(3 -1.743921111e-15 0)
(3 -9.554092801e-16 0)
(3 -1.44264987e-15 0)
(3 -1.950652007e-15 0)
(3 -2.894481528e-15 0)
(3 -4.684378332e-15 0)
(3 -5.369746944e-15 0)
(3 -4.615732389e-15 0)
(3 -3.31767557e-15 0)
(3 -2.591487215e-15 0)
(3 -2.059754717e-15 0)
(3 -9.301029082e-16 0)
(3 -2.552637986e-16 0)
(3 -7.913380046e-17 0)
(3 -1.33280316e-15 0)
(3 -1.540098056e-15 0)
(3 -1.659285357e-15 0)
(3 -2.666409751e-15 0)
(3 -2.226908227e-15 0)
(3 -2.703141736e-15 0)
(3 -4.396599977e-15 0)
(3 -5.432714432e-15 0)
(3 -5.732495938e-15 0)
(3 -5.964648365e-15 0)
(3 -5.222483224e-15 0)
(3 -5.225975909e-15 0)
(3 -3.434892478e-15 0)
(3 3.369617515e-16 0)
(3 3.522864681e-15 0)
(3 3.46499112e-15 0)
(3 2.74916536e-15 0)
(3 4.447936694e-15 0)
(3 5.958015725e-15 0)
(3 6.589353702e-15 0)
(3 6.213842831e-15 0)
(3 5.601819194e-15 0)
(3 5.313028429e-15 0)
(3 4.979291201e-15 0)
(3 3.498609863e-15 0)
(3 2.781412154e-15 0)
(3 3.0758563e-15 0)
(3 3.90817652e-15 0)
(3 4.23506439e-15 0)
(3 5.501413003e-15 0)
(3 4.451494095e-15 0)
(3 4.262991687e-15 0)
(3 4.859956879e-15 0)
(3 4.390066845e-15 0)
(3 3.128282544e-15 0)
(3 1.685932368e-15 0)
(3 1.294527731e-15 0)
(3 3.454902431e-16 0)
(3 -7.680814242e-16 0)
(3 -2.476041608e-15 0)
(3 -2.13326316e-15 0)
(3 -8.063846591e-16 0)
(3 1.064870524e-15 0)
(3 2.497107161e-15 0)
(3 4.6709759e-15 0)
(3 5.629294957e-15 0)
(3 5.185433456e-15 0)
(3 3.306618871e-15 0)
(3 1.811904043e-15 0)
(3 -3.355858588e-16 0)
(3 -8.537735001e-16 0)
(3 -2.371681904e-15 0)
(3 -2.5195379e-15 0)
(3 -1.369502601e-15 0)
(3 2.329578472e-16 0)
(3 1.087516945e-15 0)
(3 1.732716228e-15 0)
(3 2.12061032e-15 0)
(3 3.092490576e-15 0)
(3 3.752182171e-15 0)
(3 2.739145792e-15 0)
(3 -1.309044833e-15 0)
(3 -2.311701838e-15 0)
(3 -2.341189467e-15 0)
(3 -4.894147088e-15 0)
(3 -8.017806956e-15 0)
(3 -1.148330672e-14 0)
(3 -1.584777983e-14 0)
(3 -1.587778722e-14 0)
(3 -1.325014944e-14 0)
(3 -8.156848917e-15 0)
(3 -5.102795329e-15 0)
(3 -2.45081647e-15 0)
(3 7.013149855e-16 0)
(3 4.289292172e-15 0)
(3 7.12321196e-15 0)
(3 7.879702777e-15 0)
(3 3.978761251e-15 0)
(3 1.911196092e-15 0)
(3 1.962113386e-15 0)
(3 1.761333607e-15 0)
(3 2.558870813e-17 0)
(3 3.601833771e-16 0)
(3 4.537569579e-16 0)
(3 7.20939938e-16 0)
(3 7.135005045e-16 0)
(3 -3.764442023e-16 0)
(3 -1.847521491e-16 0)
(3 -1.785035002e-16 0)
(3 -1.803372407e-16 0)
(3 -1.891295952e-15 0)
(3 -2.114931215e-15 0)
(3 -2.071341737e-15 0)
(3 -4.743801354e-16 0)
(3 2.336778908e-17 0)
(3 -4.85578596e-16 0)
(3 -3.954686474e-16 0)
(3 -5.881110669e-16 0)
(3 -1.084883432e-15 0)
(3 -1.517647818e-15 0)
(3 -9.007442849e-16 0)
(3 -1.200510544e-15 0)
(3 -2.023227965e-15 0)
(3 -1.764493195e-15 0)
(3 -1.423691326e-15 0)
(3 -1.747697159e-15 0)
(3 -2.362937736e-15 0)
(3 -3.323790545e-15 0)
(3 -3.924337764e-15 0)
(3 -4.444999323e-15 0)
(3 -5.617250283e-15 0)
(3 -4.986731673e-15 0)
(3 -2.227812161e-15 0)
(3 1.701291168e-15 0)
(3 1.806126556e-15 0)
(3 2.829743314e-15 0)
(3 7.929930933e-16 0)
(3 3.170619918e-16 0)
(3 1.305657142e-15 0)
(3 1.742747377e-15 0)
(3 2.097615286e-15 0)
(3 3.003738873e-15 0)
(3 3.274185091e-15 0)
(3 3.038694982e-15 0)
(3 2.56256676e-15 0)
(3 1.338278492e-15 0)
(3 9.643700936e-16 0)
(3 2.228223925e-15 0)
(3 2.534205781e-15 0)
(3 3.70473798e-15 0)
(3 3.920032757e-15 0)
(3 3.931605609e-15 0)
(3 4.270289159e-15 0)
(3 3.992630884e-15 0)
(3 3.511920595e-15 0)
(3 2.278073667e-15 0)
(3 7.189058772e-16 0)
(3 -1.315068198e-15 0)
(3 -4.049156893e-15 0)
(3 -3.805541168e-15 0)
(3 -1.877707683e-15 0)
(3 -1.328622358e-16 0)
(3 -2.032132105e-15 0)
(3 -1.442600547e-15 0)
(3 1.074774537e-15 0)
(3 2.374364714e-15 0)
(3 2.869827967e-15 0)
(3 -6.216989606e-17 0)
(3 -1.288947136e-15 0)
(3 -9.412804247e-16 0)
(3 -1.45070903e-15 0)
(3 -1.986955604e-15 0)
(3 3.457564529e-16 0)
(3 7.224868523e-16 0)
(3 2.827270474e-15 0)
(3 3.397591975e-15 0)
(3 3.397493533e-15 0)
(3 3.629198182e-15 0)
(3 3.504120429e-15 0)
(3 3.351112334e-15 0)
(3 1.001906663e-15 0)
(3 -6.973941017e-16 0)
(3 -5.528581434e-17 0)
(3 -8.559922771e-16 0)
(3 -9.054836388e-16 0)
(3 -3.23725669e-15 0)
(3 -4.961072158e-15 0)
(3 -8.329396425e-15 0)
(3 -9.703468829e-15 0)
(3 -8.806843532e-15 0)
(3 -7.724488288e-15 0)
(3 -6.405611285e-15 0)
(3 -3.523469125e-15 0)
(3 -4.085565095e-15 0)
(3 1.019148307e-16 0)
(3 1.331277846e-15 0)
(3 1.739559466e-15 0)
(3 -6.553847386e-16 0)
(3 -1.515042923e-15 0)
(3 -7.832106529e-16 0)
(3 -4.453765187e-17 0)
(3 5.250715133e-16 0)
(3 2.460350006e-16 0)
(3 -1.592976295e-16 0)
(3 3.313308586e-16 0)
(3 3.648006579e-16 0)
(3 1.085814578e-16 0)
(3 -5.951633321e-17 0)
(3 4.777302935e-16 0)
(3 4.206269313e-16 0)
(3 4.395623764e-16 0)
(3 -7.887530364e-17 0)
(3 -6.36597057e-16 0)
(3 -1.414384978e-15 0)
(3 -2.177785114e-15 0)
(3 -2.331352565e-15 0)
(3 -1.66880914e-15 0)
(3 -1.370768943e-15 0)
(3 -1.680948666e-15 0)
(3 -1.805154485e-15 0)
(3 -1.084568611e-15 0)
(3 -4.350611645e-16 0)
(3 -4.226249718e-16 0)
(3 -1.157930037e-16 0)
(3 -6.871762249e-16 0)
(3 -1.299933051e-15 0)
(3 -2.168630664e-15 0)
(3 -1.78197409e-15 0)
(3 -5.451102476e-16 0)
(3 -8.003993975e-16 0)
(3 -9.000308837e-16 0)
(3 -3.489163923e-16 0)
(3 3.923375753e-16 0)
(3 7.558119264e-16 0)
(3 -3.436956895e-16 0)
(3 -1.454426594e-15 0)
(3 -2.26777114e-15 0)
(3 -3.437098344e-15 0)
(3 -4.616690629e-15 0)
(3 -3.430883787e-15 0)
(3 2.998921593e-16 0)
(3 3.052802891e-15 0)
(3 3.533817287e-15 0)
(3 2.74406859e-15 0)
(3 1.860813926e-15 0)
(3 1.494805707e-15 0)
(3 1.584762708e-15 0)
(3 6.458295027e-16 0)
(3 5.670577081e-16 0)
(3 1.03742237e-15 0)
(3 1.900130289e-15 0)
(3 2.341672369e-15 0)
(3 2.239017541e-15 0)
(3 2.124075862e-15 0)
(3 1.978545293e-15 0)
(3 1.225409245e-16 0)
(3 -7.619164368e-16 0)
(3 -1.086656929e-15 0)
(3 -1.132999972e-15 0)
(3 9.342403904e-17 0)
(3 2.915853729e-15 0)
(3 1.255605243e-15 0)
(3 -1.006873372e-15 0)
(3 -1.635511514e-15 0)
(3 -7.37765746e-16 0)
(3 -4.263165816e-16 0)
(3 -1.150126327e-15 0)
(3 -1.377178744e-15 0)
(3 -8.238316523e-16 0)
(3 1.032392756e-15 0)
(3 2.37957333e-15 0)
(3 2.144719845e-15 0)
(3 2.337086131e-15 0)
(3 4.142113594e-15 0)
(3 6.398054576e-15 0)
(3 8.954241893e-15 0)
(3 8.533862151e-15 0)
(3 6.109517909e-15 0)
(3 2.591786102e-15 0)
(3 2.2673287e-15 0)
(3 1.08815953e-15 0)
(3 8.151685142e-16 0)
(3 1.212034161e-15 0)
(3 1.715558341e-15 0)
(3 1.561317233e-15 0)
(3 -4.174245988e-16 0)
(3 -1.873008283e-15 0)
(3 -2.815494739e-15 0)
(3 -2.91669055e-15 0)
(3 -5.43143108e-15 0)
(3 -6.934779034e-15 0)
(3 -6.389748749e-15 0)
(3 -5.502028611e-15 0)
(3 -4.943955023e-15 0)
(3 -2.468877998e-15 0)
(3 -2.347781709e-15 0)
(3 -9.798723787e-16 0)
(3 1.753063586e-15 0)
(3 2.607077648e-15 0)
(3 2.741970797e-15 0)
(3 1.330309114e-15 0)
(3 -9.882000251e-17 0)
(3 2.104232062e-16 0)
(3 8.886013784e-16 0)
(3 1.757094147e-15 0)
(3 1.515440565e-15 0)
(3 2.387175729e-15 0)
(3 2.506491617e-15 0)
(3 1.741531315e-15 0)
(3 8.748644563e-16 0)
(3 1.62654377e-15 0)
(3 2.130211047e-15 0)
(3 1.786284468e-15 0)
(3 1.364976349e-16 0)
(3 -3.224494507e-15 0)
(3 -3.634222514e-15 0)
(3 -3.244781998e-15 0)
(3 -1.951693098e-15 0)
(3 -8.349275268e-16 0)
(3 -2.539474803e-16 0)
(3 -4.64487489e-16 0)
(3 -1.164136742e-15 0)
(3 -1.249018792e-15 0)
(3 -2.663650319e-15 0)
(3 -4.392506907e-15 0)
(3 -4.9849655e-15 0)
(3 -3.750613968e-15 0)
(3 -1.886844183e-15 0)
(3 -5.399790278e-16 0)
(3 2.861215711e-18 0)
(3 1.917972403e-15 0)
(3 2.19060734e-15 0)
(3 8.222311177e-16 0)
(3 -2.371191791e-15 0)
(3 -5.084362144e-15 0)
(3 -6.40896898e-15 0)
(3 -6.124620182e-15 0)
(3 -5.503417809e-15 0)
(3 -4.610795993e-15 0)
(3 -2.76784716e-15 0)
(3 -8.289406752e-17 0)
(3 9.958858557e-16 0)
(3 2.020993699e-15 0)
(3 1.960747223e-15 0)
(3 1.480436034e-15 0)
(3 1.482358593e-15 0)
(3 8.545894826e-16 0)
(3 -1.66823682e-15 0)
(3 -2.606398188e-15 0)
(3 -2.141763607e-15 0)
(3 -1.748405875e-15 0)
(3 -1.933452081e-15 0)
(3 -1.103971658e-15 0)
(3 2.141639937e-15 0)
(3 4.548055106e-15 0)
(3 5.435273597e-15 0)
(3 4.89305389e-15 0)
(3 4.101347639e-15 0)
(3 5.59442805e-15 0)
(3 5.784150231e-15 0)
(3 5.798263967e-15 0)
(3 4.596757063e-15 0)
(3 2.420760592e-15 0)
(3 6.626848104e-16 0)
(3 -1.727477426e-15 0)
(3 -2.75517368e-15 0)
(3 -2.854802676e-15 0)
(3 -1.56297817e-15 0)
(3 -5.942985713e-16 0)
(3 3.53271248e-16 0)
(3 1.658248262e-15 0)
(3 1.870165921e-15 0)
(3 2.754096081e-15 0)
(3 3.891255898e-15 0)
(3 4.523762926e-15 0)
(3 5.490625425e-15 0)
(3 5.253604705e-15 0)
(3 3.907025662e-15 0)
(3 1.956793017e-15 0)
(3 1.964375004e-15 0)
(3 2.852749444e-15 0)
(3 3.137406923e-15 0)
(3 2.973247177e-15 0)
(3 2.049100063e-15 0)
(3 -1.734546578e-16 0)
(3 -6.659451222e-16 0)
(3 -4.682449525e-16 0)
(3 -6.569479377e-16 0)
(3 -4.004854427e-16 0)
(3 -1.492102452e-15 0)
(3 -2.169169587e-15 0)
(3 -4.094282672e-15 0)
(3 -5.120053208e-15 0)
(3 -3.484887013e-15 0)
(3 -1.674466533e-15 0)
(3 2.82105779e-16 0)
(3 -2.646241441e-16 0)
(3 -3.532747404e-16 0)
(3 1.299273805e-15 0)
(3 2.218318856e-15 0)
(3 2.064185269e-15 0)
(3 -5.410784612e-16 0)
(3 -1.170498394e-16 0)
(3 8.337250874e-16 0)
(3 1.112809132e-15 0)
(3 7.357794382e-16 0)
(3 1.208332165e-15 0)
(3 1.462747286e-15 0)
(3 1.156153709e-15 0)
(3 2.431553456e-15 0)
(3 4.115607343e-15 0)
(3 4.531538633e-15 0)
(3 4.368898948e-15 0)
(3 4.01027713e-15 0)
(3 1.946013203e-15 0)
(3 2.631736535e-16 0)
(3 -2.393193187e-16 0)
(3 -1.749125608e-15 0)
(3 -9.036523786e-16 0)
(3 -1.451231529e-15 0)
(3 -2.068608188e-15 0)
(3 -2.330623377e-15 0)
(3 -3.460921672e-15 0)
(3 -4.955593267e-15 0)
(3 -4.99739593e-15 0)
(3 -3.450990686e-15 0)
(3 -1.504747021e-15 0)
(3 -1.542186964e-15 0)
(3 -2.540281141e-15 0)
(3 -2.355518319e-15 0)
(3 -1.959255362e-15 0)
(3 -1.697645308e-15 0)
(3 -1.627793064e-15 0)
(3 -1.751154313e-15 0)
(3 -1.789496743e-15 0)
(3 -2.830657308e-15 0)
(3 -1.650227844e-15 0)
(3 -9.424272356e-16 0)
(3 6.395482595e-16 0)
(3 5.742630812e-16 0)
(3 2.703080014e-16 0)
(3 -1.245562919e-15 0)
(3 -3.032521915e-15 0)
(3 -1.76249056e-15 0)
(3 -1.915596071e-16 0)
(3 -3.30879379e-16 0)
(3 -1.215295733e-15 0)
(3 -2.47317954e-15 0)
(3 -4.333649558e-15 0)
(3 -4.903913285e-15 0)
(3 -4.400256607e-15 0)
(3 -3.784587825e-15 0)
(3 -2.384173879e-15 0)
(3 1.955846705e-15 0)
(3 7.543090587e-15 0)
(3 1.07436669e-14 0)
(3 1.12240024e-14 0)
(3 1.036583425e-14 0)
(3 9.910303262e-15 0)
(3 9.879036968e-15 0)
(3 4.844279499e-15 0)
(3 2.378022299e-15 0)
(3 9.020018225e-16 0)
(3 -1.191378519e-15 0)
(3 -2.812368169e-15 0)
(3 -3.814647981e-15 0)
(3 -3.074205229e-15 0)
(3 -1.960918563e-15 0)
(3 -2.324222043e-15 0)
(3 -3.958743005e-16 0)
(3 3.89002856e-16 0)
(3 1.104751776e-15 0)
(3 2.788528713e-15 0)
(3 3.920287141e-15 0)
(3 3.561069111e-15 0)
(3 2.691349407e-15 0)
(3 3.087651314e-15 0)
(3 5.494070426e-15 0)
(3 6.177580316e-15 0)
(3 4.579719302e-15 0)
(3 3.866676244e-15 0)
(3 3.461505132e-15 0)
(3 1.827872636e-15 0)
(3 -8.72573405e-16 0)
(3 -2.263135802e-15 0)
(3 -1.888450262e-15 0)
(3 3.164306261e-16 0)
(3 -1.023144688e-16 0)
(3 -7.851438506e-16 0)
(3 -7.813749738e-16 0)
(3 -7.31717119e-16 0)
(3 -1.060958152e-15 0)
(3 -1.591425604e-15 0)
(3 -1.583104483e-15 0)
(3 -1.382991603e-15 0)
(3 -1.770591612e-15 0)
(3 -1.855267622e-15 0)
(3 -1.071918581e-15 0)
(3 9.500151104e-16 0)
(3 2.919943771e-15 0)
(3 3.783820544e-15 0)
(3 2.325101635e-17 0)
(3 6.461861045e-17 0)
(3 6.125976038e-17 0)
(3 -1.367021343e-16 0)
(3 -1.265596567e-16 0)
(3 -6.677504005e-16 0)
(3 -8.665090688e-16 0)
(3 7.599483422e-16 0)
(3 1.047526905e-15 0)
(3 1.626902418e-15 0)
(3 1.73752482e-15 0)
(3 2.055380458e-15 0)
(3 2.676902085e-15 0)
(3 4.22402823e-15 0)
(3 4.03417727e-15 0)
(3 2.583542373e-15 0)
(3 1.038977347e-15 0)
(3 -8.282516037e-16 0)
(3 -1.611978927e-15 0)
(3 -2.00565581e-15 0)
(3 -2.491467885e-15 0)
(3 -2.39427971e-15 0)
(3 -2.352148417e-15 0)
(3 -2.022914455e-15 0)
(3 -1.916897602e-15 0)
(3 -2.027690372e-15 0)
(3 -2.94299976e-15 0)
(3 -2.841503735e-15 0)
(3 -3.372691264e-15 0)
(3 -3.522134913e-15 0)
(3 -3.147639082e-15 0)
(3 -2.386866788e-15 0)
(3 -2.002920165e-15 0)
(3 -1.234004953e-15 0)
(3 -8.600057511e-16 0)
(3 1.440086463e-16 0)
(3 1.322806412e-15 0)
(3 2.730284817e-15 0)
(3 2.403060814e-15 0)
(3 1.938260116e-15 0)
(3 -3.686759568e-16 0)
(3 -2.6222053e-15 0)
(3 -3.383510085e-15 0)
(3 -2.111100204e-15 0)
(3 -1.11018682e-15 0)
(3 -3.46930885e-16 0)
(3 -3.15456185e-16 0)
(3 -8.60489746e-16 0)
(3 -2.737055553e-15 0)
(3 -3.590170867e-15 0)
(3 -3.037392732e-15 0)
(3 -8.951303092e-16 0)
(3 2.143312138e-15 0)
(3 4.701501186e-15 0)
(3 7.053044272e-15 0)
(3 1.345857261e-14 0)
(3 1.42706193e-14 0)
(3 1.360884196e-14 0)
(3 1.287298031e-14 0)
(3 1.03917926e-14 0)
(3 7.38635866e-15 0)
(3 5.610757026e-15 0)
(3 3.421468343e-15 0)
(3 -7.895443264e-16 0)
(3 -2.494838912e-15 0)
(3 -2.359823811e-15 0)
(3 -1.645015357e-15 0)
(3 -1.678572933e-15 0)
(3 -1.546678025e-15 0)
(3 -8.958120637e-16 0)
(3 1.184375015e-16 0)
(3 7.285315613e-16 0)
(3 1.040953553e-15 0)
(3 1.539423108e-15 0)
(3 1.63412559e-15 0)
(3 2.779803239e-15 0)
(3 4.974800706e-15 0)
(3 5.925746144e-15 0)
(3 4.462529406e-15 0)
(3 3.028074995e-15 0)
(3 1.399895351e-16 0)
(3 -3.425649315e-15 0)
(3 -5.113758233e-15 0)
(3 -5.602803413e-15 0)
(3 -4.042254241e-15 0)
(3 -1.639762997e-15 0)
(3 -1.021504135e-15 0)
(3 -1.191853285e-15 0)
(3 -1.382931171e-15 0)
(3 -2.01079354e-15 0)
(3 -2.237302264e-15 0)
(3 -6.044630124e-16 0)
(3 -1.452010353e-15 0)
(3 -2.087716553e-15 0)
(3 -2.643012835e-15 0)
(3 -2.877185191e-15 0)
(3 -1.797386623e-15 0)
(3 -8.231257112e-16 0)
(3 5.485553675e-16 0)
(3 1.95882928e-15 0)
(3 6.761961197e-16 0)
(3 5.009908781e-16 0)
(3 -1.633127298e-16 0)
(3 -3.818205698e-16 0)
(3 -1.266127469e-16 0)
(3 -1.067129505e-15 0)
(3 -9.457770541e-16 0)
(3 1.757732936e-16 0)
(3 1.872678023e-16 0)
(3 -2.81404414e-16 0)
(3 -3.93485737e-16 0)
(3 -3.516767431e-17 0)
(3 3.933820412e-16 0)
(3 2.535913009e-15 0)
(3 3.353821563e-15 0)
(3 2.684175436e-15 0)
(3 2.436136971e-15 0)
(3 3.790858246e-16 0)
(3 9.231640553e-16 0)
(3 7.262404409e-16 0)
(3 1.006403251e-15 0)
(3 9.750893766e-16 0)
(3 -3.410139566e-17 0)
(3 -1.4411764e-15 0)
(3 -4.0966178e-15 0)
(3 -5.875725882e-15 0)
(3 -5.94233203e-15 0)
(3 -4.478222802e-15 0)
(3 -2.532642587e-15 0)
(3 -1.047871856e-15 0)
(3 -8.346534283e-16 0)
(3 -1.160548137e-15 0)
(3 -2.177576704e-15 0)
(3 -2.916781815e-15 0)
(3 -2.33758512e-15 0)
(3 -1.945886543e-15 0)
(3 -2.100353083e-15 0)
(3 -1.989821985e-15 0)
(3 -7.494952331e-16 0)
(3 8.275255791e-16 0)
(3 5.877354685e-16 0)
(3 3.107579597e-17 0)
(3 -2.50680947e-16 0)
(3 -2.237287559e-16 0)
(3 4.05045887e-16 0)
(3 1.313563745e-15 0)
(3 1.974402601e-15 0)
(3 2.923633212e-15 0)
(3 2.222481191e-15 0)
(3 1.292794006e-15 0)
(3 2.29977049e-15 0)
(3 3.072267252e-15 0)
(3 3.681561267e-15 0)
(3 5.070525103e-15 0)
(3 5.489634119e-15 0)
(3 6.712838223e-15 0)
(3 1.060376958e-14 0)
(3 1.135082307e-14 0)
(3 1.192839007e-14 0)
(3 1.166386858e-14 0)
(3 9.787362959e-15 0)
(3 6.628271008e-15 0)
(3 4.218490708e-15 0)
(3 5.613792946e-16 0)
(3 -2.026827387e-15 0)
(3 -2.676175672e-15 0)
(3 -1.427506786e-15 0)
(3 -5.80062442e-16 0)
(3 -1.128191203e-16 0)
(3 9.929871567e-16 0)
(3 1.209422928e-15 0)
(3 4.152991588e-16 0)
(3 3.110636968e-16 0)
(3 5.650560942e-16 0)
(3 2.346451075e-16 0)
(3 2.495354125e-16 0)
(3 1.044196499e-15 0)
(3 8.372397094e-16 0)
(3 -8.330293617e-16 0)
(3 -3.00122101e-15 0)
(3 -4.440867914e-15 0)
(3 -6.199929437e-15 0)
(3 -6.238928778e-15 0)
(3 -6.391770057e-15 0)
(3 -6.397799816e-15 0)
(3 -5.582143309e-15 0)
(3 -2.890212422e-15 0)
(3 -1.546270553e-15 0)
(3 -1.156134509e-15 0)
(3 -3.950659266e-16 0)
(3 8.723552959e-16 0)
(3 2.884031203e-16 0)
(3 -3.122221649e-16 0)
(3 -1.717027612e-15 0)
(3 -3.228233746e-15 0)
(3 -4.193180487e-15 0)
(3 -4.059905805e-15 0)
(3 -4.460143182e-15 0)
(3 -4.693043459e-15 0)
(3 -3.325433426e-15 0)
(3 2.277522726e-16 0)
(3 5.710000734e-16 0)
(3 -6.922605836e-16 0)
(3 -1.806853266e-15 0)
(3 -3.089164792e-15 0)
(3 -2.765044135e-15 0)
(3 -1.077316929e-15 0)
(3 -1.590040515e-15 0)
(3 -6.126301109e-16 0)
(3 -9.641011215e-16 0)
(3 -1.267051936e-15 0)
(3 -1.957112653e-15 0)
(3 -1.364948505e-15 0)
(3 -5.05193444e-16 0)
(3 -1.37823229e-16 0)
(3 1.780197711e-16 0)
(3 -1.887074491e-16 0)
(3 1.229080662e-15 0)
(3 2.225700877e-15 0)
(3 1.68300383e-15 0)
(3 1.951312541e-15 0)
(3 1.625033528e-15 0)
(3 7.376334719e-16 0)
(3 -1.591779174e-15 0)
(3 -3.446415179e-15 0)
(3 -5.081090986e-15 0)
(3 -4.158036372e-15 0)
(3 -3.392078999e-15 0)
(3 -1.419687149e-15 0)
(3 -3.864440291e-17 0)
(3 -5.140934307e-16 0)
(3 -3.429943409e-16 0)
(3 -1.432876435e-15 0)
(3 -2.092298491e-15 0)
(3 -2.664238438e-15 0)
(3 -3.024485587e-15 0)
(3 -3.720078672e-15 0)
(3 -4.235996361e-15 0)
(3 -2.747796889e-15 0)
(3 -4.359639094e-16 0)
(3 1.890570566e-15 0)
(3 2.609436988e-15 0)
(3 3.707933408e-15 0)
(3 3.366151695e-15 0)
(3 2.640501372e-15 0)
(3 2.455927839e-15 0)
(3 3.333918351e-15 0)
(3 4.566738908e-15 0)
(3 4.517295285e-15 0)
(3 5.101602562e-15 0)
(3 5.589355588e-15 0)
(3 4.037658233e-15 0)
(3 3.248195981e-15 0)
(3 3.287671473e-15 0)
(3 3.097504027e-15 0)
(3 3.508022412e-15 0)
(3 5.247321194e-15 0)
(3 7.741453406e-15 0)
(3 9.02865183e-15 0)
(3 9.201506989e-15 0)
(3 7.664165437e-15 0)
(3 5.829013633e-15 0)
(3 5.234809709e-15 0)
(3 4.415585094e-15 0)
(3 2.140104099e-15 0)
(3 1.142354209e-15 0)
(3 1.469298313e-15 0)
(3 1.819741115e-15 0)
(3 3.039856219e-15 0)
(3 4.217721034e-15 0)
(3 4.151661582e-15 0)
(3 2.659515329e-15 0)
(3 1.594472604e-15 0)
(3 2.706447307e-16 0)
(3 -1.4190448e-15 0)
(3 -1.78672906e-15 0)
(3 -2.422585203e-15 0)
(3 -2.642022364e-15 0)
(3 -3.27626956e-15 0)
(3 -5.093551893e-15 0)
(3 -4.950386632e-15 0)
(3 -5.182688874e-15 0)
(3 -5.128641719e-15 0)
(3 -6.395684644e-15 0)
(3 -7.489440071e-15 0)
(3 -8.18965544e-15 0)
(3 -5.76347656e-15 0)
(3 -2.732494397e-15 0)
(3 -1.220896224e-15 0)
(3 5.559229951e-16 0)
(3 1.168211684e-15 0)
(3 -6.125187714e-16 0)
(3 -2.041111524e-15 0)
(3 -5.122443015e-15 0)
(3 -6.088529544e-15 0)
(3 -6.397357613e-15 0)
(3 -6.676511379e-15 0)
(3 -6.381473111e-15 0)
(3 -5.291364587e-15 0)
(3 -4.964943394e-15 0)
(3 2.39806889e-16 0)
(3 -6.508848874e-16 0)
(3 -1.32010272e-15 0)
(3 -1.664203931e-15 0)
(3 -1.71443879e-15 0)
(3 -1.367101575e-15 0)
(3 -1.007728096e-15 0)
(3 -2.807012489e-15 0)
(3 -2.441117104e-15 0)
(3 -1.110637008e-15 0)
(3 -7.756178399e-16 0)
(3 3.23859855e-16 0)
(3 2.316341761e-16 0)
(3 -1.166107735e-15 0)
(3 -2.35312763e-15 0)
(3 -1.409106901e-15 0)
(3 -1.235057676e-15 0)
(3 1.740795497e-16 0)
(3 4.677688754e-16 0)
(3 6.170871054e-16 0)
(3 9.336695863e-16 0)
(3 8.123938017e-16 0)
(3 -1.318940621e-16 0)
(3 1.728315757e-16 0)
(3 -9.165530074e-16 0)
(3 -9.208268671e-16 0)
(3 -1.046183866e-15 0)
(3 -5.034221234e-16 0)
(3 3.247821018e-16 0)
(3 1.037514514e-15 0)
(3 1.644687712e-15 0)
(3 9.767378755e-16 0)
(3 3.831019908e-16 0)
(3 -5.908307962e-16 0)
(3 -1.354141381e-15 0)
(3 -2.72056046e-15 0)
(3 -2.964212601e-15 0)
(3 -2.914932939e-15 0)
(3 -2.75999899e-15 0)
(3 -2.157600035e-15 0)
(3 1.879990664e-15 0)
(3 4.882478676e-15 0)
(3 5.602108834e-15 0)
(3 4.837762481e-15 0)
(3 4.014620308e-15 0)
(3 2.469590383e-15 0)
(3 2.806419428e-15 0)
(3 3.295444549e-15 0)
(3 3.840605445e-15 0)
(3 4.890101306e-15 0)
(3 4.669836702e-15 0)
(3 4.324286324e-15 0)
(3 2.444521858e-15 0)
(3 1.370242683e-15 0)
(3 6.501871457e-16 0)
(3 9.126442033e-16 0)
(3 1.970279554e-15 0)
(3 4.468064204e-15 0)
(3 6.877853946e-15 0)
(3 6.924840476e-15 0)
(3 7.270617941e-15 0)
(3 7.677176832e-15 0)
(3 8.421907092e-15 0)
(3 6.761206984e-15 0)
(3 5.846738796e-15 0)
(3 4.939490858e-15 0)
(3 4.055885246e-15 0)
(3 3.664323095e-15 0)
(3 4.101507026e-15 0)
(3 4.031555303e-15 0)
(3 4.219342604e-15 0)
(3 4.758695317e-15 0)
(3 2.963077787e-15 0)
(3 1.977361173e-15 0)
(3 4.439464384e-16 0)
(3 -9.132816576e-16 0)
(3 -1.543547689e-15 0)
(3 -1.763912729e-15 0)
(3 -2.716801224e-15 0)
(3 -3.103897471e-15 0)
(3 -4.97451279e-15 0)
(3 -5.044880127e-15 0)
(3 -5.55442137e-15 0)
(3 -6.625000457e-15 0)
(3 -5.559884472e-15 0)
(3 -5.847455612e-15 0)
(3 -3.064479192e-15 0)
(3 -3.019910712e-16 0)
(3 2.540142401e-16 0)
(3 -1.391925157e-16 0)
(3 -7.25903915e-16 0)
(3 -3.373251802e-15 0)
(3 -4.0798751e-15 0)
(3 -6.31792305e-15 0)
(3 -7.540316949e-15 0)
(3 -7.592009191e-15 0)
(3 -6.720896345e-15 0)
(3 -5.695161622e-15 0)
(3 -5.81325723e-15 0)
(3 -4.90203811e-15 0)
(3 1.052636733e-16 0)
(3 5.415522219e-16 0)
(3 -2.865244066e-16 0)
(3 2.291383383e-16 0)
(3 1.537748063e-15 0)
(3 1.236264004e-15 0)
(3 -6.09208425e-16 0)
(3 -1.164628234e-15 0)
(3 -1.423313119e-15 0)
(3 -6.413893074e-16 0)