/*--------------------------------*- C++ -*----------------------------------*\
  =========                 |
  \\      /  F ield         | OpenFOAM: The Open Source CFD Toolbox
   \\    /   O peration     | Website:  https://openfoam.org
    \\  /    A nd           | Version:  7
     \\/     M anipulation  |
\*---------------------------------------------------------------------------*/
FoamFile
{
    version     2.0;
    format      ascii;
    class       volVectorField;
    location    "2.2";
    object      U;
}
// * * * * * * * * * * * * * * * * * * * * * * * * * * * * * * * * * * * * * //

dimensions      [0 1 -1 0 0 0 0];

internalField   nonuniform List<vector> 8((2.999989885 1.766101284e-05 0) (2.999949043 8.604481443e-05 0) (2.999999984 2.93208823e-08 0) (3.000000281 -3.198105884e-07 0) (3 1.084213333e-11 0) (3.000000014 -4.80247404e-09 0) (3 1.563183642e-15 0) (3 2.209437558e-15 0));

boundaryField
{
    inlet
    {
        type            fixedValue;
        value           nonuniform 0();
    }
    outlet
    {
        type            inletOutlet;
        inletValue      nonuniform 0();
        value           nonuniform 0();
    }
    bottom
    {
        type            slip;
    }
    top
    {
        type            slip;
    }
    obstacle
    {
        type            slip;
    }
    defaultFaces
    {
        type            empty;
    }
    procBoundary31to25
    {
        type            processor;
        value           nonuniform List<vector> 4((2.998496492 0.002428983058 0) (2.99541703 0.007831932901 0) (3 -1.181016959e-15 0) (3 -1.181016959e-15 0));
    }
    procBoundary31to26
    {
        type            processor;
        value           uniform (2.999724553 0.0005309300576 0);
    }
    procBoundary31to30
    {
        type            processor;
        value           nonuniform List<vector> 2((3 1.08030316e-15 0) (3 8.960091362e-16 0));
    }
    procBoundary31to32
    {
        type            processor;
        value           nonuniform List<vector> 2((2.999999228 1.84108042e-06 0) (3.000000016 -3.100595192e-09 0));
    }
}


// ************************************************************************* //
