/*--------------------------------*- C++ -*----------------------------------*\
  =========                 |
  \\      /  F ield         | OpenFOAM: The Open Source CFD Toolbox
   \\    /   O peration     | Website:  https://openfoam.org
    \\  /    A nd           | Version:  7
     \\/     M anipulation  |
\*---------------------------------------------------------------------------*/
FoamFile
{
    version     2.0;
    format      ascii;
    class       volVectorField;
    location    "2.6";
    object      U;
}
// * * * * * * * * * * * * * * * * * * * * * * * * * * * * * * * * * * * * * //

dimensions      [0 1 -1 0 0 0 0];

internalField   nonuniform List<vector> 5((3 -9.315872011e-16 0) (3 -1.624127438e-15 0) (3 -4.469532072e-15 0) (3 -1.130667709e-15 0) (3 -4.049347355e-15 0));

boundaryField
{
    inlet
    {
        type            fixedValue;
        value           uniform (3 0 0);
    }
    outlet
    {
        type            inletOutlet;
        inletValue      nonuniform 0();
        value           nonuniform 0();
    }
    bottom
    {
        type            slip;
    }
    top
    {
        type            slip;
    }
    obstacle
    {
        type            slip;
    }
    defaultFaces
    {
        type            empty;
    }
    procBoundary0to1
    {
        type            processor;
        value           uniform (3 -5.893148759e-15 0);
    }
    procBoundary0to6
    {
        type            processor;
        value           nonuniform List<vector> 4((3 -5.172234221e-15 0) (3 1.000319e-15 0) (3 -5.172234221e-15 0) (3 1.900618488e-16 0));
    }
}


// ************************************************************************* //
