/*--------------------------------*- C++ -*----------------------------------*\
  =========                 |
  \\      /  F ield         | OpenFOAM: The Open Source CFD Toolbox
   \\    /   O peration     | Website:  https://openfoam.org
    \\  /    A nd           | Version:  7
     \\/     M anipulation  |
\*---------------------------------------------------------------------------*/
FoamFile
{
    version     2.0;
    format      ascii;
    class       volVectorField;
    location    "1.2";
    object      U;
}
// * * * * * * * * * * * * * * * * * * * * * * * * * * * * * * * * * * * * * //

dimensions      [0 1 -1 0 0 0 0];

internalField   nonuniform List<vector> 
2223
(
(3 -1.217040447e-14 0)
(3 -1.926134219e-14 0)
(3 -2.400983185e-14 0)
(3 -2.387225188e-14 0)
(3 -1.883279587e-14 0)
(3 -1.218672183e-14 0)
(3 -7.685798869e-15 0)
(3 -5.713892242e-15 0)
(3 -2.024530331e-15 0)
(3 -3.130789939e-15 0)
(3 -4.211541578e-15 0)
(3 -9.98648282e-15 0)
(3 7.705932839e-16 0)
(3 1.901955026e-15 0)
(3 2.479676954e-15 0)
(3 6.025431905e-16 0)
(3 -1.925367049e-16 0)
(3 -1.866060957e-15 0)
(3 -4.079183887e-16 0)
(3 -7.874630612e-16 0)
(3 -6.264541946e-16 0)
(3 8.927534892e-19 0)
(3 2.876074761e-15 0)
(3 4.949223831e-15 0)
(3 5.038435521e-15 0)
(3 2.520269515e-15 0)
(3 2.853526891e-15 0)
(3 4.564732921e-15 0)
(3 6.710014244e-15 0)
(3 5.904229833e-15 0)
(3 1.439527764e-15 0)
(3 -1.607716273e-15 0)
(3 -1.737361433e-15 0)
(3 1.123579819e-15 0)
(3 -3.364490579e-15 0)
(3 -7.169586691e-15 0)
(3 -8.531052867e-15 0)
(3 -8.914259002e-15 0)
(3 -1.099371289e-14 0)
(3 -1.489966952e-14 0)
(3 -1.580499889e-14 0)
(3 -1.394233276e-14 0)
(3 -1.161127505e-14 0)
(3 -6.702769098e-15 0)
(3 -5.193775496e-15 0)
(3 1.916193063e-15 0)
(3 6.462428651e-15 0)
(3 5.551516513e-15 0)
(3 5.677890235e-15 0)
(3 5.80191919e-15 0)
(3 1.035729869e-14 0)
(3 1.150995412e-14 0)
(3 1.041401299e-14 0)
(3 1.000333427e-14 0)
(3 9.322672996e-15 0)
(3 5.214239726e-15 0)
(3 3.795060349e-15 0)
(3 7.34372764e-16 0)
(3 -1.142749248e-16 0)
(3 1.109905894e-15 0)
(3 3.456824629e-15 0)
(3 7.071999825e-15 0)
(3 1.031979879e-14 0)
(3 9.874358672e-15 0)
(3 5.490752858e-15 0)
(3 1.634243411e-15 0)
(3 -2.031450817e-15 0)
(3 -6.477236717e-15 0)
(3 -1.111488602e-14 0)
(3 -1.188862301e-14 0)
(3 -1.182723525e-14 0)
(3 -1.066929149e-14 0)
(3 -7.952811556e-15 0)
(3 -5.323562762e-15 0)
(3 -5.082225262e-15 0)
(3 -7.330559182e-15 0)
(3 -7.478383839e-15 0)
(3 -6.357871516e-15 0)
(3 -4.102404467e-15 0)
(3 1.423056474e-15 0)
(3 3.74097684e-15 0)
(3 2.969858067e-15 0)
(3 1.437644333e-15 0)
(3 1.700597373e-15 0)
(3 1.501608866e-15 0)
(3 2.851690833e-15 0)
(3 3.342913555e-15 0)
(3 7.214730724e-15 0)
(3 6.561795816e-15 0)
(3 5.113565769e-15 0)
(3 4.017006068e-15 0)
(3 3.183590751e-15 0)
(3 4.044854656e-15 0)
(3 4.024290378e-15 0)
(3 3.360417566e-15 0)
(3 3.360664312e-15 0)
(3 7.562121534e-15 0)
(3 8.015004961e-15 0)
(3 6.340214795e-15 0)
(3 9.501259765e-15 0)
(3 1.475623302e-14 0)
(3 1.250516114e-14 0)
(3 7.957532511e-15 0)
(3 4.704540453e-15 0)
(3 2.899594194e-15 0)
(3 7.613133724e-16 0)
(3 -2.053110152e-15 0)
(3 -5.755363935e-15 0)
(3 -4.185623911e-15 0)
(3 -5.724697436e-15 0)
(3 -9.574957726e-15 0)
(3 -1.189815443e-14 0)
(3 -1.125676054e-14 0)
(3 -7.5865271e-15 0)
(3 -2.047850026e-15 0)
(3 3.143229064e-15 0)
(3 3.432770467e-15 0)
(3 6.921879063e-15 0)
(3 5.147190406e-15 0)
(3 9.336879947e-15 0)
(3 1.157933389e-14 0)
(3 1.215490001e-14 0)
(3 7.516688288e-15 0)
(3 4.808235259e-15 0)
(3 5.016270621e-15 0)
(3 7.588004338e-15 0)
(3 1.03965888e-14 0)
(3 1.061341645e-14 0)
(3 1.081112615e-14 0)
(3 8.268518749e-15 0)
(3 4.983463522e-15 0)
(3 -3.99967005e-15 0)
(3 -1.189149964e-14 0)
(3 -1.383488311e-14 0)
(3 -1.474333175e-14 0)
(3 -1.547996835e-14 0)
(3 -1.121602182e-14 0)
(3 -3.923198624e-15 0)
(3 -3.797402269e-15 0)
(3 -6.015927029e-15 0)
(3 -6.224880308e-15 0)
(3 -8.130752809e-15 0)
(3 -1.183058979e-14 0)
(3 -1.231219659e-14 0)
(3 -1.155084634e-14 0)
(3 -7.848058976e-15 0)
(3 -4.035391002e-16 0)
(3 -4.534257962e-16 0)
(3 -1.479039288e-15 0)
(3 -1.607457556e-15 0)
(3 1.148445133e-15 0)
(3 2.837526342e-15 0)
(3 3.39511717e-15 0)
(3 4.597988952e-15 0)
(3 4.458723765e-15 0)
(3 4.105184139e-15 0)
(3 2.381118114e-15 0)
(3 3.80392216e-15 0)
(3 3.449995923e-15 0)
(3 6.688251598e-15 0)
(3 9.725440215e-15 0)
(3 1.000190662e-14 0)
(3 1.130042529e-14 0)
(3 1.457457275e-14 0)
(3 2.034043386e-14 0)
(3 2.567528082e-14 0)
(3 2.815278254e-14 0)
(3 2.565727749e-14 0)
(3 2.325819524e-14 0)
(3 1.651297661e-14 0)
(3 1.746189971e-14 0)
(3 1.562560763e-14 0)
(3 1.409057795e-14 0)
(3 1.292673117e-14 0)
(3 1.037825712e-14 0)
(3 8.476982228e-15 0)
(3 6.246591419e-15 0)
(3 3.422483359e-15 0)
(3 1.966605639e-15 0)
(3 1.49962994e-15 0)
(3 1.516535565e-15 0)
(3 3.379275658e-15 0)
(3 6.843218281e-15 0)
(3 5.992466985e-15 0)
(3 5.724968477e-15 0)
(3 4.883216221e-16 0)
(3 8.159943994e-16 0)
(3 1.816969884e-15 0)
(3 4.05467546e-16 0)
(3 3.730912457e-15 0)
(3 5.449738763e-15 0)
(3 5.498904855e-15 0)
(3 5.494486111e-15 0)
(3 3.584486538e-15 0)
(3 -1.674421701e-15 0)
(3 1.727872308e-15 0)
(3 7.133880558e-15 0)
(3 5.126244256e-15 0)
(3 -1.611673589e-15 0)
(3 -9.332839263e-15 0)
(3 -1.465782367e-14 0)
(3 -1.481290457e-14 0)
(3 -1.496983736e-14 0)
(3 -1.07440432e-14 0)
(3 -4.753431128e-15 0)
(3 -4.653233052e-15 0)
(3 -5.298909671e-15 0)
(3 -8.81914097e-15 0)
(3 -1.246203517e-14 0)
(3 -1.093974215e-14 0)
(3 -8.489239861e-15 0)
(3 -6.53051623e-15 0)
(3 -5.228843196e-15 0)
(3 -6.122587741e-16 0)
(3 -3.228832958e-15 0)
(3 -2.088586797e-15 0)
(3 -9.453539651e-16 0)
(3 3.507898879e-16 0)
(3 5.259544626e-16 0)
(3 4.120933313e-16 0)
(3 -1.884226756e-16 0)
(3 -2.035603607e-15 0)
(3 -7.998028879e-16 0)
(3 -8.739595821e-17 0)
(3 2.286303518e-15 0)
(3 5.144450298e-15 0)
(3 8.084646099e-15 0)
(3 9.951277964e-15 0)
(3 1.334297824e-14 0)
(3 1.710077122e-14 0)
(3 2.087788928e-14 0)
(3 2.261781014e-14 0)
(3 2.297902582e-14 0)
(3 2.060033617e-14 0)
(3 2.234989509e-14 0)
(3 2.329053488e-14 0)
(3 2.27461979e-14 0)
(3 1.809168649e-14 0)
(3 1.68942164e-14 0)
(3 1.996862776e-14 0)
(3 1.925576133e-14 0)
(3 1.571414482e-14 0)
(3 9.559674959e-15 0)
(3 8.555529057e-15 0)
(3 1.087015801e-14 0)
(3 1.531785831e-14 0)
(3 1.574142556e-14 0)
(3 1.282846344e-14 0)
(3 9.310405167e-15 0)
(3 8.748269024e-15 0)
(3 2.42825588e-15 0)
(3 3.495422351e-15 0)
(3 -1.557004119e-15 0)
(3 -1.140555964e-14 0)
(3 -1.505030288e-14 0)
(3 -1.36353951e-14 0)
(3 -1.372843581e-14 0)
(3 -9.861416338e-15 0)
(3 2.597488617e-15 0)
(3 5.547542893e-15 0)
(3 2.37644448e-15 0)
(3 2.777466114e-16 0)
(3 -2.411513912e-15 0)
(3 -3.472782397e-15 0)
(3 -6.277958426e-15 0)
(3 -6.785431117e-15 0)
(3 -8.081911593e-15 0)
(3 -1.004550764e-14 0)
(3 -9.247534926e-15 0)
(3 -1.652138524e-15 0)
(3 -7.743760971e-15 0)
(3 -1.599197469e-14 0)
(3 -1.799123719e-14 0)
(3 -1.705633843e-14 0)
(3 -1.667154031e-14 0)
(3 -1.541428236e-14 0)
(3 -1.233093821e-14 0)
(3 -1.203955776e-14 0)
(3 -8.61275531e-15 0)
(3 -3.979489504e-15 0)
(3 2.094576378e-16 0)
(3 2.020653519e-15 0)
(3 1.950666652e-15 0)
(3 2.842845312e-15 0)
(3 -3.184286156e-15 0)
(3 -3.387639564e-15 0)
(3 -2.983577473e-15 0)
(3 -3.290856045e-15 0)
(3 -3.461493618e-15 0)
(3 -2.016175484e-15 0)
(3 2.564564534e-16 0)
(3 -2.37363488e-16 0)
(3 2.01567358e-15 0)
(3 7.121004204e-16 0)
(3 1.309179454e-15 0)
(3 3.368006157e-15 0)
(3 3.270912967e-15 0)
(3 6.335214434e-15 0)
(3 7.976656582e-15 0)
(3 8.839584787e-15 0)
(3 6.283931557e-15 0)
(3 6.484489489e-15 0)
(3 8.514699565e-15 0)
(3 1.029582583e-14 0)
(3 1.025562444e-14 0)
(3 9.067239247e-15 0)
(3 1.244781148e-14 0)
(3 1.571631836e-14 0)
(3 2.048608162e-14 0)
(3 2.008249942e-14 0)
(3 1.497391135e-14 0)
(3 1.202841231e-14 0)
(3 1.360817612e-14 0)
(3 9.512357389e-15 0)
(3 3.969502903e-15 0)
(3 1.414943464e-15 0)
(3 -1.894796185e-15 0)
(3 -6.542749724e-15 0)
(3 -1.173457663e-14 0)
(3 -1.126405418e-14 0)
(3 -1.351801678e-14 0)
(3 -1.68791322e-14 0)
(3 -2.028662884e-14 0)
(3 -2.118997866e-14 0)
(3 -1.66576625e-14 0)
(3 -9.318379917e-15 0)
(3 -6.43381658e-15 0)
(3 -4.843040568e-15 0)
(3 -4.955737522e-15 0)
(3 -7.580714796e-15 0)
(3 -8.034532892e-15 0)
(3 -6.693031227e-15 0)
(3 -5.113684412e-15 0)
(3 -3.456017796e-15 0)
(3 1.97875622e-15 0)
(3 2.086140141e-15 0)
(3 3.915846915e-15 0)
(3 1.562120106e-15 0)
(3 -4.977679872e-15 0)
(3 -1.06459368e-14 0)
(3 -1.307510581e-14 0)
(3 -1.349281539e-14 0)
(3 -1.667270017e-14 0)
(3 -2.034518761e-14 0)
(3 -2.319147616e-14 0)
(3 -2.207112737e-14 0)
(3 -1.627687495e-14 0)
(3 3.451535367e-16 0)
(3 3.366238147e-15 0)
(3 3.354318146e-15 0)
(3 9.138263221e-16 0)
(3 -9.106456566e-16 0)
(3 -3.24619215e-15 0)
(3 -4.066918713e-15 0)
(3 -1.902339508e-15 0)
(3 -3.738654514e-16 0)
(3 2.648949727e-15 0)
(3 2.786093893e-15 0)
(3 1.743084367e-15 0)
(3 -1.294694818e-16 0)
(3 -2.044267147e-15 0)
(3 1.791010124e-15 0)
(3 -1.158955904e-16 0)
(3 -2.501992391e-15 0)
(3 -7.677903308e-15 0)
(3 -5.122535266e-15 0)
(3 -2.70118518e-15 0)
(3 -2.886336121e-15 0)
(3 -3.350280329e-15 0)
(3 -2.921597082e-15 0)
(3 -1.489636302e-15 0)
(3 2.29344245e-15 0)
(3 3.053782065e-15 0)
(3 5.181195174e-15 0)
(3 6.59548029e-15 0)
(3 7.742871561e-15 0)
(3 6.448553581e-15 0)
(3 8.7323961e-15 0)
(3 1.31877508e-14 0)
(3 1.530888086e-14 0)
(3 1.47074377e-14 0)
(3 9.414564017e-15 0)
(3 -7.21745953e-16 0)
(3 -1.237963226e-14 0)
(3 -1.752358595e-14 0)
(3 -1.371513832e-14 0)
(3 -1.070005137e-14 0)
(3 -1.171848851e-14 0)
(3 -1.381802046e-14 0)
(3 -1.561354629e-14 0)
(3 -1.81848706e-14 0)
(3 -1.852130138e-14 0)
(3 -1.903949507e-14 0)
(3 -1.92579482e-14 0)
(3 -1.187988081e-14 0)
(3 -8.537757635e-15 0)
(3 -8.607468154e-15 0)
(3 -7.774841439e-15 0)
(3 -1.276594213e-15 0)
(3 6.140262508e-15 0)
(3 1.419867612e-14 0)
(3 1.766517868e-14 0)
(3 1.918196732e-14 0)
(3 1.440218121e-14 0)
(3 8.24552577e-15 0)
(3 6.625240979e-15 0)
(3 3.816887937e-15 0)
(3 -8.506799427e-16 0)
(3 -4.139604429e-15 0)
(3 -8.992929089e-15 0)
(3 -1.187100438e-14 0)
(3 -1.348252703e-14 0)
(3 -1.468754555e-14 0)
(3 -1.778597413e-14 0)
(3 -5.700563406e-16 0)
(3 -1.071384673e-15 0)
(3 -4.321820659e-16 0)
(3 3.192693827e-17 0)
(3 -7.756872233e-16 0)
(3 -3.860086462e-15 0)
(3 -6.370506688e-15 0)
(3 -4.890158316e-15 0)
(3 -3.289877949e-15 0)
(3 -1.317427894e-15 0)
(3 -9.823040511e-16 0)
(3 -8.420444458e-16 0)
(3 3.531626873e-16 0)
(3 5.90295698e-16 0)
(3 -2.641804382e-16 0)
(3 -4.750138704e-16 0)
(3 -3.904916802e-15 0)
(3 -5.700014178e-15 0)
(3 -6.725766682e-15 0)
(3 -7.542320863e-15 0)
(3 -4.509267551e-15 0)
(3 -3.741269665e-15 0)
(3 -3.300839941e-15 0)
(3 -1.725539244e-15 0)
(3 2.788549085e-16 0)
(3 5.897315304e-16 0)
(3 -3.789814194e-16 0)
(3 -3.651201571e-16 0)
(3 -1.255443126e-15 0)
(3 -4.294159395e-15 0)
(3 -2.978549503e-15 0)
(3 3.491789839e-15 0)
(3 7.526023355e-15 0)
(3 1.323353471e-14 0)
(3 1.039497114e-14 0)
(3 5.045613223e-16 0)
(3 -4.235499372e-15 0)
(3 -5.339661514e-15 0)
(3 -1.090808402e-14 0)
(3 -1.415668972e-14 0)
(3 -1.370239019e-14 0)
(3 -1.16922702e-14 0)
(3 -1.084874102e-14 0)
(3 -1.267549576e-14 0)
(3 -1.461153245e-14 0)
(3 -1.772784284e-14 0)
(3 -2.02460909e-14 0)
(3 -1.498179478e-14 0)
(3 -1.379165161e-14 0)
(3 -1.430232202e-14 0)
(3 -1.705245688e-14 0)
(3 -1.048754057e-14 0)
(3 -4.070257059e-15 0)
(3 3.684968805e-15 0)
(3 8.225916867e-15 0)
(3 1.103037714e-14 0)
(3 9.793315187e-15 0)
(3 8.165110667e-15 0)
(3 6.174721165e-15 0)
(3 4.617290396e-15 0)
(3 5.736750874e-16 0)
(3 -1.620215818e-15 0)
(3 -4.745675716e-15 0)
(3 -1.236191918e-14 0)
(3 -1.63605218e-14 0)
(3 -1.574422585e-14 0)
(3 -9.800999799e-15 0)
(3 -1.726855944e-15 0)
(3 -1.440187308e-15 0)
(3 -1.685842735e-15 0)
(3 2.853069976e-16 0)
(3 -1.992454126e-15 0)
(3 -2.551437822e-15 0)
(3 -5.213502961e-15 0)
(3 -5.562752756e-15 0)
(3 -3.766942906e-15 0)
(3 -4.807129647e-15 0)
(3 -6.038407319e-15 0)
(3 -7.851468312e-15 0)
(3 -6.421532128e-15 0)
(3 -6.61889027e-15 0)
(3 -8.334500771e-15 0)
(3 -7.899281785e-15 0)
(3 -8.765914843e-15 0)
(3 -5.026981309e-15 0)
(3 -4.912453785e-15 0)
(3 -4.255548425e-15 0)
(3 -3.365268948e-15 0)
(3 -2.675538941e-16 0)
(3 2.331285211e-16 0)
(3 -2.680432186e-15 0)
(3 -2.90100299e-15 0)
(3 -2.567902106e-15 0)
(3 -5.819741609e-15 0)
(3 -8.452202321e-15 0)
(3 -8.758364235e-15 0)
(3 -8.664541951e-15 0)
(3 -1.059975413e-14 0)
(3 -1.050369357e-14 0)
(3 -5.766237182e-15 0)
(3 -3.222535197e-16 0)
(3 5.659005075e-16 0)
(3 7.635250785e-16 0)
(3 -7.128671744e-16 0)
(3 -1.212714202e-15 0)
(3 -7.932704989e-15 0)
(3 -1.33689516e-14 0)
(3 -1.332762179e-14 0)
(3 -6.106665106e-15 0)
(3 -7.122177624e-15 0)
(3 -9.381274803e-15 0)
(3 -1.017962076e-14 0)
(3 -8.320362268e-15 0)
(3 -7.331699846e-15 0)
(3 -1.414015799e-14 0)
(3 -1.655390629e-14 0)
(3 -1.366478258e-14 0)
(3 -1.267212965e-14 0)
(3 -4.319189445e-15 0)
(3 -2.151712319e-15 0)
(3 2.27758963e-15 0)
(3 8.898076857e-15 0)
(3 1.197997784e-14 0)
(3 1.132209821e-14 0)
(3 8.553300011e-15 0)
(3 8.385850679e-15 0)
(3 5.916090705e-15 0)
(3 3.193982702e-15 0)
(3 1.100240602e-15 0)
(3 -7.831240273e-17 0)
(3 -1.361792087e-15 0)
(3 -7.252373377e-15 0)
(3 -1.378559793e-14 0)
(3 -1.578236239e-14 0)
(3 5.234398363e-16 0)
(3 1.53763694e-15 0)
(3 3.386720633e-16 0)
(3 -1.60432464e-15 0)
(3 -3.804772484e-17 0)
(3 8.195644658e-16 0)
(3 9.026146916e-16 0)
(3 -2.337606993e-15 0)
(3 -3.097702072e-15 0)
(3 -5.91526687e-15 0)
(3 -7.614278013e-15 0)
(3 -9.246390341e-15 0)
(3 -1.209734652e-14 0)
(3 -1.529842531e-14 0)
(3 -1.4116518e-14 0)
(3 -1.315196102e-14 0)
(3 -1.284529789e-14 0)
(3 -1.316056897e-14 0)
(3 -1.233499753e-14 0)
(3 -1.049488583e-14 0)
(3 -1.076830923e-14 0)
(3 -8.721001763e-15 0)
(3 -8.039709227e-15 0)
(3 -7.189062252e-15 0)
(3 -7.580941159e-15 0)
(3 -6.701199114e-15 0)
(3 -5.028670767e-15 0)
(3 -5.338223754e-15 0)
(3 -6.233154785e-15 0)
(3 -7.963159849e-15 0)
(3 -9.34000267e-15 0)
(3 -9.723346106e-15 0)
(3 -7.374781236e-15 0)
(3 -1.662415441e-15 0)
(3 3.296876735e-15 0)
(3 3.538903017e-15 0)
(3 -3.335706962e-15 0)
(3 -8.739740193e-15 0)
(3 -1.138552196e-14 0)
(3 -1.53875513e-14 0)
(3 -9.991673251e-15 0)
(3 3.229289678e-15 0)
(3 8.449661822e-15 0)
(3 9.610444388e-15 0)
(3 7.300756814e-15 0)
(3 4.191697345e-15 0)
(3 5.231093047e-15 0)
(3 -1.758109582e-15 0)
(3 -4.616128974e-15 0)
(3 -6.414367962e-15 0)
(3 -1.82602257e-15 0)
(3 -7.174402858e-16 0)
(3 1.982668143e-15 0)
(3 3.891954288e-15 0)
(3 5.67312021e-15 0)
(3 5.105286933e-15 0)
(3 4.186827491e-15 0)
(3 4.992179731e-15 0)
(3 6.04424403e-15 0)
(3 4.722516611e-15 0)
(3 2.227560918e-15 0)
(3 1.347287703e-15 0)
(3 6.910185054e-16 0)
(3 2.549708412e-15 0)
(3 1.38135233e-17 0)
(3 -8.702959329e-15 0)
(3 -1.638238877e-14 0)
(3 2.048562305e-15 0)
(3 6.559567845e-16 0)
(3 -2.188204105e-15 0)
(3 -2.127779236e-15 0)
(3 -7.852811872e-16 0)
(3 6.213165041e-16 0)
(3 -4.874944983e-17 0)
(3 -9.772058787e-16 0)
(3 -5.476829829e-15 0)
(3 -8.633763244e-15 0)
(3 -6.09282218e-15 0)
(3 -9.237158409e-16 0)
(3 -9.538523148e-16 0)
(3 -2.63910543e-15 0)
(3 -7.958984097e-15 0)
(3 -9.075290919e-15 0)
(3 -8.735234067e-15 0)
(3 -1.142977346e-14 0)
(3 -1.471338005e-14 0)
(3 -1.650784471e-14 0)
(3 -1.623627186e-14 0)
(3 -1.467810929e-14 0)
(3 -1.320414322e-14 0)
(3 -9.478663267e-15 0)
(3 -9.048492733e-15 0)
(3 -6.404794672e-15 0)
(3 -2.233122941e-15 0)
(3 1.573232048e-15 0)
(3 1.387858362e-15 0)
(3 4.862215557e-16 0)
(3 -3.940732072e-16 0)
(3 -1.696350232e-15 0)
(3 -2.494718353e-15 0)
(3 -7.377147383e-15 0)
(3 -1.025108475e-14 0)
(3 -7.03175848e-15 0)
(3 -2.901196908e-16 0)
(3 -2.595669627e-16 0)
(3 -1.301107699e-15 0)
(3 -7.190053148e-16 0)
(3 -2.868631787e-15 0)
(3 -3.176931141e-15 0)
(3 -8.524947462e-16 0)
(3 3.48496075e-15 0)
(3 9.594871856e-15 0)
(3 1.281080127e-14 0)
(3 1.178970926e-14 0)
(3 9.11678345e-15 0)
(3 1.10111395e-14 0)
(3 9.152345828e-15 0)
(3 6.33487341e-15 0)
(3 2.657359254e-15 0)
(3 1.25104734e-15 0)
(3 -3.773047892e-17 0)
(3 -1.853381688e-15 0)
(3 -1.689826769e-16 0)
(3 5.161845585e-15 0)
(3 7.266802202e-15 0)
(3 7.271187836e-15 0)
(3 5.253088762e-15 0)
(3 1.972918535e-15 0)
(3 -3.731436517e-15 0)
(3 -6.356311597e-15 0)
(3 -3.4403202e-15 0)
(3 1.340075104e-15 0)
(3 1.082296111e-15 0)
(3 -4.718308879e-15 0)
(3 -3.844275669e-16 0)
(3 -3.041200238e-15 0)
(3 -2.601612127e-15 0)
(3 -1.606112591e-15 0)
(3 -1.064736722e-15 0)
(3 -3.35614934e-16 0)
(3 -7.744066849e-16 0)
(3 -5.064518928e-16 0)
(3 2.39317306e-16 0)
(3 1.048076628e-15 0)
(3 2.632872008e-15 0)
(3 5.854403382e-15 0)
(3 4.851796737e-15 0)
(3 2.7928193e-15 0)
(3 -7.497391983e-16 0)
(3 -4.753103812e-15 0)
(3 -8.328878633e-15 0)
(3 -7.704014159e-15 0)
(3 -5.612752333e-15 0)
(3 -5.581197837e-15 0)
(3 -4.63232544e-15 0)
(3 -7.088496463e-15 0)
(3 -6.975736967e-15 0)
(3 -9.262888047e-15 0)
(3 -7.029630228e-15 0)
(3 -2.692443883e-15 0)
(3 -2.24884169e-15 0)
(3 -2.37313898e-15 0)
(3 -1.892216405e-15 0)
(3 -5.721195048e-16 0)
(3 -3.777416948e-16 0)
(3 -1.358594783e-15 0)
(3 -1.982969549e-15 0)
(3 -8.203780383e-15 0)
(3 -1.339920745e-14 0)
(3 -1.632680687e-14 0)
(3 -1.465895641e-14 0)
(3 -1.104482063e-14 0)
(3 -6.629098435e-15 0)
(3 -4.769655556e-15 0)
(3 -7.708851221e-15 0)
(3 -9.160929824e-15 0)
(3 -8.153753191e-15 0)
(3 -7.27459269e-15 0)
(3 -3.09489956e-15 0)
(3 8.003131008e-16 0)
(3 3.490181031e-15 0)
(3 9.734586151e-15 0)
(3 1.803165667e-14 0)
(3 2.224786894e-14 0)
(3 2.009065932e-14 0)
(3 1.594581037e-14 0)
(3 9.440111402e-15 0)
(3 3.947319498e-15 0)
(3 6.776725949e-16 0)
(3 3.087414554e-16 0)
(3 -8.248274616e-16 0)
(3 -8.496358499e-16 0)
(3 -1.356002559e-15 0)
(3 1.00506877e-15 0)
(3 2.664445437e-15 0)
(3 3.001713324e-15 0)
(3 6.807598398e-15 0)
(3 1.340041415e-14 0)
(3 1.279028445e-14 0)
(3 3.205130934e-15 0)
(3 2.438443336e-15 0)
(3 4.182571086e-17 0)
(3 1.101825529e-15 0)
(3 1.549560082e-15 0)
(3 1.392774613e-15 0)
(3 2.705845754e-15 0)
(3 1.523800272e-15 0)
(3 4.563018818e-16 0)
(3 1.343082056e-15 0)
(3 3.8671615e-15 0)
(3 8.143952516e-15 0)
(3 8.387000127e-15 0)
(3 6.709826784e-15 0)
(3 3.460777841e-15 0)
(3 -3.553524404e-17 0)
(3 -3.047279662e-16 0)
(3 -1.545920151e-15 0)
(3 -1.650979638e-15 0)
(3 -2.063955522e-15 0)
(3 -3.281340347e-17 0)
(3 -3.521924183e-16 0)
(3 -2.556174027e-15 0)
(3 -4.066995818e-15 0)
(3 -4.347353462e-15 0)
(3 -3.220804774e-15 0)
(3 -2.384896216e-15 0)
(3 -3.228926824e-15 0)
(3 -6.008788576e-15 0)
(3 -7.105931773e-15 0)
(3 -5.852770862e-15 0)
(3 -4.422942595e-15 0)
(3 -4.67690882e-15 0)
(3 -5.253408736e-15 0)
(3 -7.758941043e-15 0)
(3 -9.794145503e-15 0)
(3 -1.284218427e-14 0)
(3 -1.672583171e-14 0)
(3 -2.024592167e-14 0)
(3 -1.723114243e-14 0)
(3 -1.632945391e-14 0)
(3 -1.527017917e-14 0)
(3 -1.246889991e-14 0)
(3 -9.712451797e-15 0)
(3 -1.026907352e-14 0)
(3 -4.515007205e-15 0)
(3 -1.240410235e-15 0)
(3 8.637207795e-16 0)
(3 1.905181582e-15 0)
(3 1.036362402e-14 0)
(3 1.275136624e-14 0)
(3 1.753501576e-14 0)
(3 1.74726223e-14 0)
(3 1.135798663e-14 0)
(3 4.871034157e-15 0)
(3 -7.874206091e-16 0)
(3 -5.212121767e-15 0)
(3 -8.581190739e-15 0)
(3 -1.278532464e-14 0)
(3 -1.282600936e-14 0)
(3 -9.981281561e-15 0)
(3 -5.324882717e-15 0)
(3 5.149296615e-17 0)
(3 8.987514105e-15 0)
(3 1.659512527e-14 0)
(3 1.618300016e-14 0)
(3 1.847974352e-14 0)
(3 1.783121082e-14 0)
(3 1.739217941e-14 0)
(3 8.793355608e-16 0)
(3 3.777814973e-15 0)
(3 4.030858142e-15 0)
(3 3.640929287e-15 0)
(3 1.911176427e-15 0)
(3 -8.262999859e-17 0)
(3 -8.580942064e-17 0)
(3 3.629680226e-15 0)
(3 4.816353301e-15 0)
(3 4.266097403e-15 0)
(3 8.189044736e-15 0)
(3 7.763919124e-15 0)
(3 6.66484775e-15 0)
(3 6.654134366e-15 0)
(3 7.002777946e-15 0)
(3 6.642545011e-15 0)
(3 6.154477386e-15 0)
(3 5.519971622e-15 0)
(3 2.814721945e-15 0)
(3 1.606526734e-15 0)
(3 -1.154982514e-15 0)
(3 -1.607221206e-16 0)
(3 -8.105745634e-16 0)
(3 -1.928919062e-15 0)
(3 -3.977335617e-15 0)
(3 -1.027227987e-14 0)
(3 -1.641586563e-14 0)
(3 -1.708903193e-14 0)
(3 -1.495562606e-14 0)
(3 -1.449517401e-14 0)
(3 -1.397996851e-14 0)
(3 -1.475388476e-14 0)
(3 -1.442391249e-14 0)
(3 -1.296396298e-14 0)
(3 -1.230884764e-14 0)
(3 -1.191049501e-14 0)
(3 -1.19191329e-14 0)
(3 -1.192401413e-14 0)
(3 -1.725197947e-14 0)
(3 -1.793933279e-14 0)
(3 -1.843750974e-14 0)
(3 -1.824863894e-14 0)
(3 -1.767859506e-14 0)
(3 -1.446797124e-14 0)
(3 -1.296090048e-14 0)
(3 -8.408807356e-15 0)
(3 -2.371230477e-15 0)
(3 -1.314291739e-15 0)
(3 -3.506089571e-15 0)
(3 -3.990069041e-15 0)
(3 -1.758987686e-16 0)
(3 -2.009010354e-15 0)
(3 -3.561426706e-15 0)
(3 -8.48427862e-15 0)
(3 -8.745073121e-15 0)
(3 -1.041534215e-14 0)
(3 -1.483459896e-14 0)
(3 -1.200908067e-14 0)
(3 -4.902175966e-15 0)
(3 3.584043077e-15 0)
(3 1.014787762e-14 0)
(3 1.147351308e-14 0)
(3 1.173516287e-14 0)
(3 1.174934828e-14 0)
(3 1.5734511e-14 0)
(3 2.486895907e-14 0)
(3 2.527551681e-14 0)
(3 -6.717142187e-16 0)
(3 -1.841537961e-15 0)
(3 -9.58921633e-16 0)
(3 -1.720358982e-15 0)
(3 -2.496185856e-15 0)
(3 1.902189656e-17 0)
(3 3.892939679e-15 0)
(3 4.014780712e-15 0)
(3 2.445319075e-15 0)
(3 6.252156965e-16 0)
(3 -2.105095237e-15 0)
(3 -5.708688249e-16 0)
(3 8.778555219e-16 0)
(3 3.385750503e-15 0)
(3 5.031808272e-15 0)
(3 5.494783862e-15 0)
(3 5.608729098e-15 0)
(3 5.326801684e-15 0)
(3 4.159146614e-15 0)
(3 2.730428547e-15 0)
(3 1.076326709e-15 0)
(3 -2.828410546e-16 0)
(3 -2.918224922e-15 0)
(3 -6.540316669e-15 0)
(3 -1.316264258e-14 0)
(3 -1.679578317e-14 0)
(3 -1.538273247e-14 0)
(3 -1.389940504e-14 0)
(3 -1.39534989e-14 0)
(3 -1.792838222e-14 0)
(3 -1.930520223e-14 0)
(3 -2.163154173e-14 0)
(3 -2.020286755e-14 0)
(3 -1.795196946e-14 0)
(3 -1.106327235e-14 0)
(3 -6.065127452e-15 0)
(3 -3.781062684e-15 0)
(3 -6.827271078e-15 0)
(3 -1.035371912e-14 0)
(3 -1.418328259e-14 0)
(3 -1.73594815e-14 0)
(3 -1.820934676e-14 0)
(3 -1.951371451e-14 0)
(3 -1.94526714e-14 0)
(3 -1.992332116e-14 0)
(3 -1.788863896e-14 0)
(3 -1.371487834e-14 0)
(3 -1.456397054e-14 0)
(3 -1.570011389e-14 0)
(3 -1.548551301e-14 0)
(3 -1.539479625e-14 0)
(3 -1.101177371e-14 0)
(3 -9.080429232e-15 0)
(3 -6.300141398e-15 0)
(3 -4.8442186e-15 0)
(3 -2.173427371e-15 0)
(3 -3.981218718e-15 0)
(3 -5.46462796e-16 0)
(3 2.807637229e-15 0)
(3 8.836478714e-15 0)
(3 1.191743424e-14 0)
(3 1.007172823e-14 0)
(3 8.146520662e-15 0)
(3 9.806182947e-15 0)
(3 1.180626196e-14 0)
(3 1.4348963e-14 0)
(3 1.644512794e-14 0)
(3 -4.304808241e-16 0)
(3 -1.993457454e-15 0)
(3 -2.184458586e-15 0)
(3 -1.328718316e-15 0)
(3 1.432901982e-16 0)
(3 2.762145899e-15 0)
(3 2.976073592e-15 0)
(3 8.958465967e-16 0)
(3 -1.969273999e-15 0)
(3 -6.761496783e-15 0)
(3 -1.214455907e-14 0)
(3 -1.209235662e-14 0)
(3 -1.135307431e-14 0)
(3 -9.174335938e-15 0)
(3 -7.207083379e-15 0)
(3 -3.492775919e-15 0)
(3 -4.221002549e-16 0)
(3 -6.964642271e-16 0)
(3 -8.522574971e-16 0)
(3 -2.162601652e-15 0)
(3 -3.434814546e-15 0)
(3 -6.046401142e-15 0)
(3 -7.723878163e-15 0)
(3 -8.562739896e-15 0)
(3 -7.614594372e-15 0)
(3 -6.978194694e-15 0)
(3 -6.367231913e-15 0)
(3 -7.744918874e-15 0)
(3 -1.00714362e-14 0)
(3 -1.201486469e-14 0)
(3 -1.505790808e-14 0)
(3 -1.619799973e-14 0)
(3 -1.682610411e-14 0)
(3 -1.628193291e-14 0)
(3 -1.633483369e-14 0)
(3 -1.116769299e-14 0)
(3 -4.367828418e-15 0)
(3 -4.109955356e-15 0)
(3 -3.520742643e-15 0)
(3 -3.181797225e-15 0)
(3 -9.899716971e-15 0)
(3 -1.049316858e-14 0)
(3 -9.86084566e-15 0)
(3 -1.051059249e-14 0)
(3 -1.441825292e-14 0)
(3 -1.937393715e-14 0)
(3 -2.561834963e-14 0)
(3 -2.808888948e-14 0)
(3 -2.82877341e-14 0)
(3 -3.089327768e-14 0)
(3 -2.941094337e-14 0)
(3 -2.691001118e-14 0)
(3 -2.361361162e-14 0)
(3 -1.715792367e-14 0)
(3 -1.270389413e-14 0)
(3 -9.898703309e-15 0)
(3 -5.698973651e-15 0)
(3 -4.017705575e-15 0)
(3 2.78345367e-15 0)
(3 3.058264539e-15 0)
(3 4.517155621e-15 0)
(3 1.011894036e-14 0)
(3 1.208690657e-14 0)
(3 1.239545677e-14 0)
(3 1.166109047e-14 0)
(3 8.406014249e-15 0)
(3 1.24032281e-14 0)
(3 -8.353722457e-16 0)
(3 -1.823590502e-15 0)
(3 -1.908196628e-15 0)
(3 -2.214254169e-16 0)
(3 1.747100659e-15 0)
(3 4.413843981e-16 0)
(3 6.32428178e-16 0)
(3 4.266007326e-16 0)
(3 -1.464086167e-15 0)
(3 -5.127720639e-15 0)
(3 -6.324984116e-15 0)
(3 -1.09076739e-14 0)
(3 -1.361431142e-14 0)
(3 -1.425413502e-14 0)
(3 -1.19943555e-14 0)
(3 -7.140835285e-15 0)
(3 -4.314764607e-15 0)
(3 -3.69621045e-15 0)
(3 -2.718501051e-15 0)
(3 -4.416574159e-15 0)
(3 -9.227495644e-15 0)
(3 -1.268256768e-14 0)
(3 -1.156251923e-14 0)
(3 -6.128919767e-15 0)
(3 -2.587286125e-15 0)
(3 7.580464698e-16 0)
(3 6.976893927e-16 0)
(3 -1.881786649e-15 0)
(3 -6.565751375e-15 0)
(3 -6.029013947e-15 0)
(3 -6.298048766e-15 0)
(3 -6.399987368e-15 0)
(3 -6.627430106e-15 0)
(3 -8.520565526e-15 0)
(3 -9.867051595e-15 0)
(3 -6.532112607e-15 0)
(3 -3.060612142e-15 0)
(3 -2.167437312e-15 0)
(3 9.317356475e-16 0)
(3 2.794752639e-15 0)
(3 1.539653988e-15 0)
(3 2.854563612e-15 0)
(3 6.604794342e-15 0)
(3 6.652926437e-15 0)
(3 -1.315235314e-16 0)
(3 -8.952621676e-15 0)
(3 -1.750116129e-14 0)
(3 -2.694254536e-14 0)
(3 -3.300917055e-14 0)
(3 -3.442738647e-14 0)
(3 -3.480346245e-14 0)
(3 -3.119614874e-14 0)
(3 -2.538642621e-14 0)
(3 -1.359636522e-14 0)
(3 -9.489533878e-15 0)
(3 -5.869602872e-15 0)
(3 -3.98909131e-15 0)
(3 1.724286151e-16 0)
(3 2.461705552e-15 0)
(3 1.028948307e-15 0)
(3 8.725929462e-16 0)
(3 -2.551202959e-16 0)
(3 7.009384405e-15 0)
(3 9.984412579e-15 0)
(3 8.924545717e-15 0)
(3 4.561849535e-15 0)
(3 3.807848653e-15 0)
(3 1.01752416e-15 0)
(3 3.84173775e-16 0)
(3 -1.055023669e-15 0)
(3 -1.88468857e-15 0)
(3 -3.007044542e-15 0)
(3 -3.085579852e-15 0)
(3 -1.981763188e-15 0)
(3 -3.017250838e-15 0)
(3 -3.711036383e-16 0)
(3 7.184937452e-16 0)
(3 -1.278296566e-15 0)
(3 -2.762153088e-15 0)
(3 -3.617018088e-15 0)
(3 -4.196162429e-15 0)
(3 -4.200487753e-15 0)
(3 -6.356827359e-15 0)
(3 -8.568914959e-15 0)
(3 -9.16984538e-15 0)
(3 -8.037201753e-15 0)
(3 -6.236208957e-15 0)
(3 -5.407080914e-15 0)
(3 -4.457414303e-15 0)
(3 1.173584246e-15 0)
(3 6.56540758e-15 0)
(3 9.01518484e-15 0)
(3 8.450511111e-15 0)
(3 4.707805341e-15 0)
(3 3.30394644e-15 0)
(3 1.357022711e-15 0)
(3 -2.409396834e-15 0)
(3 -2.773693946e-15 0)
(3 -1.936126332e-15 0)
(3 -2.524900791e-15 0)
(3 -3.398229953e-15 0)
(3 -2.889505137e-15 0)
(3 -2.621189711e-15 0)
(3 -1.595147031e-15 0)
(3 9.063509953e-16 0)
(3 5.044364376e-15 0)
(3 8.018879427e-15 0)
(3 1.328408874e-14 0)
(3 1.801777098e-14 0)
(3 1.718062652e-14 0)
(3 1.527016508e-14 0)
(3 9.200176057e-15 0)
(3 -1.218934015e-15 0)
(3 -5.754753661e-15 0)
(3 -1.300959532e-14 0)
(3 -2.284103195e-14 0)
(3 -2.333520609e-14 0)
(3 -2.301843016e-14 0)
(3 -2.023919491e-14 0)
(3 -1.601092609e-14 0)
(3 -1.104495463e-14 0)
(3 -6.538662087e-15 0)
(3 -4.608352251e-16 0)
(3 4.973718711e-15 0)
(3 6.888849127e-15 0)
(3 5.860795407e-15 0)
(3 4.064377364e-15 0)
(3 -3.389132879e-15 0)
(3 -5.081004796e-15 0)
(3 -5.289667533e-15 0)
(3 -3.064077524e-15 0)
(3 2.306182055e-15 0)
(3 -6.221377626e-17 0)
(3 -4.341363846e-15 0)
(3 6.115088117e-16 0)
(3 6.701914228e-16 0)
(3 7.827484581e-16 0)
(3 4.877652441e-16 0)
(3 1.438997586e-15 0)
(3 5.040618143e-16 0)
(3 -1.154003373e-15 0)
(3 -1.710298163e-15 0)
(3 1.33094844e-15 0)
(3 1.999391901e-15 0)
(3 3.339267371e-16 0)
(3 -2.106283558e-15 0)
(3 -3.985033643e-15 0)
(3 -4.198972942e-15 0)
(3 -5.200155693e-15 0)
(3 -4.141630957e-15 0)
(3 -3.823081523e-15 0)
(3 -4.068850377e-15 0)
(3 -5.18238929e-15 0)
(3 -2.751733932e-15 0)
(3 1.557057157e-15 0)
(3 7.435319596e-15 0)
(3 1.047965034e-14 0)
(3 1.125622218e-14 0)
(3 1.133494597e-14 0)
(3 9.492715619e-15 0)
(3 8.84487618e-15 0)
(3 1.123937424e-14 0)
(3 1.241920347e-14 0)
(3 1.191742117e-14 0)
(3 1.005089546e-14 0)
(3 8.233822386e-15 0)
(3 6.203025177e-15 0)
(3 7.345433826e-15 0)
(3 9.411826506e-15 0)
(3 1.034251351e-14 0)
(3 8.795857348e-15 0)
(3 9.59732421e-15 0)
(3 1.451680057e-14 0)
(3 1.720253685e-14 0)
(3 1.773928384e-14 0)
(3 1.749614535e-14 0)
(3 1.289954134e-14 0)
(3 9.185876109e-15 0)
(3 6.041033009e-15 0)
(3 5.414517381e-16 0)
(3 -3.869811412e-15 0)
(3 -5.21050409e-15 0)
(3 -9.149600549e-15 0)
(3 -6.845250769e-15 0)
(3 -7.148442467e-15 0)
(3 -4.736019375e-15 0)
(3 -4.840394038e-15 0)
(3 -3.344872799e-15 0)
(3 1.992206232e-15 0)
(3 9.023325808e-15 0)
(3 1.508314874e-14 0)
(3 1.516189297e-14 0)
(3 1.280763237e-14 0)
(3 6.864591324e-15 0)
(3 -1.333888824e-15 0)
(3 -7.704349875e-15 0)
(3 -1.397228059e-14 0)
(3 -1.35364808e-14 0)
(3 -1.150193347e-14 0)
(3 -3.046077507e-15 0)
(3 -5.912860229e-15 0)
(3 -8.139697106e-16 0)
(3 -7.188480926e-16 0)
(3 -9.634179947e-16 0)
(3 1.802674491e-15 0)
(3 2.01840343e-15 0)
(3 1.432366917e-15 0)
(3 1.408577264e-15 0)
(3 -4.154677557e-16 0)
(3 -1.970912434e-15 0)
(3 -4.188336195e-15 0)
(3 -4.797061028e-15 0)
(3 -7.664834207e-15 0)
(3 -6.519682504e-15 0)
(3 -5.738430984e-15 0)
(3 -3.743292287e-15 0)
(3 -2.673964617e-15 0)
(3 -3.228041559e-15 0)
(3 -2.928073473e-15 0)
(3 -2.537783111e-15 0)
(3 -2.222776674e-15 0)
(3 -4.670119572e-16 0)
(3 3.306723172e-15 0)
(3 5.815198539e-15 0)
(3 4.944887939e-15 0)
(3 4.506309099e-15 0)
(3 4.948098801e-15 0)
(3 8.439930669e-15 0)
(3 1.109768496e-14 0)
(3 1.211320946e-14 0)
(3 1.412085672e-14 0)
(3 1.612081478e-14 0)
(3 1.762162747e-14 0)
(3 1.580032944e-14 0)
(3 9.804386341e-15 0)
(3 9.334567026e-15 0)
(3 9.667022009e-15 0)
(3 9.796470342e-15 0)
(3 1.025161106e-14 0)
(3 8.776881773e-15 0)
(3 1.01230491e-14 0)
(3 8.921892269e-15 0)
(3 2.039822772e-15 0)
(3 7.869618034e-16 0)
(3 -1.723727903e-15 0)
(3 -3.363081415e-15 0)
(3 -3.823951777e-15 0)
(3 -3.278331769e-15 0)
(3 7.048416775e-16 0)
(3 3.441438518e-15 0)
(3 2.501162011e-15 0)
(3 2.724010512e-15 0)
(3 3.503470252e-15 0)
(3 2.924934637e-15 0)
(3 4.743152996e-15 0)
(3 6.089879844e-15 0)
(3 9.47484853e-15 0)
(3 8.748162507e-15 0)
(3 9.65348261e-16 0)
(3 -2.970015403e-16 0)
(3 5.452251442e-16 0)
(3 3.230567888e-15 0)
(3 -2.895366214e-16 0)
(3 -4.79000703e-15 0)
(3 -9.646891127e-15 0)
(3 -9.941358187e-15 0)
(3 -1.249773378e-14 0)
(3 -1.577931448e-14 0)
(3 -6.440099302e-16 0)
(3 -1.386237827e-15 0)
(3 -1.76872041e-15 0)
(3 -1.105814935e-15 0)
(3 -1.021672249e-15 0)
(3 6.139118059e-18 0)
(3 2.194306785e-15 0)
(3 1.975678766e-15 0)
(3 -8.817806874e-17 0)
(3 -8.139286173e-16 0)
(3 -3.882971959e-16 0)
(3 1.294012365e-15 0)
(3 5.062518402e-15 0)
(3 5.478258452e-15 0)
(3 5.334996595e-15 0)
(3 3.462126412e-15 0)
(3 3.304867073e-15 0)
(3 2.773109357e-15 0)