/*--------------------------------*- C++ -*----------------------------------*\
  =========                 |
  \\      /  F ield         | OpenFOAM: The Open Source CFD Toolbox
   \\    /   O peration     | Website:  https://openfoam.org
    \\  /    A nd           | Version:  7
     \\/     M anipulation  |
\*---------------------------------------------------------------------------*/
FoamFile
{
    version     2.0;
    format      ascii;
    class       volScalarField;
    location    "4.3";
    object      T;
}
// * * * * * * * * * * * * * * * * * * * * * * * * * * * * * * * * * * * * * //

dimensions      [0 0 0 1 0 0 0];

internalField   nonuniform List<scalar> 
555
(
1.130137147
1.128096447
1.125085102
1.122188435
1.118673962
1.114892618
1.11353393
1.113725207
1.116493261
0.9953449007
1.108341594
1.119895809
1.124813618
1.124314303
1.123199664
1.121733445
1.117798057
1.114276935
1.112509783
1.113430671
1.115494274
0.9772393919
1.078122173
1.101252085
1.116369474
1.120035885
1.11904988
1.116246278
1.112901812
1.110292371
1.109947096
1.111590489
1.112875799
0.96050025
1.0537879
1.082170494
1.104148916
1.111593207
1.110150506
1.107030261
1.104912592
1.103690221
1.105295019
1.106254213
1.107372709
0.9537494507
1.032648018
1.066996744
1.089551049
1.099245065
1.099237786
1.097289872
1.095969181
1.096473316
1.097740561
1.098287122
1.099842948
0.9478240682
1.008037173
1.051430791
1.076803831
1.087722362
1.087765146
1.088088978
1.088818952
1.088992845
1.089110864
1.089423551
1.09189068
0.9439824014
0.9860732577
1.027380777
1.060026468
1.076731118
1.079122285
1.081145332
1.083056462
1.081747459
1.080885572
1.081366032
1.084389827
1.086820817
0.9415329571
0.9710227783
1.011931327
1.046732137
1.068075979
1.073832431
1.076576683
1.076857805
1.074825896
1.073977508
1.075076633
1.077097437
1.078902123
0.9371457182
0.9600278619
1.001913965
1.039896378
1.062428678
1.069778387
1.071879356
1.07083611
1.068667434
1.068107152
1.069577329
1.07011064
1.071347429
0.9328521785
0.9505384554
0.9841114159
1.031039776
1.059174176
1.064646562
1.065641935
1.063487641
1.062097845
1.062506954
1.062732758
1.061816467
1.063254891
0.9311411507
0.9428111058
0.9637867572
1.011336955
1.04874831
1.057375741
1.057664444
1.056014959
1.055570631
1.055911881
1.054832931
1.053530089
1.055526836
0.9287956284
0.937452745
0.9515782302
0.9853955284
1.024558144
1.04642734
1.047581928
1.048275519
1.04899664
1.04871556
1.046181083
1.046017252
1.047932972
0.925397306
0.9322060823
0.9403810079
0.9681328016
1.003398781
1.029852187
1.038494281
1.042048791
1.041547268
1.04028103
1.03867565
1.039721472
1.041317446
1.041850649
0.9230015835
0.9272393365
0.9290010918
0.9531675804
0.9892914948
1.016264164
1.029988178
1.034850847
1.033628337
1.031904779
1.031650372
1.033497049
1.03429578
1.034531966
0.9196179477
0.9233003586
0.9219184234
0.9337334657
0.9729750154
1.007469767
1.023060057
1.027131672
1.02453468
1.024323636
1.025501879
1.02682042
1.027168406
1.027278937
0.91587619
0.9197411883
0.9167565089
0.9202965422
0.949327442
0.9928598059
1.01534441
1.018485936
1.016206886
1.017192769
1.018783381
1.019570862
1.019155836
1.019762105
0.9142722481
0.9170041364
0.9106292711
0.9121097881
0.9318842138
0.9715922661
1.003063229
1.009187035
1.008954234
1.01069485
1.011911687
1.010908682
1.010955815
1.01217262
0.9126452073
0.9154034391
0.9059600124
0.9023216709
0.9199013914
0.9546717782
0.9865334598
1.001400354
1.002725494
1.004394633
1.003780219
1.002917937
1.004138771
1.005353626
0.9105282147
0.913986901
0.9029884814
0.8934645288
0.9042760416
0.93921058
0.9746180507
0.995186733
0.9977942862
0.9978909181
0.9965083122
0.9967742825
0.9984602597
0.9995230185
0.9093234047
0.9122759555
0.9009411871
0.8881871792
0.8896953491
0.9193639786
0.9638920266
0.989704746
0.9932859243
0.991307071
0.9911330123
0.9922299424
0.993942628
0.9948184942
0.995042903
0.9086538189
0.9109325318
0.8987571496
0.8836603819
0.8818298758
0.9014447964
0.9465524991
0.9821003597
0.9877185283
0.9864159742
0.9871321526
0.9889432912
0.9902565281
0.9908959482
0.9903141832
0.9079366145
0.9101893026
0.8975358204
0.879894518
0.8757227527
0.8908272375
0.9283228657
0.9700402069
0.9821265675
0.9827913754
0.9842587644
0.9860585103
0.9870333998
0.987359962
0.9866120551
0.9068485252
0.9095883073
0.8969781244
0.8766504563
0.8669827233
0.8797010245
0.9161306968
0.9598399804
0.9778481208
0.9806826553
0.9817743525
0.9829892966
0.9835835914
0.984425298
0.9842250512
0.9053385544
0.908680139
0.8962172552
0.8737431064
0.8601362757
0.8658509863
0.9013127005
0.951553936
0.9751127166
0.9789906335
0.9794641343
0.9795790374
0.9808664307
0.9823277649
0.9828944902
0.9042266808
0.9078863778
0.8963491059
0.8719330488
0.8562308092
0.8573493994
0.8823086742
0.9354453061
0.9695775025
0.9770755501
0.9774300603
0.9773271561
0.9796148921
0.9814087579
0.9821610194
0.9039657548
0.9071083804
0.8964495682
0.8707543933
0.8527619161
0.8523539441
0.8696471685
0.914742877
0.9588888174
0.9736138494
0.9762221549
0.9770859567
0.9798850569
0.9815317068
0.9820402897
0.9040426135
0.9063136583
0.8965461376
0.8697775816
0.8494077859
0.8460146607
0.862098214
0.9030841362
0.9497596686
0.9714238423
0.9764029054
0.9772268341
0.9801243278
0.9817477246
0.9819963372
0.9807470375
0.9043544086
0.9055213313
0.8966855564
0.8686492585
0.8459359622
0.839420083
0.8523316721
0.8951631767
0.9458367646
0.9719686153
0.9784227236
0.9785523138
0.9811000762
0.982787576
0.9827949851
0.9810544113
0.904839157
0.9046759541
0.8962929588
0.8677542773
0.8435934788
0.8361956325
0.8438220976
0.8797850184
0.9396396389
0.9727614405
0.9796768012
0.9800175869
0.982547017
0.9841038769
0.9839307965
0.9818258988
0.9053828339
0.9039389318
0.8959169581
0.8674178639
0.8427341453
0.8344296535
0.8392821751
0.8641967744
0.9209175724
0.9678043895
0.9796432189
0.9812630099
0.9830173925
0.9845268847
0.984774401
0.9829142351
0.9059560444
0.9034464722
0.8956726442
0.869020335
0.8416072207
0.8323240935
0.8353601816
0.8556195179
0.9021356455
0.9546724831
0.977348941
0.9812492491
0.9830511152
0.9847320901
0.9859105885
0.9844364796
0.9066181176
0.9030301726
0.8950274659
0.8698852726
0.840091277
0.8292696898
0.830602979
0.8487829159
0.8936728532
0.9444403216
0.9755549944
0.9823568407
0.9847685008
0.9864500176
0.9879018587
0.9864210695
0.9072786784
0.9025597517
0.8943352093
0.8707192143
0.8394436561
0.827355914
0.8279489231
0.8415156876
0.8844837622
0.9414179459
0.9768439313
0.9851566551
0.9870816732
0.9886677112
0.9905519079
0.9891432145
0.9078909501
0.9020708918
0.8936893412
0.8711599885
0.839610038
0.826426161
0.8263529049
0.8363402036
0.8697822345
0.9339385532
0.9784122137
0.9889313963
0.9900102049
0.9913862882
0.9935555149
0.9925730965
0.9087815059
0.9016439312
0.8930282065
0.8712824925
0.8393631518
0.8250643313
0.824500805
0.8321949113
0.8596180128
0.9160342334
0.9754704038
0.9908572021
0.9927230624
0.994544464
0.9968174735
0.9957958745
0.995003851
0.9097118374
0.9013648008
0.892364107
0.8711851252
0.8390208791
0.8234391797
0.8227648338
0.8291481153
0.8533963704
0.9009887279
0.9596345543
0.9875649271
0.9944423105
0.9974819912
0.9998394687
0.9983131544
0.9973090616
0.9106374015
0.9010981745
0.8914916271
0.8708697145
0.838743655
0.8224461615
0.8217863322
0.8273524346
0.8470133539
0.8914420746
0.9441553455
0.9802122377
0.9949338653
0.9990494846
1.002180174
1.000253301
0.9987062711
0.9127423172
0.900713714
0.8903820115
0.870353988
0.8393922284
0.8218227145
0.8210429175
0.8257603848
0.8417827732
0.8801526176
0.9375050537
0.9770056191
0.9953962385
0.9998089131
1.003994589
1.001546573
0.9996462291
0.9146313165
0.9005692068
0.8891501289
0.8698320389
0.8393518042
0.8209200828
0.8196403846
0.823717326
0.8382057819
)
;

boundaryField
{
    inlet
    {
        type            fixedValue;
        value           nonuniform 0();
    }
    outlet
    {
        type            inletOutlet;
        inletValue      nonuniform 0();
        value           nonuniform 0();
    }
    bottom
    {
        type            slip;
    }
    top
    {
        type            slip;
    }
    obstacle
    {
        type            zeroGradient;
    }
    defaultFaces
    {
        type            empty;
    }
    procBoundary21to15
    {
        type            processor;
        value           nonuniform List<scalar> 
13
(
1.133799488
1.130900502
1.125239719
1.119985459
1.116072084
1.113679474
1.113259242
1.113746875
1.116225023
1.022525334
1.146815992
1.128099245
1.128099245
)
;
    }
    procBoundary21to22
    {
        type            processor;
        value           nonuniform List<scalar> 
35
(
1.115991897
1.115538674
1.113156918
1.108531799
1.102201868
1.094877264
1.094877264
1.086902536
1.079204812
1.07200314
1.064574578
1.057028537
1.049558127
1.049558127
1.041779298
1.033932321
1.026488584
1.01935278
1.012464149
1.006166591
1.000406742
1.000406742
0.9945367266
0.9899490685
0.9864819841
0.9841853137
0.9826986173
0.9816301541
0.9809831035
0.9809831035
0.9810012381
0.9812431857
0.9819765394
0.9830614556
0.9844910757
)
;
    }
    procBoundary21to27
    {
        type            processor;
        value           nonuniform List<scalar> 
18
(
0.8687869641
0.9278065024
0.9781494752
0.9971623973
1.000819163
1.005360171
1.002684175
1.000586661
0.9165575707
0.9004739945
0.8876543221
0.8688323621
0.8392907495
0.8199075424
0.8184920027
0.8226149684
0.8687869641
0.8356312205
)
;
    }
    procBoundary21to28
    {
        type            processor;
        value           nonuniform List<scalar> 8(0.9862231408 0.9886852961 0.9918979043 0.9918979043 0.9962446638 0.9988146815 1.000585306 1.001679217);
    }
}


// ************************************************************************* //
