/*--------------------------------*- C++ -*----------------------------------*\
  =========                 |
  \\      /  F ield         | OpenFOAM: The Open Source CFD Toolbox
   \\    /   O peration     | Website:  https://openfoam.org
    \\  /    A nd           | Version:  7
     \\/     M anipulation  |
\*---------------------------------------------------------------------------*/
FoamFile
{
    version     2.0;
    format      ascii;
    class       volVectorField;
    location    "4.5";
    object      U;
}
// * * * * * * * * * * * * * * * * * * * * * * * * * * * * * * * * * * * * * //

dimensions      [0 1 -1 0 0 0 0];

internalField   nonuniform List<vector> 
138
(
(3.152264065 -0.01563985272 0)
(3.189303188 -0.02057409099 0)
(3.201490968 -0.01655231421 0)
(3.049626614 -0.03372338215 0)
(3.042706741 -0.07085495856 0)
(3.124315183 -0.01723291135 0)
(3.148136425 -0.003347955671 0)
(3.181683326 -0.002276565409 0)
(3.200183792 -0.01473151854 0)
(3.07196664 -0.0849295141 0)
(3.107792811 -0.06717496558 0)
(3.148143191 -0.005803260314 0)
(3.170254873 -0.01546811343 0)
(3.191900693 -0.001213049563 0)
(3.210464203 -0.001450401336 0)
(3.178314558 -0.1306359574 0)
(3.241948914 -0.1145702335 0)
(3.205312291 -0.0188362291 0)
(3.211531685 0.01171882797 0)
(3.222014937 0.02908338336 0)
(3.23420903 0.01662175157 0)
(3.278765823 -0.1844929173 0)
(3.323461247 -0.1623387972 0)
(3.271419721 -0.055623936 0)
(3.253575918 0.01066480913 0)
(3.260765979 0.02976701077 0)
(3.263594905 0.02581931923 0)
(3.317469582 -0.241054621 0)
(3.354643149 -0.2025249574 0)
(3.324285782 -0.1029741882 0)
(3.283993193 -0.006831543175 0)
(3.291855755 0.02225454124 0)
(3.291645026 0.02206595218 0)
(3.280479971 0.002693098138 0)
(3.331556978 -0.2808773025 0)
(3.371013188 -0.2464709351 0)
(3.347494015 -0.1439229237 0)
(3.306705563 -0.0240116557 0)
(3.304579136 0.002212472636 0)
(3.307180882 0.007588239634 0)
(3.30149685 -0.004830685598 0)
(3.342776831 -0.3095365222 0)
(3.380875742 -0.2559450729 0)
(3.353370669 -0.194858621 0)
(3.311167277 -0.05641931494 0)
(3.300754774 -0.008454976512 0)
(3.306142066 0.008200479306 0)
(3.310550179 -0.008970106386 0)
(3.3673145 -0.3457343492 0)
(3.392480529 -0.2815237015 0)
(3.352953843 -0.2292319614 0)
(3.307834264 -0.08743419607 0)
(3.280920463 -0.0006672442275 0)
(3.290145918 0.01931793683 0)
(3.302976509 0.0005432196013 0)
(3.36856696 -0.3641966553 0)
(3.400855823 -0.2978182609 0)
(3.360368295 -0.2827385417 0)
(3.299196392 -0.1077207008 0)
(3.268306956 0.002029739249 0)
(3.270681408 0.03595958733 0)
(3.282238179 0.01585040079 0)
(3.384031326 -0.3897350741 0)
(3.407194278 -0.3146539541 0)
(3.369373684 -0.3204466698 0)
(3.288596747 -0.1453808044 0)
(3.259185751 -0.004422754983 0)
(3.253783202 0.04217171579 0)
(3.25511026 0.02829930252 0)
(3.384715107 -0.4043842487 0)
(3.408285877 -0.3276503089 0)
(3.380172843 -0.345285718 0)
(3.300526823 -0.2250000495 0)
(3.235319884 -0.005406331732 0)
(3.226704394 0.0360256351 0)
(3.228890801 0.02412755064 0)
(3.383702792 -0.417216886 0)
(3.412040034 -0.349222075 0)
(3.392850427 -0.356412026 0)
(3.288839538 -0.2591655059 0)
(3.20798016 -0.05418510236 0)
(3.194333638 0.01857418715 0)
(3.194049034 0.01455471486 0)
(3.190967979 -0.00327132961 0)
(3.388407642 -0.4299337916 0)
(3.414549464 -0.357875781 0)
(3.405686311 -0.3734847498 0)
(3.285545409 -0.3176366653 0)
(3.17599003 -0.1217522287 0)
(3.148076436 0.003019557077 0)
(3.148419594 0.006753364324 0)
(3.144218313 -0.005652611589 0)
(3.385805944 -0.4349303535 0)
(3.418097393 -0.3676478434 0)
(3.417596835 -0.383338687 0)
(3.286504646 -0.3513059906 0)
(3.134113288 -0.1534334191 0)
(3.098349128 -0.009640722521 0)
(3.097830291 0.01044160637 0)
(3.097435877 0.003974932728 0)
(3.384088663 -0.4409039901 0)
(3.423093233 -0.379601236 0)
(3.429317195 -0.3905637837 0)
(3.28832329 -0.3780774835 0)
(3.09616155 -0.1783648717 0)
(3.043632319 -0.01604620784 0)
(3.046336231 0.0199828806 0)
(3.047333676 0.01455777068 0)
(3.37738028 -0.4446335155 0)
(3.430204879 -0.3901414158 0)
(3.440626428 -0.3943242057 0)
(3.288248349 -0.3997221817 0)
(3.075960684 -0.2432294363 0)
(2.969802787 -0.008605704926 0)
(2.985260803 0.02696962363 0)
(2.983693712 0.01643656264 0)
(3.365942055 -0.4465120361 0)
(3.435678499 -0.3948050211 0)
(3.452918953 -0.3983837225 0)
(3.287593571 -0.4154221277 0)
(3.057236493 -0.2817212631 0)
(2.902030835 -0.04595355879 0)
(2.90938859 0.02659476464 0)
(2.916200038 0.01755906157 0)
(3.351868422 -0.449476058 0)
(3.443482421 -0.4010333144 0)
(3.466652834 -0.4003691109 0)
(3.283707011 -0.4212747538 0)
(3.043540378 -0.3170656502 0)
(2.863743931 -0.1016452333 0)
(2.831621217 0.01409679241 0)
(2.850998512 0.008576886602 0)
(3.330844371 -0.4522299023 0)
(3.451368895 -0.4052063406 0)
(3.479151426 -0.4013323688 0)
(3.277715187 -0.4310573682 0)
(3.037959245 -0.3577445948 0)
(2.845861114 -0.13736353 0)
)
;

boundaryField
{
    inlet
    {
        type            fixedValue;
        value           nonuniform 0();
    }
    outlet
    {
        type            inletOutlet;
        inletValue      nonuniform 0();
        value           nonuniform 0();
    }
    bottom
    {
        type            slip;
    }
    top
    {
        type            slip;
    }
    obstacle
    {
        type            slip;
    }
    defaultFaces
    {
        type            empty;
    }
    procBoundary21to15
    {
        type            processor;
        value           nonuniform List<vector> 7((3.168422103 -0.002905515587 0) (3.195877668 -0.0109241845 0) (3.211633122 -0.005652833819 0) (3.054236368 0.02474820469 0) (3.062243524 0.03667799228 0) (3.118030073 -0.005558228168 0) (3.118030073 -0.005558228168 0));
    }
    procBoundary21to16
    {
        type            processor;
        value           uniform (3.207451653 -0.008208349693 0);
    }
    procBoundary21to22
    {
        type            processor;
        value           nonuniform List<vector> 
18
(
(3.207782884 -0.008967061263 0)
(3.21596771 -0.0003503269118 0)
(3.230322811 0.009451045244 0)
(3.254415606 0.008390964767 0)
(3.254415606 0.008390964767 0)
(3.27723491 -0.001689026409 0)
(3.297448503 -0.006164920669 0)
(3.304930737 -0.009299343587 0)
(3.296717888 -0.005407482845 0)
(3.278639837 0.001744373899 0)
(3.255192349 0.008310132593 0)
(3.227341924 0.004177342863 0)
(3.227341924 0.004177342863 0)
(3.180992333 -0.003631305703 0)
(3.138396863 -0.00170493072 0)
(3.094339605 0.0004710688187 0)
(3.041239242 0.002041510131 0)
(2.978906591 0.004401013431 0)
)
;
    }
    procBoundary21to27
    {
        type            processor;
        value           nonuniform List<vector> 9((2.779340256 -0.008540347981 0) (2.802834822 -0.002921874583 0) (3.30377363 -0.4544993354 0) (3.464051887 -0.4085971076 0) (3.498239792 -0.400880419 0) (3.271483549 -0.429942392 0) (3.033307929 -0.3837075012 0) (2.779340256 -0.008540347981 0) (2.842571057 -0.1743669909 0));
    }
    procBoundary21to28
    {
        type            processor;
        value           nonuniform List<vector> 2((2.920589002 0.007341855151 0) (2.869629166 -0.001733358509 0));
    }
}


// ************************************************************************* //
