/*--------------------------------*- C++ -*----------------------------------*\
  =========                 |
  \\      /  F ield         | OpenFOAM: The Open Source CFD Toolbox
   \\    /   O peration     | Website:  https://openfoam.org
    \\  /    A nd           | Version:  7
     \\/     M anipulation  |
\*---------------------------------------------------------------------------*/
FoamFile
{
    version     2.0;
    format      ascii;
    class       volVectorField;
    location    "4.2";
    object      U;
}
// * * * * * * * * * * * * * * * * * * * * * * * * * * * * * * * * * * * * * //

dimensions      [0 1 -1 0 0 0 0];

internalField   nonuniform List<vector> 
2222
(
(2.894127511 0.006342838641 0)
(2.893598059 0.007090455911 0)
(2.892302355 0.008252892893 0)
(2.892901182 0.009133385052 0)
(2.894398601 0.008919971968 0)
(2.8960361 0.008731545761 0)
(2.897271166 0.008241804854 0)
(2.897499559 0.007826679124 0)
(2.897536723 0.006254068783 0)
(2.897565123 0.004994668687 0)
(2.897599568 0.004717774866 0)
(2.897478148 0.005782806443 0)
(2.896851926 0.008413026574 0)
(2.896330421 0.01071702138 0)
(2.895953578 0.01178767264 0)
(2.895608579 0.01132677526 0)
(2.895443816 0.009237072702 0)
(2.895626903 0.004980566883 0)
(2.895973544 0.0004293409073 0)
(2.896198555 -0.001237979221 0)
(2.895813003 -0.0005434570299 0)
(2.895226098 0.001204257896 0)
(2.894589022 0.003204464061 0)
(2.894211818 0.003871331901 0)
(2.893986438 0.003717799872 0)
(2.893726315 0.002824483216 0)
(2.893314407 0.001404318917 0)
(2.892466814 0.0005735740228 0)
(2.891392116 0.0004466537857 0)
(2.890534279 0.0008963926926 0)
(2.889940295 0.001349154891 0)
(2.88932627 0.001134169473 0)
(2.888769257 0.0006183089261 0)
(2.887713303 0.0002938786406 0)
(2.891302134 0.006143532891 0)
(2.890820412 0.006832169051 0)
(2.889657378 0.007520491679 0)
(2.890817448 0.007939123676 0)
(2.89178379 0.007383921573 0)
(2.892490033 0.007069785739 0)
(2.893161817 0.007238953019 0)
(2.893457027 0.007785806173 0)
(2.893432247 0.007007981926 0)
(2.893408913 0.005469939919 0)
(2.893305128 0.00458892964 0)
(2.892893658 0.004377030412 0)
(2.89215917 0.005618094085 0)
(2.891460057 0.007733508215 0)
(2.891208005 0.00969889762 0)
(2.891303231 0.01114962947 0)
(2.891428852 0.01146542494 0)
(2.891802795 0.01020733451 0)
(2.891882828 0.0071338085 0)
(2.891929394 0.003551034597 0)
(2.891855654 0.001617879385 0)
(2.89162617 0.001682009834 0)
(2.891127453 0.003102122612 0)
(2.8905916 0.00429575716 0)
(2.890244834 0.004628776367 0)
(2.889772836 0.00426026861 0)
(2.889136025 0.002415007541 0)
(2.888592045 -0.0005098555798 0)
(2.888123504 -0.001827570079 0)
(2.887273695 -0.001610529147 0)
(2.886372033 -0.001463465446 0)
(2.885489887 -0.001885442662 0)
(2.884818352 -0.001880548653 0)
(2.884057752 4.78432565e-05 0)
(2.888442561 0.007685944235 0)
(2.887967235 0.008328707889 0)
(2.886924171 0.01008008254 0)
(2.887579208 0.009297904048 0)
(2.888337807 0.006898307196 0)
(2.888893432 0.005789029649 0)
(2.889375504 0.005517069625 0)
(2.889568577 0.006079939704 0)
(2.889570666 0.006151057432 0)
(2.889434406 0.00491212247 0)
(2.889219971 0.003338252551 0)
(2.888975328 0.002094765599 0)
(2.888523123 0.002338095752 0)
(2.887412428 0.004327844176 0)
(2.886457136 0.006257013255 0)
(2.886382728 0.007886276687 0)
(2.886759023 0.00908237451 0)
(2.88701139 0.00991418947 0)
(2.887443637 0.01059747855 0)
(2.887562175 0.009070194294 0)
(2.887703507 0.006260923037 0)
(2.887711844 0.004570264257 0)
(2.887433578 0.004675370052 0)
(2.886939517 0.005672312899 0)
(2.886467981 0.006326575 0)
(2.886031686 0.006276626745 0)
(2.885289246 0.005248633969 0)
(2.884446937 0.00271609845 0)
(2.883932193 -0.000756777596 0)
(2.883425591 -0.002696114619 0)
(2.8827428 -0.003123250154 0)
(2.881934251 -0.00319267545 0)
(2.881662369 -0.002504426824 0)
(2.881225655 9.401949359e-05 0)
(2.885628553 0.008516043078 0)
(2.885136662 0.009220986215 0)
(2.88403584 0.01104851542 0)
(2.883794273 0.01091495765 0)
(2.884780559 0.007196696129 0)
(2.885800314 0.004199786871 0)
(2.885939791 0.003966544896 0)
(2.885861856 0.004728715952 0)
(2.8858906 0.005518038405 0)
(2.885633612 0.004985287509 0)
(2.885290436 0.003479134304 0)
(2.885039598 0.001969854633 0)
(2.884605715 0.001623504162 0)
(2.88360854 0.002767017629 0)
(2.88254436 0.004241836251 0)
(2.88217202 0.005677644348 0)
(2.882280425 0.007889099925 0)
(2.882581554 0.01052972775 0)
(2.88316114 0.01208978356 0)
(2.883454541 0.01170669795 0)
(2.883497153 0.009308213849 0)
(2.883701244 0.006741242159 0)
(2.883622127 0.005610239417 0)
(2.88327779 0.005611324985 0)
(2.882801652 0.00582139424 0)
(2.882262752 0.005959496109 0)
(2.881616609 0.005885478655 0)
(2.880666682 0.005026154651 0)
(2.87995792 0.002103896806 0)
(2.879981263 -0.002570758884 0)
(2.880273386 -0.005390493267 0)
(2.880326165 -0.005374202339 0)
(2.880076848 -0.003987212654 0)
(2.879338214 -0.001508010085 0)
(2.883143733 0.009453305084 0)
(2.882639676 0.01033609247 0)
(2.88154185 0.0125079671 0)
(2.880998321 0.01379388262 0)
(2.881397271 0.01115809637 0)
(2.882039031 0.005816548076 0)
(2.882733812 0.002366417685 0)
(2.882900722 0.002704325611 0)
(2.882649102 0.003619524997 0)
(2.882198468 0.003792312218 0)
(2.881670574 0.003014703444 0)
(2.881334126 0.002141874234 0)
(2.881171792 0.001149188426 0)
(2.881146352 0.0007190241998 0)
(2.880296354 0.002007169564 0)
(2.879498739 0.004456442935 0)
(2.878882392 0.00660037058 0)
(2.878760556 0.008170339405 0)
(2.878718032 0.009703628876 0)
(2.879272918 0.01050891717 0)
(2.879768842 0.01029020982 0)
(2.880096245 0.008525896896 0)
(2.880217323 0.006872980115 0)
(2.879928376 0.006335566362 0)
(2.879514605 0.006301753656 0)
(2.879052896 0.00648327661 0)
(2.878375661 0.006487784955 0)
(2.877683785 0.006320036779 0)
(2.877063227 0.005334074899 0)
(2.876831538 0.002343849164 0)
(2.877084252 -0.001933045346 0)
(2.877452232 -0.005029074329 0)
(2.877544052 -0.005290319934 0)
(2.877430696 -0.003308413241 0)
(2.880816879 0.008445856585 0)
(2.880257064 0.00937795806 0)
(2.8791497 0.01111510419 0)
(2.878121118 0.01319862112 0)
(2.878005385 0.01296315264 0)
(2.878372232 0.009617200236 0)
(2.879099639 0.004874140338 0)
(2.879649468 0.003046238907 0)
(2.87947787 0.003414432694 0)
(2.879095514 0.004189075479 0)
(2.878551199 0.004469214449 0)
(2.878151376 0.004072502365 0)
(2.877951093 0.00254120541 0)
(2.877941403 0.0009015211647 0)
(2.877397102 0.001412359827 0)
(2.876523336 0.003009865049 0)
(2.876213794 0.004769773221 0)
(2.875611108 0.006375651257 0)
(2.875645688 0.007679915825 0)
(2.875998742 0.009554249744 0)
(2.876528803 0.009454405804 0)
(2.876860081 0.00836224093 0)
(2.877083834 0.006521828393 0)
(2.87699026 0.005315511593 0)
(2.876633194 0.00468312271 0)
(2.876280274 0.004463296335 0)
(2.875349346 0.004330655628 0)
(2.874779013 0.004648489688 0)
(2.874563758 0.005087528715 0)
(2.874281275 0.00476981056 0)
(2.87429298 0.002655456789 0)
(2.874681678 -0.001154374266 0)
(2.875267231 -0.004587093079 0)
(2.876613724 -0.005104420282 0)
(2.87857723 0.008032600602 0)
(2.877957999 0.009078148526 0)
(2.87689428 0.01087032914 0)
(2.875713519 0.01396583056 0)
(2.875340787 0.01450701677 0)
(2.875374496 0.0130877373 0)
(2.875879662 0.009331860772 0)
(2.876565704 0.005163880779 0)
(2.876595438 0.003809625965 0)
(2.876321914 0.004304992264 0)
(2.875740072 0.00512738094 0)
(2.8752141 0.00516706682 0)
(2.874744287 0.004191592809 0)
(2.874514052 0.002142589523 0)
(2.87498851 0.0002489901597 0)
(2.874814126 0.0005355668992 0)
(2.874006423 0.002033481657 0)
(2.873568262 0.004065020908 0)
(2.873742997 0.006064454062 0)
(2.873853577 0.007329908761 0)
(2.873817594 0.008123383858 0)
(2.874105089 0.007934959149 0)
(2.874374746 0.006650654841 0)
(2.874337475 0.005186754115 0)
(2.873987192 0.003926682024 0)
(2.873519859 0.003181582805 0)
(2.873164156 0.002759629891 0)
(2.872857177 0.003303470493 0)
(2.872791619 0.004706217399 0)
(2.872921339 0.005754428774 0)
(2.872905042 0.005704792204 0)
(2.873056643 0.003963514781 0)
(2.873503151 0.0006978073591 0)
(2.874642275 -0.003326305108 0)
(2.876579395 0.006887198248 0)
(2.875930359 0.007622520548 0)
(2.874999255 0.009101711219 0)
(2.873482293 0.01212185942 0)
(2.87279807 0.01322636554 0)
(2.872661555 0.01327798697 0)
(2.873188262 0.01199091081 0)
(2.873873185 0.009244790296 0)
(2.874085098 0.006705583043 0)
(2.873869275 0.006414171212 0)
(2.873514274 0.006970277595 0)
(2.872995313 0.007263183614 0)
(2.87241412 0.006730787517 0)
(2.871947698 0.004993560475 0)
(2.872201662 0.001215923139 0)
(2.872361481 -0.000459003444 0)
(2.871767138 0.000469610714 0)
(2.871198766 0.002231940317 0)
(2.870909325 0.004430043382 0)
(2.870997227 0.005542579476 0)
(2.871633799 0.006221844415 0)
(2.871941908 0.006292198391 0)
(2.872116908 0.005589521838 0)
(2.872131269 0.004187249681 0)
(2.871963359 0.002398958136 0)
(2.871996698 0.001071050337 0)
(2.872100103 0.001297455396 0)
(2.871883814 0.001762309205 0)
(2.87137187 0.002600156842 0)
(2.871341651 0.003699826648 0)
(2.871501786 0.004686465312 0)
(2.871681541 0.005286467328 0)
(2.871842615 0.004978927911 0)
(2.872155943 0.001847509813 0)
(2.874418812 0.006952912648 0)
(2.873616623 0.0073293607 0)
(2.872578828 0.008807394672 0)
(2.870848934 0.01147187953 0)
(2.870395152 0.01281415519 0)
(2.8703961 0.01356714013 0)
(2.871054685 0.0123230861 0)
(2.87133626 0.01096597035 0)
(2.871545444 0.008959333427 0)
(2.871510368 0.007151187878 0)
(2.871354972 0.006645577178 0)
(2.871056648 0.006629446952 0)
(2.870547461 0.006613570508 0)
(2.870118331 0.006122826274 0)
(2.869813681 0.004272861932 0)
(2.869918604 0.001008109025 0)
(2.870213114 -0.000551167989 0)
(2.870181061 0.0003996925027 0)
(2.869870896 0.001686369731 0)
(2.869768299 0.002832769557 0)
(2.869650392 0.004358666647 0)
(2.869860423 0.005308143923 0)
(2.87006388 0.005417848652 0)
(2.870044092 0.00487827976 0)
(2.869838897 0.003376551322 0)
(2.869693025 0.001252291778 0)
(2.869946988 0.0001037379212 0)
(2.869933738 -2.379742742e-05 0)
(2.869808073 0.0002376210878 0)
(2.869489551 0.001416654479 0)
(2.869671579 0.0033166635 0)
(2.870192096 0.005179191954 0)
(2.870423524 0.00616155865 0)
(2.870157983 0.005353470814 0)
(2.872973052 0.00689978764 0)
(2.872207177 0.006113462753 0)
(2.871415121 0.005940698557 0)
(2.870433334 0.006858988032 0)
(2.869174745 0.00861693884 0)
(2.868957971 0.0100754772 0)
(2.868680813 0.01107921105 0)
(2.868932767 0.01125415101 0)
(2.869220698 0.01129385656 0)
(2.869350656 0.01086401823 0)
(2.869268283 0.009011000466 0)
(2.869213898 0.007111381769 0)
(2.869043173 0.006576345559 0)
(2.868771537 0.006668440294 0)
(2.868360868 0.006893023014 0)
(2.867855873 0.006975872591 0)
(2.867570815 0.005364040856 0)
(2.867635356 0.002198108079 0)
(2.86785023 -3.289033113e-05 0)
(2.867652687 -0.0001471269242 0)
(2.867475503 0.001096362743 0)
(2.867709848 0.002774783357 0)
(2.868053957 0.004204931664 0)
(2.868194496 0.004842049309 0)
(2.868093745 0.004838960866 0)
(2.867843086 0.004290655208 0)
(2.867584724 0.002702102917 0)
(2.867707295 0.0002803469041 0)
(2.86790885 -0.00139252112 0)
(2.86813763 -0.00198168241 0)
(2.868459631 -0.001398696488 0)
(2.868386874 0.0002665111877 0)
(2.868148805 0.002233666693 0)
(2.868330584 0.004381566229 0)
(2.868295203 0.005447776614 0)
(2.870392688 0.007291341796 0)
(2.869657985 0.006428679065 0)
(2.868870875 0.006063645557 0)
(2.86788161 0.006585852045 0)
(2.866533957 0.007922041009 0)
(2.866434577 0.00896757989 0)
(2.866376798 0.009063849322 0)
(2.866818053 0.009179667899 0)
(2.867202315 0.009401423828 0)
(2.86719482 0.009555970404 0)
(2.866991505 0.00857071532 0)
(2.866985183 0.006209993656 0)
(2.867039434 0.004829803059 0)
(2.86679495 0.004693890781 0)
(2.86628246 0.005155596094 0)
(2.865658348 0.006395404231 0)
(2.865248868 0.00748081761 0)
(2.865018015 0.006695168897 0)
(2.865076962 0.004300907418 0)
(2.865353218 0.001869977032 0)
(2.865366962 0.001227115097 0)
(2.865784155 0.002156635743 0)
(2.86609001 0.004025157992 0)
(2.866266497 0.005135738875 0)
(2.866252883 0.005513112719 0)
(2.866149681 0.005623071042 0)
(2.865946763 0.004962984616 0)
(2.865783357 0.002894986683 0)
(2.865789858 3.633649467e-05 0)
(2.865956341 -0.001892417303 0)
(2.866104226 -0.002279316043 0)
(2.866050476 -0.001603333387 0)
(2.865933143 -1.494651272e-05 0)
(2.866062224 0.00274515748 0)
(2.866456267 0.004972151401 0)
(2.86774136 0.00590404135 0)
(2.866984508 0.005150964824 0)
(2.866343353 0.004715308739 0)
(2.865541419 0.004685538749 0)
(2.864443675 0.004937724546 0)
(2.864207181 0.006158679309 0)
(2.86434919 0.006205738379 0)
(2.864653373 0.006637681976 0)
(2.86496332 0.007861528819 0)
(2.864979202 0.008748199929 0)
(2.864773174 0.008805901828 0)
(2.864599247 0.007255497351 0)
(2.864624563 0.004828402107 0)
(2.86440958 0.004016969545 0)
(2.863890179 0.004792920023 0)
(2.863500299 0.006752929419 0)
(2.863283117 0.008756621393 0)
(2.863082301 0.009391751641 0)
(2.862954629 0.008446972175 0)
(2.863190166 0.006245086135 0)
(2.863321162 0.004368361155 0)
(2.863569798 0.003499278039 0)
(2.863864539 0.003588477955 0)
(2.864075293 0.003866485124 0)
(2.864158509 0.003826074256 0)
(2.864050908 0.003684676587 0)
(2.863792577 0.00352960791 0)
(2.863635525 0.003022390605 0)
(2.863704537 0.001543802648 0)
(2.863946273 -0.0005488933548 0)
(2.864373904 -0.002629615686 0)
(2.864836272 -0.003438832061 0)
(2.865210446 -0.001939416904 0)
(2.865109217 0.0004168731111 0)
(2.864607741 0.002251492284 0)
(2.864929671 0.004938729284 0)
(2.864182034 0.004804771346 0)
(2.863566763 0.004441472812 0)
(2.862994019 0.004381614615 0)
(2.861912513 0.004368149954 0)
(2.861617885 0.004872680405 0)
(2.8618017 0.004994356567 0)
(2.86225499 0.00469066781 0)
(2.862784324 0.005494921971 0)
(2.862751533 0.006875586556 0)
(2.86244453 0.007573416809 0)
(2.862084886 0.007298824473 0)
(2.861938401 0.005310123544 0)
(2.86181705 0.003600298702 0)
(2.861511354 0.004063026011 0)
(2.861307391 0.005557477012 0)
(2.86112536 0.006821442407 0)
(2.860741849 0.007671817506 0)
(2.860458862 0.007719376649 0)
(2.860311894 0.007430543822 0)
(2.860428969 0.006364244743 0)
(2.860822401 0.004943677185 0)
(2.861258644 0.003726820635 0)
(2.861441441 0.002855340197 0)
(2.861400399 0.002356683807 0)
(2.861269202 0.002006307554 0)
(2.861100379 0.002017138902 0)
(2.86113397 0.00222292883 0)
(2.861377923 0.002180451322 0)
(2.861672471 0.001626618314 0)
(2.862055298 0.0004499599638 0)
(2.862385649 -0.0008736043215 0)
(2.862528685 -0.001570453623 0)
(2.862324946 -0.001275687228 0)
(2.861771687 -1.016476642e-05 0)
(2.862147011 0.002691676118 0)
(2.861356371 0.002875318587 0)
(2.860778836 0.002969091888 0)
(2.860329622 0.003117595763 0)
(2.85932692 0.003610331415 0)
(2.859089754 0.003473559784 0)
(2.859459643 0.003513273103 0)
(2.859824305 0.003220316502 0)
(2.860316383 0.003936045628 0)
(2.860266133 0.006054080232 0)
(2.859988833 0.007944478901 0)
(2.859678535 0.00855595631 0)
(2.85931542 0.007883944711 0)
(2.8590218 0.006282963988 0)
(2.858793036 0.005249181933 0)
(2.858581946 0.005356637416 0)
(2.858294634 0.005956250136 0)
(2.857908193 0.007244635669 0)
(2.857663433 0.008200959087 0)
(2.857441364 0.008716462582 0)
(2.857451357 0.008246931743 0)
(2.857771201 0.006644845851 0)
(2.858197037 0.00385479636 0)
(2.858640177 0.0008126980084 0)
(2.858797013 -0.001080989464 0)
(2.85870036 -0.001772177889 0)
(2.858427985 -0.001969830941 0)
(2.858196429 -0.001615910373 0)
(2.858175099 -0.0004522096192 0)
(2.858412005 0.001144844674 0)
(2.858708769 0.002268280323 0)
(2.858946713 0.002267367574 0)
(2.859053906 0.0006238905979 0)
(2.859218946 -0.002115833514 0)
(2.859338183 -0.003022398449 0)
(2.859018971 0.002176872579 0)
(2.858375358 0.002377232231 0)
(2.857907712 0.002905554617 0)
(2.857545388 0.003708045399 0)
(2.856755648 0.004806629662 0)
(2.856322194 0.005100166888 0)
(2.856799038 0.00402389528 0)
(2.857137216 0.003208175348 0)
(2.857714139 0.002742193256 0)
(2.857876732 0.004194660173 0)
(2.857423794 0.006399531896 0)
(2.856916681 0.007811841743 0)
(2.856445286 0.008468566449 0)
(2.855964912 0.008184312223 0)
(2.855741397 0.006562084854 0)
(2.85560453 0.004906567681 0)
(2.855362873 0.004430803118 0)
(2.855014841 0.00513009265 0)
(2.854594661 0.00637278499 0)
(2.854294566 0.007193604805 0)
(2.854181797 0.007624072797 0)
(2.854403882 0.007056410943 0)
(2.854693569 0.004750839501 0)
(2.855002129 0.0008519264629 0)
(2.855129354 -0.002798624772 0)
(2.855005866 -0.004086401657 0)
(2.854728142 -0.00450661211 0)
(2.854551204 -0.003846906943 0)
(2.854708714 -0.001708644127 0)
(2.855148595 0.001178934975 0)
(2.855572867 0.003356549865 0)
(2.855854923 0.003944044135 0)
(2.856116019 0.003244726943 0)
(2.856024876 0.0004537971968 0)
(2.855747397 -0.002919798114 0)
(2.855969499 0.001041964849 0)
(2.855513887 0.0004979170053 0)
(2.855054679 0.0007348791881 0)
(2.854615989 0.002197406168 0)
(2.853828558 0.00374647793 0)
(2.853187248 0.005416758788 0)
(2.853695181 0.004817287763 0)
(2.854192093 0.003549304127 0)
(2.854647284 0.002935559802 0)
(2.854853343 0.003575583276 0)
(2.854445798 0.005549985152 0)
(2.854059411 0.007912071625 0)
(2.853647554 0.009550230763 0)
(2.853135448 0.009912465376 0)
(2.852691397 0.008933270555 0)
(2.852385218 0.006998481382 0)
(2.852087296 0.005403169484 0)
(2.851608236 0.005131364673 0)
(2.851134798 0.005986838088 0)
(2.850866269 0.006914806361 0)
(2.850756307 0.007255785928 0)
(2.850801051 0.006720622331 0)
(2.85089739 0.004837315159 0)
(2.851033771 0.001214610422 0)
(2.851361756 -0.003603333996 0)
(2.851734376 -0.0067083056 0)
(2.851834521 -0.007458226038 0)
(2.851912206 -0.006720331988 0)
(2.851985001 -0.004307180874 0)
(2.852146018 -0.0009422498878 0)
(2.852396889 0.001765058268 0)
(2.852616097 0.002598503148 0)
(2.852664463 0.00251734138 0)
(2.852348291 0.001005199764 0)
(2.852011577 -0.002358802801 0)
(2.852484299 0.002255408175 0)
(2.85201214 0.0006802030789 0)
(2.851578164 3.183277621e-05 0)
(2.85134316 0.00182770068 0)
(2.850727408 0.004120236084 0)
(2.850289175 0.007508151899 0)
(2.850550375 0.007399808983 0)
(2.850905426 0.005124280919 0)
(2.851367665 0.002886125654 0)
(2.851738676 0.002226459076 0)
(2.851693402 0.003278994499 0)
(2.85109165 0.005616253758 0)
(2.850439696 0.007454316428 0)
(2.849881213 0.008316492051 0)
(2.849400171 0.008497321175 0)
(2.848958312 0.007789922127 0)
(2.84859425 0.006125940467 0)
(2.8482508 0.004747286598 0)
(2.847930063 0.004666528537 0)
(2.847628657 0.005134533905 0)
(2.847385141 0.005276033026 0)
(2.847112374 0.004988518297 0)
(2.846975581 0.004196181429 0)
(2.847031007 0.002392660335 0)
(2.847363045 -0.0008556824734 0)
(2.84778422 -0.004275785857 0)
(2.848069226 -0.005877240793 0)
(2.848173961 -0.005818855763 0)
(2.848409974 -0.00486335701 0)
(2.848719665 -0.002270291549 0)
(2.848982725 0.0008585000516 0)
(2.849147519 0.002636724479 0)
(2.849145819 0.002995173432 0)
(2.848947451 0.002199266263 0)
(2.848556686 -5.012004338e-05 0)
(2.848811894 0.002082483213 0)
(2.848378387 -0.0008193399317 0)
(2.848370381 -0.001939578798 0)
(2.848157313 -0.0007013700152 0)
(2.847674473 0.002120651251 0)
(2.846954045 0.006150454888 0)
(2.847105993 0.007650743584 0)
(2.847326652 0.006426868272 0)
(2.847845076 0.003927600637 0)
(2.848407161 0.002403483388 0)
(2.848265843 0.002669835985 0)
(2.847600634 0.004269766019 0)
(2.846793827 0.006114135538 0)
(2.846371399 0.007613982074 0)
(2.846056715 0.008509670379 0)
(2.845727899 0.008746211511 0)
(2.845269382 0.008188277097 0)
(2.844884918 0.007041137029 0)
(2.844482418 0.006140089083 0)
(2.844016417 0.005564515552 0)
(2.843617982 0.004940965702 0)
(2.84318056 0.004131919572 0)
(2.842975313 0.00325764985 0)
(2.842939109 0.002237270985 0)
(2.843137253 0.0008505542045 0)
(2.843460083 -0.0009741001564 0)
(2.843739108 -0.002633974324 0)
(2.844077374 -0.003881189956 0)
(2.844731815 -0.004683793225 0)
(2.845479773 -0.004251419132 0)
(2.845932069 -0.001882594161 0)
(2.84580901 0.0003373646213 0)
(2.845687947 0.0009089865786 0)
(2.845386502 0.0005337435887 0)
(2.844728728 -7.478271553e-05 0)
(2.844978977 0.003043295987 0)
(2.844472332 0.0005204954602 0)
(2.844784722 -0.001319059752 0)
(2.844594792 -0.0009792420272 0)
(2.844060435 0.001798342155 0)
(2.843469156 0.006115738744 0)
(2.843514562 0.008326022474 0)
(2.843794806 0.007791583119 0)
(2.844169389 0.005561610142 0)
(2.844747038 0.003023703511 0)
(2.844980238 0.001661095084 0)
(2.844749944 0.001914835262 0)
(2.844217016 0.003254895895 0)
(2.843369667 0.004947566277 0)
(2.84271287 0.006140910802 0)
(2.84218299 0.007108756996 0)
(2.841714531 0.007823036334 0)
(2.841248254 0.007874669687 0)
(2.840821936 0.006821138967 0)
(2.840362299 0.005245458034 0)
(2.839850579 0.003820479424 0)
(2.83930215 0.00278085164 0)
(2.838965236 0.002291304922 0)
(2.838898854 0.002238920534 0)
(2.839152584 0.002437874415 0)
(2.839575368 0.002469714331 0)
(2.839882175 0.002082595035 0)
(2.84022793 0.001155023745 0)
(2.840812993 -0.0002090436061 0)
(2.841535292 -0.001650735045 0)
(2.84197258 -0.001915679814 0)
(2.842047849 -0.0006115223195 0)
(2.841898692 0.0005551228333 0)
(2.841696677 0.001096440474 0)
(2.841195104 0.001666006732 0)
(2.841163649 0.001981744086 0)
(2.840517839 0.001459718737 0)
(2.840867755 -0.000431247979 0)
(2.84115595 -0.001625824975 0)
(2.840643616 6.298887148e-05 0)
(2.840195929 0.003756827047 0)
(2.84003676 0.006488512125 0)
(2.840145656 0.007558006929 0)
(2.84050187 0.007281244161 0)
(2.8410102 0.005896774024 0)
(2.841280201 0.003739321021 0)
(2.841006293 0.002428015343 0)
(2.840429414 0.002500565328 0)
(2.839718961 0.003301327323 0)
(2.839033063 0.004556542956 0)
(2.838595352 0.006459004551 0)
(2.838254277 0.008494431989 0)
(2.837858681 0.009431094828 0)
(2.837216978 0.008834058908 0)
(2.836599518 0.007005441703 0)
(2.835926864 0.004864922786 0)
(2.83532433 0.003055009366 0)
(2.834953588 0.001672424421 0)
(2.834868009 0.001213331134 0)
(2.835045297 0.001302586516 0)
(2.835358415 0.001793722051 0)
(2.835709367 0.002490492818 0)
(2.836092814 0.003021810171 0)
(2.836594235 0.00287129985 0)
(2.837250929 0.00126385489 0)
(2.837937343 -0.00107717639 0)
(2.83826404 -0.001976252817 0)
(2.83824824 -0.0012418666 0)
(2.83801509 -0.0003186692068 0)
(2.837545154 0.0005913773157 0)
(2.837656541 0.002892776339 0)
(2.837157622 0.003941601083 0)
(2.837169033 0.00283677714 0)
(2.837464541 0.000943461459 0)
(2.837019944 0.000712239145 0)
(2.836489188 0.003307805641 0)
(2.836569025 0.006077780921 0)
(2.836592021 0.007820753762 0)
(2.836919207 0.008498383515 0)
(2.83715599 0.00792214656 0)
(2.837321741 0.005986827047 0)
(2.837270107 0.002948256431 0)
(2.837126206 0.0009952575997 0)
(2.836803287 0.0006955871112 0)
(2.836376278 0.001621143921 0)
(2.835706884 0.003894564791 0)
(2.834953973 0.006675398004 0)
(2.834214532 0.008084185826 0)
(2.833480404 0.007670687788 0)
(2.832746206 0.00632531391 0)
(2.832023798 0.004733322962 0)
(2.831314914 0.002860534046 0)
(2.830950346 0.001173986367 0)
(2.830893439 0.0007593353063 0)
(2.831006906 0.001135325427 0)
(2.831312802 0.00203650226 0)
(2.831770768 0.003192198192 0)
(2.832278184 0.004398789336 0)
(2.832817423 0.005208241147 0)
(2.833318219 0.004761284122 0)
(2.833880945 0.002879760101 0)
(2.834212091 0.0007091477017 0)
(2.834275457 -0.0001152090867 0)
(2.834127202 0.0002898763294 0)
(2.83373086 0.001221146524 0)
(2.834301227 0.002588799352 0)
(2.83353398 0.004124233439 0)
(2.833227485 0.003891185215 0)
(2.833415801 0.002541722919 0)
(2.833371489 0.0009023391501 0)
(2.833212021 0.001809278657 0)
(2.833398142 0.004759264371 0)
(2.833234586 0.006902564043 0)
(2.833476374 0.009147952693 0)
(2.8337856 0.009850208024 0)
(2.83389241 0.009027223281 0)
(2.833823143 0.006573087023 0)
(2.833618879 0.00332824356 0)
(2.833318288 0.001430156209 0)
(2.832733192 0.001633294461 0)
(2.832134259 0.003128314507 0)
(2.831321729 0.005622100073 0)
(2.830500697 0.007386567998 0)
(2.829721253 0.007391247201 0)
(2.8290324 0.006666514519 0)
(2.828232688 0.0057281001 0)
(2.827435959 0.004012361789 0)
(2.826996274 0.001512955019 0)
(2.82711261 -0.0004054353489 0)
(2.827332916 -0.000730951211 0)
(2.827713837 -0.000630137059 0)
(2.828090004 -1.051275921e-05 0)
(2.828493024 0.001522106629 0)
(2.828991779 0.003705012941 0)
(2.829480389 0.005228941 0)
(2.829788924 0.005333859108 0)
(2.829997994 0.00385058084 0)
(2.830153118 0.001668010679 0)
(2.830223873 0.0001942843765 0)
(2.829994106 4.250587141e-05 0)
(2.831178983 0.003742621151 0)
(2.830385999 0.005294562431 0)
(2.829916612 0.005732486411 0)
(2.829947578 0.005103083651 0)
(2.829915209 0.003583673018 0)
(2.829923215 0.003237988727 0)
(2.829993443 0.005508778696 0)
(2.830094226 0.006682421721 0)
(2.830369866 0.008447816293 0)
(2.830670481 0.00914002266 0)
(2.830742666 0.008531907021 0)
(2.830503213 0.007784040983 0)
(2.830083584 0.00605787791 0)
(2.829730207 0.003584099578 0)
(2.829368799 0.001962977474 0)
(2.82893311 0.001711768758 0)
(2.828331371 0.002692770113 0)
(2.827262955 0.004385781865 0)
(2.826259382 0.004990807713 0)
(2.825560799 0.004892366822 0)
(2.82464619 0.004677700547 0)
(2.823761393 0.00379685844 0)
(2.823264955 0.001798841371 0)
(2.823380559 -0.000630919942 0)
(2.823558851 -0.001432235183 0)
(2.823822181 -0.001798647712 0)
(2.824163916 -0.001514436789 0)
(2.824708471 2.350608011e-05 0)
(2.825379593 0.002495910094 0)
(2.825920783 0.005176713647 0)
(2.826200675 0.006800959283 0)
(2.826285403 0.006920345661 0)
(2.826336837 0.005604488703 0)
(2.826354988 0.003276952716 0)
(2.826104153 0.001375313692 0)
(2.829334713 0.0004891647299 0)
(2.828234793 0.00281247181 0)
(2.827548921 0.003803246513 0)
(2.826894055 0.004446538072 0)
(2.826748209 0.00450900526 0)
(2.826648483 0.004454214037 0)
(2.826598636 0.004487654596 0)
(2.826946178 0.005192074276 0)
(2.827244487 0.005872879976 0)
(2.827580032 0.006782407691 0)
(2.827759772 0.007586115998 0)
(2.82770861 0.007832342868 0)
(2.82755034 0.008256108736 0)
(2.827138068 0.008412194622 0)
(2.8266732 0.007331643392 0)
(2.826206092 0.005399341424 0)
(2.825643267 0.003361419251 0)
(2.825006706 0.002315891212 0)
(2.824045396 0.002942369804 0)
(2.822915623 0.004304895638 0)
(2.82230105 0.00464913938 0)
(2.82139885 0.004667418508 0)
(2.820527999 0.004154079296 0)
(2.819946465 0.002323203422 0)
(2.82004038 -0.000863540286 0)
(2.820500873 -0.003256238209 0)
(2.820876538 -0.004064466231 0)
(2.821309686 -0.003871057097 0)
(2.821887681 -0.002421972382 0)
(2.822418255 0.0002422313764 0)
(2.822754846 0.003585297202 0)
(2.822923758 0.006433057059 0)
(2.822906054 0.00755267691 0)
(2.822795155 0.00730903382 0)
(2.82266034 0.005330747333 0)
(2.822347382 0.002166188438 0)
(2.826408031 0.001710408435 0)
(2.825278453 0.002836488673 0)
(2.824578744 0.003109195706 0)
(2.82400048 0.003689704008 0)
(2.823984006 0.004667445012 0)
(2.824016919 0.005723274155 0)
(2.823925914 0.007319689328 0)
(2.824228624 0.00714984259 0)
(2.824580745 0.006068990743 0)
(2.824953316 0.004981760676 0)
(2.825220793 0.004272678765 0)
(2.824822461 0.004732586137 0)
(2.824553128 0.005804774987 0)
(2.824320296 0.006999387009 0)
(2.823830012 0.00768868867 0)
(2.823230486 0.00712208656 0)
(2.82257441 0.005362734534 0)
(2.821904153 0.003462330587 0)
(2.821122071 0.002505963292 0)
(2.820197549 0.00277840245 0)
(2.819574879 0.002983618147 0)
(2.818691614 0.002839099952 0)
(2.817833637 0.002445298917 0)
(2.817205538 0.001549290909 0)
(2.817233213 -0.000544399379 0)
(2.817836075 -0.003140977275 0)
(2.81846824 -0.00406485808 0)
(2.818848848 -0.003886461297 0)
(2.819361405 -0.002917584741 0)
(2.819901274 -0.0007907724364 0)
(2.820197998 0.002269793215 0)
(2.820228471 0.005305005084 0)
(2.820082286 0.007161501943 0)
(2.819858075 0.007619699352 0)
(2.819656858 0.006823095819 0)
(2.819165786 0.004554061098 0)
(2.824071069 0.001306655243 0)
(2.823172758 0.0005796448373 0)
(2.822397652 0.0003958264311 0)
(2.821780526 0.001038859723 0)
(2.821725547 0.002679243566 0)
(2.821785692 0.004626765231 0)
(2.821725729 0.00732381557 0)
(2.821950013 0.007559577889 0)
(2.822373577 0.005289187217 0)
(2.822682326 0.003172081962 0)
(2.822777991 0.002064615122 0)
(2.822408404 0.002423048188 0)
(2.822237752 0.00385032754 0)
(2.821870598 0.006000858471 0)
(2.821446764 0.007031861431 0)
(2.820780499 0.007040595331 0)
(2.820001376 0.006616262545 0)
(2.819290577 0.005972478053 0)
(2.818561945 0.004937988794 0)
(2.817711776 0.003804286161 0)
(2.81710826 0.002850285067 0)
(2.816311011 0.001902924561 0)
(2.815586014 0.001193485206 0)
(2.815091984 0.0003049980154 0)
(2.815146902 -0.0009793125766 0)
(2.815804114 -0.002468950419 0)
(2.816600895 -0.003550537737 0)
(2.817214666 -0.003799261117 0)
(2.817826474 -0.003386496683 0)
(2.818378761 -0.001964410339 0)
(2.818638714 0.000655931355 0)
(2.818381817 0.003431550787 0)
(2.817962083 0.00526638948 0)
(2.817554021 0.0061028934 0)
(2.817219822 0.006022434193 0)
(2.816561721 0.005073361218 0)
(2.822465549 0.0003577402007 0)
(2.821776615 -0.001629762676 0)
(2.820725686 -0.002091118667 0)
(2.820036663 -0.000423405431 0)
(2.819943991 0.002138274697 0)
(2.820012086 0.004806985211 0)
(2.820139868 0.007037158764 0)
(2.82023475 0.007704387311 0)
(2.820493728 0.005715823904 0)
(2.820947488 0.002207613721 0)
(2.82115842 0.0004794893953 0)
(2.821576243 0.0004553814114 0)
(2.821282041 0.00155903562 0)
(2.820508381 0.002526473955 0)
(2.819724164 0.003836656867 0)
(2.818755413 0.004827522496 0)
(2.817880309 0.006060070242 0)
(2.81714644 0.006562395324 0)
(2.816308369 0.006158964798 0)
(2.81565943 0.004561166047 0)
(2.815272833 0.002227447599 0)
(2.814746464 0.0001265560094 0)
(2.814122465 -0.000924320081 0)
(2.813760475 -0.001248558036 0)
(2.813850991 -0.00129382403 0)
(2.814534401 -0.001276578305 0)
(2.815522172 -0.001423620979 0)
(2.816311603 -0.001567084402 0)
(2.816994638 -0.001635598516 0)
(2.81744497 -0.001357836613 0)
(2.817724202 -0.0003300920257 0)
(2.817755495 0.001202699564 0)
(2.816844625 0.003049529237 0)
(2.816053027 0.004678537225 0)
(2.815624613 0.005536067646 0)
(2.815054098 0.005693280553 0)
(2.821573382 -0.001053567001 0)
(2.820572477 -0.002781938329 0)
(2.819494884 -0.003326536566 0)
(2.819097352 -0.0009685593512 0)
(2.819255395 0.00103450788 0)
(2.819151174 0.003174649844 0)