/*--------------------------------*- C++ -*----------------------------------*\
  =========                 |
  \\      /  F ield         | OpenFOAM: The Open Source CFD Toolbox
   \\    /   O peration     | Website:  https://openfoam.org
    \\  /    A nd           | Version:  7
     \\/     M anipulation  |
\*---------------------------------------------------------------------------*/
FoamFile
{
    version     2.0;
    format      ascii;
    class       volScalarField;
    location    "1";
    object      T;
}
// * * * * * * * * * * * * * * * * * * * * * * * * * * * * * * * * * * * * * //

dimensions      [0 0 0 1 0 0 0];

internalField   nonuniform List<scalar> 
2222
(
0.833545901
0.8317541312
0.8289833065
0.8260494946
0.8263939566
0.8271710681
0.8353035707
0.8672120462
0.9182143141
0.9653217642
1.010492562
1.017249103
1.016566041
1.0179594
1.017196656
1.017040269
1.018616438
1.020823018
0.8552092032
0.8522330344
0.850333473
0.8489136729
0.8471903009
0.8446182166
0.842778304
0.8412901098
0.8395918035
0.8369987016
0.8354828359
0.8342739535
0.8325266845
0.8303355554
0.8282941781
0.8266809014
0.8241681254
0.8241760626
0.827766345
0.8448327711
0.8961488768
0.9565371118
1.002032563
1.012768639
1.021028716
1.023124382
1.022278293
1.020928161
1.019287363
1.018242944
1.018680628
1.020015144
0.8499005709
0.8471687908
0.8453404361
0.8439614629
0.8421761979
0.8395290199
0.8375930586
0.8361169497
0.8343669643
0.8319926067
0.830771597
0.8294506187
0.8273050015
0.82459552
0.8237425047
0.8233335032
0.8241687764
0.8327205231
0.872251982
0.9278728559
0.975802302
0.9943537255
1.014047696
1.017093478
1.019753585
1.021874803
1.022284156
1.021705392
1.021279795
1.020823426
1.020558991
1.020848985
0.8442786831
0.8416043475
0.8398723104
0.838541707
0.8367263105
0.8342196993
0.8325067992
0.8313770975
0.8296509035
0.8275951027
0.8258501133
0.8243819634
0.8215235388
0.820739903
0.8213775099
0.8259897821
0.8516157249
0.9003392233
0.9564972528
1.007377608
1.019169729
1.016632455
1.018704607
1.018182144
1.018120335
1.019146664
1.020631319
1.021181606
1.02167211
1.022140827
1.022216327
1.022124629
0.8388257629
0.8361843873
0.8346491217
0.833352971
0.8317847509
0.8293890176
0.827849917
0.8263992754
0.8245202708
0.8216084103
0.8202535611
0.8191028854
0.8185448306
0.8204589388
0.8327805152
0.8756021034
0.9404936911
0.9940304179
1.009349733
1.02137874
1.023362128
1.022672201
1.022094942
1.020988252
1.019703929
1.01966856
1.020384226
1.020966431
1.021463127
1.021907935
1.02217044
1.022400582
0.8334072025
0.8310760993
0.8293855252
0.8281665047
0.8262749327
0.8237089519
0.8223116394
0.8208039394
0.8182716786
0.8157844151
0.8163871535
0.8173486208
0.8234444799
0.8568566302
0.9088105276
0.9668265157
0.9896939832
1.010082649
1.013271405
1.018175986
1.020778757
1.022470185
1.022770335
1.022606893
1.022565266
1.022323259
1.022261922
1.021865466
1.021110346
1.021177287
1.021488269
1.022077899
0.8277411359
0.825103724
0.8238378613
0.8227239049
0.8209556315
0.818736761
0.8167773461
0.8150752907
0.8126095666
0.8128984251
0.8158539637
0.8378240664
0.8853685899
0.9464896848
0.9985800575
1.020130934
1.017662671
1.018806314
1.017665448
1.018256598
1.020132795
1.021351644
1.022043686
1.022679
1.022979577
1.023091103
1.02303802
1.022576899
1.021516362
1.021157339
1.021186839
1.021597471
0.8223788922
0.8201055422
0.8188593607
0.8174613584
0.8151447827
0.8122618511
0.8109696465
0.8108853202
0.8118937641
0.8212375557
0.8571651674
0.9270404408
0.987595051
1.00376235
1.018130916
1.024972253
1.023017617
1.022140328
1.021977154
1.021573189
1.0214153
1.02146711
1.021758116
1.021836873
1.022070097
1.022364727
1.02250555
1.022368043
1.021902358
1.021766259
1.021790312
1.0221287
0.8169243655
0.8147731102
0.8131490852
0.8116560073
0.8084150892
0.8076859739
0.8084578411
0.8126902298
0.8407463392
0.8930479055
0.9570037574
0.9853723362
1.007712339
1.012136271
1.01751766
1.021890228
1.022228329
1.022569151
1.022405973
1.022669925
1.022811671
1.022686199
1.022308549
1.021622629
1.021234702
1.021322298
1.02151935
1.021805222
1.022169682
1.022583906
1.02281496
1.02310653
0.8111375211
0.8082870129
0.8070764439
0.8055313049
0.805026457
0.8066913459
0.8245379323
0.8690844467
0.935888436
0.9911143789
1.019513032
1.017940869
1.018984957
1.019849189
1.021124132
1.022141604
1.022552784
1.022035036
1.022126538
1.022439481
1.022727203
1.022715721
1.022696758
1.022156073
1.021742659
1.021698766
1.021860457
1.022217703
1.022642992
1.02307725
1.023470438
1.023758406
0.8048240965
0.8022644112
0.8025383081
0.8032392194
0.8104032244
0.8429419347
0.9139808921
0.9786757431
0.996733197
1.011338997
1.02514713
1.023365125
1.022286978
1.022865801
1.024560123
1.024559711
1.023796665
1.022621328
1.021327515
1.021243998
1.021564719
1.022120352
1.022578794
1.022848369
1.02279258
1.022770057
1.02293557
1.023208441
1.023355702
1.023562538
1.023920119
1.024254073
0.7982083492
0.798652108
0.8020226853
0.8267009926
0.8813757387
0.9464957863
0.9813813452
1.011033792
1.016725268
1.019359254
1.022827263
1.022811794
1.02299458
1.023529963
1.024342428
1.024569207
1.024604597
1.023525781
1.022210949
1.021796601
1.021901497
1.022211031
1.022702204
1.023216774
1.02367836
1.023947143
1.024066842
1.024148164
1.024115727
1.024185454
1.024366459
1.024693883
0.7977306872
0.8126334946
0.8552609294
0.9259907146
0.988242851
1.019613306
1.019342089
1.021661279
1.024068261
1.025789304
1.025224932
1.024324793
1.022975758
1.023153453
1.023542248
1.024148983
1.024555534
1.024334444
1.023749831
1.02335544
1.023337031
1.023316478
1.023386963
1.023769397
1.024259568
1.02473004
1.024837443
1.024874168
1.024942993
1.024909099
1.024966206
1.025302294
0.8330765093
0.9041444606
0.9729481967
0.9944169809
1.009524538
1.026776485
1.025247952
1.024840105
1.025369913
1.026665347
1.027202318
1.026240541
1.024428501
1.022989314
1.022694322
1.023002025
1.023868324
1.024640073
1.025060005
1.025037339
1.025046571
1.024892458
1.024556654
1.024573503
1.024777041
1.0250916
1.025385238
1.02555777
1.025658837
1.025719397
1.025884747
1.02632885
0.9409535686
0.9811864017
1.017274244
1.023455258
1.022241895
1.025345398
1.025000297
1.024215396
1.024556249
1.025746149
1.027144666
1.02695579
1.026046204
1.024502544
1.023793215
1.023906928
1.024359272
1.024971871
1.025658422
1.026017227
1.026159144
1.026159635
1.025960967
1.025690886
1.025600883
1.025799545
1.02614917
1.026408452
1.026592281
1.026780968
1.027017203
1.027514729
1.019658225
1.020931097
1.025014591
1.029392645
1.029826651
1.029094343
1.02704807
1.0241409
1.023663858
1.024298889
1.026201013
1.027370963
1.027051774
1.026547985
1.026087748
1.025937688
1.025996276
1.026125317
1.026399244
1.026730671
1.026988594
1.027138298
1.027143798
1.027058535
1.027149321
1.027458527
1.027805436
1.02802439
1.028171563
1.028242834
1.028367196
1.028673307
1.028843327
1.027159164
1.027512154
1.028875097
1.030582964
1.030450968
1.029032131
1.02647522
1.025309751
1.02553465
1.026423499
1.027553357
1.028078469
1.028038974
1.027860404
1.027709558
1.027669435
1.02766305
1.02762644
1.027710072
1.027912873
1.028088059
1.02829699
1.028563523
1.028899097
1.029253365
1.029579825
1.02977348
1.029845217
1.029806838
1.029726899
1.029750009
1.028276685
1.027161309
1.02596955
1.026796546
1.0293456
1.030906603
1.030502422
1.029469719
1.028558468
1.028323197
1.028333804
1.028611337
1.028957284
1.029074971
1.028990767
1.028925654
1.028918243
1.029045195
1.029146252
1.029347182
1.029570386
1.029767617
1.030012253
1.030336556
1.030715232
1.031096372
1.031432828
1.031446827
1.031328805
1.031147704
1.03083371
1.03071692
1.032345277
1.029140753
1.026924389
1.027176789
1.028403724
1.030578492
1.031154133
1.030895284
1.030717645
1.030708042
1.030681651
1.03051705
1.030335679
1.030094427
1.029846433
1.029848217
1.029946186
1.030257879
1.030673375
1.031090108
1.031369042
1.031582222
1.031821551
1.032072119
1.032322399
1.032623924
1.03284383
1.032823424
1.032622294
1.032306321
1.031963689
1.031916846
1.033945518
1.032282013
1.030365495
1.030065852
1.030422128
1.031128335
1.031719122
1.032007352
1.032189543
1.032333716
1.032321815
1.032198797
1.031971332
1.031747071
1.031553444
1.031556873
1.031643662
1.031909792
1.032320454
1.032771526
1.033060439
1.033203679
1.033346398
1.033403988
1.033492807
1.033663443
1.033769417
1.033747911
1.033662019
1.033524991
1.033395509
1.033426937
1.034829608
1.034636613
1.034257954
1.033979607
1.033707955
1.033296223
1.033004508
1.032625104
1.032659423
1.032745224
1.032914514
1.033101731
1.033323251
1.033454349
1.033476346
1.033557366
1.03368333
1.033792844
1.033959463
1.034188531
1.034380026
1.034496441
1.03448789
1.034382631
1.034332671
1.034435927
1.034575899
1.034692422
1.034840258
1.034918628
1.034951917
1.035044336
1.034958229
1.035658364
1.035822914
1.035861247
1.035735489
1.03535713
1.034734308
1.033986092
1.03350503
1.03346605
1.033550719
1.03385693
1.034366551
1.034861053
1.035098617
1.035279924
1.035477988
1.035534417
1.035565588
1.035600578
1.035579018
1.035494481
1.035375888
1.035286373
1.035315799
1.035520786
1.035870788
1.036265413
1.036628613
1.036749854
1.036740166
1.036714422
1.03596003
1.036464877
1.036572986
1.036715692
1.036739085
1.036477638
1.03607298
1.035641837
1.035341128
1.035264906
1.035291899
1.035432216
1.03571138
1.036127128
1.036433908
1.036714355
1.036989038
1.037090744
1.037118599
1.037101323
1.037042675
1.036971594
1.036898319
1.036891025
1.036972212
1.037216417
1.037612973
1.038089669
1.038533859
1.038663022
1.038607924
1.038408096
1.037750192
1.037605284
1.037369868
1.037098552
1.037091753
1.037061639
1.037093233
1.037241155
1.037321601
1.037285562
1.037298462
1.037339913
1.037355739
1.037423126
1.037554649
1.037839748
1.038198579
1.038471351
1.038716299
1.03895007
1.03909499
1.03917558
1.039201168
1.039227174
1.039288512
1.039421356
1.039656787
1.039936731
1.040180258
1.040287105
1.040275844
1.040136763
1.039480937
1.039165537
1.03887302
1.038559578
1.038415843
1.038446768
1.0386178
1.039015373
1.039386984
1.039447155
1.03943157
1.039424832
1.03933951
1.039216455
1.03929246
1.03956176
1.039922629
1.040353509
1.04088666
1.041425473
1.041816895
1.042070922
1.042177862
1.042168584
1.042096125
1.041976689
1.041881766
1.041831293
1.041833323
1.041914792
1.041978581
1.04209783
1.041620575
1.041549376
1.041421317
1.041412064
1.041450539
1.04150322
1.041586609
1.041848146
1.042184399
1.042343516
1.042337641
1.042294239
1.042209226
1.042192807
1.042357221
1.042743495
1.043209716
1.043745024
1.044337847
1.044835497
1.04526166
1.045588918
1.045681714
1.04558091
1.045349218
1.045032677
1.044732853
1.044564014
1.04450245
1.044531174
1.044626255
1.044899814
1.044952388
1.045193702
1.045379409
1.045581348
1.045796629
1.046016032
1.046104371
1.046226615
1.046429501
1.046562779
1.046608465
1.046631564
1.046679143
1.046817516
1.047110979
1.047569832
1.048058354
1.048561118
1.048922664
1.049103131
1.049218277
1.049361108
1.049366974
1.049369089
1.049359166
1.04932095
1.049310056
1.049259137
1.049167244
1.049082261
1.049021845
1.049031949
1.050844697
1.050853104
1.050951188
1.051091342
1.051240403
1.05147945
1.051800074
1.052044411
1.05235934
1.052707093
1.052958706
1.05311028
1.053230854
1.053368634
1.053584518
1.053781352
1.053835935
1.053846644
1.053846434
1.053936374
1.054036793
1.054212906
1.054411205
1.054629235
1.054885194
1.055174405
1.055460448
1.055494287
1.055387029
1.055216598
1.054988052
1.054623507
1.059122077
1.058749973
1.058351021
1.05814887
1.058228056
1.058471436
1.058777932
1.059158876
1.059722544
1.060355937
1.060880651
1.061186228
1.06121683
1.061175569
1.06107095
1.060910834
1.060675582
1.060458993
1.060469065
1.060594819
1.060856904
1.061150082
1.061410056
1.061658903
1.061847633
1.06200203
1.062149789
1.062174396
1.06214844
1.06205666
1.061926024
1.061556754
1.068098092
1.067532382
1.066813535
1.066348477
1.066354926
1.066512345
1.066812574
1.067350083
1.068097055
1.068835922
1.069354763
1.069357517
1.069225404
1.068972289
1.068620443
1.068256921
1.067960378
1.067976094
1.068206073
1.06859783
1.068994
1.069274163
1.069449902
1.069560032
1.069466753
1.069274128
1.069054111
1.068839136
1.068787086
1.068832485
1.068942829
1.068944535
1.075998894
1.075625285
1.075105925
1.074813275
1.074736855
1.07483328
1.075089014
1.075596853
1.076211942
1.076636265
1.076648657
1.076422209
1.075986878
1.075622473
1.075321939
1.075190969
1.075217564
1.075552377
1.076096818
1.076665801
1.077008939
1.077094745
1.077094097
1.076972656
1.076610319
1.076119428
1.075683736
1.075399748
1.075370713
1.075487135
1.075765519
1.076099109
1.079089432
1.078833675
1.078650475
1.078592635
1.078745635
1.079182884
1.079607422
1.079966409
1.080270089
1.08036356
1.080181714
1.079884669
1.079413737
1.078714824
1.078408401
1.078394817
1.078475674
1.078927605
1.079580818
1.080485786
1.081070775
1.081155319
1.081202562
1.080974701
1.080587919
1.079905747
1.078916717
1.078444998
1.078301815
1.078421928
1.078800246
1.079465232
1.078519608
1.078470739
1.078497455
1.078572194
1.078874921
1.079410679
1.079970674
1.080299607
1.080417319
1.080354956
1.08018766
1.079887267
1.079456893
1.078675901
1.078376732
1.078346813
1.078566732
1.079110165
1.079825516
1.080587051
1.081111409
1.081217116
1.081328542
1.081239898
1.081035293
1.080517749
1.079555828
1.078850439
1.078662552
1.07880031
1.079192128
1.079573438
1.077985218
1.078122958
1.078271871
1.078410973
1.078755334
1.079185592
1.079703444
1.080157747
1.080151092
1.080083107
1.079975651
1.079688342
1.07911572
1.078482098
1.078252573
1.078251584
1.078573553
1.079144884
1.079889462
1.080634791
1.081007781
1.081001934
1.080980353
1.080921471
1.080921953
1.080460316
1.079927612
1.079571827
1.079284965
1.079141549
1.079382079
1.07963387
1.077314075
1.077477575
1.07764122
1.077796855
1.07819857
1.078660613
1.078973691
1.079321296
1.079463742
1.079563783
1.079471734
1.079084603
1.078462257
1.078115132
1.0779832
1.078030539
1.078418592
1.079033094
1.079763415
1.080404146
1.080572863
1.080507432
1.080417457
1.080445054
1.080339548
1.079945074
1.079752015
1.079720386
1.079691192
1.079652871
1.079580356
1.079581912
1.076634778
1.076685958
1.076693868
1.07682072
1.077216999
1.077557362
1.077789439
1.078098417
1.07841597
1.078601055
1.078506634
1.07805995
1.077572039
1.077372467
1.077321591
1.077467461
1.078033244
1.078701405
1.079363566
1.079799208
1.079809798
1.079735465
1.079650896
1.079601232
1.079293893
1.079107536
1.079203219
1.079419915
1.079614011
1.079783639
1.079805804
1.079546108
1.075307471
1.075277226
1.075175354
1.075336812
1.07581762
1.076105509
1.076207511
1.076461044
1.076960896
1.077255718
1.077166283
1.076731802
1.076379478
1.076352828
1.076377057
1.076593142
1.077261213
1.077962942
1.07855092
1.078904663
1.078827791
1.078740315
1.078644503
1.078350744
1.078072795
1.078049602
1.078282194
1.07867797
1.079077329
1.079359813
1.079548718
1.079353307
1.073637688
1.073567682
1.073396945
1.073524729
1.074002994
1.074294791
1.074476673
1.074764441
1.075293976
1.075558643
1.075477426
1.075112192
1.074841839
1.074907147
1.075027347
1.075317022
1.076031854
1.076788174
1.07724918
1.077561545
1.077636574
1.077611277
1.077480554
1.077052476
1.076753008
1.076849423
1.077141607
1.077570335
1.078040234
1.078444629
1.078691544
1.078506979
1.071632809
1.07157321
1.071487017
1.071731799
1.072213384
1.072454226
1.072644277
1.073015107
1.07357805
1.073766054
1.073680268
1.073438709
1.073266091
1.07332093
1.073491828
1.073780193
1.074462306
1.075230443
1.075699583
1.075959151
1.076077335
1.0761164
1.0760146
1.075747502
1.075499403
1.075569304
1.075834834
1.076179599
1.076581021
1.07694648
1.077146071
1.077093989
1.069919133
1.069796866
1.069793242
1.070183498
1.070684858
1.070935487
1.071204135
1.071617008
1.071968248
1.07209558
1.07208258
1.072121872
1.07216539
1.072115601
1.072145813
1.072297322
1.072840481
1.073556417
1.074012849
1.074212236
1.074333291
1.074450743
1.074433186
1.074321833
1.074334151
1.074479738
1.074567201
1.074683507
1.07490473
1.075166018
1.075322747
1.075434689
1.068453708
1.068431046
1.068580192
1.069127834
1.069616252
1.069830113
1.070117
1.070482485
1.07062874
1.070662441
1.070770477
1.071117274
1.071509214
1.071548259
1.071382678
1.071221549
1.071466914
1.071992685
1.072354857
1.072521151
1.072665257
1.072782763
1.072836925
1.073068024
1.073460193
1.073657152
1.073556206
1.073395711
1.07335877
1.073487783
1.073603843
1.073803649
1.067285784
1.067512205
1.067883841
1.068515938
1.068902048
1.069084766
1.069378767
1.069612205
1.069545141
1.069542336
1.069763897
1.070402159
1.071170623
1.07145355
1.071303646
1.070910794
1.070778467
1.070793328
1.070938175
1.071068384
1.071183594
1.071284722
1.071438675
1.071914782
1.072622041
1.072949349
1.072867873
1.072569468
1.072229789
1.072116196
1.072138779
1.072389257
1.066621263
1.06708495
1.06768281
1.068270432
1.068535079
1.068691283
1.068793194
1.068735413
1.068610769
1.068656224
1.069087182
1.069825308
1.070653943
1.071201305
1.07128361
1.071074545
1.0707578
1.07028512
1.070007457
1.070017978
1.070083256
1.070179928
1.070430453
1.071116101
1.071959003
1.072262709
1.072227758
1.072043531
1.071670486
1.071290993
1.071111939
1.071363682
1.066356713
1.066988539
1.067720119
1.068142524
1.068305821
1.068321726
1.068170009
1.067939704
1.067873383
1.068059896
1.068658888
1.069394871
1.070258255
1.071046213
1.071242762
1.071108181
1.070883031
1.070276705
1.069648791
1.069424353
1.069439369
1.069525697
1.069839416
1.070503881
1.071191322
1.071431206
1.071551296
1.071543695
1.07138975
1.071046862
1.070671327
1.070738256
1.066455806
1.067096063
1.067674003
1.067923505
1.067950552
1.067842002
1.067623973
1.067375328
1.067370118
1.067760168
1.068295213
1.068933645
1.069723103
1.070551421
1.070798405
1.070863395
1.070821367
1.070325082
1.069642459
1.069206143
1.069135475
1.069199149
1.06959109
1.070058433
1.070284082
1.070670802
1.070901648
1.07110142
1.071204635
1.071123389
1.070819016
1.070576647
1.06660454
1.067133198
1.067447719
1.067613923
1.067626511
1.067459764
1.067260595
1.067056158
1.067135146
1.067537654
1.068003738
1.068512939
1.069255345
1.070034493
1.070424823
1.070677618
1.070731266
1.070313492
1.069681326
1.069183635
1.068978267
1.069040261
1.069342209
1.06947047
1.069570445
1.069856457
1.07032979
1.07075589
1.070971823
1.071035371
1.070988438
1.070785856
1.066571494
1.067002863
1.067383278
1.067456679
1.067431731
1.067289786
1.067064699
1.066953931
1.067081515
1.067311178
1.067698652
1.068205305
1.069017897
1.069861154
1.070348406
1.070736245
1.070795485
1.070385122
1.069752813
1.069205217
1.068906648
1.068950258
1.069073895
1.069111939
1.069202188
1.06946931
1.070076207
1.070439937
1.070742032
1.070959882
1.071132503
1.071053003
1.065957261
1.066457894
1.066890878
1.06733309
1.067485622
1.067430957
1.067278701
1.067104365
1.066990882
1.066977877
1.067109857
1.067498317
1.068059184
1.068853589
1.069658421
1.070482795
1.070749546
1.070712578
1.070434088
1.069894517
1.069269878
1.06889945
1.068893342
1.068951367
1.06894312
1.069037983
1.069284657
1.06963772
1.070170314
1.070797254
1.071077863
1.071316178
1.071079984
1.065712621
1.066180314
1.066665996
1.06709293
1.067284069
1.067360858
1.067295768
1.067211842
1.066927303
1.066848883
1.06703582
1.067479569
1.068073651
1.068758136
1.069591063
1.070310319
1.070449919
1.070380286
1.070246656
1.069852846
1.069280061
1.068895419
1.068860695
1.068939737
1.069102006
1.069114976
1.06922147
1.06948734
1.069977919
1.070415312
1.071035875
1.071179493
1.070921167
1.065318954
1.065779042
1.066292868
1.066761549
1.067124965
1.06745245
1.067467892
1.06719715
1.066773602
1.06674471
1.066978814
1.067503511
1.068188758
1.068802368
1.069602689
1.070112698
1.070117464
1.069997419
1.069929719
1.069606921
1.069095914
1.068770068
1.068776389
1.068884441
1.069258893
1.069423934
1.069381734
1.069488645
1.069807634
1.07020026
1.070499847
1.070670548
1.070499554
1.06498923
1.065442685
1.065994971
1.066574752
1.067244527
1.067606285
1.067435307
1.066985629
1.066560668
1.066552806
1.066825946
1.067441674
1.068245539
1.068974362
1.069594016
1.069837725
1.069790541
1.069602665
1.069580584
1.06930775
1.068824728
1.068571316
1.068618412
1.068830316
1.069305842
1.06976957
1.069780208
1.069700647
1.069800222
1.069990781
1.070074587
1.070065696
1.069872052
1.064797689
1.065270057
1.065890122
1.066678355
1.067397679
1.067464161
1.067216131
1.06670843
1.066328118
1.066337715
1.066663463
1.067301413
1.068142664
1.069011944
1.069565412
1.069543912
1.069426932
1.069287725
1.06924865
1.06900919
1.068583225
1.068388489
1.068443776
1.068663902
1.069188981
1.069842573
1.070109885
1.07003554
1.069880471
1.069732836
1.069631344
1.069487017
1.06931361
1.064724179
1.06523226
1.065983535
1.066777797
1.067201377
1.067191394
1.066943326
1.06640513
1.066205865
1.066270605
1.066601787
1.067169115
1.068026093
1.068926495
1.0694206
1.069428682
1.069236631
1.069076929
1.069004889
1.068764204
1.068416163
1.068229689
1.068238085
1.068399405
1.068979158
1.069697144
1.070072265
1.070176941
1.070073003
1.069643396
1.069308223
1.069068619
1.068963256
1.064908661
1.065459831
1.066107646
1.06667339
1.066906056
1.066902795
1.0666162
1.066266678
1.066185678
1.066293986
1.066612624
1.067131019
1.067947802
1.068754234
1.069234609
1.069264874
1.069173111
1.06904919
1.068858898
1.068540516
1.068260684
1.068070256
1.067989126
1.068059326
1.068445073
1.069312171
1.069895944
1.070056352
1.070019983
1.069844326
1.069406175
1.068923346
1.068800963
1.065327097
1.065808804
1.06620026
1.066469017
1.066573212
1.066455479
1.066173363
1.066096546
1.066159838
1.066388505
1.066704625
1.067128229
1.067764853
1.06850399
1.068994832
1.069068053
1.069045471
1.069044535
1.068846435
1.068440191
1.068098413
1.067894638
1.067710245
1.067704951
1.067885784
1.068501651
1.069481076
1.069836393
1.069880855
1.069832382
1.069555923
1.069111223
1.068829266
1.065430811
1.065885228
1.066234555
1.066365676
1.066100582
1.065936268
1.065935115
1.06597961
1.066173868
1.066484999
1.066803513
1.067121565
1.067552885
1.068072486
1.068458049
1.068703547
1.068839476
1.068914136
1.068833485
1.068471555
1.067971573
1.067658177
1.067390135
1.067295707
1.067361817
1.067726486
1.068553454
1.069425494
1.069690904
1.069649466
1.069497645
1.069290189
1.06903315
1.065337313
1.065700122
1.066087957
1.066293061
1.066097993
1.065839689
1.065840807
1.065965172
1.066236065
1.066526319
1.066781105
1.067038889
1.067361054
1.06767849
1.067908874
1.068148721
1.068484555
1.068681536
1.068670754
1.06846307
1.067972653
1.067411347
1.067058919
1.066972683
1.067020843
1.067288439
1.067796968
1.06854447
1.069240622
1.069368141
1.069413841
1.069352075
1.069197027
1.065052282
1.065396034
1.065776654
1.065991251
1.065966124
1.065839547
1.065860192
1.066087482
1.06629174
1.066459024
1.066670627
1.066907273
1.067079161
1.067305967
1.067397456
1.067672295
1.068141175
1.068338749
1.068417646
1.068352656
1.068063088
1.0673913
1.066867252
1.066730555
1.066779813
1.067016999
1.067456309
1.067917779
1.068447158
1.069082348
1.069323504
1.069261486
1.069135104
1.06469471
1.064947672
1.065260218
1.065524807
1.065798999
1.065992647
1.066112298
1.066163006
1.066182935
1.066255612
1.066481202
1.066742544
1.066803127
1.066914534
1.067058775
1.067431573
1.067852056
1.068058907
1.068263683
1.068244052
1.06806667
1.067615641
1.067074421
1.066779064
1.066726185
1.066909868
1.067236968
1.067622977
1.067988874
1.068269885
1.068618079
1.068915601
1.068974365
1.064445677
1.064655951
1.064958335
1.065241958
1.065697201
1.066199046
1.06647621
1.066313895
1.066125043
1.066110634
1.066254887
1.066512539
1.066663955
1.066636996
1.066850883
1.067321809
1.067670895
1.06783419
1.067996469
1.068088972
1.067971224
1.067717832
1.067452257
1.067277037
1.067111411
1.067000463
1.067133846
1.067479458
1.067777255
1.067884208
1.068032831
1.068391988
1.068771566
1.064361808
1.06451198
1.064834812
1.065290311
1.065772394
1.066345511
1.066822979
1.066850307
1.06656122
1.066393735
1.066229833
1.066346587
1.066415729
1.06647987
1.066742082
1.067317203
1.067519066
1.06761945
1.067785949
1.067886806
1.067802304
1.067584102
1.067535141
1.067602073
1.067615651
1.06750067
1.0674529
1.067576137
1.067623837
1.067659273
1.067757756
1.067946664
1.068265998
1.064494725
1.064560446
1.064814318
1.065128139
1.065620764
1.066242576
1.066854732
1.067240242
1.067176634
1.06700713
1.06672921
1.066373409
1.066231847
1.066278208
1.066668027
1.067162252
1.067334
1.067463257
1.067600623
1.067673938
1.067553945
1.067404977
1.067487056
1.067674922
1.067832501
1.06790195
1.067908535
1.067803746
1.067612885
1.067548543
1.067599693
1.067756982
1.067860338
1.064730596
1.064637059
1.064732106
1.064930171
1.065325395
1.066006988
1.066676199
1.067118633
1.067277251
1.067236247
1.066924704
1.066474685
1.066138548
1.066088877
1.066417864
1.066873637
1.067177293
1.067413077
1.067478753
1.06746222
1.067314579
1.067201631
1.067289005
1.067515414
1.0677839
1.068050647
1.068266711
1.068171863
1.067888319
1.067758301
1.067675982
1.067619749
1.067558595
1.065012742
1.064912183
1.06467999
1.064656798
1.064761132
1.065066024
1.065584378
1.066279648
1.066858192
1.067052569
1.067038945
1.066916126
1.06663699
1.066178946
1.066045167
1.066190593
1.066519291
1.066990401
1.067331671
1.067401157
1.067301893
1.067097932
1.066999275
1.067078408
1.067385248
1.067851575
1.068220683
1.068370712
1.068339943
1.068147367
1.067991351
1.067868937
1.067671157
1.067269377
1.065046539
1.064964709
1.064716344
1.064530855
1.064575545
1.064743962
1.065145543
1.065788612
1.066431167
1.066900098
1.066995743
1.066976129
1.066844084
1.066338082
1.065960486
1.066008988
1.066274269
1.066763968
1.067243529
1.06736264
1.067181414
1.066944461
1.066882088
1.067056102
1.067425737
1.067817612
1.068145328
1.068335478
1.068355059
1.068255818
1.06812908
1.068001278
1.067696539
1.067117789
1.064927747
1.064867918
1.064656305
1.064418014
1.064264909
1.064346454
1.064733445
1.065401108
1.066222005
1.066900819
1.067104805
1.067160952
1.067037445
1.066496702
1.065880242
1.065888883
1.066139548
1.066603449
1.067111912
1.067311889
1.067202825
1.066910714
1.066864717
1.066973044
1.067138688
1.067451217
1.067932601
1.068222844
1.068263922
1.068201721
1.068118453
1.068040112
1.067697877
1.066965351
1.064760933
1.064792393
1.064540513
1.064248831
1.064170179
1.064232798
1.064564895
1.065299276
1.066250427
1.067034046
1.067237171
1.067308997
1.067095559
1.066504389
1.065894265
1.065881886
1.066122566
1.066509174
1.066933266
1.067226429
1.067146448
1.066997306
1.066954208
1.066888136
1.066871884
1.066984985
1.067325126
1.067753428
1.067942289
1.06798942
1.0679449
1.067851255
1.067691969
1.067372334
1.064661413
1.064564919
1.064319053
1.064040628
1.064016298
1.064163274
1.064524915
1.065284224
1.066512387
1.067275181
1.067357072
1.06732098
1.066997858
1.066433973
1.065903591
1.065879285
1.066141374
1.066465747
1.06673824
1.067056475
1.067113453
1.067100627
1.067068567
1.06690435
1.066738679
1.066697399
1.066833349
1.067099951
1.067287755
1.067401232
1.067461868
1.067513177
1.067527721
1.067388911
1.064499584
1.064298345
1.064022335
1.063879936
1.06392122
1.064225534
1.064741361
1.065556781
1.066560187
1.067124377
1.067179558
1.06708442
1.066670051
1.066238228
1.06586833
1.065863198
1.066102932
1.066412714
1.066569579
1.066824085
1.067082605
1.067167611
1.067136308
1.066976876
1.066682824
1.066509013
1.066484621
1.066564711
1.066651487
1.066699373
1.06679924
1.066975969
1.067201502
1.067338612
)
;

boundaryField
{
    inlet
    {
        type            fixedValue;
        value           nonuniform 0();
    }
    outlet
    {
        type            inletOutlet;
        inletValue      uniform 1;
        value           nonuniform List<scalar> 
69
(
1.079529164
1.079625161
1.079655614
1.079593375
1.079480684
1.079275788
1.078460342
1.077087625
1.075455626
1.073831519
1.072422209
1.071412388
1.070776547
1.070566547
1.070732008
1.071016593
1.071044096
1.070881421
1.070479862
1.069868208
1.069325393
1.068985676
1.068818256
1.068826811
1.069011021
1.069179832
1.069133558
1.068985092
1.068804441
1.068336068
1.067882557
1.067544042
1.067224857
1.067020754
1.066843319
1.067274273
1.067343774
1.067328237
1.020812192
1.020024842
1.020870365
1.022136258
1.022400784
1.022062194
1.021598968
1.022136752
1.023114615
1.023755534
1.024250374
1.024684558
1.025298895
1.026332926
1.027521178
1.028678283
1.029752507
1.03071911
1.031919674
1.033429696
1.035045321
1.036711037
1.038400375
1.040133708
1.042103044
1.044905062
1.049028062
1.054610963
1.061543448
1.068942402
1.076110201
)
;
    }
    bottom
    {
        type            slip;
    }
    top
    {
        type            slip;
    }
    obstacle
    {
        type            zeroGradient;
    }
    defaultFaces
    {
        type            empty;
    }
    procBoundary11to5
    {
        type            processor;
        value           nonuniform List<scalar> 
33
(
0.8380361791
0.8364668598
0.8343828692
0.8309801306
0.829472232
0.8282124904
0.8281508455
0.8301439017
0.8440143189
0.8904488876
0.9506315492
0.9812570129
1.000119295
1.016741408
1.016591821
1.01883387
1.021789088
1.021927414
0.8610069781
0.8579958432
0.8558957139
0.8543248517
0.8523442148
0.849422655
0.8473565459
0.8458599059
0.8441109101
0.8418730822
0.8402286636
0.8391231258
0.8375773845
0.8352683623
0.8352683623
)
;
    }
    procBoundary11to10
    {
        type            processor;
        value           nonuniform List<scalar> 
70
(
0.8571789389
0.8518245684
0.8461128459
0.8406863042
0.835157662
0.8296596662
0.8240917925
0.8189312156
0.813183649
0.8076037055
0.8013057458
0.7966699544
0.8004574977
0.8733858427
0.9894614179
1.01190283
1.026347389
1.033931748
1.034296218
1.03338843
1.033252208
1.035470612
1.037904497
1.039728325
1.041587838
1.044624127
1.050800855
1.059382228
1.068425329
1.076035024
1.079105185
1.078570075
1.077865079
1.077316328
1.07653014
1.075133923
1.07348358
1.071520255
1.069851492
1.068397173
1.067163326
1.066320394
1.065897416
1.065817435
1.0659519
1.066058655
1.066058655
1.065550031
1.065298763
1.06490874
1.064601042
1.064410319
1.064372003
1.064621241
1.065024504
1.065095236
1.064950097
1.064650871