/*--------------------------------*- C++ -*----------------------------------*\
  =========                 |
  \\      /  F ield         | OpenFOAM: The Open Source CFD Toolbox
   \\    /   O peration     | Website:  https://openfoam.org
    \\  /    A nd           | Version:  7
     \\/     M anipulation  |
\*---------------------------------------------------------------------------*/
FoamFile
{
    version     2.0;
    format      ascii;
    class       volVectorField;
    location    "1";
    object      U;
}
// * * * * * * * * * * * * * * * * * * * * * * * * * * * * * * * * * * * * * //

dimensions      [0 1 -1 0 0 0 0];

internalField   nonuniform List<vector> 
2222
(
(3.101776886 0.4575137712 0)
(3.101913483 0.4650628269 0)
(3.102286052 0.4632182973 0)
(3.103928011 0.4720358957 0)
(3.103958972 0.4745977639 0)
(3.103451319 0.4725403738 0)
(3.098366895 0.4502315819 0)
(3.081955474 0.3746989765 0)
(3.067112562 0.2280431935 0)
(3.019334253 0.06235503903 0)
(3.015257665 0.06231927525 0)
(3.002126633 0.02450146942 0)
(2.988474 0.008177462778 0)
(2.985729108 0.008850636979 0)
(2.986690834 0.00666021424 0)
(2.986273484 0.005330934902 0)
(2.984322504 0.007102390613 0)
(2.981499723 0.01008692279 0)
(3.08949835 0.392658423 0)
(3.090432369 0.3950908336 0)
(3.09392634 0.4105364366 0)
(3.093704396 0.4171439932 0)
(3.093667289 0.4149512499 0)
(3.095122667 0.4199917575 0)
(3.097042609 0.4349282507 0)
(3.096744113 0.4399384494 0)
(3.096977456 0.4368432566 0)
(3.097379702 0.4381795108 0)
(3.099614444 0.4517868058 0)
(3.099780515 0.4554991562 0)
(3.099922976 0.4540833112 0)
(3.101763119 0.4601029557 0)
(3.103442962 0.4715793922 0)
(3.103856646 0.4761472591 0)
(3.104321944 0.4748951124 0)
(3.104130354 0.4767160974 0)
(3.101317022 0.4711031863 0)
(3.091839949 0.4277431245 0)
(3.067101423 0.3141929349 0)
(3.045860658 0.1829436841 0)
(3.053242072 0.131352073 0)
(3.010374622 0.05004890341 0)
(2.996558791 0.02237542806 0)
(2.983597097 0.01298545223 0)
(2.97887268 0.01118460735 0)
(2.980904012 0.009596888454 0)
(2.983537891 0.007155792591 0)
(2.985037734 0.003920668917 0)
(2.98437658 0.005275787824 0)
(2.982681099 0.007169477361 0)
(3.091950326 0.4060354854 0)
(3.09358847 0.4107937655 0)
(3.09658971 0.4261756842 0)
(3.096277427 0.432662368 0)
(3.096353585 0.4289915944 0)
(3.097596463 0.4331441889 0)
(3.099098451 0.447179379 0)
(3.098702438 0.4517985698 0)
(3.098199335 0.4480721238 0)
(3.100032318 0.4537507446 0)
(3.10165496 0.4653863699 0)
(3.101864681 0.4694586122 0)
(3.10242187 0.46901839 0)
(3.103427384 0.4730105209 0)
(3.103923765 0.4861141128 0)
(3.106283436 0.485345927 0)
(3.104765709 0.4801262237 0)
(3.099275783 0.460156944 0)
(3.071536152 0.3690926516 0)
(3.059228578 0.2429163146 0)
(3.022940774 0.07121880565 0)
(3.002911422 -0.02876483242 0)
(2.980350301 0.009870985665 0)
(2.986479233 0.007340442914 0)
(2.987935324 0.005124772579 0)
(2.981642886 0.005933609096 0)
(2.976676531 0.007205563255 0)
(2.976984776 0.00885535297 0)
(2.980185868 0.01037852122 0)
(2.981603368 0.009541841288 0)
(2.982836742 0.008553465654 0)
(2.982444874 0.007997164098 0)
(3.094681353 0.4204988048 0)
(3.095833924 0.4239886246 0)
(3.098397467 0.4389593032 0)
(3.098342492 0.4437728602 0)
(3.098419895 0.441044261 0)
(3.100017135 0.4464677204 0)
(3.101361928 0.4606447105 0)
(3.100752418 0.4652883317 0)
(3.100429869 0.4613468584 0)
(3.101751109 0.4660022099 0)
(3.103411726 0.4771857687 0)
(3.103989223 0.4834338513 0)
(3.105039431 0.484154579 0)
(3.105490658 0.4883895849 0)
(3.105042152 0.4899351442 0)
(3.102218131 0.4777985035 0)
(3.087699328 0.417774992 0)
(3.073057706 0.278782368 0)
(3.021089458 0.1026512095 0)
(3.024683614 0.1005355904 0)
(3.000965784 0.04001024897 0)
(2.989262063 0.01101762125 0)
(2.982426322 0.01034399688 0)
(2.982572458 0.008321163586 0)
(2.982872223 0.002502829726 0)
(2.981401316 0.0007234712903 0)
(2.977745229 0.002746552778 0)
(2.976370023 0.007498394985 0)
(2.97796305 0.01058638293 0)
(2.979957829 0.01140101951 0)
(2.980890797 0.01122698351 0)
(2.981553543 0.01012710451 0)
(3.097108287 0.4342682188 0)
(3.098741805 0.4395490273 0)
(3.10107911 0.454709934 0)
(3.101031654 0.4597553806 0)
(3.101114939 0.4568214012 0)
(3.102548977 0.4614864951 0)
(3.103246993 0.4748512292 0)
(3.102999922 0.4763876819 0)
(3.102735944 0.4761497427 0)
(3.103436546 0.4807158638 0)
(3.105174992 0.4943015512 0)
(3.106738117 0.494923897 0)
(3.106420535 0.492768537 0)
(3.104250031 0.4892934736 0)
(3.096826143 0.4603720535 0)
(3.077649015 0.370246459 0)
(3.047763288 0.2123604161 0)
(3.059698381 0.159833501 0)
(3.012615297 0.04804454132 0)
(2.993295632 0.02204748197 0)
(2.981746821 0.0125438083 0)
(2.976530053 0.009097339596 0)
(2.978147796 0.01102787542 0)
(2.980391293 0.00926673189 0)
(2.983265486 0.005845369953 0)
(2.982045191 0.003933887522 0)
(2.979749567 0.005358851957 0)
(2.977966711 0.007013661249 0)
(2.97761139 0.00858433228 0)
(2.978445412 0.01013400819 0)
(2.979503621 0.01125354554 0)
(2.980235073 0.01031977881 0)
(3.099627276 0.449287553 0)
(3.101566995 0.4551771422 0)
(3.102985414 0.4679908908 0)
(3.103031693 0.4715334177 0)
(3.10288408 0.466454968 0)
(3.104330131 0.4720507485 0)
(3.105469104 0.4850305782 0)
(3.104925998 0.4918044541 0)
(3.104375223 0.4893907851 0)
(3.106346029 0.4993744119 0)
(3.106845709 0.5025463693 0)
(3.106277945 0.4990853382 0)
(3.103159451 0.482722165 0)
(3.08239074 0.4097669853 0)
(3.06444158 0.2723316389 0)
(3.040441481 0.118352082 0)
(3.007829628 -0.02563813437 0)
(2.977463192 0.009014501624 0)
(2.987926912 -0.007889980306 0)
(2.989402133 -0.001346254382 0)
(2.983509244 0.001260805048 0)
(2.978288244 0.003461908299 0)
(2.976893744 0.008021640067 0)
(2.979855207 0.01269931576 0)
(2.982040765 0.01228813192 0)
(2.982019084 0.01102161095 0)
(2.98077148 0.009915712041 0)
(2.978635422 0.009158116665 0)
(2.978285857 0.006892562069 0)
(2.978342011 0.006807507166 0)
(2.978535854 0.007655533782 0)
(2.979418088 0.007680877139 0)
(3.102092277 0.4621893243 0)
(3.103248239 0.4669755389 0)
(3.105014441 0.4823012145 0)
(3.10548109 0.4850597309 0)
(3.105711078 0.4834030119 0)
(3.107393877 0.4903548311 0)
(3.10792114 0.502512724 0)
(3.107770835 0.5052903461 0)
(3.107339926 0.5044680329 0)
(3.107097583 0.5065303526 0)
(3.104656087 0.5024591529 0)
(3.091677834 0.4531836459 0)
(3.080163247 0.3202433099 0)
(3.029170692 0.1396165725 0)
(3.033241915 0.1288670701 0)
(3.007560289 0.05442555055 0)
(2.992437389 0.01863965318 0)
(2.979146098 0.01455080558 0)
(2.981119741 0.007392313806 0)
(2.98618632 0.001545489675 0)
(2.986271526 -0.001126443753 0)
(2.981554354 0.000376529382 0)
(2.978699565 0.005264102962 0)
(2.9796372 0.009878784796 0)
(2.981114667 0.01213959833 0)
(2.981204334 0.01221666598 0)
(2.980700864 0.01169262649 0)
(2.979336656 0.01055841922 0)
(2.978643132 0.007297503115 0)
(2.978513833 0.005483562585 0)
(2.978623624 0.005391972557 0)
(2.979230124 0.005425087422 0)
(3.104284267 0.4780212743 0)
(3.106560226 0.4850398124 0)
(3.10731965 0.4958671515 0)
(3.10767516 0.498475967 0)
(3.107889221 0.4961354254 0)
(3.108855661 0.5012171648 0)
(3.108286644 0.515654257 0)
(3.110005864 0.5150229176 0)
(3.108533717 0.5107166369 0)
(3.102176147 0.4880261868 0)
(3.085794224 0.4101336309 0)
(3.050721485 0.2435931823 0)
(3.068085978 0.1810275886 0)
(3.012234723 0.04464495726 0)
(2.989967979 0.01579168538 0)
(2.974706247 0.01049636637 0)
(2.973112439 0.00847082223 0)
(2.973277507 0.01173213859 0)
(2.979281933 0.01203105109 0)
(2.982941682 0.009259060463 0)
(2.984117853 0.006344468447 0)
(2.981667696 0.004350353396 0)
(2.979600896 0.006091648696 0)
(2.97893448 0.008103244953 0)
(2.979717148 0.00988378486 0)
(2.980314426 0.0106232508 0)
(2.980184815 0.01067352228 0)
(2.979810322 0.009814737638 0)
(2.979350196 0.007750179767 0)
(2.978931525 0.005895801694 0)
(2.979042316 0.005403310834 0)
(2.979344396 0.005000863294 0)
(3.106058473 0.4902339428 0)
(3.108539417 0.4980223681 0)
(3.109891694 0.510188121 0)
(3.110252928 0.5156639928 0)
(3.110526309 0.5158574455 0)
(3.111341608 0.5222788387 0)
(3.110316668 0.5227812904 0)
(3.107286189 0.5108658409 0)
(3.090410617 0.4503529804 0)
(3.067935841 0.2942941616 0)
(3.057882888 0.1646204248 0)
(3.013884995 -0.01832494254 0)
(2.976793553 0.006938710588 0)
(2.989857168 -0.009780744551 0)
(2.992640891 -0.00630422482 0)
(2.982196054 -0.0005127513494 0)
(2.97648647 0.003122912946 0)
(2.974717205 0.00683327 0)
(2.977858463 0.01263805603 0)
(2.981610318 0.01267728015 0)
(2.981799925 0.01186831181 0)
(2.980879335 0.009504741013 0)
(2.978920932 0.007978126154 0)
(2.977963112 0.006871028907 0)
(2.978931671 0.006824383926 0)
(2.979281679 0.006959428732 0)
(2.979686165 0.007460530803 0)
(2.980108997 0.00778053302 0)
(2.980234054 0.007351301077 0)
(2.980007875 0.006515413152 0)
(2.979928108 0.006322450643 0)
(2.979565662 0.005628890818 0)
(3.109118972 0.5072036872 0)
(3.110319785 0.5129573527 0)
(3.111886011 0.5269511931 0)
(3.113621165 0.5276363505 0)
(3.111794553 0.525401569 0)
(3.10998382 0.5228694073 0)
(3.098310219 0.4856641237 0)
(3.080810889 0.3670405522 0)
(3.0368699 0.1907668842 0)
(3.04273017 0.1486071077 0)
(3.015408519 0.06549176883 0)
(2.998566607 0.0269509771 0)
(2.985534805 0.01710025672 0)
(2.983167075 0.01120700096 0)
(2.987519759 0.005129011182 0)
(2.986080031 0.002642400285 0)
(2.981567181 0.001771276031 0)
(2.979443278 0.004775580159 0)
(2.979724249 0.007442867706 0)
(2.981576536 0.008722142205 0)
(2.98080926 0.01014698493 0)
(2.980049548 0.01011867936 0)
(2.978605323 0.009119958723 0)
(2.977444518 0.007648008946 0)
(2.977950146 0.006527627242 0)
(2.978294147 0.006330511281 0)
(2.979153121 0.006328469829 0)
(2.980137971 0.00652445413 0)
(2.980809822 0.006650400302 0)
(2.98088862 0.006121204963 0)
(2.980700643 0.006154675027 0)
(2.979717978 0.00552793301 0)
(3.111125217 0.5227958733 0)
(3.113258017 0.5353429583 0)
(3.114100647 0.5381491639 0)
(3.113665763 0.5348121421 0)
(3.108715285 0.5139164302 0)
(3.094631179 0.4482455533 0)
(3.056142023 0.2772318658 0)
(3.060004388 0.1922094446 0)
(3.004274631 0.01365949717 0)
(2.98121839 -0.01023445247 0)
(2.968943338 0.01150802138 0)
(2.972321383 0.009490548085 0)
(2.975018562 0.01094545424 0)
(2.979681532 0.01386126613 0)
(2.983772222 0.01208525744 0)
(2.984542296 0.01006366029 0)
(2.983475309 0.006723717071 0)
(2.980772068 0.004890003718 0)
(2.980218736 0.005578982001 0)
(2.980364225 0.006151846634 0)
(2.980336084 0.007347431438 0)
(2.979797628 0.009057426305 0)
(2.978932953 0.009168483645 0)
(2.977825541 0.008403299844 0)
(2.97750657 0.00773894107 0)
(2.977771469 0.007504236116 0)
(2.978648363 0.00728595508 0)
(2.979892741 0.007029911121 0)
(2.980512247 0.006336100664 0)
(2.980842465 0.005449409508 0)
(2.980772339 0.005061053578 0)
(2.979626173 0.004775089068 0)
(3.114047602 0.5392597704 0)
(3.113655308 0.542207487 0)
(3.111175464 0.5376456379 0)
(3.096895519 0.4843553973 0)
(3.07474938 0.3336737061 0)
(3.060486923 0.1717417078 0)
(3.018365141 -0.01326778854 0)
(2.986942652 0.02489691834 0)
(2.996076232 0.005017153872 0)
(2.98476767 -0.001640201464 0)
(2.974657452 0.002998803743 0)
(2.975593946 0.003283703071 0)
(2.976324124 0.005938615201 0)
(2.97848851 0.01245109436 0)
(2.98161223 0.01488438393 0)
(2.982159844 0.01394851048 0)
(2.9811966 0.01091302206 0)
(2.979380618 0.007474217816 0)
(2.979087464 0.00623436469 0)
(2.979304206 0.006467472201 0)
(2.979732901 0.007201498 0)
(2.980007708 0.008395413058 0)
(2.979870723 0.008789112871 0)
(2.97901755 0.008790071966 0)
(2.978135154 0.008583702286 0)
(2.977831512 0.008702119312 0)
(2.978324365 0.008323199991 0)
(2.979436123 0.007306008391 0)
(2.979952867 0.006149915736 0)
(2.980037666 0.004623457686 0)
(2.980057864 0.003930335245 0)
(2.979000172 0.003840449877 0)
(3.115085023 0.5470318593 0)
(3.104582187 0.5135215414 0)
(3.08677592 0.405975113 0)
(3.045918263 0.2321865994 0)
(3.044598141 0.1627529453 0)
(3.027811645 0.07679522718 0)
(3.00369406 0.02765569648 0)
(2.989319389 0.02284470644 0)
(2.9837637 0.0187967829 0)
(2.984016238 0.0106270021 0)
(2.982581895 0.0062715562 0)
(2.980483136 0.001358524328 0)
(2.979722343 0.00363608819 0)
(2.979824373 0.005869850757 0)
(2.980578306 0.008071447267 0)
(2.98127122 0.009012119227 0)
(2.979369023 0.009619581994 0)
(2.978042807 0.00890143773 0)
(2.977478253 0.007713566401 0)
(2.978303932 0.007735671064 0)
(2.97886018 0.008098886631 0)
(2.979630772 0.008725147032 0)
(2.980241913 0.008487907928 0)
(2.980020465 0.008190479864 0)
(2.97914593 0.008131445271 0)
(2.978295545 0.007866110336 0)
(2.978136948 0.007942221036 0)
(2.978532066 0.0071323819 0)
(2.979098044 0.005564793393 0)
(2.978854863 0.003963773308 0)
(2.97893024 0.002909254303 0)
(2.978041374 0.002819773437 0)
(3.100698351 0.480093574 0)
(3.056926168 0.2948052946 0)
(3.058520273 0.1921610575 0)
(3.00183611 0.0006079961607 0)
(2.982166211 -0.02244578194 0)
(2.969208373 0.0117116174 0)
(2.97298627 0.01158748233 0)
(2.975864868 0.0119914266 0)
(2.980366002 0.01446685451 0)
(2.981412572 0.01246251351 0)
(2.981473593 0.0107726656 0)
(2.981183105 0.007516512862 0)
(2.979790988 0.004439317982 0)
(2.979696215 0.004237863952 0)
(2.979715797 0.004783068039 0)
(2.97978123 0.005777967729 0)
(2.978673362 0.007924462863 0)
(2.977575072 0.008970861631 0)
(2.976651933 0.008847877342 0)
(2.977049766 0.009210859686 0)
(2.978146213 0.009304876402 0)
(2.978887256 0.00919624739 0)
(2.979959945 0.008666478866 0)
(2.979922236 0.00723434377 0)
(2.979430382 0.006585986121 0)
(2.978489717 0.006442757114 0)
(2.977699828 0.006165191685 0)
(2.977485093 0.005736792685 0)
(2.977574176 0.00477796258 0)
(2.97763034 0.003302267872 0)
(2.977664014 0.002463684233 0)
(2.976905665 0.002326951265 0)
(3.057371647 0.167380932 0)
(3.017118154 0.003925538772 0)
(2.996178283 0.0426084409 0)
(2.992220443 0.01293379085 0)
(2.980916508 -8.198894161e-05 0)
(2.973490208 0.004576097488 0)
(2.973753419 0.005976062197 0)
(2.974912708 0.007580941497 0)
(2.976863265 0.009765371741 0)
(2.978727939 0.01138127852 0)
(2.979139192 0.01195889653 0)
(2.978969859 0.01053987089 0)
(2.978777283 0.007542453241 0)
(2.97836803 0.006131772883 0)
(2.978907434 0.006633288597 0)
(2.978891553 0.007203415925 0)
(2.978500286 0.008156737331 0)
(2.977705849 0.008606804965 0)
(2.97669298 0.008950644043 0)
(2.976382843 0.009321044287 0)
(2.977169178 0.009220854517 0)
(2.978022529 0.008526613362 0)
(2.978864281 0.007772197543 0)
(2.979207499 0.006424124827 0)
(2.978744569 0.005233936777 0)
(2.978201671 0.00486174709 0)
(2.977358094 0.004562302608 0)
(2.976818484 0.00423677334 0)
(2.976541957 0.003707177104 0)
(2.976391589 0.002840851199 0)
(2.976307381 0.002324571602 0)
(2.975738786 0.002156175 0)
(3.030863164 0.0820379074 0)
(3.003728587 0.02507839651 0)
(2.987181773 0.02344055649 0)
(2.979824849 0.01516705502 0)
(2.979645257 0.01082124472 0)
(2.977886803 0.00678917715 0)
(2.976556652 0.003537753873 0)
(2.977071276 0.001352082238 0)
(2.977447589 0.002169757638 0)
(2.977631439 0.004121262776 0)
(2.978191164 0.006717725488 0)
(2.977527328 0.0100198247 0)
(2.977684211 0.00959297422 0)
(2.977599955 0.008970395712 0)
(2.977863724 0.009007587987 0)
(2.978032555 0.009206934693 0)
(2.978142631 0.009314954802 0)
(2.977685919 0.009171904315 0)
(2.97694454 0.007939808445 0)
(2.976392963 0.007408249743 0)
(2.97628873 0.007161713798 0)
(2.97675055 0.006835325593 0)
(2.97751148 0.005991025735 0)
(2.977772939 0.004853712986 0)
(2.977773795 0.004365412708 0)
(2.977238377 0.004078813851 0)
(2.976367591 0.003858712914 0)
(2.97563538 0.003495837907 0)
(2.975353427 0.002985453722 0)
(2.97510041 0.002344391684 0)
(2.974869298 0.002145288723 0)
(2.974539593 0.002215618974 0)
(2.966716308 0.01032037546 0)
(2.972840043 0.009524864396 0)
(2.976915027 0.009309206669 0)
(2.977921271 0.01431727697 0)
(2.976782219 0.01219392738 0)
(2.976576127 0.01006092952 0)
(2.976258547 0.006222986487 0)
(2.976162061 0.001968447467 0)
(2.976514408 0.001919140549 0)
(2.976659299 0.003306856319 0)
(2.9773713 0.00596237899 0)
(2.977867187 0.007929839083 0)
(2.977046721 0.009148007829 0)
(2.976594349 0.00956584102 0)
(2.976187992 0.01015506698 0)
(2.976550025 0.01021467212 0)
(2.97693493 0.009834271716 0)
(2.977020343 0.009234511453 0)
(2.976503652 0.007679051005 0)
(2.976075819 0.006049300341 0)
(2.975814628 0.00512358543 0)
(2.975862161 0.004620979463 0)
(2.976172754 0.004006928411 0)
(2.97650926 0.003332056234 0)
(2.976362325 0.003327699038 0)
(2.975657521 0.003561644681 0)
(2.974773371 0.003514652755 0)
(2.974123447 0.003293680226 0)
(2.973714332 0.002479725637 0)
(2.973605367 0.002101384736 0)
(2.973484175 0.001843208315 0)
(2.973458599 0.002106911725 0)
(2.970848337 0.003736460613 0)
(2.971792907 0.004223884645 0)
(2.974058853 0.003773507294 0)
(2.975094841 0.005396968144 0)
(2.975619552 0.007749127198 0)
(2.974986941 0.009766078716 0)
(2.974861091 0.008376301917 0)
(2.974597399 0.005496723797 0)
(2.975361787 0.005364589284 0)
(2.975945681 0.006130581697 0)
(2.976931382 0.007768674631 0)
(2.977457374 0.0084152192 0)
(2.976917866 0.008328999573 0)
(2.975664735 0.008721933223 0)
(2.974800601 0.009355257267 0)
(2.97479083 0.009740718775 0)
(2.975102244 0.009738892274 0)
(2.975753995 0.009094060913 0)
(2.975606741 0.007665122419 0)
(2.975372292 0.006419330363 0)
(2.974919901 0.005246735919 0)
(2.97492019 0.004346682851 0)
(2.974991266 0.003294513337 0)
(2.974954919 0.002570229257 0)
(2.974623863 0.002465247247 0)
(2.974026568 0.002762895734 0)
(2.973300925 0.002910992732 0)
(2.972562572 0.003031026705 0)
(2.972317594 0.003024374359 0)
(2.972164764 0.00268941679 0)
(2.972360239 0.00245855507 0)
(2.97253128 0.00253074258 0)
(2.974447195 0.005494851908 0)
(2.973733557 0.001087493254 0)
(2.974762282 -0.0004852542598 0)
(2.974813736 0.0009388905951 0)
(2.975136793 0.003655981191 0)
(2.975632118 0.006341225977 0)
(2.974095624 0.008682124411 0)
(2.973847754 0.008600325166 0)
(2.973756276 0.009024744009 0)
(2.97443965 0.009853164839 0)
(2.975449974 0.01025661414 0)
(2.975933701 0.01005702248 0)
(2.976093804 0.008577813613 0)
(2.974900735 0.007158593832 0)
(2.973742439 0.006884962655 0)
(2.973639365 0.00692987559 0)
(2.973721463 0.006924222174 0)
(2.973966382 0.006845921149 0)
(2.974107076 0.006831585518 0)
(2.974076496 0.006861749818 0)
(2.973685802 0.006063995925 0)
(2.973532249 0.0050954345 0)
(2.97328656 0.003814707872 0)
(2.972884001 0.002747019946 0)
(2.972534352 0.00244883311 0)
(2.972234027 0.002447172446 0)
(2.971413649 0.002717365509 0)
(2.971057259 0.002811732251 0)
(2.970925451 0.002859913873 0)
(2.970987376 0.002741809252 0)
(2.971403042 0.002805010971 0)
(2.971571533 0.002846015189 0)
(2.973222548 0.008814868615 0)
(2.972695712 0.004451483031 0)
(2.972927437 0.002444932361 0)
(2.97329244 0.003202068838 0)
(2.97409481 0.00595574573 0)
(2.974745162 0.007139996823 0)
(2.973873357 0.007704106942 0)
(2.972885034 0.008069504648 0)
(2.972172677 0.008702174032 0)
(2.972406472 0.009508602039 0)
(2.973527469 0.01024053526 0)
(2.974025979 0.009933333288 0)
(2.974330703 0.008876869849 0)
(2.973577293 0.007647477643 0)
(2.972509015 0.006428943519 0)
(2.972286091 0.006083049557 0)
(2.972150932 0.00587090282 0)
(2.972050761 0.005842088956 0)
(2.971993408 0.006335337509 0)
(2.971955143 0.006635464686 0)
(2.97163751 0.006312345248 0)
(2.971251689 0.005741964315 0)
(2.970853668 0.004751667947 0)
(2.97040597 0.003450885918 0)
(2.970493981 0.002606083442 0)
(2.970512858 0.00246421412 0)
(2.969916244 0.002597627928 0)
(2.969719822 0.002833035104 0)
(2.969762262 0.003341131691 0)
(2.969827779 0.003526811438 0)
(2.970299696 0.003433715013 0)
(2.970390014 0.003306347273 0)
(2.971788846 0.008535499265 0)
(2.971159242 0.007362332061 0)
(2.970917109 0.006853896367 0)
(2.971485133 0.007732664961 0)
(2.972421426 0.009374768602 0)
(2.972931701 0.01025196317 0)
(2.972798326 0.009192267677 0)
(2.971351429 0.007369384941 0)
(2.970706248 0.007369898667 0)
(2.970384919 0.007755883527 0)
(2.970937403 0.008538016219 0)
(2.971764124 0.008919086717 0)
(2.972213387 0.008526144161 0)
(2.971533603 0.008078082746 0)
(2.970821662 0.007491050997 0)
(2.970424386 0.007098750642 0)
(2.970111392 0.006541868782 0)
(2.969811845 0.00560959758 0)
(2.969676382 0.005476713746 0)
(2.969501504 0.005862261971 0)
(2.969163148 0.006168065213 0)
(2.968792064 0.006051410877 0)
(2.968459942 0.005402545148 0)
(2.96835154 0.004467218382 0)
(2.968618976 0.003545275827 0)
(2.968721206 0.003182152505 0)
(2.968292922 0.003125771984 0)
(2.9679785 0.003025517634 0)
(2.967982081 0.003083905175 0)
(2.96823842 0.003124467928 0)
(2.968493849 0.003180412823 0)
(2.968775956 0.003116558313 0)
(2.971490198 0.005498918154 0)
(2.969631354 0.007266386584 0)
(2.96876288 0.008189563211 0)
(2.968748669 0.009949776815 0)
(2.969026699 0.01142224576 0)
(2.969551754 0.01164991304 0)
(2.970060301 0.01074139546 0)
(2.969257949 0.008177433889 0)
(2.968038035 0.006450347577 0)
(2.967866695 0.006293888556 0)
(2.968143074 0.00655040898 0)
(2.968904692 0.007404905062 0)
(2.969408217 0.008126230268 0)
(2.969126275 0.008671950707 0)
(2.968338901 0.008500883212 0)
(2.967735905 0.008196008181 0)
(2.967324683 0.007520021892 0)
(2.967054562 0.006734103085 0)
(2.96683797 0.005896175787 0)
(2.966818681 0.00542256446 0)
(2.966546713 0.005085136736 0)
(2.96636631 0.004788690936 0)
(2.966192259 0.004280270008 0)
(2.966220372 0.003598411326 0)
(2.966344363 0.003289587886 0)
(2.96628597 0.00328047078 0)
(2.966062339 0.003629583253 0)
(2.965991379 0.003950419634 0)
(2.966163316 0.003932157508 0)
(2.966341848 0.003820918397 0)
(2.966485916 0.003465975366 0)
(2.966739748 0.002993671631 0)
(2.968913548 0.006222433002 0)
(2.967545488 0.005370790434 0)
(2.966347 0.006237129434 0)
(2.965910576 0.007125623231 0)
(2.966096065 0.009007736374 0)
(2.966428168 0.0100357143 0)
(2.966826499 0.009993283266 0)
(2.966312081 0.009221858077 0)
(2.965582122 0.008555305159 0)
(2.965389105 0.008379244011 0)
(2.965590324 0.0083346961 0)
(2.966156799 0.008279990992 0)
(2.966435046 0.008362729759 0)
(2.96606968 0.008291318422 0)
(2.965450384 0.008087516404 0)
(2.964784844 0.007485419031 0)
(2.964323878 0.006398486727 0)
(2.964168173 0.00501515316 0)
(2.964216815 0.004083746142 0)
(2.964022826 0.00400605645 0)
(2.963797179 0.00417167394 0)
(2.963837199 0.004347317161 0)
(2.963855396 0.004049598797 0)
(2.963918962 0.003655038607 0)
(2.96399253 0.003443453985 0)
(2.963950273 0.003348213556 0)
(2.963886977 0.003339876245 0)
(2.963969368 0.003151725948 0)
(2.96423145 0.002619566098 0)
(2.964382421 0.002311197137 0)
(2.964452738 0.002151587679 0)
(2.96454153 0.002182121831 0)
(2.964779331 0.008494143981 0)
(2.964886681 0.00625554562 0)
(2.963879271 0.004870329675 0)
(2.963584993 0.00558129694 0)
(2.963655176 0.006293577339 0)
(2.96347631 0.008083062336 0)
(2.963657644 0.009205979671 0)
(2.963298806 0.009500182095 0)
(2.962687822 0.00951893795 0)
(2.962419981 0.009229070489 0)
(2.962700327 0.008805043603 0)
(2.96323881 0.008476690639 0)
(2.963411053 0.008144530158 0)
(2.96292427 0.007485541716 0)
(2.962542491 0.006930726662 0)
(2.961852699 0.006338694737 0)
(2.961209918 0.005229829596 0)
(2.961150316 0.004120436976 0)
(2.961328369 0.003498430475 0)
(2.961370184 0.003358968732 0)
(2.961371439 0.003516584466 0)
(2.961559709 0.003477950729 0)
(2.961780312 0.003094476259 0)
(2.961875404 0.002647355744 0)
(2.961959704 0.002310654136 0)
(2.962003617 0.002161939332 0)
(2.962001545 0.002387999377 0)
(2.961937203 0.002651961241 0)
(2.9619655 0.002582717582 0)
(2.961997244 0.002478385857 0)
(2.962038876 0.002128965935 0)
(2.962240493 0.002015802749 0)
(2.961216414 0.009820698108 0)
(2.962258121 0.007935841864 0)
(2.961652068 0.006095072451 0)
(2.960916773 0.006055197537 0)
(2.960690365 0.006365913953 0)
(2.960536196 0.007422515855 0)
(2.960722217 0.008483990679 0)
(2.960660047 0.009346797509 0)
(2.960292788 0.009834202026 0)
(2.960124183 0.009852151869 0)
(2.96031248 0.009367223025 0)
(2.960740333 0.008515139937 0)
(2.960790034 0.007643817698 0)
(2.960477099 0.006484509722 0)
(2.960148654 0.005832598063 0)
(2.959384021 0.004977473772 0)
(2.958706721 0.003527152277 0)
(2.958652201 0.002453813737 0)
(2.958933291 0.001800377377 0)
(2.959241079 0.001540752301 0)
(2.95931189 0.00207521025 0)
(2.959467827 0.002394508315 0)
(2.959659155 0.002011597975 0)
(2.959961072 0.00142084416 0)
(2.960128254 0.00101488684 0)
(2.960353234 0.001188991872 0)
(2.96058311 0.001726981001 0)
(2.960452821 0.002322628024 0)
(2.960198387 0.002617913822 0)
(2.960089338 0.002517621739 0)
(2.959948464 0.002220025132 0)
(2.960044229 0.001956252289 0)
(2.960462697 0.009622127778 0)
(2.960882149 0.009414282438 0)
(2.960026115 0.008865557041 0)
(2.959153707 0.008842440265 0)
(2.958440361 0.009105412858 0)
(2.958225205 0.009177671519 0)
(2.958534431 0.008856853334 0)
(2.958858298 0.008357642792 0)
(2.959046236 0.007957954418 0)
(2.959171069 0.007518184057 0)
(2.959346143 0.007093364906 0)
(2.959512098 0.006563095257 0)
(2.95940131 0.005897511812 0)
(2.959158616 0.005294522999 0)
(2.958506405 0.004996543129 0)
(2.957614865 0.004647066712 0)
(2.9569372 0.003818156973 0)
(2.956697737 0.00288419774 0)
(2.956716278 0.001658188029 0)
(2.95698605 0.000813115136 0)
(2.957288139 0.000607394066 0)
(2.95762779 0.0005958962565 0)
(2.958210638 0.0002282143863 0)
(2.958480584 0.000224960667 0)
(2.958902332 0.0004315257802 0)
(2.959366586 0.0009799536637 0)
(2.959776392 0.002156360163 0)
(2.959564698 0.003529098767 0)
(2.959055475 0.004276187124 0)
(2.958778077 0.004337241513 0)
(2.958371109 0.004096860346 0)
(2.95794469 0.003079398172 0)
(2.960626882 0.007363011694 0)
(2.960681245 0.00870678449 0)
(2.959408637 0.009449670453 0)
(2.957817356 0.009486741915 0)
(2.95680103 0.009036431903 0)
(2.95687704 0.008118984133 0)
(2.957207959 0.00716299674 0)
(2.957769788 0.006112567891 0)
(2.958355822 0.005379406132 0)
(2.9586617 0.005000553545 0)
(2.958929361 0.004562279432 0)
(2.959006758 0.004196943658 0)
(2.958818963 0.003870473038 0)
(2.958317361 0.003887859969 0)
(2.957475602 0.004190056403 0)
(2.956437081 0.003825895661 0)
(2.955542989 0.002463582779 0)
(2.955201541 0.001060411118 0)
(2.955183789 -0.0003935454051 0)
(2.955316848 -0.0003296569173 0)
(2.955603226 0.0002225262992 0)
(2.956223427 0.000942231388 0)
(2.956831579 0.001296420373 0)
(2.957331173 0.001430072021 0)
(2.957816989 0.001323135475 0)
(2.95839285 0.0012782362 0)
(2.95865977 0.001507218433 0)
(2.958247608 0.001829965436 0)
(2.95780773 0.002002224177 0)
(2.957273818 0.002204763378 0)
(2.956562268 0.002366327392 0)
(2.95586921 0.002180799718 0)
(2.960193824 0.007363522928 0)
(2.959812816 0.009179653587 0)
(2.95864845 0.01038349242 0)
(2.957032729 0.01074536837 0)
(2.95593387 0.01048174387 0)
(2.955498438 0.009453006779 0)
(2.955856262 0.007509469199 0)
(2.95629781 0.005273006392 0)
(2.957054361 0.003838005021 0)
(2.957710718 0.003143334998 0)
(2.957933419 0.002702474263 0)
(2.957743265 0.00240072304 0)
(2.957318213 0.002293486863 0)
(2.956697509 0.002499042509 0)
(2.955792295 0.003151249188 0)
(2.954704009 0.003874997607 0)
(2.953695002 0.004031756675 0)
(2.953257995 0.003591091231 0)
(2.953273884 0.003237937142 0)
(2.953436949 0.002768610344 0)
(2.953643566 0.002529020742 0)
(2.954440086 0.002280912652 0)
(2.954805843 0.002146130763 0)
(2.955151711 0.001981337039 0)
(2.955521405 0.001534487988 0)
(2.955931819 0.0009818893488 0)
(2.956099575 0.0008143771172 0)
(2.955745337 0.001011228937 0)
(2.955306487 0.001209423226 0)
(2.954858712 0.001621278979 0)
(2.954120216 0.002332046268 0)
(2.953296969 0.002500767995 0)
(2.95591324 0.007955261364 0)
(2.955612226 0.00831290043 0)
(2.954919062 0.00840477156 0)
(2.953853734 0.007909297337 0)
(2.953283711 0.007625270372 0)
(2.95274488 0.006758338025 0)
(2.952746118 0.005272576053 0)
(2.953095688 0.004171773053 0)
(2.95340842 0.003796067096 0)
(2.953661892 0.003576110399 0)
(2.953789129 0.002907817993 0)
(2.953418011 0.002127199292 0)
(2.952779209 0.001270803119 0)
(2.952201067 0.001377002058 0)
(2.951476988 0.00200990741 0)
(2.950694635 0.002881251819 0)
(2.949999481 0.003109637649 0)
(2.949785803 0.002979652914 0)
(2.949877901 0.002432996115 0)
(2.949940964 0.002096042826 0)
(2.950316545 0.002306669659 0)
(2.950584351 0.002488734558 0)
(2.950765929 0.002566515507 0)
(2.950847769 0.002353322398 0)
(2.950847944 0.001799072576 0)
(2.950896258 0.001454267046 0)
(2.950888497 0.00118514174 0)
(2.95085113 0.0007702425771 0)
(2.950780292 0.0004824764362 0)
(2.950503667 0.0004937817083 0)
(2.950124515 0.000595606302 0)
(2.949469896 0.0009313903988 0)
(2.945834033 0.009258216144 0)
(2.946062195 0.009035622857 0)
(2.946282359 0.008216984618 0)
(2.946319065 0.007347957849 0)
(2.94637409 0.006977345161 0)
(2.946291761 0.005804753246 0)
(2.946128265 0.004500985117 0)
(2.945802034 0.003574549217 0)
(2.945338459 0.003064432518 0)
(2.944988335 0.003081585443 0)
(2.94500512 0.003337506214 0)
(2.944368895 0.002605257229 0)
(2.944012227 0.00251220478 0)
(2.943623988 0.002440805662 0)
(2.943369476 0.002887870533 0)
(2.943305899 0.003532151571 0)
(2.943648001 0.004087099755 0)
(2.94388515 0.00398458075 0)
(2.944236676 0.003415941035 0)
(2.944389202 0.002257136413 0)
(2.944422352 0.001149301715 0)
(2.944194695 0.0006406245855 0)
(2.944015741 0.000725261193 0)
(2.943731059 0.001022107823 0)
(2.943253052 0.001512788437 0)
(2.942977388 0.002359767577 0)
(2.94293491 0.002870425828 0)
(2.943024695 0.003178105582 0)
(2.943294878 0.003114063287 0)
(2.943577954 0.002953827072 0)
(2.943646154 0.00238621889 0)
(2.943383675 0.001580758231 0)
(2.931534897 0.007334007783 0)
(2.932387599 0.006533097406 0)
(2.933939587 0.005459011984 0)
(2.935239989 0.005181028778 0)
(2.93622678 0.004615524499 0)
(2.936587054 0.003581815061 0)
(2.935946899 0.002630221219 0)
(2.934823703 0.002144725663 0)
(2.933731723 0.002020450743 0)
(2.9329599 0.00211584732 0)
(2.93227836 0.002184483187 0)
(2.932096636 0.002355810971 0)
(2.931844936 0.002294388104 0)
(2.931799931 0.002719820695 0)
(2.932454432 0.002846182726 0)
(2.933189179 0.002990710385 0)
(2.934468181 0.002872393102 0)
(2.935686048 0.002283612356 0)
(2.936376052 0.001103266854 0)
(2.936818424 1.618599833e-06 0)
(2.93631498 -0.0001874533691 0)