/*--------------------------------*- C++ -*----------------------------------*\
  =========                 |
  \\      /  F ield         | OpenFOAM: The Open Source CFD Toolbox
   \\    /   O peration     | Website:  https://openfoam.org
    \\  /    A nd           | Version:  7
     \\/     M anipulation  |
\*---------------------------------------------------------------------------*/
FoamFile
{
    version     2.0;
    format      ascii;
    class       volScalarField;
    location    "0.3";
    object      T;
}
// * * * * * * * * * * * * * * * * * * * * * * * * * * * * * * * * * * * * * //

dimensions      [0 0 0 1 0 0 0];

internalField   nonuniform List<scalar> 
2222
(
1
1
1
1
1
1
1
1
1
1
1
1
1
1
1
1
1
1
1
1
1
1
1
1
1
1
1
1
1
1
1
1
1
1
1
1
1
1
1
1
1
1
1
1
1
1
1
1
1
1
1
1
1
1
1
1
1
1
1
1
1
1
1
1
1
1
1
1
1
1
1
1
1
1
1
1
1
1
1
1
1
1
1
1
1
1
1
1
1
1
1
1
1
1
1
1
1
1
1
1
1
1
1
1
1
1
1
1
1
1
1
1
1
1
1
1
1
1
1
1
1
1
1
1
1
1
1
1
1
1
1
1
1
1
1
1
1
1
1
1
1
1
1
1
1
1
1
1
1
1
1
1
1
1
1
1
1
1
1
1
1
1
1
1
1
1
1
1
1
1
1
1
1
1
1
1
1
1
1
1
1
1
1
1
1
1
1
1
1
1
1
1
1
1
1
1
1
1
1
1
1
1
1
1
1
1
1
1
1
1
1
1
1
1
1
1
1
1
1
1
1
1
1
1
1
1
1
1
1
1
1
1
1
1
1
1
1
1
1
1
1
1
1
1
1
1
1
1
1
1
1
1
1
1
1
1
1
1
1
1
1
1
1
1
1
1
1
1
1
1
1
1
1
1
1
1
1
1
1
1
1
1
1
1
1
1
1
1
1
1
1
1
1
1
1
1
1
1
1
1
1
1
1
1
1
1
1
1
1
1
1
1
1
1
1
1
1
1
1
1
1
1
1
1
1
1
1
1
1
1
1
1
1
1
1
1
1
1
1
1
1
1
1
1
1
1
1
1
1
1
1
1
1
1
1
1
1
1
1
1
1
1
1
1
1
1
1
1
1
1
1
1
1
1
1
1
1
1
1
1
1
1
1
1
1
1
1
1
1
1
1
1
1
1
1
1
1
1
1
1
1
1
1
1
1
1
1
1
1
1
1
1
1
1
1
1
1
1
1
1
1
1
1
1
1
1
1
1
1
1
1
1
1
1
1
1
1
1
1
1
1
1
1
1
1
1
1
1
1.000000378
1.000000111
1.000000019
1.000000002
1
1
1
1
1
1
1
1
1
1
1
1
1
1
1
1
1
1
1
1
1
1
1
1
1
1
1
1
1.000120363
1.000052154
1.000015919
1.000003196
1.000000382
1.000000024
1.000000001
1
1
1
1
1
1
1
1
1
1
1
1
1
1
1
1
1
1
1
1
1
1
1
1
1
1.004633937
1.002750649
1.001311894
1.000475331
1.000120752
1.000019223
1.000001654
1.000000064
1.000000001
1
1
1
1
1
1
1
1
1
1
1
1
1
1
1
1
1
1
1
1
1
1
1
1.033499634
1.025281957
1.016890932
1.009564393
1.004323741
1.001435598
1.000311862
1.000037986
1.000002135
1.000000044
1
1
1
1
1
1
1
1
1
1
1
1
1
1
1
1
1
1
1
1
1
1
1.078073702
1.068280389
1.05652095
1.043108051
1.029118261
1.016436704
1.007125441
1.00210725
1.000362466
1.000029521
1.000000887
1.000000007
1
1
1
1
1
1
1
1
1
1
1
1
1
1
1
1
1
1
1
1
1.103209029
1.096508466
1.088395272
1.078320245
1.06580256
1.050861452
1.034438608
1.0188504
1.007383568
1.001750832
1.000202553
1.000008761
1.000000105
1
1
1
1
1
1
1
1
1
1
1
1
1
1
1
1
1
1
1
1.11108641
1.106323837
1.100757076
1.094291758
1.086585502
1.077099135
1.065055195
1.05001432
1.032653552
1.016124479
1.005070223
1.000805557
1.000048746
1.000000814
1.000000003
1
1
1
1
1
1
1
1
1
1
1
1
1
1
1
1
1
1.110444982
1.105737431
1.101730327
1.097987389
1.093357132
1.087677625
1.080493305
1.071404071
1.059422341
1.043709105
1.025626201
1.010130718
1.002114146
1.000171783
1.000003843
1.000000016
1
1
1
1
1
1
1
1
1
1
1
1
1
1
1
1
1.109579176
1.106191804
1.102404153
1.097828855
1.092728865
1.087541029
1.082488325
1.07713269
1.070871233
1.062475292
1.049976848
1.033151522
1.015602385
1.0040595
1.000420898
1.000011994
1.000000064
1
1
1
1
1
1
1
1
1
1
1
1
1
1
1
1.102327033
1.099983421
1.097310445
1.094442272
1.091749945
1.088456751
1.084547047
1.080379062
1.075989391
1.070836013
1.063727153
1.053097733
1.038061411
1.020194919
1.006183624
1.000774186
1.00002663
1.000000166
1
1
1
1
1
1
1
1
1
1
1
1
1
1
1.093376803
1.090497644
1.088241343
1.086566571
1.085169236
1.083875365
1.082236562
1.079490993
1.075318533
1.070194627
1.065295381
1.060050743
1.052409252
1.039959686
1.023068156
1.007931789
1.001137067
1.000044449
1.000000305
1
1
1
1
1
1
1
1
1
1
1
1
1
1.087616221
1.084463749
1.081610415
1.079216684
1.07715836
1.075358833
1.073862886
1.072767186
1.07185095
1.070270508
1.067566678
1.064203775
1.059576985
1.052222086
1.040493713
1.02444171
1.008998391
1.001393508
1.000058099
1.000000412
1.000000001
1
1
1.000000001
1.000000001
1.000000001
1
1
1
1
1
1
1.082031012
1.078874672
1.076128221
1.073760918
1.071563773
1.069443301
1.06739188
1.065769346
1.065520229
1.065921034
1.065840707
1.063671658
1.059141661
1.054047551
1.048189827
1.038728787
1.024177625
1.009200644
1.001466196
1.000061519
1.000000421
1.000000001
1.000000001
1.000000001
1.000000001
1.000000001
1.000000001
1.000000001
1
1
1
1
1.077286096
1.074336713
1.071614044
1.069077676
1.066744566
1.064453739
1.062091338
1.059840926
1.058190574
1.057929195
1.058192963
1.058405078
1.058081162
1.05620249
1.052805698
1.047116504
1.037178859
1.02301706
1.008714932
1.00135819
1.000053643
1.000000329
1.000000001
1.000000001
1.000000002
1.000000002
1.000000002
1.000000001
1.000000001
1
1
1
1.072278075
1.069249375
1.066544944
1.064175351
1.062217901
1.06030784
1.058251174
1.055936808
1.053322731
1.05151283
1.051439256
1.052092154
1.053339063
1.053893316
1.052156476
1.047350318
1.04183101
1.033577356
1.020787508
1.007623613
1.001106136
1.000038736
1.0000002
1.000000002
1.000000002
1.000000002
1.000000002
1.000000002
1.000000002
1.000000001
1
1
1.066932583
1.064362312
1.061966239
1.059775712
1.057796462
1.05587186
1.053941398
1.05175248
1.049119241
1.046539011
1.045311433
1.04542584
1.046020365
1.046945695
1.047474663
1.047359518
1.044904535
1.039883423
1.030877015
1.01819556
1.00620927
1.000800124
1.000023306
1.000000095
1.000000002
1.000000003
1.000000003
1.000000003
1.000000002
1.000000002
1.000000001
1
1.062045129
1.059330616
1.056793075
1.054767807
1.052922381
1.051203572
1.04966976
1.048069615
1.046059907
1.043396343
1.040730539
1.039832645
1.04008242
1.040881371
1.042303678
1.043479771
1.043226349
1.039861693
1.03446666
1.026529163
1.015046062
1.004654952
1.000504253
1.000011394
1.000000036
1.000000003
1.000000003
1.000000003
1.000000003
1.000000002
1.000000002
1.000000001
1.0566229
1.054072634
1.051893172
1.050171848
1.048494437
1.04692432
1.045506727
1.044007539
1.042130083
1.039613535
1.036718212
1.034770528
1.034592966
1.034968685
1.035817089
1.037036243
1.03779776
1.037911898
1.036339859
1.031434194
1.022930869
1.011881532
1.003172524
1.000273558
1.000004494
1.000000011
1.000000003
1.000000003
1.000000003
1.000000003
1.000000002
1.000000001
1.051800948
1.049088161
1.046917249
1.045118848
1.043395596
1.041909528
1.040602761
1.039272664
1.037824402
1.036152237
1.033987698
1.031397703
1.029997232
1.03009919
1.030580968
1.031553916
1.033009403
1.033974556
1.033925806
1.03147894
1.026288456
1.018446121
1.008688491
1.001926866
1.000123978
1.000001373
1.000000005
1.000000003
1.000000003
1.000000003
1.000000003
1.000000002
1.046274688
1.043654848
1.041907049
1.04039149
1.038875885
1.037559102
1.036378121
1.035166759
1.033862501
1.032360414
1.030359291
1.027705211
1.025495547
1.025077741
1.025360822
1.02601698
1.027151864
1.028470092
1.028998309
1.02903009
1.027389888
1.022285605
1.014378619
1.005821034
1.001006507
1.000045208
1.000000319
1.000000003
1.000000003
1.000000003
1.000000003
1.000000002
1.041540886
1.038838925
1.037059882
1.035422757
1.03384408
1.032584363
1.031470039
1.030301721
1.029052602
1.027741023
1.026292553
1.024514586
1.022346141
1.020963483
1.021050381
1.021481155
1.022215283
1.023433878
1.024719006
1.02517861
1.025049154
1.022768743
1.017521586
1.010240415
1.003430041
1.000434123
1.000012683
1.000000059
1.000000003
1.000000003
1.000000003
1.000000002
1.035890666
1.033426145
1.031965349
1.030513918
1.029180175
1.028154364
1.027190295
1.026121752
1.024976438
1.023816764
1.022579049
1.021001577
1.018817646
1.016792687
1.016375505
1.016639562
1.01716923
1.018108338
1.019514713
1.020569371
1.020833281
1.020676364
1.018353323
1.013109399
1.006575527
1.001680091
1.000142425
1.00000279
1.000000007
1.000000002
1.000000002
1.000000002
1.031172274
1.028865061
1.027322222
1.025662761
1.024254363
1.023275541
1.022366606
1.021344683
1.020243424
1.01912564
1.017979941
1.016700585
1.015127978
1.013307984
1.012298279
1.012484674
1.012962402
1.013614362
1.014624952
1.015956215
1.016736605
1.01696847
1.016635444
1.013903189
1.008780689
1.003493983
1.000609555
1.0000316
1.000000052
0.999999852
0.9999999284
0.9999999935
1.025692741
1.023629126
1.022098811
1.020428615
1.01937264
1.018747048
1.01805196
1.017166506
1.01617474
1.015158455
1.014137929
1.013048245
1.011685385
1.009848249
1.008255568
1.008106377
1.008422188
1.008869894
1.009588113
1.010799388
1.012140657
1.012738931
1.012940523
1.012447782
1.009502733
1.004876767
1.001299299
1.000095334
0.9999902552
0.9999909169
0.9999957572
0.9999994633
1.020728897
1.019257095
1.017629627
1.015765295
1.014712587
1.014085699
1.013378588
1.012487474
1.011530729
1.010565942
1.00958804
1.008564832
1.007397964
1.005949321
1.00444122
1.003999197
1.004341121
1.004846605
1.005434172
1.006255048
1.007413202
1.008373661
1.008756373
1.008874881
1.00819833
1.005376968
1.001714173
1.00009374
0.9998427692
0.9998664224
0.9999359902
0.9999903757
1.015797651
1.014316786
1.012291071
1.010384742
1.009614987
1.009347507
1.00883834
1.008098044
1.00734446
1.006582957
1.00576317
1.00486685
1.00385379
1.00256505
1.000934274
1.000010744
1.000226607
1.000589233
1.000938595
1.00145948
1.00238921
1.003537896
1.004172203
1.004510727
1.004591753
1.003801828
1.00166145
0.999500243
0.9991185131
0.9992674942
0.9996154734
0.999925408
1.010722512
1.009684125
1.007694388
1.005923217
1.005288215
1.004956804
1.004414266
1.003644911
1.002866099
1.002113563
1.001317651
1.000451535
0.9995103177
0.9983924699
0.9969882219
0.9960245115
0.996204481
0.9966429786
0.9971006637
0.9976550022
0.9984357459
0.9992876087
0.9998038082
1.000092351
1.000197518
0.9998816652
0.9986625266
0.9974429418
0.9973667209
0.9978284368
0.9987022422
0.9996524091
1.006249194
1.004901438
1.002524947
1.000671015
1.000173381
1.000008138
0.9996354373
0.9989368739
0.9982967067
0.9977714169
0.9972357859
0.9966140078
0.9958875105
0.994970625
0.9936554624
0.9923824771
0.9923975554
0.9928294787
0.9931452911
0.9935035851
0.9940979741
0.9946831522
0.9951104847
0.995442499
0.9956625477
0.9956899857
0.9951375417
0.9944197816
0.9946064713
0.9955035184
0.9968923597
0.9988246152
1.00109635
0.999624516
0.9973720013
0.9960245687
0.9959935085
0.9958911988
0.9955079588
0.9947740644
0.9940934702
0.9935469345
0.9929990614
0.9923688108
0.991655141
0.9907997848
0.9895859173
0.9883016181
0.9882523525
0.9887203323
0.9891264877
0.9896877735
0.990435538
0.9909830055
0.9913951302
0.9917046015
0.9919045719
0.9919525392
0.9914556855
0.9908572389
0.9912555902
0.992435236
0.9940473893
0.9969551294
0.9966899031
0.9948580827
0.992441413
0.9913864698
0.9912855302
0.9910357223
0.9905470189
0.9897985428
0.9891752892
0.9887417449
0.988358376
0.9879549489
0.9875283167
0.9870200819
0.9861536547
0.9848883261
0.9846228077
0.9850958492
0.9855861442
0.9861993236
0.9867157636
0.9870606567
0.9873071824
0.9875158552
0.9877103693
0.9877917805
0.9873760066
0.9869602617
0.9875133483
0.9887725767
0.9903289329
0.9938022276
0.9916489076
0.9893372237
0.9868535981
0.9864429075
0.9866385222
0.9866315138
0.9863794841
0.9857552647
0.9852381355
0.9849132957
0.984601311
0.9841798773
0.9836592009
0.9830353238
0.9820629371
0.9806961622
0.9802579758
0.9806862882
0.9812577703
0.9818275836
0.9823869783
0.9828582052
0.9832602427
0.9836226009
0.9839378595
0.9840448882
0.9834575708
0.9830278908
0.9836382576
0.9848103338
0.9861377701
0.9896305162
0.9869079914
0.9844913516
0.9822176684
0.9819749609
0.9821488613
0.9820424406
0.9815843202
0.980849836
0.9803360344
0.9800363016
0.9797672362
0.9794361019
0.9790583086
0.978623169
0.9779868701
0.9770097194
0.9766161011
0.9770708478
0.9777188452
0.9782964019
0.9788255603
0.979288524
0.9796650542
0.9799070035
0.9800236866
0.9799343831
0.9790966476
0.9787793802
0.9794529796
0.9805091171
0.9816195298
0.9848421282
0.9819465303
0.9791733536
0.9769610949
0.9768114859
0.9770707349
0.9770085134
0.9766629687
0.9762093269
0.9760720994
0.9760374517
0.9760166292
0.9759886416
0.9757693133
0.9752269561
0.9743382531
0.9729923848
0.9724041658
0.9728560427
0.9733910297
0.9737950066
0.9742452586
0.9746627584
0.9750416235
0.9754176572
0.9757227795
0.9757667804
0.9751086914
0.9748546114
0.9755230542
0.9764066743
0.9772893726
0.9800605558
0.976624619
0.9739680388
0.9719947776
0.9719229427
0.9722395817
0.9722335598
0.9718742123
0.971639627
0.9716902833
0.9717099787
0.9717349832
0.9717429153
0.9715542658
0.9710327416
0.9701161964
0.9686932184
0.9681896165
0.9686777335
0.9692194816
0.9697106806
0.9702572515
0.9707694501
0.9712026498
0.9715655791
0.9718324338
0.9718118325
0.9709958853
0.9707257729
0.9713611106
0.9720279757
0.9726988371
0.9751065041
0.9717817585
0.9691638948
0.9672087092
0.9670933442
0.9673528965
0.967171997
0.9667260488
0.9668328686
0.9670007833
0.9670434529
0.9671760737
0.9673684886
0.9675155636
0.9675418153
0.9669670354
0.9653926447
0.9645317997
0.9649527349
0.9654593501
0.9658522193
0.9662365841
0.9666029194
0.9669578775
0.967258054
0.9674468265
0.9673918845
0.9666460584
0.9666268792
0.9672636883
0.9678484918
0.968557928
0.9708411932
0.9661974372
0.9636792851
0.9618306371
0.9617547286
0.9620965277
0.9618454828
0.9616511361
0.9618907083
0.9624563464
0.9629901862
0.9633623966
0.9636775405
0.9639313261
0.9640048144
0.9633631213
0.9614470527
0.9601446884
0.9604700242
0.9609604863
0.9612839247
0.9616661444
0.9621082012
0.9625576196
0.9629580224
0.963281028
0.963305822
0.9627555881
0.9629999212
0.9634917346
0.9637925983
0.9642810887
0.9663247766
0.9611646426
0.9588677374
0.9572447738
0.9572638063
0.9575391446
0.9572196626
0.9570913298
0.9574283093
0.9581159414
0.9584401883
0.9586831226
0.9589756113
0.9592465616
0.9593705063
0.9591242644
0.9578315598
0.9564575483
0.9566367345
0.9571791538
0.9575760468
0.9579495293
0.958330321
0.9587094141
0.9589792542
0.9591892877
0.959087272
0.9584138986
0.9585227689
0.9588582703
0.9592676453
0.959996051
0.962380178
0.955721794
0.9534977772
0.9521420964
0.9522714268
0.9524778114
0.9521679426
0.9521473333
0.9525223807
0.9532199654
0.9537928996
0.9543425267
0.9548570915
0.9553133314
0.9556448871
0.9556594143
0.9546059826
0.9528413743
0.9526655709
0.9531776802
0.9535123126
0.953779221
0.9540599704
0.9544447653
0.9547872596
0.9549952852
0.9549456204
0.9544841946
0.954752005
0.9551571947
0.9555422802
0.9562827446
0.958603409
0.9502481185
0.948152536
0.9473586746
0.94766035
0.9477469776
0.9475113563
0.9475613279
0.9480477161
0.9490688132
0.9498886045
0.9503065251
0.9506977845
0.9510420034
0.9512444888
0.9512142785
0.9503260865
0.9486735617
0.9483132558
0.9488343832
0.9492350171
0.9495022242
0.9497732749
0.9500801636
0.9504185188
0.9506411458
0.9506373275
0.9504016699
0.9504250742
0.9505270841
0.9510119332
0.9519694787
0.9547060776
0.9445796772
0.9427504508
0.9427019511
0.9431211118
0.9431379464
0.9430560698
0.9432472011
0.9439430355
0.9449883919
0.9454918663
0.9457754088
0.9461167791
0.946451856
0.9467068719
0.9468197996
0.9464870788
0.945170528
0.9444815468
0.9449509678
0.9454413127
0.9457016608
0.9460024178
0.9463684989
0.946755084
0.9469831094
0.9469156136
0.9465927527
0.9463381265
0.9463612602
0.9471383172
0.9483935838
0.9514713063
0.939089964
0.9378391487
0.93793463
0.9384060489
0.9383377773
0.9382658996
0.9384194313
0.9390069284
0.9400226469
0.9410012013
0.9415690354
0.9419542747
0.9423287882
0.9426800759
0.9429087384
0.9427073151
0.9413939694
0.9404590276
0.9408753646
0.9414530162
0.9417440198
0.9419356283
0.9421440476
0.9423408115
0.9424249558
0.9424063266
0.9423685372
0.942130815
0.942062675
0.9430035189
0.9446859496
0.9483475987
0.933492147
0.9327068381
0.933059393
0.9337857818
0.9336724364
0.9336667672
0.9338966199
0.934657749
0.9361035517
0.9373873019
0.9378194183
0.9380932745
0.9383731622
0.9386119851
0.9387557841
0.9386142324
0.9374784461
0.9363641438
0.9366819843
0.9372327031
0.9374547658
0.9375124544
0.9376930011
0.9380450285
0.9383706329
0.9386116792
0.9387223247
0.9382379378
0.9382623331
0.9396289412
0.9415330641
0.9457007552
0.9287396348
0.927874037
0.9283576589
0.9292231627
0.9290891181
0.929078075
0.9293826788
0.9302167566
0.9316931843
0.9326235106
0.9328741729
0.9331515157
0.9334960436
0.9338496122
0.9341229023
0.9341725122
0.9334231181
0.9323190037
0.9325989779
0.9332110461
0.9336126428
0.9339068082
0.9342287431
0.9345415587
0.934788755
0.9349645043
0.9349091679
0.9340789269
0.9343666249
0.9362784418
0.9391413651
0.9441649904
0.92397719
0.9231763519
0.9237879468
0.9247226663
0.9245538263
0.9245498515
0.9248026795
0.9254975954
0.9268635346
0.9282389252
0.9287031866
0.9290992652
0.929555183
0.9300558903
0.9304863643
0.9306783201
0.9301644371
0.9290323586
0.9292200701
0.929833816
0.9301869851
0.9302539782
0.9302535762
0.9302638327
0.9304283931
0.9307458143
0.930888644
0.9305703642
0.9316107818
0.9347233351
0.9379014276
0.9429937534
0.9187496975
0.9181363695
0.9188091142
0.9199549713
0.91987913
0.9199235887
0.9201843243
0.9208930536
0.9224074989
0.9240263323
0.9245739345
0.9249932093
0.9254782338
0.9260175451
0.9264533559
0.9266242407
0.9260734489
0.9247063567
0.9247604681
0.9253009201
0.9255446821
0.9254850634
0.9254219356
0.925689536
0.9262272973
0.9269072651
0.9271965614
0.9272675563
0.9292999114
0.9335085967
0.9374167125
0.9427296232
0.9138726648
0.9133980436
0.9140396392
0.9152705815
0.9153605173
0.9155084692
0.9160444991
0.9170578698
0.9187214545
0.9195925798
0.9198314954
0.9201649584
0.9206379443
0.9211702264
0.9216119821
0.9218234241
0.9215775219
0.9207318781
0.9210215544
0.9216279414
0.9219533659
0.9219976478
0.9219757891
0.9220930169
0.9225858034
0.9233749057
0.9235947552
0.9246873948
0.9285461636
0.9338164766
0.9377991951
0.9428490039
0.9087474163
0.9083376146
0.9089209464
0.9101975127
0.9108310154
0.9110822233
0.9115376956
0.9124218492
0.9138643482
0.9149584712
0.9154910687
0.915984485
0.9166388638
0.9173544074
0.9180399604
0.9185552252
0.9185882793
0.9176084233
0.9171637311
0.9174235056
0.917514308
0.9174657925
0.91716847
0.9168594571
0.9178401175
0.9193462387
0.920437417
0.9233916433
0.9288490145
0.9344490442
0.9381904111
0.9429854144
0.903498579
0.9031845847
0.9037487018
0.9050358827
0.9061191092
0.9066266287
0.9070609151
0.9077418823
0.9089616709
0.9103407912
0.9110520385
0.9116086505
0.9123717376
0.9131574088
0.9138370652
0.9142595748
0.9141320794
0.9130371961
0.9123653049
0.9122935237
0.9123182715
0.9125417162
0.9126362532
0.9130760916
0.9154699858
0.917826749
0.9199719743
0.9238333178
0.9299037688
0.93580642
0.9394608303
0.9437783603
0.8983679789
0.8981843626
0.8988366083
0.9001601783
0.9011178171
0.9017169612
0.9024574123
0.9036833237
0.9056518422
0.9070350777
0.9074613993
0.9079018151
0.9085301855
0.9091606462
0.9096121875
0.9096781964
0.9093915394
0.9083716727
0.9073703678
0.9066475848
0.9068466616
0.9079054396
0.9088124107
0.9106702303
0.9140930053
0.9172493006
0.9208517007
0.926749047
0.9341473727
0.9398360899
0.9423251237
0.9447558505
0.8934442697
0.8933659712
0.8940635158
0.8954432862
0.8964956343
0.8973814924
0.898422101
0.8998072074
0.9016294859
0.9023062178
0.902616494
0.9031163478
0.9038763114
0.904483938
0.9047151832
0.9046062972
0.9039758427
0.9034595816
0.9033553631
0.9037077632
0.9051190846
0.9069453836
0.9082298757
0.9107463503
0.9147420652
0.9194149432
0.9262715108
0.9347331984
0.9414281229
0.9451883381
0.9460183963
0.9472065664
0.8882818638
0.8883394232
0.889118669
0.8904550561
0.8917523023
0.8927435972
0.8934800528
0.8943420273
0.8957992236
0.8974340188
0.8986435705
0.8992675907
0.8996761938
0.8998229625
0.9000357306
0.9001347298
0.8998551306
0.899907338
0.9003772149
0.9020276947
0.9046550444
0.9080280284
0.9125217423
0.9197225827
0.9278971283
0.9352667311
0.9422178908
0.9479858204
0.9496364644
0.9500327959
0.9498107318
0.9499242863
0.8830859025
0.8833599914
0.8844648281
0.8859831321
0.8871326105
0.887853245
0.8885226326
0.8898316768
0.892322208
0.8946948596
0.895448838
0.8957920401
0.8958327401
0.8956796626
0.8956994399
0.8957869941
0.8967763906
0.898331086
0.9002774064
0.9047684432
0.9144485128
0.9279608006
0.9415203401
0.9529549305
0.9593258065
0.9621777908
0.9623125442
0.9608682285
0.9582241915
0.9552388679
0.9532480261
0.9529390264
0.8779717738
0.8783661699
0.8795448277
0.8810080558
0.8820469178
0.8829999615
0.8842495498
0.8863049197
0.8886803063
0.8902936155
0.8903393441
0.8902265903
0.88990548
0.8901205146
0.8914975541
0.8938067814
0.8969504907
0.9034333047
0.9164233274
0.9359171972
0.9559405662
0.9728374703
0.9840293742
0.985373928
0.9833752249
0.9793649876
0.9741762339
0.9685245088
0.9630179655
0.9587673273
0.9558834251
0.9554009124
0.8729449179
0.8735604677
0.8750206278
0.8768207163
0.878210436
0.8791796665
0.8803015277
0.8817834672
0.8833431199
0.884426585
0.8842921917
0.8844196372
0.8855755423
0.8884445179
0.8918060848
0.8994634912
0.9155757228
0.9393522547
0.964315216
0.9818666978
0.9903299395
0.9938418437
0.9970721532
0.9975617069
0.996933232
0.9927335258
0.9851195595
0.9765873866
0.9689208903
0.9633227489
0.9594237802
0.9577869605
0.8676403158
0.8683886882
0.8700126198
0.8721235421
0.8736567324
0.8745208602
0.8752599951
0.8760456033
0.8773901834
0.8794632182
0.8807674123
0.8828762301
0.885554897
0.8919419661
0.909452252
0.938483368
0.9685744642
0.9903008372
1.005236171
1.010433836
1.009873078
1.007990016
1.006190761
1.003915624
1.000649514
0.9960580957
0.9899090868
0.9829064056
0.9753373274
0.9681968651
0.96236251
0.9592249542
0.8624921927
0.8634648349
0.8652655732
0.8674877557
0.8687617803
0.8695599725
0.8701040426
0.8709119606
0.8730893401
0.8755829728
0.8785862393
0.883369244
0.8984748426
0.9295514087
)
;

boundaryField
{
    inlet
    {
        type            fixedValue;
        value           nonuniform 0();
    }
    outlet
    {
        type            inletOutlet;
        inletValue      uniform 1;
        value           nonuniform List<scalar> 
69
(
1
1
1
1
1
1
1
1
1
1
1
1
1
1
1
1
1
1
1
1
1
1
1
1
1
1
1
1
1
1
1.000000001
1.000000001
1.000000002
1.000000002
1.000000002
1.000000002
0.9999999949
0.9999995335
0.9999913896
0.9999317081
0.9996752554
0.9988815033
0.997058382
0.9939449793
0.9897914176
0.9850045629
0.980210497
0.9752447915
0.9709678379
0.9664380771
0.9624970943
0.9587082305
0.9548142402
0.9515784233
0.9484510971
0.9458006285
0.9442581463
0.9430705108
0.9427989475
0.94290666
0.9430393731
0.9438166337
0.9447485343
0.9471756634
0.9498666557
0.9528739677
0.9553485066
0.9577300266
0.9591513816
)
;
    }
    bottom
    {
        type            slip;
    }
    top
    {
        type            slip;
    }
    obstacle
    {
        type            zeroGradient;
    }
    defaultFaces
    {
        type            empty;
    }
    procBoundary5to4
    {
        type            processor;
        value           nonuniform List<scalar> 
69
(
1
1
1
1
1
1
1
1
1
1
1
1
1
1
1.000000818
1.000206047
1.006528062
1.04050066
1.08595592
1.109095407
1.115561187
1.115082838
1.1126812
1.104830928
1.096563974
1.090719122
1.085414808
1.080397249
1.075472892
1.069945555
1.065082798
1.059460927
1.054695888
1.049358335
1.04470678
1.039458049
1.034568643
1.029460192
1.023869884
1.018734737
1.012608472
1.007942982
1.002298496
0.9977287156
0.9928130006
0.9880067287
0.9834728169
0.9782783013
0.9736014973
0.9681637126
0.9630821223
0.9576396642
0.9521997651
0.9466172703
0.9415585782
0.936102242
0.9311570527
0.92625208
0.9207962652
0.9156036759
0.9104259033
0.9051442912
0.8997182773
0.89461843
0.8892507728
0.8836721367
0.8782123575
0.8729439727
0.8675477967
)
;
    }
    procBoundary5to10
    {
        type            processor;
        value           uniform 0.8622764913;
    }
    procBoundary5to11
    {
        type            processor;
        value           nonuniform List<scalar> 
33
(
0.9657394107
0.9936987231
1.003143278
1.00816733
1.009414654
1.012198754
1.011826373
1.010033491
1.007657392
1.00448801
1.000158926
0.9958470558
0.9917615042
0.9866332309
0.9797944762
0.9721511236
0.9651778766
0.9607794225
0.8571823906
0.8582568603
0.8602509529
0.8627062576
0.8645904487
0.865516933
0.8659725773
0.8667467734
0.8690286484
0.8729954245
0.8838737755
0.9133807317
0.9546291715
0.9657394107
0.9921386235
)
;
    }
}


// ************************************************************************* //
