/*--------------------------------*- C++ -*----------------------------------*\
  =========                 |
  \\      /  F ield         | OpenFOAM: The Open Source CFD Toolbox
   \\    /   O peration     | Website:  https://openfoam.org
    \\  /    A nd           | Version:  7
     \\/     M anipulation  |
\*---------------------------------------------------------------------------*/
FoamFile
{
    version     2.0;
    format      ascii;
    class       volScalarField;
    location    "0.2";
    object      p;
}
// * * * * * * * * * * * * * * * * * * * * * * * * * * * * * * * * * * * * * //

dimensions      [1 -1 -2 0 0 0 0];

internalField   nonuniform List<scalar> 
22
(
1.042432332
1.086476187
1.137270555
1.10313152
1.039805996
1.223137922
1.187321905
1.088392203
0.9538604206
1.266709242
1.116975043
0.9108630953
0.8317663686
1.180699813
0.802363027
0.7574876532
0.8228642268
0.6628972404
0.6357977899
0.7344505251
0.6336157188
0.6476928623
)
;

boundaryField
{
    inlet
    {
        type            fixedValue;
        value           nonuniform 0();
    }
    outlet
    {
        type            zeroGradient;
    }
    bottom
    {
        type            slip;
    }
    top
    {
        type            slip;
    }
    obstacle
    {
        type            zeroGradient;
    }
    defaultFaces
    {
        type            empty;
    }
    procBoundary9to3
    {
        type            processor;
        value           nonuniform List<scalar> 5(1.020656344 1.013836291 1.057910369 1.068958986 1.068958986);
    }
    procBoundary9to4
    {
        type            processor;
        value           nonuniform List<scalar> 2(1.00622384 0.957958328);
    }
    procBoundary9to8
    {
        type            processor;
        value           uniform 1.006643052;
    }
    procBoundary9to10
    {
        type            processor;
        value           nonuniform List<scalar> 5(0.8904433838 0.8557609439 0.9379708135 0.9392292461 0.9392292461);
    }
    procBoundary9to14
    {
        type            processor;
        value           nonuniform List<scalar> 3(1.082477414 1.277402727 1.574980704);
    }
    procBoundary9to15
    {
        type            processor;
        value           nonuniform List<scalar> 4(0.7808955029 0.6444913097 0.7808955029 0.6668820881);
    }
}


// ************************************************************************* //
