/*--------------------------------*- C++ -*----------------------------------*\
  =========                 |
  \\      /  F ield         | OpenFOAM: The Open Source CFD Toolbox
   \\    /   O peration     | Website:  https://openfoam.org
    \\  /    A nd           | Version:  7
     \\/     M anipulation  |
\*---------------------------------------------------------------------------*/
FoamFile
{
    version     2.0;
    format      ascii;
    class       volVectorField;
    location    "0.6";
    object      U;
}
// * * * * * * * * * * * * * * * * * * * * * * * * * * * * * * * * * * * * * //

dimensions      [0 1 -1 0 0 0 0];

internalField   nonuniform List<vector> 
2222
(
(3 -6.041992037e-16 0)
(3 -3.404320478e-15 0)
(3 -3.513007781e-15 0)
(3 -3.344711846e-15 0)
(3 -2.607037077e-15 0)
(3 1.205002853e-15 0)
(3 2.016703476e-15 0)
(3 3.718358748e-15 0)
(3 5.085472702e-15 0)
(3 2.898411074e-15 0)
(3 1.778116452e-15 0)
(3 4.07366716e-16 0)
(3 -1.271022858e-15 0)
(3 -8.820747352e-16 0)
(3 -1.330690889e-15 0)
(3 -3.106562257e-15 0)
(3 -2.797812476e-15 0)
(3 -2.309934592e-15 0)
(3 -1.361369176e-15 0)
(3 1.011129431e-15 0)
(3 -1.488551364e-15 0)
(3 -4.612384952e-15 0)
(3 -4.577780101e-15 0)
(3 -3.632778847e-15 0)
(3 -2.468963566e-15 0)
(3 -3.583782963e-15 0)
(3 -3.944881446e-15 0)
(3 -2.650551015e-15 0)
(3 -4.930138172e-16 0)
(3 9.778212515e-16 0)
(3 2.729978208e-15 0)
(3 5.355215017e-15 0)
(3 6.715900961e-15 0)
(3 1.003750586e-14 0)
(3 1.038087628e-14 0)
(3 5.660970839e-15 0)
(3 6.385372619e-15 0)
(3 6.200407277e-15 0)
(3 2.6861316e-15 0)
(3 2.047974488e-15 0)
(3 3.848217162e-16 0)
(3 -2.318152951e-15 0)
(3 -2.094147417e-15 0)
(3 -1.672029029e-15 0)
(3 1.484771693e-16 0)
(3 4.098780748e-15 0)
(3 6.064384014e-15 0)
(3 4.249946302e-15 0)
(3 3.045407486e-15 0)
(3 2.482693773e-15 0)
(3 -7.226795846e-16 0)
(3 -2.289074038e-15 0)
(3 -3.597948199e-15 0)
(3 -6.548206589e-15 0)
(3 -8.887117356e-15 0)
(3 -9.907336122e-15 0)
(3 -7.954665282e-15 0)
(3 -1.065086447e-14 0)
(3 -1.056712507e-14 0)
(3 -8.053633482e-15 0)
(3 -5.597726194e-17 0)
(3 5.448315288e-16 0)
(3 2.38413312e-15 0)
(3 5.158383168e-15 0)
(3 6.742330557e-15 0)
(3 8.16504283e-15 0)
(3 -1.070666657e-15 0)
(3 -2.963513067e-15 0)
(3 -2.800741075e-15 0)
(3 -2.074342893e-15 0)
(3 7.311205005e-16 0)
(3 3.480122847e-15 0)
(3 3.694718229e-15 0)
(3 3.382707603e-15 0)
(3 2.677740693e-15 0)
(3 -1.338522808e-15 0)
(3 -1.927836135e-15 0)
(3 -3.156314799e-15 0)
(3 -4.032060999e-15 0)
(3 -4.779105556e-15 0)
(3 -6.899866647e-15 0)
(3 -1.042755369e-14 0)
(3 -1.161799233e-14 0)
(3 -1.108286109e-14 0)
(3 -1.062406742e-14 0)
(3 -9.19503234e-15 0)
(3 -1.28422737e-14 0)
(3 -1.810851941e-14 0)
(3 -1.574437451e-14 0)
(3 -1.138269638e-14 0)
(3 -5.70359378e-15 0)
(3 -2.384989146e-15 0)
(3 -1.394330169e-15 0)
(3 1.247869936e-15 0)
(3 2.507951088e-15 0)
(3 4.389831058e-15 0)
(3 9.013578831e-15 0)
(3 1.201491085e-14 0)
(3 1.382310211e-14 0)
(3 1.518184014e-14 0)
(3 1.433845243e-14 0)
(3 1.277157353e-14 0)
(3 1.356453991e-14 0)
(3 1.189915539e-14 0)
(3 1.167930113e-14 0)
(3 9.412815453e-15 0)
(3 3.479759125e-15 0)
(3 -2.897361015e-15 0)
(3 -5.498377297e-15 0)
(3 -2.991638418e-15 0)
(3 9.884676825e-16 0)
(3 7.289302012e-15 0)
(3 1.311084965e-14 0)
(3 1.366709345e-14 0)
(3 1.40139241e-14 0)
(3 1.054735524e-14 0)
(3 4.685111162e-15 0)
(3 2.092759971e-15 0)
(3 -1.778378332e-15 0)
(3 -6.58468224e-15 0)
(3 -9.485015846e-15 0)
(3 -1.212268744e-14 0)
(3 -1.07357979e-14 0)
(3 -9.185542992e-15 0)
(3 -5.124465985e-15 0)
(3 -2.665722546e-15 0)
(3 2.178682042e-15 0)
(3 4.613009628e-15 0)
(3 5.143784579e-15 0)
(3 7.030123384e-15 0)
(3 7.821506987e-15 0)
(3 8.449379599e-15 0)
(3 1.678410383e-15 0)
(3 1.618366322e-15 0)
(3 1.11356796e-15 0)
(3 1.165813773e-15 0)
(3 3.808327577e-15 0)
(3 2.72110343e-15 0)
(3 1.757101295e-15 0)
(3 -1.806016389e-15 0)
(3 -5.645058829e-15 0)
(3 -9.208468631e-15 0)
(3 -1.11320931e-14 0)
(3 -1.113854231e-14 0)
(3 -9.612075289e-15 0)
(3 -9.728381197e-15 0)
(3 -8.326260288e-15 0)
(3 -7.627949022e-15 0)
(3 -1.063324495e-14 0)
(3 -1.176790245e-14 0)
(3 -1.279719183e-14 0)
(3 -1.546527374e-14 0)
(3 -2.118717377e-14 0)
(3 -2.343433571e-14 0)
(3 -2.245536335e-14 0)
(3 -2.071386593e-14 0)
(3 -1.90007569e-14 0)
(3 -1.834540899e-14 0)
(3 -1.511262056e-14 0)
(3 -1.519153335e-14 0)
(3 -1.527746921e-14 0)
(3 -1.47500295e-14 0)
(3 -7.342112124e-15 0)
(3 -5.360362862e-15 0)
(3 7.861598035e-16 0)
(3 5.887950949e-15 0)
(3 7.293187848e-15 0)
(3 1.16244572e-14 0)
(3 1.281028955e-14 0)
(3 1.379755442e-14 0)
(3 1.611504793e-14 0)
(3 1.278996004e-14 0)
(3 7.967468784e-15 0)
(3 5.353406051e-15 0)
(3 -5.532192862e-16 0)
(3 2.577120694e-16 0)
(3 3.583247099e-15 0)
(3 7.263985626e-15 0)
(3 1.42822792e-14 0)
(3 1.926062377e-14 0)
(3 1.925140821e-14 0)
(3 1.786333332e-14 0)
(3 1.483436428e-14 0)
(3 1.000616495e-14 0)
(3 3.818890973e-15 0)
(3 -2.631184648e-15 0)
(3 -6.707774843e-15 0)
(3 -1.31815756e-14 0)
(3 -1.648748419e-14 0)
(3 -1.815333288e-14 0)
(3 -1.56832784e-14 0)
(3 -1.315941532e-14 0)
(3 -1.207676616e-14 0)
(3 -8.968378718e-15 0)
(3 -3.256885764e-15 0)
(3 3.900712598e-15 0)
(3 9.95828948e-15 0)
(3 1.14194212e-14 0)
(3 9.68914413e-18 0)
(3 1.186033945e-16 0)
(3 -4.104383197e-16 0)
(3 -4.890001558e-16 0)
(3 -1.787946842e-15 0)
(3 -2.430132177e-15 0)
(3 -3.881001265e-15 0)
(3 -6.912078471e-15 0)
(3 -8.428151937e-15 0)
(3 -7.130179698e-15 0)
(3 -1.117368775e-14 0)
(3 -1.045995198e-14 0)
(3 -7.047851926e-15 0)
(3 -4.406917236e-15 0)
(3 -2.273281631e-15 0)
(3 -1.115101473e-15 0)
(3 -1.593896001e-15 0)
(3 -3.362136107e-15 0)
(3 -5.110934e-15 0)
(3 -9.20396699e-15 0)
(3 -1.241332036e-14 0)
(3 -1.515005743e-14 0)
(3 -1.925228197e-14 0)
(3 -2.148695209e-14 0)
(3 -2.320979763e-14 0)
(3 -2.493630267e-14 0)
(3 -2.231021088e-14 0)
(3 -2.150531691e-14 0)
(3 -2.13556079e-14 0)
(3 -2.197605637e-14 0)
(3 -2.013146206e-14 0)
(3 -1.726240317e-14 0)
(3 -1.1350289e-14 0)
(3 -3.146928462e-15 0)
(3 4.497095941e-15 0)
(3 1.011801197e-14 0)
(3 1.030803691e-14 0)
(3 1.482222639e-14 0)
(3 1.636893909e-14 0)
(3 1.573476097e-14 0)
(3 1.420910708e-14 0)
(3 1.231637845e-14 0)
(3 1.287428095e-14 0)
(3 1.375577068e-14 0)
(3 1.359541835e-14 0)
(3 1.246044881e-14 0)
(3 1.460525089e-14 0)
(3 1.804818508e-14 0)
(3 1.768500978e-14 0)
(3 1.527795793e-14 0)
(3 1.171372278e-14 0)
(3 8.294692443e-15 0)
(3 3.359889077e-15 0)
(3 -1.917383214e-15 0)
(3 -4.852416439e-15 0)
(3 -1.103310077e-14 0)
(3 -1.812602111e-14 0)
(3 -2.135657703e-14 0)
(3 -2.265324661e-14 0)
(3 -2.102726894e-14 0)
(3 -1.807631879e-14 0)
(3 -1.502747542e-14 0)
(3 -9.855076822e-15 0)
(3 7.891869377e-16 0)
(3 1.38095403e-14 0)
(3 1.984647968e-14 0)
(3 -1.221141731e-15 0)
(3 -7.153255131e-17 0)
(3 5.459392414e-16 0)
(3 7.825919711e-16 0)
(3 -4.423968542e-15 0)
(3 -6.294719509e-15 0)
(3 -5.420132575e-15 0)
(3 -4.316207845e-15 0)
(3 -4.012427764e-15 0)
(3 -1.934023509e-16 0)
(3 8.687706197e-16 0)
(3 4.166575448e-15 0)
(3 4.437012356e-15 0)
(3 4.959707312e-15 0)
(3 3.336783991e-15 0)
(3 4.468571985e-16 0)
(3 -4.277230627e-16 0)
(3 -2.875621816e-15 0)
(3 -7.43800796e-15 0)
(3 -8.957393166e-15 0)
(3 -1.172033684e-14 0)
(3 -1.171527721e-14 0)
(3 -1.215721642e-14 0)
(3 -1.293116684e-14 0)
(3 -1.515603964e-14 0)
(3 -1.465887223e-14 0)
(3 -1.727943316e-14 0)
(3 -1.359373287e-14 0)
(3 -1.29408081e-14 0)
(3 -1.373278127e-14 0)
(3 -1.900666282e-14 0)
(3 -2.115384606e-14 0)
(3 -1.971182238e-14 0)
(3 -1.764549692e-14 0)
(3 -1.137389127e-14 0)
(3 -6.472357837e-15 0)
(3 9.147275138e-17 0)
(3 5.375069158e-15 0)
(3 5.175408562e-15 0)
(3 1.22802432e-14 0)
(3 1.48059127e-14 0)
(3 1.403839281e-14 0)
(3 1.385205978e-14 0)
(3 1.194118548e-14 0)
(3 1.091936242e-14 0)
(3 1.167590717e-14 0)
(3 1.282201299e-14 0)
(3 1.502832269e-14 0)
(3 1.288515527e-14 0)
(3 1.037195899e-14 0)
(3 5.606239228e-15 0)
(3 5.760270559e-15 0)
(3 6.238280344e-15 0)
(3 4.991765155e-15 0)
(3 1.013822008e-15 0)
(3 -5.669635738e-15 0)
(3 -1.34251075e-14 0)
(3 -1.927770483e-14 0)
(3 -2.236545656e-14 0)
(3 -2.023929502e-14 0)
(3 -1.901372438e-14 0)
(3 -1.183875181e-14 0)
(3 -9.520408552e-15 0)
(3 -6.20700926e-15 0)
(3 -5.031971055e-16 0)
(3 6.875870847e-15 0)
(3 1.260695008e-15 0)
(3 1.817650853e-15 0)
(3 5.532476756e-16 0)
(3 1.60987347e-15 0)
(3 1.73697228e-15 0)
(3 1.780158714e-15 0)
(3 4.554074871e-15 0)
(3 6.125749706e-15 0)
(3 8.245800686e-15 0)
(3 1.253463555e-14 0)
(3 1.490469407e-14 0)
(3 1.273773086e-14 0)
(3 1.025217229e-14 0)
(3 7.765716169e-15 0)
(3 1.454143801e-15 0)
(3 -3.747541349e-15 0)
(3 -6.2900295e-15 0)
(3 -9.004425089e-15 0)
(3 -7.294715917e-15 0)
(3 -7.675544276e-15 0)
(3 -6.534929077e-15 0)
(3 -4.980922981e-15 0)
(3 -4.471565801e-15 0)
(3 -4.135567526e-15 0)
(3 -5.172668764e-15 0)
(3 -4.060379872e-15 0)
(3 -1.163309469e-15 0)
(3 -7.810884124e-16 0)
(3 -4.349631901e-15 0)
(3 -6.348337637e-15 0)
(3 -9.556473171e-15 0)
(3 -9.636410898e-15 0)
(3 -9.127817162e-15 0)
(3 -7.272679837e-15 0)
(3 -5.485222921e-15 0)
(3 -3.618340388e-15 0)
(3 -2.802563944e-15 0)
(3 -5.000750279e-16 0)
(3 3.834298676e-15 0)
(3 7.775179615e-15 0)
(3 1.022925935e-14 0)
(3 1.331313287e-14 0)
(3 1.043999274e-14 0)
(3 7.68831019e-15 0)
(3 9.285355536e-15 0)
(3 9.56328315e-15 0)
(3 1.37233562e-14 0)
(3 1.633207475e-14 0)
(3 1.673258163e-14 0)
(3 1.613760177e-14 0)
(3 1.295789098e-14 0)
(3 8.508980641e-15 0)
(3 9.708105553e-15 0)
(3 9.028918284e-15 0)
(3 6.779759366e-15 0)
(3 6.254083224e-15 0)
(3 -1.896654417e-16 0)
(3 -7.291819199e-15 0)
(3 -1.023721674e-14 0)
(3 -9.341185465e-15 0)
(3 -8.131302466e-15 0)
(3 -2.679565918e-15 0)
(3 -1.897235908e-15 0)
(3 -4.886984441e-16 0)
(3 1.145601144e-15 0)
(3 2.155616342e-15 0)
(3 3.535871958e-16 0)
(3 -2.068058095e-15 0)
(3 -1.549258721e-15 0)
(3 -5.340466589e-16 0)
(3 5.560504893e-16 0)
(3 5.538860738e-15 0)
(3 6.635846667e-15 0)
(3 8.720538418e-15 0)
(3 9.159301027e-15 0)
(3 1.229871393e-14 0)
(3 1.08983833e-14 0)
(3 8.135592703e-15 0)
(3 4.661046962e-15 0)
(3 9.248172147e-16 0)
(3 -2.087602356e-15 0)
(3 -6.091408299e-15 0)
(3 -6.784406449e-15 0)
(3 -4.669230041e-15 0)
(3 -3.31452945e-15 0)
(3 -2.989974656e-15 0)
(3 9.533462544e-16 0)
(3 1.180922415e-15 0)
(3 1.801009292e-15 0)
(3 2.51190463e-15 0)
(3 1.705681144e-15 0)
(3 2.394649174e-15 0)
(3 3.743600152e-15 0)
(3 1.047465048e-15 0)
(3 4.655863016e-16 0)
(3 7.866129238e-16 0)
(3 -7.36632738e-16 0)
(3 -1.279049269e-16 0)
(3 -4.211819508e-16 0)
(3 -3.677729607e-17 0)
(3 4.721997704e-16 0)
(3 2.222106131e-15 0)
(3 3.84462508e-15 0)
(3 5.697137103e-15 0)
(3 6.346509402e-15 0)
(3 7.221382284e-15 0)
(3 8.387475486e-15 0)
(3 8.16191988e-15 0)
(3 5.195612559e-15 0)
(3 8.229618603e-15 0)
(3 7.937352672e-15 0)
(3 8.082068097e-15 0)
(3 1.007207196e-14 0)
(3 1.209401031e-14 0)
(3 1.315701763e-14 0)
(3 1.511377446e-14 0)
(3 1.413764485e-14 0)
(3 1.201749252e-14 0)
(3 1.154301936e-14 0)
(3 1.223187781e-14 0)
(3 1.23397596e-14 0)
(3 1.225661172e-14 0)
(3 1.24551311e-14 0)
(3 7.059919687e-15 0)
(3 6.310851156e-15 0)
(3 4.144233352e-15 0)
(3 3.456427285e-15 0)
(3 6.177449424e-15 0)
(3 6.557810695e-15 0)
(3 6.692091724e-15 0)
(3 9.325375377e-15 0)
(3 9.910862133e-15 0)
(3 1.289173458e-16 0)
(3 1.677748791e-15 0)
(3 7.575678555e-16 0)
(3 -7.062569505e-16 0)
(3 -5.915825694e-16 0)
(3 8.238779587e-17 0)
(3 6.849169299e-16 0)
(3 3.697378072e-15 0)
(3 2.58178788e-15 0)
(3 7.772158879e-16 0)
(3 -3.860817855e-15 0)
(3 -4.871856934e-15 0)
(3 -6.187907715e-15 0)
(3 -7.060881536e-15 0)
(3 -5.147443461e-15 0)
(3 -5.326767147e-15 0)
(3 -5.568670671e-15 0)
(3 -1.319789096e-15 0)
(3 -4.787978118e-16 0)
(3 5.070569275e-16 0)
(3 2.014858219e-15 0)
(3 3.691647978e-15 0)
(3 4.341704369e-15 0)
(3 9.746078587e-16 0)
(3 4.020634558e-15 0)
(3 4.186730616e-15 0)
(3 4.123506831e-15 0)
(3 4.009518017e-15 0)
(3 7.473748969e-15 0)
(3 1.244750161e-14 0)
(3 1.303544196e-14 0)
(3 1.04589169e-14 0)
(3 9.297975104e-15 0)
(3 8.236830849e-15 0)
(3 6.311573865e-15 0)
(3 4.658230523e-15 0)
(3 7.759832163e-15 0)
(3 1.057558157e-14 0)
(3 9.066617383e-15 0)
(3 5.733313942e-15 0)
(3 3.190246568e-15 0)
(3 3.784855609e-16 0)
(3 2.842282048e-15 0)
(3 5.307999989e-15 0)
(3 6.090283453e-15 0)
(3 8.257422391e-15 0)
(3 7.581857979e-15 0)
(3 9.111114748e-15 0)
(3 1.216720053e-14 0)
(3 1.243988863e-14 0)
(3 1.180018135e-14 0)
(3 1.295393872e-14 0)
(3 1.056331045e-14 0)
(3 1.147780862e-14 0)
(3 1.40845634e-14 0)
(3 1.83015114e-14 0)
(3 1.588345439e-14 0)
(3 1.316324862e-14 0)
(3 1.008877064e-14 0)
(3 2.887436444e-15 0)
(3 2.79128124e-15 0)
(3 6.09734223e-15 0)
(3 5.689693873e-15 0)
(3 5.463036223e-15 0)
(3 6.125689588e-15 0)
(3 1.041659973e-14 0)
(3 -9.557264768e-17 0)
(3 1.437305099e-15 0)
(3 6.969935286e-16 0)
(3 9.797230626e-16 0)
(3 9.798402724e-16 0)
(3 1.394266952e-15 0)
(3 1.996905156e-15 0)
(3 -1.492786441e-15 0)
(3 -2.413088194e-15 0)
(3 -4.073676681e-15 0)
(3 -5.525532655e-15 0)
(3 -5.781328394e-15 0)
(3 -4.38229374e-15 0)
(3 -2.612950156e-15 0)
(3 7.82666223e-16 0)
(3 2.57011383e-16 0)
(3 -8.74918693e-16 0)
(3 -4.375059841e-17 0)
(3 2.140796649e-15 0)
(3 3.637883049e-15 0)
(3 4.473362331e-15 0)
(3 6.84163401e-15 0)
(3 9.795578622e-15 0)
(3 9.329762328e-15 0)
(3 1.377783184e-14 0)
(3 1.381672842e-14 0)
(3 1.415104149e-14 0)
(3 1.508928042e-14 0)
(3 1.455070745e-14 0)
(3 1.895649027e-14 0)
(3 2.024022025e-14 0)
(3 2.014267499e-14 0)
(3 1.635667117e-14 0)
(3 1.393364009e-14 0)
(3 1.257214903e-14 0)
(3 1.020314506e-14 0)
(3 8.939879898e-15 0)
(3 8.261630685e-15 0)
(3 5.990313803e-15 0)
(3 -4.031856589e-16 0)
(3 -4.075112856e-15 0)
(3 -1.700357279e-15 0)
(3 2.013859709e-15 0)
(3 7.855000634e-15 0)
(3 9.962450689e-15 0)
(3 9.176068238e-15 0)
(3 8.228239536e-15 0)
(3 7.190950271e-15 0)
(3 6.321732957e-15 0)
(3 8.64310665e-15 0)
(3 1.037889516e-14 0)
(3 1.441563838e-14 0)
(3 1.634372417e-14 0)
(3 1.592911301e-14 0)
(3 1.384506849e-14 0)
(3 1.178838975e-14 0)
(3 7.900825624e-15 0)
(3 6.07125594e-15 0)
(3 -4.273525474e-16 0)
(3 -5.791763885e-16 0)
(3 -3.167889832e-15 0)
(3 -3.444182408e-15 0)
(3 -3.111145733e-15 0)
(3 -4.129324995e-15 0)
(3 -3.952226838e-15 0)
(3 -3.521039743e-15 0)
(3 1.929840352e-17 0)
(3 -1.740704854e-16 0)
(3 1.158579638e-15 0)
(3 2.768070056e-15 0)
(3 3.787195334e-15 0)
(3 2.773009631e-15 0)
(3 1.283255651e-15 0)
(3 -1.403236485e-15 0)
(3 -9.551045955e-16 0)
(3 1.520818429e-16 0)
(3 1.92600407e-16 0)
(3 1.807678727e-19 0)
(3 -1.083397902e-16 0)
(3 1.237239022e-15 0)
(3 2.794449266e-15 0)
(3 3.348932585e-15 0)
(3 5.962256296e-15 0)
(3 7.286975375e-15 0)
(3 8.53209413e-15 0)
(3 1.104718905e-14 0)
(3 1.374491761e-14 0)
(3 1.668326745e-14 0)
(3 2.105265799e-14 0)
(3 2.302586091e-14 0)
(3 2.146210459e-14 0)
(3 2.156417898e-14 0)
(3 2.116493114e-14 0)
(3 1.998679365e-14 0)
(3 1.790364889e-14 0)
(3 1.915527254e-14 0)
(3 2.003382673e-14 0)
(3 1.978449179e-14 0)
(3 1.729869359e-14 0)
(3 1.113189746e-14 0)
(3 9.481436668e-15 0)
(3 7.091843063e-15 0)
(3 4.090844004e-15 0)
(3 1.1866893e-15 0)
(3 -3.112325942e-15 0)
(3 -5.782208814e-15 0)
(3 -4.384789468e-15 0)
(3 -2.011034578e-15 0)
(3 -3.338152028e-16 0)
(3 4.846267918e-15 0)
(3 6.170821746e-15 0)
(3 6.709734097e-15 0)
(3 4.1425883e-15 0)
(3 3.031233081e-15 0)
(3 2.95029257e-15 0)
(3 5.391808009e-15 0)
(3 9.296231947e-15 0)
(3 1.208790535e-14 0)
(3 1.531817133e-14 0)
(3 1.593282544e-14 0)
(3 1.578788427e-14 0)
(3 1.401160051e-14 0)
(3 1.208999989e-14 0)
(3 1.105918743e-14 0)
(3 1.230405129e-14 0)
(3 1.207476107e-14 0)
(3 7.578828681e-15 0)
(3 -9.528603702e-16 0)
(3 -2.707474541e-15 0)
(3 -3.678523134e-15 0)
(3 -3.470367669e-15 0)
(3 -3.117731679e-15 0)
(3 7.078906111e-17 0)
(3 -1.285552105e-15 0)
(3 -2.576233379e-16 0)
(3 -1.997558684e-16 0)
(3 1.535831476e-16 0)
(3 -1.129299362e-15 0)
(3 -7.748087652e-17 0)
(3 7.120439085e-16 0)
(3 -2.754291706e-16 0)
(3 -5.162691956e-16 0)
(3 1.194482667e-15 0)
(3 1.143995862e-15 0)
(3 8.27811504e-16 0)
(3 1.962863887e-15 0)
(3 4.126023607e-15 0)
(3 6.2977348e-15 0)
(3 9.22606618e-15 0)
(3 1.152997681e-14 0)
(3 1.43257856e-14 0)
(3 1.536334062e-14 0)
(3 1.572787413e-14 0)
(3 1.6193846e-14 0)
(3 1.8390584e-14 0)
(3 2.024028424e-14 0)
(3 1.915592652e-14 0)
(3 1.727700162e-14 0)
(3 1.679192723e-14 0)
(3 1.545413963e-14 0)
(3 1.299250736e-14 0)
(3 8.787914004e-15 0)
(3 8.353229643e-15 0)
(3 7.680183968e-15 0)
(3 9.574185122e-15 0)
(3 9.571533488e-15 0)
(3 7.655800502e-15 0)
(3 5.653851513e-15 0)
(3 5.226075456e-15 0)
(3 5.888059917e-15 0)
(3 6.022953133e-15 0)
(3 7.553334346e-15 0)
(3 6.402962854e-15 0)
(3 3.928514961e-15 0)
(3 3.019555045e-15 0)
(3 3.313645297e-15 0)
(3 3.016524028e-15 0)
(3 3.893392156e-15 0)
(3 3.131120486e-15 0)
(3 4.057419269e-15 0)
(3 6.632784541e-15 0)
(3 9.246937243e-15 0)
(3 1.168215559e-14 0)
(3 1.179808252e-14 0)
(3 1.28302922e-14 0)
(3 1.393431986e-14 0)
(3 1.297628595e-14 0)
(3 1.477137331e-14 0)
(3 1.388073004e-14 0)
(3 1.205074001e-14 0)
(3 1.243689535e-14 0)
(3 8.658860897e-15 0)
(3 4.794066172e-15 0)
(3 1.597076228e-15 0)
(3 -5.767801378e-16 0)
(3 -1.955400452e-15 0)
(3 -3.569241381e-15 0)
(3 -8.45146007e-15 0)
(3 3.462833256e-17 0)
(3 -1.964886992e-16 0)
(3 -4.31489303e-16 0)
(3 -2.815555419e-15 0)
(3 -3.749517083e-15 0)
(3 -4.790051528e-15 0)
(3 -4.481894666e-15 0)
(3 -1.730883985e-15 0)
(3 -2.833722955e-15 0)
(3 -2.31004578e-15 0)
(3 -1.246218444e-15 0)
(3 5.203712021e-16 0)
(3 2.126117521e-15 0)
(3 3.677454745e-15 0)
(3 6.009487426e-15 0)
(3 7.365791304e-15 0)
(3 8.429439853e-15 0)
(3 7.54189568e-15 0)
(3 9.325896911e-15 0)
(3 9.450419261e-15 0)
(3 9.20403052e-15 0)
(3 7.07326465e-15 0)
(3 5.022254316e-15 0)
(3 5.668395201e-15 0)
(3 5.770351079e-15 0)
(3 5.618037192e-15 0)
(3 6.271535609e-15 0)
(3 5.924098408e-15 0)
(3 2.168095297e-15 0)
(3 -3.342741633e-15 0)
(3 -6.629735613e-15 0)
(3 -4.084079102e-15 0)
(3 -2.183270705e-15 0)
(3 -5.200302756e-16 0)
(3 -1.156002849e-15 0)
(3 -8.352784809e-16 0)
(3 1.075000993e-15 0)
(3 5.66060172e-15 0)
(3 9.215192995e-15 0)
(3 1.108457959e-14 0)
(3 1.101900706e-14 0)
(3 1.272878003e-14 0)
(3 9.850496877e-15 0)
(3 8.368748925e-15 0)
(3 6.407616684e-15 0)
(3 3.417457609e-15 0)
(3 4.177332414e-15 0)
(3 4.313476357e-15 0)
(3 5.949978521e-15 0)
(3 6.892129972e-15 0)
(3 8.121087151e-15 0)
(3 8.762270073e-15 0)
(3 8.004594578e-15 0)
(3 7.957420885e-15 0)
(3 7.289436762e-15 0)
(3 6.802614413e-15 0)
(3 8.292124894e-15 0)
(3 1.007098189e-14 0)
(3 6.791420681e-15 0)
(3 3.409089628e-15 0)
(3 -1.599791797e-15 0)
(3 -3.557436028e-15 0)
(3 -6.118685706e-15 0)
(3 -6.748827436e-15 0)
(3 -7.854561658e-15 0)
(3 -8.242704198e-15 0)
(3 -7.463539735e-16 0)
(3 -6.802296152e-16 0)
(3 -6.552081595e-16 0)
(3 -1.832023037e-15 0)
(3 -2.370161963e-15 0)
(3 -3.040280285e-15 0)
(3 -4.699209101e-15 0)
(3 -3.649895595e-15 0)
(3 -4.291796018e-15 0)
(3 -2.835877332e-15 0)
(3 -1.085335064e-15 0)
(3 7.716208334e-16 0)
(3 3.26998968e-15 0)
(3 4.506654576e-15 0)
(3 4.876667435e-15 0)
(3 6.472344569e-15 0)
(3 5.954823572e-15 0)
(3 4.932079677e-15 0)
(3 1.175519461e-15 0)
(3 -6.295396659e-16 0)
(3 -2.142466047e-15 0)
(3 -6.841856935e-15 0)
(3 -7.704173445e-15 0)
(3 -6.769835689e-15 0)
(3 -4.148722714e-15 0)
(3 -7.105845781e-16 0)
(3 -4.097568316e-17 0)
(3 4.778109519e-17 0)
(3 3.928709327e-16 0)
(3 5.846195126e-16 0)
(3 -2.453982914e-17 0)
(3 9.740288761e-16 0)
(3 -6.531029235e-16 0)
(3 -1.821726172e-15 0)
(3 -1.064234872e-15 0)
(3 -1.09359075e-15 0)
(3 1.275158062e-15 0)
(3 2.920723987e-15 0)
(3 6.061881541e-15 0)
(3 8.279156164e-15 0)
(3 9.358981223e-15 0)
(3 1.184075314e-14 0)
(3 1.244249619e-14 0)
(3 9.338504559e-15 0)
(3 5.862776168e-15 0)
(3 1.460766431e-15 0)
(3 -5.830554131e-16 0)
(3 -3.311844206e-15 0)
(3 -5.33793797e-15 0)
(3 -5.036205764e-15 0)
(3 -1.09246954e-15 0)
(3 1.693268463e-15 0)
(3 1.371048737e-15 0)
(3 -1.601553691e-15 0)
(3 -1.191155667e-15 0)
(3 -1.829020608e-15 0)
(3 -8.544578401e-16 0)
(3 7.278504192e-16 0)
(3 -2.935246202e-16 0)
(3 6.152404695e-16 0)
(3 6.912776233e-16 0)
(3 1.593092675e-16 0)
(3 -1.370007774e-15 0)
(3 -3.253622924e-15 0)
(3 -4.941413721e-16 0)
(3 7.521976448e-15 0)
(3 -1.089085189e-15 0)
(3 -2.706606338e-15 0)
(3 -9.039383444e-16 0)
(3 4.831456396e-17 0)
(3 -8.80078435e-16 0)
(3 -9.723486108e-16 0)
(3 -9.109595645e-16 0)
(3 -8.599929856e-17 0)
(3 4.883876298e-16 0)
(3 3.782161913e-16 0)
(3 6.965694598e-16 0)
(3 1.930708817e-15 0)
(3 3.122464702e-15 0)
(3 4.516944024e-15 0)
(3 3.434040149e-15 0)
(3 3.735045405e-15 0)
(3 4.043501454e-15 0)
(3 2.381749179e-15 0)
(3 -2.026533795e-15 0)
(3 -6.435081223e-15 0)
(3 -7.00252137e-15 0)
(3 -5.392762848e-15 0)
(3 -4.8618683e-15 0)
(3 -4.420764781e-15 0)
(3 -2.929102502e-15 0)
(3 -1.619305687e-15 0)
(3 5.850469329e-17 0)
(3 1.103463613e-15 0)
(3 6.285147857e-15 0)
(3 7.375988079e-15 0)
(3 7.101453553e-15 0)
(3 5.975095101e-15 0)
(3 3.600269526e-15 0)
(3 7.777484194e-16 0)
(3 -1.633575494e-15 0)
(3 -1.630950657e-15 0)
(3 -5.636868341e-15 0)
(3 -4.038489023e-15 0)
(3 1.231169208e-15 0)
(3 5.310960178e-15 0)
(3 6.958420738e-15 0)
(3 8.494230445e-15 0)
(3 8.161950848e-15 0)
(3 8.446585279e-15 0)
(3 5.036612066e-15 0)
(3 1.571955917e-16 0)
(3 -4.215289832e-15 0)
(3 -7.171642438e-15 0)
(3 -9.667105447e-15 0)
(3 -9.685793219e-15 0)
(3 -9.138373065e-15 0)
(3 -6.547422446e-15 0)
(3 -3.872373384e-15 0)
(3 -4.429632137e-15 0)
(3 -2.943807028e-15 0)
(3 -5.44967577e-16 0)
(3 -1.127885627e-15 0)
(3 -2.647651138e-15 0)
(3 -1.099692984e-16 0)
(3 4.298983301e-15 0)
(3 8.557421906e-15 0)
(3 1.097703639e-14 0)
(3 6.651508836e-15 0)
(3 -1.960221359e-15 0)
(3 -6.597392114e-15 0)
(3 -3.723717106e-15 0)
(3 1.371402282e-15 0)
(3 7.96800993e-16 0)
(3 9.403252308e-16 0)
(3 2.810684615e-15 0)
(3 1.627349401e-15 0)
(3 2.354068104e-15 0)
(3 1.568809942e-15 0)
(3 1.753045383e-15 0)
(3 1.663045954e-15 0)
(3 -7.289518332e-16 0)
(3 -3.339518095e-15 0)
(3 -4.6787797e-15 0)
(3 -3.761029354e-15 0)
(3 -2.169353328e-16 0)
(3 1.070751785e-15 0)
(3 1.111374643e-15 0)
(3 -3.57767652e-16 0)
(3 -3.106234472e-16 0)
(3 -2.96390829e-16 0)
(3 -1.817615338e-15 0)
(3 -1.72719796e-15 0)
(3 9.053333801e-16 0)
(3 2.230394638e-15 0)
(3 4.857747975e-15 0)
(3 3.739969913e-15 0)
(3 3.634114002e-15 0)
(3 3.449923972e-15 0)
(3 6.177767103e-15 0)
(3 5.838270463e-15 0)
(3 4.349712235e-15 0)
(3 4.271776813e-15 0)
(3 -4.749770977e-16 0)
(3 -1.735695202e-15 0)
(3 -3.77355969e-15 0)
(3 -6.190789782e-15 0)
(3 -7.029521177e-15 0)
(3 -1.183285693e-14 0)
(3 -1.078328102e-14 0)
(3 -1.038558138e-14 0)
(3 -5.001032275e-15 0)
(3 -1.27057231e-15 0)
(3 5.637126383e-16 0)
(3 2.2227684e-15 0)
(3 3.050667411e-15 0)
(3 2.392187987e-15 0)
(3 -9.730597338e-16 0)
(3 -2.695243685e-15 0)
(3 -4.94787656e-15 0)
(3 -7.624280991e-15 0)
(3 -9.86951489e-15 0)
(3 -1.084217679e-14 0)
(3 -1.025071146e-14 0)
(3 -3.809461012e-15 0)
(3 2.078502808e-15 0)
(3 7.379625798e-15 0)
(3 9.610343283e-15 0)
(3 9.443840112e-15 0)
(3 7.917167965e-15 0)
(3 1.035282464e-14 0)
(3 1.181861639e-14 0)
(3 1.583589422e-14 0)
(3 1.4195858e-14 0)
(3 1.284512593e-14 0)
(3 1.015542224e-14 0)
(3 5.119568917e-15 0)
(3 4.866582709e-15 0)
(3 -2.629003399e-16 0)
(3 -1.478487481e-16 0)
(3 -9.567302889e-16 0)
(3 5.963195688e-16 0)
(3 4.313219431e-15 0)
(3 4.299743165e-15 0)
(3 3.966115823e-15 0)
(3 3.583175154e-15 0)
(3 2.230760338e-15 0)
(3 3.986149902e-16 0)
(3 -7.013329899e-16 0)
(3 -1.21762381e-15 0)
(3 -7.735516992e-19 0)
(3 1.966085913e-15 0)
(3 3.588920354e-15 0)
(3 2.634047282e-15 0)
(3 1.64230846e-15 0)
(3 2.528800167e-15 0)
(3 6.106990484e-15 0)
(3 5.018388889e-15 0)
(3 5.990299882e-15 0)
(3 8.407816314e-15 0)
(3 1.112265279e-14 0)
(3 1.215312953e-14 0)
(3 1.000940985e-14 0)
(3 8.026353289e-15 0)
(3 6.691927073e-15 0)
(3 8.136850568e-15 0)
(3 4.143387182e-15 0)
(3 2.035074444e-15 0)
(3 -2.090853068e-17 0)
(3 -2.467483169e-15 0)
(3 -6.618564729e-15 0)
(3 -1.195441448e-14 0)
(3 -1.441622844e-14 0)
(3 -1.363181873e-14 0)
(3 -1.479021184e-14 0)
(3 -1.652371335e-14 0)
(3 -1.736826656e-14 0)
(3 -1.339526447e-14 0)
(3 -7.852773939e-15 0)
(3 -4.404894443e-15 0)
(3 -5.113338161e-15 0)
(3 -8.427473351e-15 0)
(3 -7.738181257e-15 0)
(3 -7.075643199e-15 0)
(3 -3.382328223e-15 0)
(3 -3.045372236e-15 0)
(3 -1.622028797e-15 0)
(3 -4.309544318e-15 0)
(3 -6.321922351e-15 0)
(3 -1.611961653e-15 0)
(3 1.456355234e-15 0)
(3 6.81992438e-15 0)
(3 1.05536332e-14 0)
(3 1.086278254e-14 0)
(3 1.272544685e-14 0)
(3 1.635056747e-14 0)
(3 1.628944998e-14 0)
(3 1.578364441e-14 0)
(3 1.443037411e-14 0)
(3 1.556495421e-14 0)
(3 1.679452929e-14 0)
(3 1.84144409e-14 0)
(3 1.557624793e-14 0)
(3 1.212073347e-14 0)
(3 -2.006112332e-15 0)
(3 -1.730455207e-15 0)
(3 -1.224358511e-15 0)
(3 1.62061776e-16 0)
(3 1.911929321e-15 0)
(3 4.145889212e-15 0)
(3 5.793023069e-15 0)
(3 9.39967364e-15 0)
(3 9.464728857e-15 0)
(3 9.555432742e-15 0)
(3 8.15545321e-15 0)
(3 8.323242752e-15 0)
(3 6.773235036e-15 0)
(3 5.032281923e-15 0)
(3 5.048150391e-15 0)
(3 3.515646628e-15 0)
(3 2.33616944e-15 0)
(3 3.427763988e-15 0)
(3 4.900804852e-15 0)
(3 6.069882782e-15 0)
(3 8.296765842e-15 0)
(3 7.109066231e-15 0)
(3 1.046049631e-14 0)
(3 8.62451683e-15 0)
(3 9.312339999e-15 0)
(3 7.130858117e-15 0)
(3 7.017112517e-15 0)
(3 4.686977007e-15 0)
(3 2.13191877e-15 0)
(3 -2.134160768e-16 0)
(3 -1.534564304e-15 0)
(3 -2.916860701e-15 0)
(3 -4.161354982e-15 0)
(3 -5.251054185e-15 0)
(3 -6.347752481e-15 0)
(3 -6.201334071e-15 0)
(3 -6.673005488e-15 0)
(3 -1.009512473e-14 0)
(3 -1.304801588e-14 0)
(3 -1.307082324e-14 0)
(3 -1.056539034e-14 0)
(3 -8.066401029e-15 0)
(3 -8.141232132e-15 0)
(3 -8.352167579e-15 0)
(3 -9.680680316e-15 0)
(3 -1.167733481e-14 0)
(3 -8.612219353e-15 0)
(3 -6.532830701e-15 0)
(3 -1.678511812e-15 0)
(3 1.135089268e-15 0)
(3 4.308119068e-15 0)
(3 6.524066433e-15 0)
(3 7.776200015e-15 0)
(3 9.354142593e-15 0)
(3 1.02754246e-14 0)
(3 1.187870526e-14 0)
(3 1.655786167e-14 0)
(3 1.851965938e-14 0)
(3 2.101086374e-14 0)
(3 1.725650207e-14 0)
(3 1.327325693e-14 0)
(3 1.249696982e-14 0)
(3 1.208119003e-14 0)
(3 1.453908282e-14 0)
(3 1.451957574e-14 0)
(3 1.020636272e-14 0)
(3 6.01875477e-16 0)
(3 -2.786103718e-17 0)
(3 -1.385743106e-15 0)
(3 -3.304635627e-17 0)
(3 -8.998076791e-17 0)
(3 3.30007922e-15 0)
(3 5.094004661e-15 0)
(3 7.502794019e-15 0)
(3 8.090872754e-15 0)
(3 7.222089866e-15 0)
(3 5.76783518e-15 0)
(3 6.266626066e-15 0)
(3 7.521213683e-15 0)
(3 5.86169443e-15 0)
(3 4.034258473e-15 0)
(3 8.520829513e-16 0)
(3 8.375964964e-17 0)
(3 -2.068992081e-16 0)
(3 -2.177160027e-16 0)
(3 2.814778635e-15 0)
(3 5.856401953e-15 0)
(3 1.750670319e-15 0)
(3 5.472376543e-17 0)
(3 1.423481242e-15 0)
(3 6.502529006e-16 0)
(3 -2.021968061e-16 0)
(3 -1.836015447e-15 0)
(3 -3.965846578e-15 0)
(3 -3.663852877e-15 0)
(3 -4.590698655e-15 0)
(3 -1.773099219e-15 0)
(3 -2.647791724e-15 0)
(3 1.411060359e-15 0)
(3 3.444327139e-15 0)
(3 1.829805565e-15 0)
(3 3.830130283e-15 0)
(3 4.25317704e-15 0)
(3 3.10828513e-15 0)
(3 -5.776866008e-16 0)
(3 -5.080387887e-15 0)
(3 -8.37877158e-15 0)
(3 -8.8128849e-15 0)
(3 -6.119611341e-15 0)
(3 -5.184091029e-15 0)
(3 -5.162688031e-15 0)
(3 -3.50089272e-15 0)
(3 -8.362307718e-16 0)
(3 3.215137021e-15 0)
(3 7.700234261e-15 0)
(3 1.245435503e-14 0)
(3 1.355972584e-14 0)
(3 1.235123302e-14 0)
(3 1.327864416e-14 0)
(3 1.414289428e-14 0)
(3 1.431535036e-14 0)
(3 1.287462143e-14 0)
(3 1.312824745e-14 0)
(3 1.214740666e-14 0)
(3 1.697523969e-14 0)
(3 1.318464138e-14 0)
(3 1.430710321e-14 0)
(3 1.386913494e-14 0)
(3 1.792580979e-14 0)
(3 2.585116995e-14 0)
(3 2.864070693e-14 0)
(3 2.282539735e-14 0)
(3 1.460799262e-15 0)
(3 4.205805938e-15 0)
(3 4.101787177e-15 0)
(3 7.231723175e-16 0)
(3 1.340199942e-15 0)
(3 1.173239113e-15 0)
(3 4.106623418e-16 0)
(3 -2.265144825e-15 0)
(3 -2.96211252e-15 0)
(3 -3.739497286e-15 0)
(3 -4.151649256e-15 0)
(3 -4.581434152e-15 0)
(3 -4.843208038e-15 0)
(3 -4.347601198e-15 0)
(3 -2.551647555e-15 0)
(3 -1.257209729e-15 0)
(3 4.616514063e-16 0)
(3 -4.077779223e-18 0)
(3 -1.046977827e-15 0)
(3 -1.060161935e-15 0)
(3 -1.934318044e-15 0)
(3 -5.128827818e-15 0)
(3 -9.27467584e-15 0)
(3 -1.14014611e-14 0)
(3 -1.070399415e-14 0)
(3 -1.008039518e-14 0)
(3 -1.009284681e-14 0)
(3 -8.722920581e-15 0)
(3 -4.036839315e-15 0)
(3 1.889305272e-15 0)
(3 2.046109789e-15 0)
(3 2.649904979e-15 0)
(3 5.310471749e-15 0)
(3 7.952917222e-15 0)
(3 6.770007152e-15 0)
(3 6.46105072e-15 0)
(3 5.093013146e-15 0)
(3 2.926679028e-15 0)
(3 1.347962383e-16 0)
(3 -3.827525929e-15 0)
(3 -8.496842395e-15 0)
(3 -9.902215528e-15 0)
(3 -9.785221596e-15 0)
(3 -8.024688756e-15 0)
(3 -2.636204153e-15 0)
(3 4.779019657e-15 0)
(3 1.043325484e-14 0)
(3 1.497551053e-14 0)
(3 1.840145552e-14 0)
(3 1.87838546e-14 0)
(3 1.872723422e-14 0)
(3 1.769404713e-14 0)
(3 1.529894388e-14 0)
(3 1.429979829e-14 0)
(3 1.021865987e-14 0)
(3 1.00798355e-14 0)
(3 8.806687926e-15 0)
(3 1.204818911e-14 0)
(3 1.049133384e-14 0)
(3 1.138248155e-14 0)
(3 1.616299951e-14 0)
(3 1.853013271e-14 0)
(3 2.267121855e-14 0)
(3 3.049841449e-14 0)
(3 3.893509524e-14 0)
(3 3.575817439e-14 0)
(3 6.681737556e-16 0)
(3 3.980287077e-15 0)
(3 5.512854211e-15 0)
(3 5.220610328e-15 0)
(3 4.218761968e-15 0)
(3 1.657225197e-15 0)
(3 -5.58149245e-15 0)
(3 -1.066211384e-14 0)
(3 -1.066466389e-14 0)
(3 -9.609005002e-15 0)
(3 -9.900101878e-15 0)
(3 -9.848370048e-15 0)
(3 -1.20078024e-14 0)
(3 -1.262190685e-14 0)
(3 -1.072972709e-14 0)
(3 -9.173479579e-15 0)
(3 -7.150401116e-15 0)
(3 -5.725039239e-15 0)
(3 -3.940914563e-15 0)
(3 -4.609040751e-15 0)
(3 -6.560155213e-15 0)
(3 -6.031742776e-15 0)
(3 -7.573092406e-15 0)
(3 -1.286155897e-14 0)
(3 -1.300146444e-14 0)
(3 -1.208267038e-14 0)
(3 -8.598164014e-15 0)
(3 -3.241795932e-15 0)
(3 2.062260039e-15 0)
(3 2.880600776e-15 0)
(3 1.781105664e-15 0)
(3 5.719340476e-16 0)
(3 1.266793399e-15 0)
(3 5.331669978e-15 0)
(3 9.808112068e-15 0)
(3 9.266015245e-15 0)
(3 7.606193375e-15 0)
(3 6.185185905e-15 0)
(3 1.445311053e-15 0)
(3 -4.261432112e-16 0)
(3 -5.291883641e-15 0)
(3 -6.248476846e-15 0)
(3 -6.915676638e-15 0)
(3 -3.37026311e-15 0)
(3 1.885708596e-15 0)
(3 7.029800253e-15 0)
(3 1.068511623e-14 0)
(3 1.308910586e-14 0)
(3 1.760097402e-14 0)
(3 1.78483711e-14 0)
(3 1.728193503e-14 0)
(3 1.631385979e-14 0)
(3 1.381761247e-14 0)
(3 7.396945768e-15 0)
(3 3.564141386e-15 0)
(3 1.930350513e-15 0)
(3 2.188703541e-15 0)
(3 4.120774856e-15 0)
(3 6.2416288e-15 0)
(3 1.089817494e-14 0)