/*--------------------------------*- C++ -*----------------------------------*\
  =========                 |
  \\      /  F ield         | OpenFOAM: The Open Source CFD Toolbox
   \\    /   O peration     | Website:  https://openfoam.org
    \\  /    A nd           | Version:  7
     \\/     M anipulation  |
\*---------------------------------------------------------------------------*/
FoamFile
{
    version     2.0;
    format      ascii;
    class       volScalarField;
    location    "3.9";
    object      rho;
}
// * * * * * * * * * * * * * * * * * * * * * * * * * * * * * * * * * * * * * //

dimensions      [1 -3 0 0 0 0 0];

internalField   nonuniform List<scalar> 
2222
(
1.007664333
1.001066513
0.9954480933
0.9830526162
0.9708463455
0.9664905908
1.361536255
1.331033542
1.315394943
1.291608508
1.259917373
1.245842109
1.231345497
1.203398821
1.188031719
1.179955751
1.162538028
1.14224119
1.132374045
1.120387731
1.099054481
1.088069936
1.080919079
1.06600648
1.051815062
1.04688121
1.039967618
1.025499005
1.01672151
1.011268356
0.999515824
0.9871523105
0.9819575701
0.9760264151
0.9638214221
0.9581843341
0.9556005756
1.324262488
1.298486093
1.284319916
1.258753999
1.231382136
1.220275344
1.204918945
1.178804998
1.164913794
1.154730841
1.133881399
1.115780193
1.107944011
1.09565924
1.076680959
1.068735867
1.062257934
1.047688957
1.03510449
1.028709101
1.01857981
1.003339952
0.9975901346
0.9923716747
0.9815155511
0.9720443325
0.9687499974
0.9607828786
0.9502970202
0.9477019474
0.9463869225
1.288946076
1.269029855
1.255256674
1.227848324
1.204581381
1.19411434
1.176903937
1.152406428
1.141043576
1.129879712
1.107737902
1.093265234
1.086539485
1.073477457
1.056158094
1.048139601
1.039916656
1.023171104
1.013664483
1.009028065
0.9992626191
0.987594974
0.9834188494
0.9782370547
0.9664821018
0.9576568154
0.9521011903
0.9417464678
0.9397214902
0.9409286096
0.9478237071
1.2577875
1.241250154
1.226189062
1.196768005
1.177241921
1.166234769
1.145790002
1.123358501
1.115184324
1.105045902
1.084670647
1.072683459
1.065067293
1.049525083
1.034227017
1.028496847
1.020336812
1.005295383
0.9979490096
0.9933525879
0.9832051401
0.9722564308
0.9661264797
0.9582511841
0.9429828866
0.9400094159
0.9381179919
0.9375820078
0.9392782757
0.9547053576
1.016667566
1.223461996
1.210088088
1.193766793
1.164610766
1.151234252
1.142132195
1.121805956
1.102306375
1.092977552
1.079370464
1.057811446
1.048884094
1.042049356
1.027112872
1.015151375
1.010499999
1.00210313
0.9880684045
0.9798990913
0.9729959899
0.9589194199
0.9499738633
0.9468302749
0.9392919619
0.9348123558
0.9371215226
0.9376425517
0.9440941887
0.9794212218
1.062558651
1.196703407
1.193029569
1.182122581
1.163809616
1.136528264
1.12436168
1.113844521
1.09115769
1.075612845
1.06856433
1.055310874
1.037797213
1.030270263
1.022872896
1.006823796
0.9956686446
0.9894831112
0.9779020152
0.9646120776
0.9598939684
0.9542736494
0.9433045201
0.9400340109
0.9381417868
0.9336548882
0.933236594
0.9368911334
0.9561371078
1.024008866
1.127787444
1.255538747
1.304369612
1.16455196
1.154806417
1.134782404
1.110235802
1.099576707
1.086990496
1.063796049
1.051563829
1.045146044
1.030898232
1.014985091
1.007585546
0.9979567977
0.9801863138
0.9737717928
0.9698549346
0.9602825996
0.9518938427
0.9494026103
0.9417995803
0.9335034804
0.9321575427
0.9310983526
0.930787035
0.94024512
0.9902849858
1.080298366
1.206115047
1.310592635
1.37407056
1.374119913
1.134071247
1.122962976
1.099551283
1.079387251
1.072424815
1.060632196
1.039712023
1.029293192
1.021017002
1.002811543
0.9908388779
0.9871690998
0.9791094395
0.9659023725
0.9615385329
0.957128059
0.9460619578
0.9399367037
0.9359385903
0.9263520218
0.9241669744
0.9251784077
0.9300608735
0.957253737
1.036834583
1.161027225
1.27593684
1.315178334
1.34745626
1.383757132
1.386986799
1.107499306
1.096499742
1.071876226
1.054813399
1.046732231
1.030796259
1.010366386
1.004734179
0.9982757744
0.9831853985
0.9752054105
0.9718586002
0.9629303521
0.951348247
0.9456375648
0.9376189371
0.9247103124
0.9234862588
0.9230263308
0.922110987
0.9236472648
0.936775921
0.9942019847
1.091491256
1.218737531
1.306465757
1.375992803
1.381246873
1.373961236
1.379793985
1.384402309
1.077134952
1.065026324
1.039266256
1.02880387
1.02293337
1.008417887
0.9931985606
0.9876871395
0.9790362244
0.9638120454
0.9562764075
0.9510084582
0.938205018
0.9300398511
0.9275606941
0.9221357808
0.9187282844
0.9205799406
0.922055923
0.9288989255
0.9655849233
1.045333896
1.177853799
1.293090449
1.36139347
1.368799176
1.386325817
1.39187028
1.389502011
1.386258965
1.38606809
1.050622937
1.035586072
1.012608532
1.00449935
0.9986231708
0.9827918464
0.9706735035
0.9643503144
0.9523663603
0.9377803726
0.935435351
0.9325302502
0.9243324742
0.923100648
0.9229818696
0.9205780646
0.9197071766
0.9227434442
0.9426975529
1.012340384
1.122432661
1.253253762
1.300080525
1.343955458
1.379590045
1.375302256
1.377888737
1.384527142
1.389022086
1.388385754
1.387277451
1.023723827
1.007875217
0.9887615293
0.9805819873
0.9712793621
0.9520019664
0.947458558
0.9453910043
0.9370258186
0.9292470122
0.9288918184
0.9255610266
0.9201101289
0.9201843813
0.9197134482
0.9198826693
0.927410135
0.9731260549
1.064504144
1.196431245
1.303610802
1.371038498
1.374235988
1.373587374
1.379071968
1.378049581
1.378453623
1.382347551
1.38662879
1.387453681
1.387093682
0.9940731839
0.9739319261
0.9605938481
0.9581499781
0.9510387697
0.9390986123
0.9377608641
0.9355750834
0.9269795507
0.9230047311
0.9214909251
0.9161963884
0.9142846593
0.9152219717
0.9205617301
0.9467396931
1.013074213
1.146745396
1.278984013
1.346592567
1.357089963
1.380489105
1.386563403
1.385458136
1.385918692
1.386744087
1.385932878
1.385684947
1.386534583
1.386555794
1.386318514
0.9721180496
0.9570669921
0.9495750504
0.9462870862
0.9354673532
0.927355506
0.9258383801
0.9212041085
0.9129552016
0.9123091587
0.9123712813
0.9117514008
0.9131369692
0.9258842572
0.9798125014
1.08294951
1.215867027
1.28178067
1.340218744
1.366707164
1.365784655
1.37281478
1.381565923
1.386221465
1.387247276
1.389152383
1.389757469
1.389390723
1.388210966
1.386863766
1.38559154
0.9505681097
0.9374247726
0.9327664278
0.9277435972
0.9158702494
0.9126571338
0.9123070765
0.9101835345
0.9090631782
0.9098071458
0.911407215
0.9171827161
0.9515648065
1.029651473
1.160812034
1.28458078
1.362688517
1.368961091
1.377062641
1.382905579
1.382190659
1.380803087
1.38378877
1.385200291
1.38620738
1.387670801
1.38873743
1.388772857
1.388051027
1.386909067
1.385656081
0.9246470916
0.9160799895
0.9162794478
0.9144270938
0.9098946455
0.9091129452
0.9099013703
0.9093726842
0.9093650505
0.9127218842
0.9325387157
0.9911404829
1.107995252
1.233195835
1.305545654
1.337649723
1.378955701
1.384060368
1.385477347
1.387551787
1.38928202
1.388622324
1.387342908
1.385389589
1.384983622
1.385128091
1.385499441
1.385976235
1.386325998
1.386254665
1.386024087
0.9153275405
0.9123080869
0.9134732099
0.912592681
0.9101020796
0.9097993016
0.9100625099
0.9108250389
0.9192198055
0.9624082889
1.054534682
1.182099623
1.290019864
1.365329465
1.380016783
1.36900609
1.374937595
1.381132831
1.38454089
1.3867984
1.388458106
1.388281679
1.387022938
1.385764514
1.384923222
1.385001825
1.385051027
1.385236153
1.385604061
1.385979913
1.386260628
0.9124142942
0.9107453548
0.9110236372
0.9097972049
0.9085978303
0.9087024937
0.9130856117
0.9394937057
1.006382523
1.140709083
1.261789698
1.343511708
1.351411244
1.377067871
1.38932452
1.38776939
1.38394312
1.384342898
1.383974179
1.383475119
1.3838839
1.384749023
1.384770541
1.384766074
1.38505813
1.385617503
1.385861392
1.385951714
1.386061627
1.386245871
1.386386102
0.9069330106
0.9062428725
0.9065297822
0.9062770908
0.9077713361
0.9211563348
0.9743161309
1.079548822
1.210296221
1.28139556
1.329246171
1.367141505
1.367420846
1.373071596
1.382471661
1.388936354
1.388299798
1.38691247
1.385004821
1.383436284
1.38299299
1.383213891
1.383489409
1.383983478
1.384683769
1.385613435
1.386463029
1.386600064
1.386574083
1.386611087
1.386642811
0.904692061
0.9047458952
0.9055982324
0.9115412284
0.9457893319
1.02293715
1.152871848
1.278133297
1.358059055
1.367052922
1.37266915
1.382578308
1.386175172
1.383534209
1.385267552
1.387299806
1.387832329
1.387177962
1.386204379
1.385101764
1.384460915
1.384226522
1.384080432
1.384088632
1.384435045
1.385232591
1.3862161
1.386642039
1.386709095
1.386660148
1.386630175
0.9047708641
0.9079532924
0.9280096681
0.9831218435
1.108165725
1.235486312
1.325022798
1.344388941
1.375552332
1.381949233
1.382900222
1.387110062
1.390617022
1.390258189
1.388554596
1.387007807
1.386209712
1.386034382
1.385654222
1.385517584
1.385572909
1.385452587
1.384940279
1.384584778
1.384658803
1.385101827
1.385779544
1.386276616
1.386517495
1.386632259
1.386669515
0.9151959043
0.9559523135
1.053070582
1.181567752
1.262078309
1.329465422
1.368160264
1.364434442
1.371212205
1.379024019
1.381578909
1.384989437
1.38738713
1.389401765
1.388535738
1.387232996
1.386162555
1.384856376
1.384466596
1.384655236
1.385000661
1.385135889
1.384995691
1.384822868
1.385004064
1.385503153
1.386089069
1.386507944
1.386699589
1.386740668
1.386711516
0.9993070491
1.120585998
1.258820537
1.349017941
1.362832163
1.376362672
1.385719185
1.384974916
1.381507163
1.383066573
1.383429642
1.38270614
1.383227184
1.385571276
1.387035501
1.386781963
1.385967941
1.384550977
1.383712337
1.383523113
1.383658272
1.383876039
1.384132627
1.384627509
1.385467645
1.385961202
1.386456595
1.386793665
1.386895783
1.38681511
1.386591115
1.193964033
1.294400716
1.328534043
1.372469745
1.3814286
1.385562809
1.388411863
1.388026002
1.387049743
1.385990067
1.385293119
1.384104558
1.384006805
1.384790242
1.386122305
1.386039526
1.385559723
1.384712227
1.383706334
1.383702672
1.383946325
1.384203859
1.384504475
1.385081058
1.385716618
1.386132745
1.386686846
1.386934546
1.386916477
1.386666257
1.386294772
1.345897417
1.379262108
1.368237646
1.373450182
1.379075418
1.381921912
1.382890419
1.384232238
1.385000253
1.385742566
1.386302766
1.386780367
1.386509874
1.386069344
1.386222734
1.385915186
1.385479366
1.385124713
1.384674273
1.384436077
1.38461798
1.384895924
1.385223114
1.385878164
1.38611988
1.386216144
1.386495329
1.386617537
1.386568688
1.386350647
1.385972865
1.363405675
1.383985014
1.385060598
1.382407356
1.382989791
1.383289714
1.382976626
1.383718617
1.384423656
1.385107122
1.386303321
1.386861987
1.386833511
1.386686422
1.386447944
1.386038597
1.385666174
1.385396756
1.385212237
1.384966776
1.385014721
1.385293252
1.385557772
1.385871896
1.385907575
1.385906841
1.386088938
1.38613299
1.386084538
1.385914735
1.385604384
1.377663368
1.380861305
1.383707292
1.385296818
1.385579071
1.38517734
1.384244774
1.384208774
1.384820563
1.385356579
1.385660262
1.385819947
1.38571423
1.385702838
1.385709615
1.385514506
1.385264522
1.385113675
1.38496983
1.384745537
1.384765052
1.384991626
1.385230937
1.385377594
1.385309396
1.385217066
1.385248243
1.385230011
1.385197154
1.38515034
1.385052693
1.38334658
1.382877401
1.382574264
1.383623127
1.384920904
1.385119647
1.384993202
1.385150548
1.384891956
1.384671052
1.384119669
1.383412383
1.382660922
1.382840235
1.383385555
1.383839016
1.383960643
1.384080582
1.384027186
1.383737067
1.383345421
1.383358493
1.383492173
1.383466571
1.383421083
1.383547425
1.383713552
1.383819182
1.383928229
1.383966054
1.383854332
1.381279263
1.381373414
1.381444329
1.38234405
1.383624597
1.383826135
1.383398574
1.382976249
1.382520003
1.381876524
1.38095093
1.380047111
1.379657882
1.379844278
1.380343862
1.380989472
1.381636859
1.382092908
1.382217379
1.382096995
1.381919781
1.38195891
1.382124038
1.38222027
1.382270992
1.382427058
1.382614765
1.382755839
1.382836906
1.382894452
1.382804209
1.377235725
1.38041448
1.381575876
1.382234785
1.382366892
1.381906817
1.380966564
1.379978337
1.379390893
1.379084821
1.378841621
1.378574149
1.378442015
1.378890724
1.379379313
1.379888681
1.380263357
1.380415572
1.380490469
1.380299047
1.380279675
1.38048032
1.380838673
1.381084583
1.381259349
1.381389221
1.381502741
1.381470133
1.381333262
1.381217
1.381164216
1.37185248
1.376941526
1.380082191
1.380972682
1.381409885
1.38073425
1.379631043
1.378717958
1.378088251
1.377609388
1.377543788
1.377314172
1.377176375
1.378805679
1.380513553
1.38235548
1.384456752
1.385263191
1.384962787
1.384193581
1.383011834
1.381636462
1.380786167
1.380502924
1.380685935
1.380930841
1.381289972
1.381655302
1.381965349
1.381760679
1.38010021
1.37899605
1.371499512
1.376470735
1.379896193
1.380763719
1.381045379
1.380376119
1.378871277
1.377453579
1.376676417
1.376543878
1.376602062
1.376251507
1.375540483
1.377411571
1.37829257
1.379300622
1.381465526
1.383901123
1.384601729
1.384170243
1.383148369
1.382127704
1.381008096
1.380426418
1.380485592
1.380646438
1.381037717
1.381792886
1.382502296
1.382855041
1.382111186
1.380009164
1.372043388
1.376455237
1.379637251
1.380598855
1.380821935
1.38021087
1.378426346
1.376778751
1.376045653
1.375925136
1.376057818
1.375670397
1.374918287
1.376453889
1.376825646
1.377410637
1.378935603
1.380955141
1.382647112
1.382992052
1.382505973
1.38181136
1.380619911
1.379809539
1.379553629
1.379486897
1.379731015
1.380572708
1.381973763
1.382511768
1.382528422
1.381819545
1.373390607
1.378108527
1.380394227
1.381486202
1.381687189
1.381171627
1.379416009
1.376683959
1.375430975
1.375350361
1.375630531
1.375455446
1.374643265
1.375794954
1.376073343
1.376531729
1.377801327
1.378991706
1.380366372
1.381103645
1.381586233
1.381110933
1.380369856
1.379521781
1.378936695
1.37864706
1.378763025
1.379234149
1.380376338
1.381874965
1.382396137
1.382255243
1.373874416
1.378658972
1.381528717
1.382334838
1.38252334
1.381943513
1.38070179
1.378347087
1.376310094
1.376037393
1.376493427
1.376888732
1.376705719
1.377082154
1.376299184
1.376050609
1.376951186
1.378128937
1.378947414
1.379382249
1.380297254
1.380547714
1.380197852
1.379314301
1.378579631
1.378178646
1.378132836
1.378362503
1.37919902
1.380693358
1.381694545
1.381758235
1.374379925
1.378535515
1.381828449
1.382722151
1.382801124
1.382024014
1.381044297
1.379483437
1.377653269
1.37724797
1.377769308
1.37834558
1.379069497
1.380007576
1.379440104
1.377495908
1.37677819
1.377327016
1.377850693
1.378615071
1.37916459
1.380084337
1.380420006
1.380055045
1.37885518
1.377979499
1.377691842
1.377775546
1.378361831
1.379442963
1.380658192
1.38108672
1.375052081
1.378756547
1.381729153
1.382325188
1.382340299
1.381538781
1.380646544
1.379539801
1.378346191
1.378064233
1.378424795
1.379165494
1.380591804
1.381695384
1.382321655
1.381101255
1.378633439
1.377021156
1.377071972
1.377960122
1.378429853
1.379587545
1.380667233
1.381222442
1.380777263
1.379716441
1.378462543
1.37774573
1.377823332
1.378660695
1.379738701
1.380737528
1.375772634
1.379156732
1.381407388
1.381555403
1.381326445
1.38046515
1.379671242
1.3787976
1.377994814
1.378447106
1.379035128
1.379079834
1.380144288
1.382541978
1.38268479
1.383225403
1.38198301
1.378665056
1.377438436
1.37748891
1.378131978
1.379097731
1.380557035
1.382044801
1.382092931
1.382063906
1.381251098
1.379673346
1.378089006
1.378297718
1.378971676
1.379541048
1.376565061
1.379338274
1.38088335
1.38114889
1.380627818
1.379333739
1.37831309
1.377546201
1.377674252
1.378204453
1.37863538
1.378601884
1.379329205
1.381173835
1.3831631
1.384552131
1.383970054
1.381691726
1.378929736
1.377954506
1.378336219
1.378898116
1.380314911
1.38165448
1.38304248
1.382829822
1.382892048
1.382146554
1.380185822
1.378586842
1.378508979
1.378925499
1.374271837
1.378042356
1.379762996
1.380873675
1.380565742
1.379624161
1.377978148
1.376688806
1.376940099
1.377307617
1.377748304
1.377940915
1.378074115
1.378788552
1.379546665
1.382157017
1.384050774
1.38392479
1.383238853
1.380963403
1.378944344
1.378545156
1.378886413
1.379989537
1.381194969
1.382646532
1.383402184
1.383212796
1.383199179
1.382220068
1.380242781
1.378744399
1.378738755
1.374736881
1.379552661
1.380931979
1.381132785
1.380526639
1.379358727
1.377651814
1.376435599
1.376811063
1.37706994
1.377687067
1.377745471
1.377417132
1.377786032
1.378788792
1.380725712
1.38365754
1.383852292
1.38347626
1.382406886
1.38017649
1.378791093
1.378641433
1.378955258
1.380788917
1.381921525
1.383185613
1.383840281
1.383703655
1.383387278
1.382116512
1.380334207
1.379227456
1.375077841
1.379981464
1.382309282
1.382450982
1.382007656
1.380874223
1.378628267
1.37711817
1.377166207
1.377240243
1.377512059
1.377609364
1.377064842
1.377101775
1.377921273
1.379450044
1.383113155
1.383787969
1.383947277
1.383075531
1.381477553
1.37945925
1.378550344
1.378420353
1.378805348
1.38067046
1.382643282
1.383575938
1.383464524
1.383068286
1.382771166
1.381715304
1.380289259
1.375351417
1.379935066
1.382821137
1.383733904
1.383594703
1.383003932
1.380894097
1.378762277
1.37809
1.377846322
1.37769988
1.377822337
1.377516875
1.377433001
1.377736133
1.379124542
1.380736426
1.383271074
1.383678318
1.383118285
1.382281105
1.380739183
1.379498096
1.378871517
1.378434397
1.37876388
1.379614249
1.381729368
1.383122611
1.383002626
1.382508469
1.381913681
1.381157464
1.375235927
1.379537207
1.383228082
1.384492085
1.384748187
1.384022047
1.381865992
1.379544149
1.378741252
1.378611735
1.378520083
1.378748396
1.379132527
1.379627568
1.379108816
1.379232019
1.379845997
1.380820898
1.382925031
1.38322508
1.38253474
1.381591063
1.38103833
1.379706411
1.378454686
1.377890807
1.378195191
1.378668494
1.380572639
1.382185949
1.382222135
1.381686923
1.381029173
1.375471726
1.379268966
1.383523125
1.384775931
1.385070554
1.384208069
1.382039489
1.379602547
1.378746255
1.378763751
1.37897455
1.379604258
1.380606244
1.381367576
1.381520102
1.380281232
1.380050524
1.379626681
1.380524587
1.382765232
1.382761514
1.38215672
1.381466758
1.380600841
1.37941794
1.377755634
1.377401349
1.377622039
1.378198258
1.379224158
1.380615759
1.381346144
1.381181048
1.375856796
1.379453625
1.382736154
1.384789812
1.385102098
1.383912793
1.38180105
1.379669736
1.378762235
1.378907233
1.379474587
1.380315125
1.381292955
1.382136844
1.382471534
1.382259589
1.381268441
1.379941999
1.379282992
1.380247894
1.381817845
1.382202106
1.381539045
1.380987189
1.38036756
1.37873625
1.377411185
1.377565648
1.377224951
1.377456603
1.377977077
1.379268633
1.380710825
1.376827188
1.380009367
1.381753541
1.3832426
1.383178831
1.382380887
1.381138107
1.379464025
1.378262437
1.37874464
1.379660542
1.380283526
1.381316154
1.3823176
1.382721813
1.38288395
1.382686514
1.380383488
1.37924129
1.378884945
1.379270326
1.380733423
1.38139843
1.381187501
1.380717642
1.379814234
1.378703881
1.377661781
1.377397794
1.37781407
1.37721753
1.377645593
1.375421416
1.377556552
1.38086721
1.381457807
1.38139752
1.380449351
1.379156974
1.378402317
1.37766909
1.376910481
1.377531701
1.378364063
1.37884695
1.379697514
1.381539217
1.382872063
1.38314516
1.383466818
1.381706871
1.379377985
1.378342374
1.378323187
1.378768922
1.379885886
1.380954261
1.380935575
1.380510119
1.379984355
1.379084157
1.378660468
1.378079191
1.377603747
1.377595495
1.37507565
1.377513805
1.381132329
1.381361488
1.381160448
1.379597255
1.377516688
1.376080794
1.375770521
1.376171975
1.376923049
1.377512965
1.377704264
1.378122274
1.379360988
1.38173704
1.383237151
1.383688926
1.382354419
1.380911733
1.378871048
1.378061716
1.37817506
1.378857875
1.379689174
1.380692541
1.38091177
1.380733769
1.380520976
1.38004278
1.379561367
1.378976495
1.378042788
1.374850463
1.377137897
1.381122934
1.381524528
1.381104924
1.379720191
1.377195887
1.375393703
1.375160523
1.375892137
1.376671359
1.377368022
1.377730068
1.37790496
1.37849694
1.379614125
1.381304307
1.383167854
1.382731538
1.381854619
1.380582973
1.378896897
1.378588315
1.378620061
1.379130526
1.380173855
1.38118437
1.381269816
1.38118892
1.380979476
1.38083491
1.380532719
1.37969726
1.375218328
1.377527777
1.381080518
1.382010337
1.381627466
1.380572361
1.378229833
1.375973423
1.375708021
1.376118228
1.376878433
1.377553838
1.378006259
1.378219824
1.378714151
1.378767566
1.379298251
1.380504047
1.382499006
1.382207826
1.381070606
1.380369379
1.379762351
1.379340638
1.379365877
1.379967212
1.381331285
1.381672843
1.381549884
1.381585651
1.381488819
1.381181945
1.380747481
1.376154625
1.378289768
1.381523499
1.382362198
1.382328819
1.381409398
1.379163698
1.377194399
1.376847208
1.377122937
1.378148917
1.379102809
1.37970416
1.379853415
1.379764826
1.379202626
1.378600119
1.378848286
1.380886275
1.381818611
1.381473706
1.380953759
1.380471317
1.380597382
1.380284885
1.380154759
1.380881054
1.381731644
1.381807764
1.381838678
1.381790495
1.381677138
1.381386157
1.376973419
1.379299223
1.382414798
1.383068458
1.3830467
1.382120262
1.379844333
1.377693592
1.377433012
1.377859222
1.378884667
1.380123008
1.381035574
1.381363828
1.381419441
1.380653564
1.379251717
1.378784492
1.379467779
1.38067195
1.381656767
1.381420905
1.381051841
1.381172573
1.381142149
1.38067869
1.38038645
1.380690645
1.381139746
1.381151186
1.381440686
1.381785339
1.381769552
1.377499851
1.379944577
1.382950041
1.383545747
1.383348457
1.382160883
1.379693189
1.378078652
1.377998139
1.37849067
1.379483736
1.380889118
1.381929628
1.382379429
1.382528607
1.381834344
1.381033611
1.379580083
1.379651306
1.379465054
1.380338454
1.381268193
1.381429643
1.381371182
1.381618438
1.381202035
1.37999346
1.379849
1.379756336
1.379621322
1.379840288
1.380333288
1.38106227
1.377150674
1.380020174
1.382817319
1.383263276
1.382614997
1.381316195
1.379464211
1.378169653
1.378267571
1.37882611
1.379789833
1.381328822
1.382527622
1.383068609
1.383329354
1.382789211
1.382240997
1.381232303
1.379751313
1.378996903
1.378705632
1.379540956
1.380489345
1.380856506
1.381288546
1.381236057
1.380090359
1.379397248
1.378943364
1.379078957
1.378856177
1.378589102
1.3791822
1.375448076
1.375885077
1.378754765
1.380857166
1.380945522
1.380149852
1.378694742
1.377519451
1.376819733
1.377145465
1.37781796
1.378980844
1.380847629
1.382643795
1.38346395
1.383707773
1.383551836
1.383186032
1.382544233
1.380910391
1.379782363
1.378855591
1.378291713
1.3783066
1.378926853
1.379434269
1.380412553
1.380355619
1.379724357
1.379589689
1.379367923
1.378923135
1.378441571
1.378257942
1.375423086
1.375555502
1.378063738
1.379482017
1.379449213
1.378412498
1.376664545
1.375473775
1.375157446
1.375520583
1.375920907
1.376600409
1.378272888
1.380620606
1.382368021
1.383094775
1.383653303
1.383668518
1.383213347
1.381904504
1.380846221
1.379332774
1.377888004
1.378020744
1.377573571
1.378131841
1.379154948
1.380468194
1.380609052
1.380719515
1.38019546
1.379580119
1.378935429
1.378413104
1.376039831
1.376031923
1.378250077
1.379526869
1.379591165
1.378590354
1.376604937
1.375289034
1.374735095
1.374921726
1.374975237
1.375511993
1.37639597
1.377644676
1.379512625
1.380619456
1.381405339
1.382545636
1.383273255
1.382478327
1.381453352
1.379462238
1.378488015
1.378159508
1.378305626
1.378019088
1.378872588
1.380657136
1.381302816
1.381432867
1.381382157
1.381280824
1.380364312
1.3788319
1.377273033
1.376963291
1.379230462
1.380192137
1.380197628
1.379249616
1.377199952
1.375767766
1.375418498
1.375745651
1.37596603
1.375582267
1.375699493
1.376765697
1.378151017
1.378924997
1.379074774
1.379393943
1.380312871
1.381495803
1.381271087
1.380214789
1.379261536
1.378373103
1.379176894
1.378658401
1.378922425
1.380673171
1.381523611
1.381813365
1.382312448
1.382179443
1.381598843
1.380464255
1.378084746
1.377980949
1.380299585
1.380964767
1.380651536
1.379769131
1.377903205
1.376399643
1.37651892
1.377109048
1.377686867
1.376542514
1.376432058
1.376806673
1.377255703
1.377757354
1.378325885
1.377740308
1.378198019
1.379324142
1.38022591
1.380553459
1.379391551
1.37913777
1.378930287
1.3793692
1.379107863
1.37984138
1.380863978
1.381821802
1.382619993
1.382730244
1.382479133
1.381517669
1.378315774
1.378529899
1.380858077
1.3815087
1.381381686
1.380618465
1.37903718
1.377685626
1.377695136
1.37833923
1.378670029
1.379167656
1.37840603
1.377411279
1.378045378
1.378403497
1.378087254
1.378250481
1.378439546
1.378732474
1.378511523
1.379110104
1.378908138
1.379410785
1.378875667
1.37933368
1.378816483
1.377731804
1.378403321
1.379505269
1.38078406
1.382137768
1.382653085
1.382218468
1.377073417
1.37753003
1.379961492
1.381277009
1.381501961
1.381113774
1.379817854
1.378679505
1.37863579
1.3792715
1.380062763
1.380558428
1.380156768
1.379653157
1.379383544
1.379528555
1.37871669
1.37913061
1.378957822
1.378597909
1.37797221
1.37814676
1.378482878
1.378637155
1.378613772
1.378537805
1.377899697
1.37710575
1.376411472
1.376101991
1.376727572
1.378507645
1.38064467
1.38172232
1.376307135
1.376573993
1.378683635
1.379844156
1.380010747
1.379876471
1.379175148
1.378819839
1.379009118
1.379931792
1.381133651
1.381633622
1.381441268
1.381330518
1.380294081
1.380213749
1.379965444
1.379760175
1.379747663
1.379546851
1.378762205
1.378764679
1.378620855
1.378150739
1.378258808
1.377941695
1.37802511
1.377030925
1.376713095
1.375961864
1.375468533
1.375903313
1.376863666
1.377680278
1.376974781
1.377274721
1.37906472
1.378898153
1.378381764
1.37763864
1.376643319
1.376799774
1.377560965
1.37919908
1.381272385
1.382438829
1.382680593
1.382684529
1.382028834
1.380836099
1.381125525
1.380629693
1.380874453
1.380735257
1.380244592
1.379932656
1.379252767
1.378734052
1.378672775
1.378331041
1.378614062
1.377500454
1.37652768
1.375570877
1.375167356
1.374919327
1.375931272
1.378247221
1.378042585
1.378117666
1.379744832
1.379835954
1.379285741
1.376887474
1.374956421
1.374943111
1.375386754
1.376666659
1.378699546
1.381590665
1.383412687
1.383580226
1.383349319
1.382429601
1.381772198
1.381756485
1.381991224
1.38190922
1.38149637
1.380363728
1.379981136
1.379703734
1.379320526
1.379655259
1.378748687
1.379151698
1.378432245
1.3776928
1.376731394
1.375940319
1.375479084
1.379265799
1.378870458
1.378261284
1.380001851
1.380956291
1.380442969
1.378177883
1.376137129
1.375143482
1.374954995
1.375393464
1.376148978
1.377990076
1.381244126
1.383758191
1.384184636
1.38354695
1.38234669
1.382610766
1.382765459
1.382483446
1.38251431
1.381679995
1.381720436
1.381458805
1.381038237
1.380425934
1.380580536
1.380584736
1.380569853
1.380667144
1.380173584
1.378859621
1.376861362
1.380006131
1.379205401
1.379160282
1.380514523
1.380987805
1.380480536
1.379494103
1.377596661
1.375719033
1.375864792
1.376245507
1.37621778
1.376176163
1.377344582
1.380788169
1.383801705
1.383996265
1.383037287
1.382337443
1.382350346
1.382619343
1.382663689
1.382628344
1.382741303
1.382526592
1.382289904
1.381990267
1.38199177
1.381824439
1.382082383
1.38208489
1.381659962
1.380771862
1.379735468
1.378951841
1.378717055
1.379395801
1.380703326
1.380833874
1.380675603
1.380274437
1.377842347
1.377029982
1.377234211
1.377124857
1.376880293
1.376468537
1.376406137
1.377092719
1.37995206
1.382675629
1.38324393
1.382117239
1.381932277
1.38204826
1.381902636
1.382367388
1.382623086
1.382772877
1.382734124
1.383111612
1.382925492
1.382987731
1.383203779
1.383071832
1.382878034
1.382167413
1.381055274
1.377895121
1.377909252
1.378248191
1.379602345
1.380018166
1.380627066
1.380024839
1.378687623
1.378541741
1.378752466
1.37875266
1.378333847
1.377315695
1.376639745
1.376662637
1.37687462
1.378924578
1.381172724
1.381510026
1.380922977
1.380159757
1.379815061
1.380006743
1.380945704
1.381913915
1.382476104
1.383076796
1.383006752
1.378719083
1.378107933
)
;

boundaryField
{
    inlet
    {
        type            calculated;
        value           nonuniform 0();
    }
    outlet
    {
        type            calculated;
        value           nonuniform 0();
    }
    bottom
    {
        type            calculated;
        value           nonuniform 0();
    }
    top
    {
        type            calculated;
        value           nonuniform 0();
    }
    obstacle
    {
        type            calculated;
        value           nonuniform 0();
    }
    defaultFaces
    {
        type            empty;
    }
    procBoundary10to4
    {
        type            processor;
        value           nonuniform List<scalar> 
32
(
1.021458609
1.016062864
1.012973266
1.004295783
0.9923766405
0.9856290999
1.395505223
1.359938118
1.343879615
1.323974498
1.291063365
1.273906567
1.260740961
1.233974552
1.213162411
1.203115049
1.185311349
1.161595428
1.152499007
1.143612225
1.124346452
1.110743612
1.103398268
1.089511273
1.07199465
1.065351619
1.057959467
1.042451378
1.03304716
1.029464462
1.021098774
1.021098774
)
;
    }
    procBoundary10to5
    {
        type            processor;
        value           uniform 0.9589000697;
    }
    procBoundary10to9
    {
        type            processor;
        value           nonuniform List<scalar> 
55
(
1.393602531
1.360650334
1.325296848
1.291820136
1.255822179
1.219616539
1.18502982
1.151240301
1.118772354
1.086208684
1.059513254
1.030329076
1.002154495
0.9778629681
0.9581077644
0.9360310363
0.9209998048
0.9176533426
0.9111460064
0.9051985814
0.9047226711
0.9066198671
0.9348067446
1.075419443
1.254580141
1.337901134
1.37899488
1.383838525
1.377988469
1.373018682
1.373018682
1.368322539
1.368053355
1.368656594
1.369773601
1.370364807
1.37131527
1.37179706
1.372609666
1.373462424
1.373462424
1.373843191
1.374266041
1.374554805
1.374312802
1.374094136
1.374229711
1.374746325
1.375224965
1.375224965
1.375483705
1.375093838
1.374861228
1.37522005
1.3762292
)
;
    }
    procBoundary10to11
    {
        type            processor;
        value           nonuniform List<scalar> 
70
(
0.9495836709
0.9465884136
0.9790597332
1.122158753
1.31413893
1.35206069
1.374816083
1.385393919
1.385863472
1.384638169
1.384954865
1.386140813
1.385967022
1.385604097
1.385262741
1.385544232
1.386200552
1.386403412
1.386614007
1.386576565
1.386667573
1.386661086
1.38646496
1.386121291
1.385780586
1.385417369
1.384935224
1.383720351
1.382657456
1.381104304
1.378633501
1.378611514
1.379993391
1.38142647
1.381623787
1.381285665
1.380810131
1.379958121
1.379335328
1.378840907
1.378676467
1.379201082
1.38049531
1.381227089