/*--------------------------------*- C++ -*----------------------------------*\
  =========                 |
  \\      /  F ield         | OpenFOAM: The Open Source CFD Toolbox
   \\    /   O peration     | Website:  https://openfoam.org
    \\  /    A nd           | Version:  7
     \\/     M anipulation  |
\*---------------------------------------------------------------------------*/
FoamFile
{
    version     2.0;
    format      ascii;
    class       volScalarField;
    location    "2";
    object      p;
}
// * * * * * * * * * * * * * * * * * * * * * * * * * * * * * * * * * * * * * //

dimensions      [1 -1 -2 0 0 0 0];

internalField   nonuniform List<scalar> 
22
(
0.9651495503
0.9892364275
0.9866279363
0.990705914
0.9969874995
0.9974930457
0.9966249932
0.9964317347
0.9901299085
0.9899552907
0.995115799
0.9921384147
0.9932533857
0.9973174445
0.9890897861
0.9937244908
0.9967232388
0.9986475263
0.9886176046
0.9905366102
0.9957034478
0.9951833151
)
;

boundaryField
{
    inlet
    {
        type            fixedValue;
        value           nonuniform 0();
    }
    outlet
    {
        type            zeroGradient;
    }
    bottom
    {
        type            slip;
    }
    top
    {
        type            slip;
    }
    obstacle
    {
        type            zeroGradient;
    }
    defaultFaces
    {
        type            empty;
    }
    procBoundary11to5
    {
        type            processor;
        value           nonuniform List<scalar> 4(0.9247943523 0.9707453884 0.9270284095 0.9270284095);
    }
    procBoundary11to10
    {
        type            processor;
        value           nonuniform List<scalar> 6(0.9518803306 0.9880720011 0.9862749074 0.9873586126 0.9873586126 1.019955756);
    }
    procBoundary11to16
    {
        type            processor;
        value           uniform 1.023972776;
    }
    procBoundary11to17
    {
        type            processor;
        value           nonuniform List<scalar> 4(0.9824662053 0.9877411646 0.9930239158 0.9959235522);
    }
}


// ************************************************************************* //
