/*--------------------------------*- C++ -*----------------------------------*\
  =========                 |
  \\      /  F ield         | OpenFOAM: The Open Source CFD Toolbox
   \\    /   O peration     | Website:  https://openfoam.org
    \\  /    A nd           | Version:  7
     \\/     M anipulation  |
\*---------------------------------------------------------------------------*/
FoamFile
{
    version     2.0;
    format      ascii;
    class       volScalarField;
    location    "0.7";
    object      p;
}
// * * * * * * * * * * * * * * * * * * * * * * * * * * * * * * * * * * * * * //

dimensions      [1 -1 -2 0 0 0 0];

internalField   nonuniform List<scalar> 
23
(
0.8821160749
0.8895653293
1.008383663
0.9118854167
0.8834967435
1.119538006
1.032344802
0.9472709098
1.144404898
1.11874725
1.05043639
1.140403665
1.137691609
1.116004943
1.090608506
1.120899563
1.124581892
1.034960357
1.086431074
1.121403073
1.008694788
1.042639579
1.107097412
)
;

boundaryField
{
    inlet
    {
        type            fixedValue;
        value           nonuniform 0();
    }
    outlet
    {
        type            zeroGradient;
    }
    bottom
    {
        type            slip;
    }
    top
    {
        type            slip;
    }
    obstacle
    {
        type            zeroGradient;
    }
    defaultFaces
    {
        type            empty;
    }
    procBoundary34to27
    {
        type            processor;
        value           uniform 1.129748142;
    }
    procBoundary34to28
    {
        type            processor;
        value           nonuniform List<scalar> 4(0.8800092144 0.9518176633 0.8969281272 0.8969281272);
    }
    procBoundary34to33
    {
        type            processor;
        value           nonuniform List<scalar> 6(1.168550907 1.145224228 1.091319092 1.033833972 1.007174294 1.00090168);
    }
    procBoundary34to35
    {
        type            processor;
        value           nonuniform List<scalar> 8(0.9292243141 0.8941681168 0.9210999699 0.9726165437 1.061709684 1.117508312 1.162584001 1.184052391);
    }
}


// ************************************************************************* //
