/*--------------------------------*- C++ -*----------------------------------*\
  =========                 |
  \\      /  F ield         | OpenFOAM: The Open Source CFD Toolbox
   \\    /   O peration     | Website:  https://openfoam.org
    \\  /    A nd           | Version:  7
     \\/     M anipulation  |
\*---------------------------------------------------------------------------*/
FoamFile
{
    version     2.0;
    format      ascii;
    class       volVectorField;
    location    "2.6";
    object      U;
}
// * * * * * * * * * * * * * * * * * * * * * * * * * * * * * * * * * * * * * //

dimensions      [0 1 -1 0 0 0 0];

internalField   nonuniform List<vector> 
2222
(
(3 -5.124282073e-15 0)
(2.986899366 0.0006426789706 0)
(2.972413722 0.0110757519 0)
(2.957442652 0.02363483978 0)
(2.946560617 0.02015554504 0)
(2.933999748 0.04311400985 0)
(2.922086147 0.07969474078 0)
(2.912923719 0.07872814703 0)
(2.910568504 0.08272649997 0)
(2.891789239 0.1227537402 0)
(2.88840573 0.137282888 0)
(2.888711126 0.1488388123 0)
(2.870839987 0.1680881002 0)
(2.867467552 0.1835774325 0)
(2.867807358 0.2002244906 0)
(2.861958517 0.2170839008 0)
(2.853529544 0.2327257299 0)
(2.847423875 0.2419579818 0)
(2.847057524 0.2535506073 0)
(2.848848678 0.2672299098 0)
(2.848020897 0.2756080759 0)
(2.848928481 0.2746932596 0)
(2.853273897 0.2719648949 0)
(2.856440718 0.2737765923 0)
(2.855798484 0.2764369628 0)
(2.854210911 0.2766682435 0)
(2.853556862 0.2740910513 0)
(2.855619322 0.2714937786 0)
(2.857479733 0.2710984072 0)
(2.85944097 0.2713614088 0)
(2.861779146 0.2723803595 0)
(2.863147014 0.2713771124 0)
(2.86385222 0.2685385981 0)
(2.863996664 0.2664622276 0)
(2.998513529 0.002301865175 0)
(2.995212707 0.007918400373 0)
(2.990183638 0.01798526892 0)
(2.98178184 0.03712410197 0)
(2.974295314 0.05340710925 0)
(2.964181334 0.07866778701 0)
(2.950142215 0.118619311 0)
(2.945823331 0.1377689992 0)
(2.92905952 0.1734709475 0)
(2.917705829 0.2066792122 0)
(2.914157137 0.2293240392 0)
(2.893713131 0.2734253352 0)
(2.887939202 0.2894689667 0)
(2.884067912 0.2985727061 0)
(2.86995213 0.3286137841 0)
(2.863167697 0.3326475541 0)
(2.857360428 0.3221740705 0)
(2.85488913 0.3178660928 0)
(2.852131138 0.3179173146 0)
(2.850379387 0.3113695993 0)
(2.849953422 0.3008928662 0)
(2.854084693 0.2937664268 0)
(2.860457682 0.2907638607 0)
(2.863785735 0.2871462777 0)
(2.865536289 0.2866131418 0)
(2.868146783 0.2840202649 0)
(2.87115656 0.2792711204 0)
(2.87279082 0.2748328607 0)
(2.873157422 0.2727299357 0)
(2.874778627 0.2715847594 0)
(2.876551546 0.2713565176 0)
(2.877391181 0.2679015472 0)
(2.877063227 0.2624750441 0)
(2.999990859 1.421547735e-05 0)
(2.999942945 9.505868836e-05 0)
(2.999787285 0.0003959997942 0)
(2.999474823 0.001042087977 0)
(2.998650677 0.002721091339 0)
(2.997046728 0.006156472444 0)
(2.995430444 0.01106937434 0)
(2.993137144 0.01780026507 0)
(2.988770081 0.02846818004 0)
(2.983874334 0.04309996328 0)
(2.979552738 0.05746957166 0)
(2.973406628 0.08088910117 0)
(2.969788748 0.09913168699 0)
(2.965934809 0.1134728869 0)
(2.95384687 0.1528145023 0)
(2.952098649 0.1728836837 0)
(2.953413147 0.1819565794 0)
(2.935989664 0.2135877433 0)
(2.92928667 0.230897671 0)
(2.928692443 0.2435854916 0)
(2.913543107 0.2615297914 0)
(2.906095647 0.2678773688 0)
(2.898779336 0.2705453064 0)
(2.895531729 0.2721303628 0)
(2.893812377 0.2768829522 0)
(2.892194278 0.2793141613 0)
(2.891436492 0.2792191182 0)
(2.890277698 0.2794334124 0)
(2.888401621 0.2801261803 0)
(2.887458168 0.2814773223 0)
(2.887796586 0.2829787483 0)
(2.888616425 0.2828447521 0)
(2.886347691 0.2788836151 0)
(2.999999993 1.054157194e-08 0)
(2.999999923 1.218766827e-07 0)
(2.999999404 1.004154652e-06 0)
(2.999996716 5.908250779e-06 0)
(2.999985049 2.581864874e-05 0)
(2.999946436 9.643947032e-05 0)
(2.999854529 0.0002958334857 0)
(2.99964907 0.0007397962813 0)
(2.999207626 0.001649149459 0)
(2.998296285 0.003711148958 0)
(2.996919444 0.007037222119 0)
(2.994814387 0.01238269599 0)
(2.991422032 0.02221098178 0)
(2.987631277 0.03274531193 0)
(2.980354743 0.05091426012 0)
(2.973671325 0.07587930481 0)
(2.970493929 0.09611591639 0)
(2.955377902 0.1392101413 0)
(2.95046359 0.1634848343 0)
(2.948946904 0.1821845156 0)
(2.931177543 0.2311616585 0)
(2.925414997 0.2433220144 0)
(2.926517874 0.2445540336 0)
(2.906220357 0.2707523641 0)
(2.898951434 0.2896823746 0)
(2.897764184 0.2874310485 0)
(2.894694554 0.2928964625 0)
(2.89255356 0.2979737309 0)
(2.889303692 0.295541601 0)
(2.887870218 0.2914785381 0)
(2.887853769 0.2883867066 0)
(2.888860525 0.2872457 0)
(2.889398225 0.2847638056 0)
(3 1.32153293e-12 0)
(3 5.043163598e-14 0)
(3 1.394613946e-10 0)
(2.999999998 2.486881475e-09 0)
(2.999999982 2.574469685e-08 0)
(2.999999881 1.864106147e-07 0)
(2.999999414 9.61662549e-07 0)
(2.999997593 3.999718063e-06 0)
(2.999990968 1.527145554e-05 0)
(2.999971256 4.914293807e-05 0)
(2.999920032 0.0001450080295 0)
(2.999798566 0.0003729993317 0)
(2.999546515 0.0008681569771 0)
(2.999025413 0.001933484431 0)
(2.998021645 0.003853761004 0)
(2.99633914 0.007665004962 0)
(2.993832345 0.01348061105 0)
(2.989847963 0.02223377237 0)
(2.983906157 0.03780298584 0)
(2.977419502 0.05410828871 0)
(2.967615025 0.07910003073 0)
(2.959961269 0.103119984 0)
(2.952446033 0.1246249205 0)
(2.934525115 0.1693098798 0)
(2.929141565 0.185100396 0)
(2.932051075 0.1862010727 0)
(2.913750266 0.224828553 0)
(2.908884877 0.2462357316 0)
(2.910108112 0.2380635145 0)
(2.905394418 0.2447031746 0)
(2.899535212 0.2553462051 0)
(2.898983747 0.2580699291 0)
(2.896261739 0.2649017463 0)
(3 -2.906143324e-15 0)
(3 -3.840703796e-15 0)
(3 -1.78153202e-14 0)
(3 2.777106651e-13 0)
(3 3.249168282e-13 0)
(3 1.274269127e-11 0)
(3 2.547549076e-10 0)
(2.999999998 2.304499081e-09 0)
(2.999999989 1.615699875e-08 0)
(2.999999937 9.666021023e-08 0)
(2.99999972 4.372341882e-07 0)
(2.99999887 1.81785602e-06 0)
(2.999995997 6.521819974e-06 0)
(2.999987291 2.104701647e-05 0)
(2.999962018 6.472391211e-05 0)
(2.999899857 0.000172732023 0)
(2.999752499 0.0004412634777 0)
(2.999424224 0.001038611342 0)
(2.998748244 0.002323313366 0)
(2.997463979 0.004831522767 0)
(2.995270863 0.008919589658 0)
(2.991354444 0.01769647903 0)
(2.986474141 0.02809023449 0)
(2.979529627 0.04226801441 0)
(2.969126786 0.06889586429 0)
(2.961230529 0.08948237876 0)
(2.946144591 0.1212310983 0)
(2.934742198 0.1517905201 0)
(2.934315615 0.1644269894 0)
(2.913512568 0.2094568918 0)
(2.903532847 0.240868243 0)
(2.906631061 0.2366495864 0)
(2.897412615 0.2548864883 0)
(3 2.829293662e-15 0)
(3 1.917166919e-15 0)
(3 -1.885032605e-15 0)
(3 -2.072760983e-15 0)
(3 -2.734896162e-15 0)
(3 -2.051404828e-14 0)
(3 -3.797312955e-14 0)
(3 3.284580489e-13 0)
(3 -2.770187333e-13 0)
(3 9.203854837e-12 0)
(3 1.171901551e-10 0)
(2.999999999 8.73197758e-10 0)
(2.999999996 5.927401473e-09 0)
(2.999999979 3.149898779e-08 0)
(2.999999904 1.496780165e-07 0)
(2.999999597 6.415259538e-07 0)
(2.999998539 2.343731058e-06 0)
(2.999994952 8.338052245e-06 0)
(2.999984017 2.634195965e-05 0)
(2.999953002 7.891657668e-05 0)
(2.999866198 0.0002303674765 0)
(2.999669321 0.0005713831805 0)
(2.999227155 0.001405842639 0)
(2.998299075 0.003127180851 0)
(2.996667228 0.006375457711 0)
(2.994003991 0.01194259255 0)
(2.989548559 0.02034565539 0)
(2.982836864 0.03527023532 0)
(2.975597817 0.05235315042 0)
(2.96508254 0.07439475512 0)
(2.954968156 0.09957351594 0)
(2.947882643 0.1195530996 0)
(2.929398768 0.1618905638 0)
(3 5.304089565e-15 0)
(3 4.329258534e-15 0)
(3 2.858445918e-15 0)
(3 2.291920006e-15 0)
(3 -6.662254896e-16 0)
(3 -7.824514839e-15 0)
(3 -7.568757134e-15 0)
(3 -9.69615328e-15 0)
(3 -1.022749406e-14 0)
(3 -9.887411662e-15 0)
(3 8.218942209e-15 0)
(3 -9.680744375e-14 0)
(3 -1.209250682e-13 0)
(3 3.558224643e-12 0)
(3 2.32117103e-11 0)
(3 2.234632972e-10 0)
(2.999999999 1.50434522e-09 0)
(2.999999995 8.073571607e-09 0)
(2.999999972 4.339434045e-08 0)
(2.999999875 1.968960705e-07 0)
(2.99999947 8.436352289e-07 0)
(2.999997895 3.456354492e-06 0)
(2.999992752 1.206287891e-05 0)
(2.999976273 4.028242855e-05 0)
(2.999929747 0.0001217078443 0)
(2.999812403 0.0003352361418 0)
(2.99952821 0.0008515805385 0)
(2.998920974 0.001986456815 0)
(2.997722183 0.004373381728 0)
(2.995710401 0.008148390456 0)
(2.991911419 0.01632754624 0)
(2.986792463 0.02778261618 0)
(2.980678475 0.03952868727 0)
(3 3.525874017e-15 0)
(3 3.769067364e-15 0)
(3 4.321833407e-15 0)
(3 4.824771664e-15 0)
(3 3.692568463e-15 0)
(3 3.227841911e-15 0)
(3 2.469348173e-15 0)
(3 3.069134053e-15 0)
(3 2.716651765e-15 0)
(3 2.113465707e-15 0)
(3 6.341247337e-16 0)
(3 -6.403112795e-15 0)
(3 -2.486649464e-15 0)
(3 -8.104656699e-16 0)
(3 -2.293232171e-15 0)
(3 -2.483985302e-14 0)
(3 2.47866021e-13 0)
(3 7.178021259e-14 0)
(3 2.923946941e-12 0)
(3 4.064227621e-11 0)
(3 3.052826413e-10 0)
(2.999999999 2.235481197e-09 0)
(2.999999991 1.325900038e-08 0)
(2.999999955 7.031712913e-08 0)
(2.999999787 3.443553697e-07 0)
(2.999999114 1.441633079e-06 0)
(2.999996572 5.731726237e-06 0)
(2.999987864 2.050066992e-05 0)
(2.999962251 6.484906256e-05 0)
(2.999888315 0.0002007556854 0)
(2.999712424 0.0005150208472 0)
(2.999314544 0.001281987849 0)
(2.998460595 0.002943661759 0)
(3 1.425321245e-15 0)
(3 3.143924761e-15 0)
(3 3.243392229e-15 0)
(3 2.895628199e-15 0)
(3 2.893831176e-15 0)
(3 4.499198943e-15 0)
(3 5.847352673e-15 0)
(3 6.647145401e-15 0)
(3 4.336484533e-15 0)
(3 3.241238488e-15 0)
(3 2.647886259e-15 0)
(3 2.446064937e-15 0)
(3 2.119486944e-15 0)
(3 1.871851526e-15 0)
(3 -5.906672773e-16 0)
(3 1.217269047e-15 0)
(3 -3.470175531e-17 0)
(3 -8.710894712e-15 0)
(3 -1.228817557e-14 0)
(3 -6.896573669e-15 0)
(3 1.589090022e-14 0)
(3 -3.041195842e-13 0)
(3 1.575181375e-12 0)
(3 5.558474361e-12 0)
(3 7.444919297e-11 0)
(3 6.683576154e-10 0)
(2.999999997 4.319752576e-09 0)
(2.999999982 2.740384543e-08 0)
(2.99999991 1.441935988e-07 0)
(2.999999598 6.507126308e-07 0)
(2.999998293 2.865061215e-06 0)
(2.99999384 1.043738799e-05 0)
(2.999979216 3.585070751e-05 0)
(3 1.349821476e-15 0)
(3 8.932407966e-16 0)
(3 6.580943604e-16 0)
(3 4.896090958e-16 0)
(3 2.539528446e-15 0)
(3 4.89055662e-15 0)
(3 5.829871358e-15 0)
(3 6.229513333e-15 0)
(3 5.035697494e-15 0)
(3 3.895490993e-15 0)
(3 3.294785028e-15 0)
(3 2.547618896e-15 0)
(3 2.710715034e-15 0)
(3 3.308723384e-15 0)
(3 4.917955147e-15 0)
(3 5.221373947e-15 0)
(3 3.553610089e-15 0)
(3 9.646306914e-16 0)
(3 -4.759154285e-15 0)
(3 -6.883233138e-15 0)
(3 -1.157883378e-14 0)
(3 -1.146409582e-14 0)
(3 -9.80539977e-15 0)
(3 -1.005760718e-14 0)
(3 -2.418411252e-14 0)
(3 6.255162921e-14 0)
(3 6.641198107e-14 0)
(3 4.268421187e-13 0)
(3 2.221931133e-11 0)
(3 1.966175851e-10 0)
(2.999999999 1.590692456e-09 0)
(2.999999993 1.063880448e-08 0)
(2.999999962 5.874706673e-08 0)
(3 2.358587736e-15 0)
(3 1.977674042e-15 0)
(3 2.437130231e-15 0)
(3 3.627254289e-15 0)
(3 7.491869135e-15 0)
(3 8.577282403e-15 0)
(3 8.657521494e-15 0)
(3 8.706328921e-15 0)
(3 8.423054079e-15 0)
(3 6.593226721e-15 0)
(3 5.142224728e-15 0)
(3 4.892420434e-15 0)
(3 5.107743311e-15 0)
(3 4.943299165e-15 0)
(3 4.718104224e-15 0)
(3 5.947319608e-15 0)
(3 5.120668415e-15 0)
(3 1.419131404e-15 0)
(3 5.016180498e-17 0)
(3 -1.466370726e-15 0)
(3 -2.474859459e-15 0)
(3 -4.183295366e-15 0)
(3 -4.99550975e-15 0)
(3 -6.91169105e-15 0)
(3 -7.722593465e-15 0)
(3 -7.211655496e-15 0)
(3 -1.713331326e-14 0)
(3 -1.843347826e-14 0)
(3 -7.603808526e-15 0)
(3 1.304344851e-14 0)
(3 -2.283774518e-13 0)
(3 1.018879722e-12 0)
(3 5.178954967e-12 0)
(3 2.030296616e-15 0)
(3 2.794324953e-15 0)
(3 4.675258038e-15 0)
(3 7.451492081e-15 0)
(3 1.083176919e-14 0)
(3 1.248874418e-14 0)
(3 1.257860515e-14 0)
(3 1.282578825e-14 0)
(3 1.296947478e-14 0)
(3 1.067190555e-14 0)
(3 8.646812334e-15 0)
(3 7.326946279e-15 0)
(3 7.262761085e-15 0)
(3 7.433718187e-15 0)
(3 4.840403984e-15 0)
(3 1.381135968e-15 0)
(3 1.288492064e-15 0)
(3 -3.101364582e-17 0)
(3 -1.440336318e-17 0)
(3 4.223815447e-16 0)
(3 8.550798741e-16 0)
(3 2.388197245e-16 0)
(3 -4.460426529e-16 0)
(3 -2.352466979e-15 0)
(3 -5.250618016e-15 0)
(3 -6.442713786e-15 0)
(3 -7.350144659e-15 0)
(3 -7.554727995e-15 0)
(3 -5.569631e-15 0)
(3 -7.342584466e-15 0)
(3 -1.062774293e-14 0)
(3 -1.065274215e-14 0)
(3 -1.06386055e-14 0)
(3 1.1336556e-15 0)
(3 2.80279063e-15 0)
(3 3.662447305e-15 0)
(3 5.303037448e-15 0)
(3 7.780913592e-15 0)
(3 1.066394167e-14 0)
(3 1.202264837e-14 0)
(3 1.195966221e-14 0)
(3 1.230471107e-14 0)
(3 1.360277268e-14 0)
(3 1.217018971e-14 0)
(3 1.032603984e-14 0)
(3 8.744190179e-15 0)
(3 8.697301211e-15 0)
(3 7.817829811e-15 0)
(3 5.08838908e-15 0)
(3 2.883457309e-15 0)
(3 2.672332265e-15 0)
(3 2.48567517e-15 0)
(3 1.360129121e-15 0)
(3 -3.488719605e-16 0)
(3 -9.927930261e-16 0)
(3 -1.202385473e-15 0)
(3 -2.725393498e-15 0)
(3 -3.388896756e-15 0)
(3 -4.413205414e-15 0)
(3 -4.723966412e-15 0)
(3 -4.877499754e-15 0)
(3 -5.49790503e-15 0)
(3 -5.971210963e-15 0)
(3 -5.835902311e-15 0)
(3 -7.542816197e-15 0)
(3 -8.890437386e-15 0)
(3 2.969308761e-15 0)
(3 3.733622647e-15 0)
(3 4.894538017e-15 0)
(3 6.676794957e-15 0)
(3 7.536487771e-15 0)
(3 9.376284126e-15 0)
(3 1.071382392e-14 0)
(3 1.097230955e-14 0)
(3 1.02870446e-14 0)
(3 9.046862997e-15 0)
(3 8.805206644e-15 0)
(3 7.645734095e-15 0)
(3 7.061805037e-15 0)
(3 6.633616761e-15 0)
(3 6.516243478e-15 0)
(3 5.222895376e-15 0)
(3 4.886498953e-15 0)
(3 4.26701116e-15 0)
(3 3.629799101e-15 0)
(3 2.854360184e-15 0)
(3 1.257929211e-15 0)
(3 8.803929621e-16 0)
(3 -1.074688668e-15 0)
(3 -1.587294701e-15 0)
(3 -8.72658475e-16 0)
(3 -5.929044951e-16 0)
(3 -1.81953066e-15 0)
(3 -3.028072884e-15 0)
(3 -4.17073157e-15 0)
(3 -4.61753596e-15 0)
(3 -4.887291366e-15 0)
(3 -4.131428725e-15 0)
(3 -3.869429805e-15 0)
(3 4.447322333e-15 0)
(3 5.234318326e-15 0)
(3 5.884124264e-15 0)
(3 6.195519499e-15 0)
(3 6.719713087e-15 0)
(3 7.104772044e-15 0)
(3 8.267636893e-15 0)
(3 9.898765393e-15 0)
(3 1.006256043e-14 0)
(3 9.631867378e-15 0)
(3 8.949710641e-15 0)
(3 8.730532459e-15 0)
(3 8.337622426e-15 0)
(3 7.494422464e-15 0)
(3 5.637963235e-15 0)
(3 5.032576195e-15 0)
(3 5.018245475e-15 0)
(3 6.470448007e-15 0)
(3 7.977382529e-15 0)
(3 8.490750561e-15 0)
(3 8.571846458e-15 0)
(3 7.672058867e-15 0)
(3 5.06235355e-15 0)
(3 2.997501327e-15 0)
(3 5.3923087e-16 0)
(3 4.207785164e-16 0)
(3 8.050039905e-16 0)
(3 1.953980276e-15 0)
(3 2.701607484e-15 0)
(3 2.080032238e-15 0)
(3 5.127206185e-16 0)
(3 8.938763099e-16 0)
(3 1.292148666e-15 0)
(3 1.113646742e-15 0)
(3 2.121534958e-15 0)
(3 2.708345366e-15 0)
(3 2.431033299e-15 0)
(3 3.023978325e-15 0)
(3 2.783813783e-15 0)
(3 1.918210506e-15 0)
(3 1.188981571e-15 0)
(3 3.544476028e-15 0)
(3 4.582934583e-15 0)
(3 5.223421184e-15 0)
(3 5.499105803e-15 0)
(3 5.427417902e-15 0)
(3 6.057383635e-15 0)
(3 6.319233139e-15 0)
(3 6.47057604e-15 0)
(3 6.665601578e-15 0)
(3 7.276819693e-15 0)
(3 7.399470092e-15 0)
(3 7.7250222e-15 0)
(3 9.530660321e-15 0)
(3 9.683866396e-15 0)
(3 9.66392526e-15 0)
(3 8.27314586e-15 0)
(3 3.95749412e-15 0)
(3 2.081400924e-15 0)
(3 3.343338585e-15 0)
(3 4.025139633e-15 0)
(3 3.918739646e-15 0)
(3 3.625269532e-15 0)
(3 3.234299346e-15 0)
(3 3.016974901e-15 0)
(3 1.60271313e-15 0)
(3 2.165608557e-16 0)
(3 1.481083096e-16 0)
(3 -4.017109748e-16 0)
(3 -3.894933178e-16 0)
(3 3.840351626e-16 0)
(3 9.295118215e-16 0)
(3 1.372858213e-16 0)
(3 -1.457822147e-15 0)
(3 -1.556254995e-15 0)
(3 -1.294035882e-16 0)
(3 1.983778027e-15 0)
(3 1.913731921e-15 0)
(3 2.109674785e-15 0)
(3 3.207392568e-15 0)
(3 4.614939948e-15 0)
(3 5.982596357e-15 0)
(3 5.425301425e-15 0)
(3 4.969636786e-15 0)
(3 5.110801573e-15 0)
(3 5.44780573e-15 0)
(3 6.58713678e-15 0)
(3 7.070525167e-15 0)
(3 6.862562665e-15 0)
(3 6.376256061e-15 0)
(3 5.569489086e-15 0)
(3 4.787817836e-15 0)
(3 5.745012275e-15 0)
(3 5.976472219e-15 0)
(3 5.807071014e-15 0)
(3 5.673039491e-15 0)
(3 5.006353387e-15 0)
(3 4.959342482e-15 0)
(3 6.224013087e-15 0)
(3 -6.912130675e-16 0)
(3 1.197001567e-16 0)
(3 4.671621121e-16 0)
(3 8.266422066e-16 0)
(3 -5.968013497e-16 0)
(3 -2.509088448e-15 0)
(3 -3.736798946e-15 0)
(3 -3.989115749e-15 0)
(3 -3.550123894e-15 0)
(3 -3.631945556e-15 0)
(3 -3.183020676e-15 0)
(3 -1.455861572e-15 0)
(3 -7.05920245e-16 0)
(3 -1.945852387e-15 0)
(3 1.085358588e-16 0)
(3 1.675177763e-15 0)
(3 1.379719129e-15 0)
(3 1.627412356e-15 0)
(3 2.256479883e-15 0)
(3 2.162455552e-15 0)
(3 1.630845661e-15 0)
(3 1.536822889e-15 0)
(3 2.887023319e-15 0)
(3 3.243185322e-15 0)
(3 4.73056272e-15 0)
(3 7.185634955e-15 0)
(3 7.706817786e-15 0)
(3 6.551529758e-15 0)
(3 6.110579313e-15 0)
(3 5.734202751e-15 0)
(3 5.779993505e-15 0)
(3 6.249365983e-15 0)
(3 7.956935214e-15 0)
(3 -4.9542369e-16 0)
(3 -4.726714968e-16 0)
(3 -1.392037591e-15 0)
(3 -2.518064423e-15 0)
(3 -3.636658008e-15 0)
(3 -4.53482108e-15 0)
(3 -4.810280063e-15 0)
(3 -5.740458044e-15 0)
(3 -7.683188067e-15 0)
(3 -9.073241427e-15 0)
(3 -8.483803317e-15 0)
(3 -6.533979679e-15 0)
(3 -5.744344699e-15 0)
(3 -6.20461562e-15 0)
(3 -4.698687676e-15 0)
(3 -2.793077421e-15 0)
(3 -2.380449846e-15 0)
(3 -2.135772544e-15 0)
(3 -2.204569504e-15 0)
(3 -2.431471608e-15 0)
(3 -1.132207896e-15 0)
(3 2.881820507e-16 0)
(3 2.10581606e-15 0)
(3 4.609273934e-15 0)
(3 6.021829186e-15 0)
(3 6.924828769e-15 0)
(3 6.214351281e-15 0)
(3 4.764179203e-15 0)
(3 4.023229123e-15 0)
(3 3.938851785e-15 0)
(3 5.228303525e-15 0)
(3 6.150451582e-15 0)
(3 6.902951225e-15 0)
(3 -1.512849579e-15 0)
(3 -2.880368226e-15 0)
(3 -3.357523104e-15 0)
(3 -4.043757079e-15 0)
(3 -4.70085641e-15 0)
(3 -5.642284211e-15 0)
(3 -6.062293647e-15 0)
(3 -6.593618604e-15 0)
(3 -8.735626297e-15 0)
(3 -9.525513497e-15 0)
(3 -9.916346466e-15 0)
(3 -1.016883721e-14 0)
(3 -1.054813837e-14 0)
(3 -9.809830957e-15 0)
(3 -8.326095052e-15 0)
(3 -5.741040901e-15 0)
(3 -3.332537805e-15 0)
(3 -3.075413254e-15 0)
(3 -2.819324315e-15 0)
(3 -1.888847622e-15 0)
(3 -1.014717256e-15 0)
(3 -7.804200067e-16 0)
(3 1.703843272e-15 0)
(3 4.686984224e-15 0)
(3 5.345757648e-15 0)
(3 5.114940126e-15 0)
(3 2.446531717e-15 0)
(3 2.127510806e-15 0)
(3 2.102098529e-15 0)
(3 2.406320109e-15 0)
(3 3.689011757e-15 0)
(3 5.386582143e-15 0)
(3 5.987095591e-15 0)
(3 -3.696750344e-15 0)
(3 -3.891350176e-15 0)
(3 -4.397460646e-15 0)
(3 -5.051920579e-15 0)
(3 -5.224894419e-15 0)
(3 -5.03857268e-15 0)
(3 -5.156174644e-15 0)
(3 -5.511647506e-15 0)
(3 -5.991834617e-15 0)
(3 -5.996994377e-15 0)
(3 -4.406965322e-15 0)
(3 -5.347424097e-15 0)
(3 -6.253218582e-15 0)
(3 -5.786719956e-15 0)
(3 -5.12865548e-15 0)
(3 -3.730851489e-15 0)
(3 -3.879222752e-15 0)
(3 -4.470181564e-15 0)
(3 -4.479807332e-15 0)
(3 -3.897142757e-15 0)
(3 -3.299730373e-15 0)
(3 -2.978375314e-15 0)
(3 -1.656846173e-15 0)
(3 4.104944641e-16 0)
(3 2.093245606e-15 0)
(3 1.583821837e-15 0)
(3 5.829360619e-16 0)
(3 9.502132292e-16 0)
(3 1.605102626e-15 0)
(3 2.556011895e-15 0)
(3 3.883852035e-15 0)
(3 5.19314648e-15 0)
(3 6.505846483e-15 0)
(3 -4.210058597e-15 0)
(3 -4.192859023e-15 0)
(3 -4.400645856e-15 0)
(3 -3.145517272e-15 0)
(3 -2.975377951e-15 0)
(3 -2.807664254e-15 0)
(3 -3.606543827e-15 0)
(3 -2.905288969e-15 0)
(3 -5.048077727e-16 0)
(3 -1.212220936e-15 0)
(3 -2.711317997e-15 0)
(3 -2.785122177e-15 0)
(3 -2.133484975e-15 0)
(3 -2.608164281e-15 0)
(3 -3.256769225e-15 0)
(3 -4.033463218e-15 0)
(3 -4.707036555e-15 0)
(3 -6.028802624e-15 0)
(3 -6.272466117e-15 0)
(3 -6.132262823e-15 0)
(3 -5.520470354e-15 0)
(3 -5.652285787e-15 0)
(3 -5.061615912e-15 0)
(3 -3.673666051e-15 0)
(3 -3.044852276e-15 0)
(3 -6.208663037e-16 0)
(3 5.476796649e-16 0)
(3 1.695659195e-15 0)
(3 3.540179408e-15 0)
(3 4.695178758e-15 0)
(3 6.474685141e-15 0)
(3 6.406536941e-15 0)
(3 6.308944751e-15 0)
(3 -2.665017101e-15 0)
(3 -1.803204969e-15 0)
(3 -1.074330109e-15 0)
(3 -2.646976449e-16 0)
(3 1.067688966e-15 0)
(3 1.593601953e-15 0)
(3 9.967067665e-16 0)
(3 4.678321425e-16 0)
(3 1.186493385e-15 0)
(3 7.854589417e-16 0)
(3 -8.006160149e-17 0)
(3 -3.127455998e-16 0)
(3 -6.216774536e-16 0)
(3 -7.191376249e-16 0)
(3 -2.957501055e-15 0)
(3 -4.755216692e-15 0)
(3 -5.6456224e-15 0)
(3 -5.330982473e-15 0)
(3 -4.486993191e-15 0)
(3 -4.341913755e-15 0)
(3 -4.689651739e-15 0)
(3 -4.913131303e-15 0)
(3 -5.734575914e-15 0)
(3 -7.185822228e-15 0)
(3 -7.64797544e-15 0)
(3 -4.810221646e-15 0)
(3 -7.654788594e-16 0)
(3 4.524832356e-16 0)
(3 2.358675877e-15 0)
(3 4.744923385e-15 0)
(3 6.51852728e-15 0)
(3 6.694071138e-15 0)
(3 5.566082519e-15 0)
(3 -2.834903781e-15 0)
(3 -1.924605934e-16 0)
(3 1.979797281e-15 0)
(3 2.416772999e-15 0)
(3 2.01039934e-15 0)
(3 2.118444623e-15 0)
(3 3.095869853e-15 0)
(3 3.439158203e-15 0)
(3 3.242070759e-15 0)
(3 2.120502624e-15 0)
(3 1.55539903e-15 0)
(3 9.818260328e-16 0)
(3 2.43755769e-18 0)
(3 -2.126078925e-15 0)
(3 -3.529463212e-15 0)
(3 -4.197567386e-15 0)
(3 -4.629452642e-15 0)
(3 -4.845564826e-15 0)
(3 -5.647346662e-15 0)
(3 -5.933935819e-15 0)
(3 -6.303798838e-15 0)
(3 -6.473485434e-15 0)
(3 -6.920780239e-15 0)
(3 -7.603839648e-15 0)
(3 -5.867981544e-15 0)
(3 -3.428108573e-15 0)
(3 -9.690859049e-16 0)
(3 -2.121737828e-16 0)
(3 1.845789256e-15 0)
(3 2.880124424e-15 0)
(3 2.882582564e-15 0)
(3 3.872068465e-15 0)
(3 4.213074353e-15 0)
(3 2.335490825e-15 0)
(3 2.979161352e-15 0)
(3 3.874784407e-15 0)
(3 4.463726839e-15 0)
(3 4.402158625e-15 0)
(3 4.042288142e-15 0)
(3 4.602449247e-15 0)
(3 5.806714527e-15 0)
(3 4.187539717e-15 0)
(3 1.542313567e-15 0)
(3 -2.298078786e-16 0)
(3 -3.251409243e-16 0)
(3 -2.573500581e-16 0)
(3 -2.536198366e-15 0)
(3 -3.373007992e-15 0)
(3 -3.590551495e-15 0)
(3 -4.23815059e-15 0)
(3 -4.871329693e-15 0)
(3 -5.397855665e-15 0)
(3 -6.177321099e-15 0)
(3 -6.962658569e-15 0)
(3 -7.790359909e-15 0)
(3 -7.934312292e-15 0)
(3 -7.594495396e-15 0)
(3 -6.50636861e-15 0)
(3 -5.856004473e-15 0)
(3 -4.801309093e-15 0)
(3 -3.288348136e-15 0)
(3 -2.163709466e-15 0)
(3 -1.734145013e-15 0)
(3 -1.529657289e-15 0)
(3 -7.304049534e-16 0)
(3 -5.243034746e-16 0)
(3 9.886764882e-15 0)
(3 7.959680693e-15 0)
(3 6.079762262e-15 0)
(3 5.581801439e-15 0)
(3 3.776369948e-15 0)
(3 3.154523394e-15 0)
(3 4.523541879e-15 0)
(3 3.888698429e-15 0)
(3 2.821043467e-15 0)
(3 9.761483325e-16 0)
(3 -3.437825234e-16 0)
(3 -1.997201239e-15 0)
(3 -2.688837954e-15 0)
(3 -2.843453666e-16 0)
(3 3.069845212e-16 0)
(3 -1.621535995e-16 0)
(3 -5.092293453e-16 0)
(3 -9.324276883e-16 0)
(3 -2.234180961e-15 0)
(3 -4.722212401e-15 0)
(3 -5.651142152e-15 0)
(3 -6.023082782e-15 0)
(3 -6.652379506e-15 0)
(3 -6.731546976e-15 0)
(3 -6.934519036e-15 0)
(3 -7.234751161e-15 0)
(3 -7.119275557e-15 0)
(3 -5.792221078e-15 0)
(3 -5.159980397e-15 0)
(3 -4.663660415e-15 0)
(3 -3.984303495e-15 0)
(3 -2.36429291e-15 0)
(3 -1.538941054e-15 0)
(3 1.285261036e-14 0)
(3 1.190891495e-14 0)
(3 7.768996842e-15 0)
(3 3.436649737e-15 0)
(3 9.108967929e-17 0)
(3 3.482390628e-16 0)
(3 1.865184508e-16 0)
(3 2.368840456e-16 0)
(3 5.226520985e-16 0)
(3 -2.532625346e-16 0)
(3 -1.657735655e-15 0)
(3 -3.266623231e-15 0)
(3 -3.041185082e-15 0)
(3 -1.837427412e-15 0)
(3 -1.011705904e-15 0)
(3 -8.906353741e-16 0)
(3 -9.332188893e-16 0)
(3 -9.665347991e-16 0)
(3 -1.498399522e-15 0)
(3 -1.654054329e-15 0)
(3 -1.58988856e-15 0)
(3 -4.009193306e-15 0)
(3 -4.309777908e-15 0)
(3 -4.43741623e-15 0)
(3 -5.639543579e-15 0)
(3 -6.294120612e-15 0)
(3 -6.356860365e-15 0)
(3 -5.32955409e-15 0)
(3 -5.02027021e-15 0)
(3 -4.383617623e-15 0)
(3 -4.054200699e-15 0)
(3 -4.102378214e-15 0)
(3 -3.368960275e-15 0)
(3 1.620722739e-14 0)
(3 1.59107286e-14 0)
(3 1.318001655e-14 0)
(3 8.763384261e-15 0)
(3 7.141528926e-15 0)
(3 3.579420554e-15 0)
(3 8.354482509e-16 0)
(3 -1.197621976e-15 0)
(3 -4.561308776e-15 0)
(3 -3.931288592e-15 0)
(3 -3.174797623e-15 0)
(3 -3.12357089e-15 0)
(3 -3.026759454e-15 0)
(3 -2.643111661e-15 0)
(3 -2.060415852e-15 0)
(3 -2.161566305e-15 0)
(3 -1.832373307e-15 0)
(3 -1.324221989e-15 0)
(3 -3.082371805e-16 0)
(3 2.318820373e-16 0)
(3 4.38006205e-17 0)
(3 -2.223638344e-15 0)
(3 -2.456863318e-15 0)
(3 -2.307868981e-15 0)
(3 -2.886942278e-15 0)
(3 -3.798414199e-15 0)
(3 -4.015193498e-15 0)
(3 -4.206089517e-15 0)
(3 -4.685861648e-15 0)
(3 -5.108744296e-15 0)
(3 -4.96263934e-15 0)
(3 -4.058774485e-15 0)
(3 -3.55618942e-15 0)
(3 1.29569555e-14 0)
(3 1.245513896e-14 0)
(3 1.224491386e-14 0)
(3 1.230613052e-14 0)
(3 1.167214416e-14 0)
(3 9.101751905e-15 0)
(3 4.656549575e-15 0)
(3 2.848140525e-15 0)
(3 3.428447787e-16 0)
(3 -4.009813535e-16 0)
(3 -9.40038642e-16 0)
(3 -6.145679411e-16 0)
(3 1.008305041e-16 0)
(3 -6.347225059e-16 0)
(3 -1.900958323e-15 0)
(3 -2.035067323e-15 0)
(3 -9.520416271e-16 0)
(3 -7.128937374e-16 0)
(3 -9.790443734e-16 0)
(3 -5.002019582e-16 0)
(3 -5.266480702e-16 0)
(3 -2.84919248e-16 0)
(3 3.659428546e-16 0)
(3 -6.70031559e-16 0)
(3 -1.988228463e-15 0)
(3 -2.659080508e-15 0)
(3 -3.824616776e-15 0)
(3 -4.9098425e-15 0)
(3 -4.411317848e-15 0)
(3 -4.032410166e-15 0)
(3 -4.062802146e-15 0)
(3 -3.513913211e-15 0)
(3 -3.028502019e-15 0)
(3 7.485222282e-15 0)
(3 8.210822917e-15 0)
(3 8.527722952e-15 0)
(3 8.041762228e-15 0)
(3 7.328675802e-15 0)
(3 6.900363654e-15 0)
(3 6.978179591e-15 0)
(3 6.945149297e-15 0)
(3 5.81934856e-15 0)
(3 3.171440356e-15 0)
(3 2.510556345e-15 0)
(3 2.350415959e-15 0)
(3 2.491724104e-15 0)
(3 2.266020461e-15 0)
(3 1.150795103e-15 0)
(3 1.021768778e-15 0)
(3 1.200379628e-15 0)
(3 7.074375861e-16 0)
(3 8.811113519e-16 0)
(3 6.219237331e-16 0)
(3 5.411381339e-16 0)
(3 8.531506045e-16 0)
(3 1.041608806e-15 0)
(3 8.20683e-16 0)
(3 -5.117194379e-16 0)
(3 -2.703588788e-15 0)
(3 -3.264351167e-15 0)
(3 -2.569089896e-15 0)
(3 -2.231723262e-15 0)
(3 -2.718705272e-15 0)
(3 -3.93252996e-15 0)
(3 -4.598317934e-15 0)
(3 -4.812376415e-15 0)
(3 6.910809113e-16 0)
(3 1.143479726e-15 0)
(3 1.673855942e-15 0)
(3 1.587527243e-15 0)
(3 1.571052059e-15 0)
(3 2.393209834e-15 0)
(3 3.745212585e-15 0)
(3 5.040782076e-15 0)
(3 4.508128174e-15 0)
(3 4.177127603e-15 0)
(3 5.318361459e-15 0)
(3 2.960257007e-15 0)
(3 1.430121598e-15 0)
(3 2.21550057e-15 0)
(3 2.832045168e-15 0)
(3 3.423036161e-15 0)
(3 3.317946914e-15 0)
(3 3.422680404e-15 0)
(3 3.838934503e-15 0)
(3 4.291605049e-15 0)
(3 3.854454036e-15 0)
(3 3.481605946e-15 0)
(3 4.125914574e-15 0)
(3 3.953626746e-15 0)
(3 9.117178621e-16 0)
(3 9.069703117e-17 0)
(3 -6.568064959e-16 0)
(3 -4.439239296e-16 0)
(3 -9.605991082e-16 0)
(3 -2.955805353e-15 0)
(3 -4.247050193e-15 0)
(3 -5.320720675e-15 0)
(3 -5.166369219e-15 0)
(3 -5.998815793e-15 0)
(3 -5.371443476e-15 0)
(3 -3.317015175e-15 0)
(3 -1.500463703e-15 0)
(3 -1.352341304e-15 0)
(3 -5.456261531e-16 0)
(3 1.184442985e-16 0)
(3 1.482864184e-15 0)
(3 2.109065164e-15 0)
(3 2.693497197e-15 0)
(3 2.477447242e-15 0)
(3 1.962824186e-15 0)
(3 1.340247435e-15 0)
(3 2.080110451e-15 0)
(3 3.49685802e-15 0)
(3 4.466885872e-15 0)
(3 4.815777591e-15 0)
(3 6.085745516e-15 0)
(3 6.503258027e-15 0)
(3 6.286867312e-15 0)
(3 5.910354312e-15 0)
(3 6.52970792e-15 0)
(3 7.369654002e-15 0)
(3 5.652496325e-15 0)
(3 3.756268831e-15 0)
(3 2.476260334e-15 0)
(3 1.277782264e-15 0)
(3 -8.704573077e-16 0)
(3 -2.522033987e-15 0)
(3 -4.215171139e-15 0)
(3 -5.316574831e-15 0)
(3 -6.295421072e-15 0)
(3 -7.659087532e-15 0)
(3 -6.498516718e-15 0)
(3 -7.956542143e-15 0)
(3 -9.94781053e-15 0)
(3 -1.013676792e-14 0)
(3 -8.167898961e-15 0)
(3 -6.756881422e-15 0)
(3 -6.632853915e-15 0)
(3 -5.359723388e-15 0)
(3 -2.396997508e-15 0)
(3 -4.502538464e-16 0)
(3 -4.050054586e-15 0)
(3 -5.000488364e-15 0)
(3 -4.257629891e-15 0)
(3 -3.818317371e-15 0)
(3 -2.569030439e-15 0)
(3 -1.361394429e-16 0)
(3 2.074453712e-15 0)
(3 2.668821947e-15 0)
(3 2.939186585e-15 0)
(3 3.453806623e-15 0)
(3 1.462197472e-15 0)
(3 3.922881765e-16 0)
(3 -4.114290545e-18 0)
(3 1.43613722e-15 0)
(3 2.350176308e-15 0)
(3 4.282638012e-15 0)
(3 5.346126951e-15 0)
(3 6.10462071e-15 0)
(3 5.717453777e-15 0)
(3 6.483155618e-15 0)
(3 7.061220802e-15 0)
(3 5.607130245e-15 0)
(3 4.202960447e-15 0)
(3 4.19499513e-15 0)
(3 4.177605542e-15 0)
(3 4.75690047e-15 0)
(3 4.653136878e-15 0)
(3 4.61606154e-15 0)
(3 3.660097968e-15 0)
(3 1.361144847e-15 0)
(3 -3.356627346e-15 0)
(3 -5.48222701e-15 0)
(3 -6.115463448e-15 0)
(3 -4.995628862e-15 0)
(3 -3.522883632e-15 0)
(3 -1.407666255e-15 0)
(3 9.220245198e-17 0)
(3 1.027911549e-15 0)
(3 2.910785005e-15 0)
(3 2.230950177e-15 0)
(3 2.378821645e-15 0)
(3 2.108816807e-15 0)
(3 1.636896798e-15 0)
(3 1.004439743e-15 0)
(3 2.901422848e-16 0)
(3 -3.788563083e-19 0)
(3 5.032275611e-16 0)
(3 1.185333797e-15 0)
(3 2.797927803e-15 0)
(3 4.064384431e-15 0)
(3 4.302059095e-15 0)
(3 4.632992906e-15 0)
(3 5.777241587e-15 0)
(3 7.020902724e-15 0)
(3 8.345239653e-15 0)
(3 7.751562881e-15 0)
(3 7.321391616e-15 0)
(3 6.519918555e-15 0)
(3 4.661124493e-15 0)
(3 4.739143579e-15 0)
(3 3.949508006e-15 0)
(3 2.793259892e-15 0)
(3 -5.473886715e-16 0)
(3 -4.249814162e-15 0)
(3 -4.345607211e-15 0)
(3 -5.606536459e-15 0)
(3 -3.443194472e-15 0)
(3 -8.274099711e-16 0)
(3 1.844561017e-16 0)
(3 1.789842442e-15 0)
(3 2.704805798e-15 0)
(3 3.040562265e-15 0)
(3 2.763351611e-15 0)
(3 1.861444508e-15 0)
(3 1.275824789e-15 0)
(3 -5.203220016e-17 0)
(3 -2.830813536e-16 0)
(3 1.180814569e-15 0)
(3 2.291551907e-15 0)
(3 2.847785095e-15 0)
(3 3.461816876e-15 0)
(3 4.171703367e-15 0)
(3 5.171978015e-15 0)
(3 5.675465112e-15 0)
(3 5.441193971e-15 0)
(3 5.009798165e-15 0)
(3 4.978051492e-15 0)
(3 5.899622035e-15 0)
(3 8.163569112e-15 0)
(3 9.559581936e-15 0)
(3 8.887590085e-15 0)
(3 5.653530394e-15 0)
(3 2.654813664e-15 0)
(3 7.457080835e-16 0)
(3 -7.316242952e-16 0)
(3 -1.520629585e-15 0)
(3 -2.017685165e-15 0)
(3 -2.590937922e-15 0)
(3 -4.18118099e-15 0)
(3 -4.92103211e-16 0)
(3 -3.622530787e-16 0)
(3 -5.403649722e-16 0)
(3 -4.940526173e-16 0)
(3 -2.23430011e-16 0)
(3 -1.935536386e-16 0)
(3 4.335194729e-16 0)
(3 9.885082365e-17 0)
(3 -4.348276478e-16 0)
(3 -1.063271861e-15 0)
(3 -1.099435366e-15 0)
(3 1.052539073e-15 0)
(3 3.369978996e-15 0)
(3 6.669654527e-15 0)
(3 8.549039532e-15 0)
(3 7.799268329e-15 0)
(3 5.983573295e-15 0)
(3 5.341202927e-15 0)
(3 5.185550179e-15 0)
(3 4.557252799e-15 0)
(3 4.643711659e-15 0)
(3 5.109048567e-15 0)
(3 6.223389822e-15 0)
(3 5.989976365e-15 0)
(3 4.282572984e-15 0)
(3 4.213438465e-15 0)
(3 2.048905635e-15 0)