/*--------------------------------*- C++ -*----------------------------------*\
  =========                 |
  \\      /  F ield         | OpenFOAM: The Open Source CFD Toolbox
   \\    /   O peration     | Website:  https://openfoam.org
    \\  /    A nd           | Version:  7
     \\/     M anipulation  |
\*---------------------------------------------------------------------------*/
FoamFile
{
    version     2.0;
    format      ascii;
    class       volVectorField;
    location    "4.4";
    object      U;
}
// * * * * * * * * * * * * * * * * * * * * * * * * * * * * * * * * * * * * * //

dimensions      [0 1 -1 0 0 0 0];

internalField   nonuniform List<vector> 
2222
(
(3 -7.154879172e-17 0)
(3 -5.381818393e-16 0)
(3 1.682960997e-15 0)
(3 5.888272637e-15 0)
(3 5.254145592e-15 0)
(3 6.49954464e-15 0)
(3 4.394331516e-15 0)
(3 4.277613312e-15 0)
(3 5.090053398e-15 0)
(3 3.155072261e-15 0)
(3 2.082004735e-15 0)
(3 5.430039452e-16 0)
(3 2.201734083e-15 0)
(3 5.488757453e-15 0)
(3 7.219878332e-15 0)
(3 4.701967012e-15 0)
(3 3.44557012e-15 0)
(3 4.300006608e-15 0)
(3 6.854822291e-15 0)
(3 5.047738522e-15 0)
(3 4.766721993e-15 0)
(3 2.875927508e-15 0)
(3 3.339617288e-15 0)
(3 1.505956903e-15 0)
(3 -8.820014149e-16 0)
(3 5.860257189e-16 0)
(3 -5.242238131e-17 0)
(3 2.000465964e-15 0)
(3 1.351674714e-15 0)
(3 3.265798407e-15 0)
(3 5.629744475e-15 0)
(3 2.7515235e-15 0)
(3 1.414856852e-16 0)
(3 -1.951744222e-16 0)
(3 -1.957247104e-15 0)
(3 -1.727917708e-15 0)
(3 -1.811904766e-15 0)
(3 -3.305822714e-15 0)
(3 -5.120300913e-15 0)
(3 -5.483003915e-15 0)
(3 -7.936817845e-15 0)
(3 -6.98062718e-15 0)
(3 -4.687677797e-15 0)
(3 -4.366604499e-15 0)
(3 -4.504402601e-15 0)
(3 -4.492296905e-15 0)
(3 -6.14243358e-15 0)
(3 -9.473768339e-15 0)
(3 -1.225424223e-14 0)
(3 -1.347587772e-14 0)
(3 -1.196457968e-14 0)
(3 -7.80780486e-15 0)
(3 -5.192545048e-15 0)
(3 -3.631772729e-15 0)
(3 -1.579100485e-15 0)
(3 4.186535806e-15 0)
(3 1.173575498e-14 0)
(3 1.372069949e-14 0)
(3 1.323370343e-14 0)
(3 9.357794292e-15 0)
(3 8.24662442e-15 0)
(3 5.786569852e-15 0)
(3 3.674745556e-17 0)
(3 -1.752757053e-17 0)
(3 3.464556688e-15 0)
(3 8.291380758e-15 0)
(3 9.204970302e-15 0)
(3 7.795411408e-15 0)
(3 7.211168717e-15 0)
(3 7.83700474e-15 0)
(3 8.947858101e-15 0)
(3 7.844200867e-15 0)
(3 6.244467407e-15 0)
(3 4.683073959e-15 0)
(3 3.690916369e-15 0)
(3 3.920839867e-15 0)
(3 2.236359274e-15 0)
(3 1.722113514e-15 0)
(3 3.110493003e-15 0)
(3 4.140328305e-15 0)
(3 7.156042432e-15 0)
(3 4.833403277e-15 0)
(3 6.665668399e-15 0)
(3 6.689942362e-15 0)
(3 8.443980157e-15 0)
(3 9.14231991e-15 0)
(3 7.312233578e-15 0)
(3 8.705160879e-15 0)
(3 1.108690332e-14 0)
(3 1.31609058e-14 0)
(3 9.398591036e-15 0)
(3 4.230118119e-15 0)
(3 3.698001935e-15 0)
(3 1.131786617e-15 0)
(3 4.515528319e-15 0)
(3 6.383271013e-15 0)
(3 1.224207227e-14 0)
(3 1.893698671e-14 0)
(3 1.763311384e-14 0)
(3 1.368641485e-14 0)
(3 1.134870382e-14 0)
(3 -1.112478036e-17 0)
(3 1.045952652e-15 0)
(3 1.485596721e-15 0)
(3 -7.82745593e-16 0)
(3 -2.834497708e-15 0)
(3 -3.94167542e-15 0)
(3 -5.597248483e-15 0)
(3 -5.408456169e-15 0)
(3 -5.703266672e-15 0)
(3 -6.843127614e-15 0)
(3 -7.669548301e-15 0)
(3 -6.325989454e-15 0)
(3 -6.187632315e-15 0)
(3 -7.568093575e-15 0)
(3 -5.538699922e-15 0)
(3 -7.866358888e-15 0)
(3 -3.591283852e-15 0)
(3 -1.113746387e-15 0)
(3 2.590378714e-17 0)
(3 8.671995295e-16 0)
(3 8.51520244e-15 0)
(3 1.576775134e-14 0)
(3 1.665549537e-14 0)
(3 1.585467377e-14 0)
(3 1.600272659e-14 0)
(3 1.446913997e-14 0)
(3 1.207426758e-14 0)
(3 8.798828225e-15 0)
(3 7.230817912e-15 0)
(3 7.544587486e-15 0)
(3 8.201371826e-15 0)
(3 1.015793263e-14 0)
(3 1.427578849e-14 0)
(3 1.193532571e-14 0)
(3 6.837929021e-15 0)
(3 7.422401784e-15 0)
(3 4.092754836e-15 0)
(3 3.40378143e-15 0)
(3 3.262133991e-15 0)
(3 2.356846291e-15 0)
(3 3.371493698e-15 0)
(3 3.190097359e-15 0)
(3 2.294006112e-15 0)
(3 1.654553353e-15 0)
(3 3.853159603e-15 0)
(3 6.269391485e-15 0)
(3 7.829345753e-15 0)
(3 8.463005793e-15 0)
(3 1.089272085e-14 0)
(3 9.228146642e-15 0)
(3 8.935762182e-15 0)
(3 1.033737631e-14 0)
(3 1.012742338e-14 0)
(3 1.019455226e-14 0)
(3 1.363306291e-14 0)
(3 1.405106368e-14 0)
(3 1.010063652e-14 0)
(3 7.089886888e-15 0)
(3 8.054720932e-15 0)
(3 9.643796106e-15 0)
(3 1.159167853e-14 0)
(3 1.309669415e-14 0)
(3 1.595944924e-14 0)
(3 2.0371352e-14 0)
(3 2.120843047e-14 0)
(3 1.985547291e-14 0)
(3 1.339681282e-14 0)
(3 1.104019257e-15 0)
(3 7.583807892e-16 0)
(3 -2.968577073e-16 0)
(3 3.965213974e-16 0)
(3 2.014507693e-15 0)
(3 2.339799716e-17 0)
(3 5.520256513e-16 0)
(3 -2.642626312e-15 0)
(3 -6.963321669e-15 0)
(3 -1.098273877e-14 0)
(3 -1.213713824e-14 0)
(3 -1.079952672e-14 0)
(3 -4.937563295e-15 0)
(3 -3.419403105e-15 0)
(3 6.526927913e-16 0)
(3 4.957869792e-15 0)
(3 8.658344049e-15 0)
(3 8.929578308e-15 0)
(3 8.947833113e-15 0)
(3 1.088131674e-14 0)
(3 1.428287543e-14 0)
(3 1.588607399e-14 0)
(3 1.543042745e-14 0)
(3 1.423987681e-14 0)
(3 1.03466549e-14 0)
(3 8.24597165e-15 0)
(3 9.119908669e-15 0)
(3 1.175842951e-14 0)
(3 1.375726532e-14 0)
(3 1.292726971e-14 0)
(3 1.035959761e-14 0)
(3 4.747127024e-15 0)
(3 2.382057188e-15 0)
(3 -2.175281181e-15 0)
(3 -5.497296567e-15 0)
(3 -5.56707176e-15 0)
(3 -4.245062833e-15 0)
(3 -2.144312998e-15 0)
(3 -6.080279998e-16 0)
(3 1.832370954e-15 0)
(3 7.339261264e-15 0)
(3 8.172894787e-15 0)
(3 6.896430038e-15 0)
(3 2.680877591e-15 0)
(3 -8.02685314e-16 0)
(3 -1.717635387e-15 0)
(3 -1.001215573e-15 0)
(3 2.297358281e-15 0)
(3 6.522620775e-15 0)
(3 9.703726995e-15 0)
(3 1.061711532e-14 0)
(3 1.195830801e-14 0)
(3 1.329939372e-14 0)
(3 1.286778088e-14 0)
(3 8.975631176e-15 0)
(3 7.855820478e-15 0)
(3 7.577419132e-15 0)
(3 7.111012284e-15 0)
(3 8.420097269e-15 0)
(3 1.054172285e-14 0)
(3 1.138633075e-14 0)
(3 9.986084942e-15 0)
(3 6.443144364e-15 0)
(3 3.037911175e-15 0)
(3 8.250797557e-15 0)
(3 1.183699695e-14 0)
(3 1.021916041e-14 0)
(3 -2.751603611e-16 0)
(3 -2.863186985e-15 0)
(3 -2.548691647e-15 0)
(3 -9.948345502e-18 0)
(3 2.472128113e-15 0)
(3 2.55916021e-15 0)
(3 3.060365299e-15 0)
(3 1.920828104e-15 0)
(3 9.282994311e-16 0)
(3 -9.113956723e-16 0)
(3 -1.25956189e-15 0)
(3 3.128223201e-16 0)
(3 3.614325199e-15 0)
(3 8.610343522e-15 0)
(3 1.121801519e-14 0)
(3 1.424315691e-14 0)
(3 1.570710245e-14 0)
(3 1.786199273e-14 0)
(3 2.004098769e-14 0)
(3 2.049309972e-14 0)
(3 1.587921866e-14 0)
(3 1.320482151e-14 0)
(3 9.608527647e-15 0)
(3 7.087803869e-15 0)
(3 -6.520899091e-16 0)
(3 -2.686921207e-15 0)
(3 -1.197264522e-15 0)
(3 5.632963146e-16 0)
(3 3.716972738e-15 0)
(3 7.401497627e-15 0)
(3 7.815805008e-15 0)
(3 6.660639829e-15 0)
(3 1.290027574e-15 0)
(3 9.31985409e-16 0)
(3 -3.337306334e-15 0)
(3 -8.802872642e-15 0)
(3 -9.743483255e-15 0)
(3 -7.283046637e-15 0)
(3 -3.972166404e-15 0)
(3 4.531745667e-15 0)
(3 6.571793774e-15 0)
(3 6.71120722e-15 0)
(3 2.752046315e-15 0)
(3 1.739537194e-15 0)
(3 -2.080553731e-15 0)
(3 -4.744796249e-15 0)
(3 -2.327891851e-15 0)
(3 1.367178406e-17 0)
(3 7.704182864e-15 0)
(3 1.274599108e-14 0)
(3 1.542357427e-14 0)
(3 1.611476999e-14 0)
(3 1.620942512e-14 0)
(3 1.265159542e-14 0)
(3 7.113041415e-15 0)
(3 5.368276676e-15 0)
(3 4.864897556e-15 0)
(3 6.548860024e-15 0)
(3 8.991047401e-15 0)
(3 9.152438961e-15 0)
(3 1.253338829e-14 0)
(3 1.112446481e-14 0)
(3 6.557110227e-15 0)
(3 -1.44109196e-15 0)
(3 -4.662268887e-15 0)
(3 -5.568436175e-15 0)
(3 -4.577154425e-15 0)
(3 -2.876197965e-16 0)
(3 -7.724960735e-16 0)
(3 -2.246680743e-15 0)
(3 -2.580344822e-15 0)
(3 -1.228634742e-15 0)
(3 2.854129587e-15 0)
(3 3.708849548e-15 0)
(3 4.916129947e-15 0)
(3 5.052371657e-15 0)
(3 6.635552604e-15 0)
(3 1.043801515e-14 0)
(3 1.148138197e-14 0)
(3 1.309390368e-14 0)
(3 1.6317331e-14 0)
(3 2.045521908e-14 0)
(3 1.856213698e-14 0)
(3 1.752572186e-14 0)
(3 1.843795658e-14 0)
(3 1.743896472e-14 0)
(3 1.454869252e-14 0)
(3 1.008452654e-14 0)
(3 6.891542098e-15 0)
(3 2.924312136e-15 0)
(3 -9.974294489e-16 0)
(3 -3.53074705e-15 0)
(3 -5.273741896e-15 0)
(3 -5.452805717e-15 0)
(3 -4.870107453e-15 0)
(3 -3.246727831e-15 0)
(3 1.514044677e-15 0)
(3 7.861074323e-15 0)
(3 1.101866643e-14 0)
(3 1.112788649e-14 0)
(3 1.499972743e-14 0)
(3 1.087111223e-14 0)
(3 1.965703769e-15 0)
(3 -5.681497206e-15 0)
(3 -7.341756994e-15 0)
(3 -6.423953091e-15 0)
(3 -2.177176641e-15 0)
(3 -1.591651159e-15 0)
(3 1.175732585e-15 0)
(3 2.167763841e-15 0)
(3 2.607695842e-15 0)
(3 2.574383614e-15 0)
(3 6.945027478e-15 0)
(3 9.940834538e-15 0)
(3 9.729135979e-15 0)
(3 9.118693826e-15 0)
(3 7.568531164e-15 0)
(3 6.911984918e-15 0)
(3 1.372400984e-14 0)
(3 1.609839554e-14 0)
(3 1.654203482e-14 0)
(3 1.599574731e-14 0)
(3 1.215589849e-14 0)
(3 8.726553105e-15 0)
(3 7.869964855e-15 0)
(3 3.728302155e-15 0)
(3 2.381196365e-15 0)
(3 -1.824718525e-15 0)
(3 -4.615154745e-15 0)
(3 -3.661554848e-15 0)
(3 -1.856607311e-15 0)
(3 -2.861018708e-15 0)
(3 -5.243822895e-15 0)
(3 -5.781131432e-15 0)
(3 -1.028744056e-15 0)
(3 -5.322221013e-16 0)
(3 -5.200599801e-16 0)
(3 -1.343298543e-15 0)
(3 -9.179979028e-16 0)
(3 8.29370968e-16 0)
(3 2.175865607e-15 0)
(3 1.458555384e-15 0)
(3 3.085601083e-15 0)
(3 3.514635742e-15 0)
(3 3.467523485e-15 0)
(3 4.960128866e-15 0)
(3 7.388772731e-15 0)
(3 8.753885006e-15 0)
(3 1.224810485e-14 0)
(3 1.024166614e-14 0)
(3 8.253411698e-15 0)
(3 5.882278961e-15 0)
(3 2.673967784e-15 0)
(3 -1.312597048e-15 0)
(3 -3.555789837e-15 0)
(3 -6.843074954e-15 0)
(3 -8.619008523e-15 0)
(3 -1.056817596e-14 0)
(3 -9.346859222e-15 0)
(3 -8.164325407e-15 0)
(3 -6.706368339e-15 0)
(3 -6.847478202e-15 0)
(3 -6.114123005e-15 0)
(3 -4.329222403e-15 0)
(3 -2.93008254e-15 0)
(3 -1.814224556e-16 0)
(3 3.020044402e-15 0)
(3 2.685786487e-15 0)
(3 4.542137562e-16 0)
(3 -5.099627625e-16 0)
(3 -3.98558061e-15 0)
(3 -8.503163274e-15 0)
(3 -7.730636798e-15 0)
(3 -7.180683003e-15 0)
(3 -6.001326695e-15 0)
(3 -3.120971622e-15 0)
(3 -2.770419933e-15 0)
(3 -1.325581325e-15 0)
(3 1.858569208e-15 0)
(3 1.084956403e-14 0)
(3 1.627429982e-14 0)
(3 1.589735667e-14 0)
(3 1.266880391e-14 0)
(3 8.483136498e-15 0)
(3 6.603767233e-15 0)
(3 1.006731811e-14 0)
(3 1.184156667e-14 0)
(3 1.173285772e-14 0)
(3 1.159919926e-14 0)
(3 1.169961553e-14 0)
(3 1.027865217e-14 0)
(3 1.198250134e-14 0)
(3 1.025078522e-14 0)
(3 4.027126598e-15 0)
(3 2.214121555e-15 0)
(3 7.475215741e-16 0)
(3 -3.516050949e-16 0)
(3 5.385673946e-16 0)
(3 1.831417968e-15 0)
(3 8.201448234e-16 0)
(3 -2.128827112e-15 0)
(3 -4.261717769e-16 0)
(3 -3.8561479e-15 0)
(3 -2.81917556e-15 0)
(3 7.307778431e-16 0)
(3 -1.274090843e-16 0)
(3 -8.487800686e-17 0)
(3 -1.340330529e-15 0)
(3 2.292487685e-16 0)
(3 1.969657967e-15 0)
(3 2.398383483e-15 0)
(3 2.071230409e-15 0)
(3 2.959424187e-15 0)
(3 4.900171299e-15 0)
(3 1.534546067e-15 0)
(3 2.250261086e-16 0)
(3 -1.646027488e-15 0)
(3 -3.460220957e-15 0)
(3 -6.016039323e-15 0)
(3 -6.609054935e-15 0)
(3 -6.721955844e-15 0)
(3 -1.238442663e-14 0)
(3 -1.479090173e-14 0)
(3 -1.281087836e-14 0)
(3 -8.643246588e-15 0)
(3 -6.726347256e-15 0)
(3 -4.490384552e-15 0)
(3 -5.847704212e-16 0)
(3 -7.353856812e-17 0)
(3 -1.603074066e-16 0)
(3 -4.450456e-16 0)
(3 4.516181258e-16 0)
(3 -4.990642108e-15 0)
(3 -3.487447e-15 0)
(3 -1.847903083e-15 0)
(3 1.265639144e-15 0)
(3 6.302832451e-15 0)
(3 7.945136628e-15 0)
(3 6.908024961e-15 0)
(3 7.16581122e-15 0)
(3 5.841357801e-15 0)
(3 6.834293059e-15 0)
(3 1.757247835e-15 0)
(3 7.57377892e-16 0)
(3 -3.045736581e-16 0)
(3 4.207712689e-15 0)
(3 6.790383279e-15 0)
(3 1.088868183e-14 0)
(3 1.560133595e-14 0)
(3 1.620779102e-14 0)
(3 1.426077288e-14 0)
(3 1.098807692e-14 0)
(3 8.244362201e-15 0)
(3 7.388328267e-15 0)
(3 2.4300192e-15 0)
(3 -3.963360384e-17 0)
(3 1.491446517e-15 0)
(3 2.962467606e-15 0)
(3 4.12795128e-15 0)
(3 4.18524335e-16 0)
(3 -7.885179862e-16 0)
(3 -1.917211757e-15 0)
(3 -2.01081153e-15 0)
(3 -2.37100071e-15 0)
(3 -2.029629861e-15 0)
(3 -8.111129597e-17 0)
(3 4.868525866e-15 0)
(3 4.642450618e-15 0)
(3 1.611270693e-15 0)
(3 1.715757883e-15 0)
(3 1.313632215e-15 0)
(3 1.470201805e-15 0)
(3 1.317654027e-16 0)
(3 -3.104408288e-15 0)
(3 -4.48415663e-15 0)
(3 -3.018904779e-15 0)
(3 -7.24956315e-16 0)
(3 7.076817722e-16 0)
(3 3.234432112e-15 0)
(3 2.77747682e-15 0)
(3 1.254808184e-15 0)
(3 -3.493933395e-15 0)
(3 -1.020592641e-14 0)
(3 -9.627538006e-15 0)
(3 -1.026389475e-14 0)
(3 -9.876212809e-15 0)
(3 -6.088411901e-15 0)
(3 -4.042404993e-15 0)
(3 -4.154028272e-15 0)
(3 -8.579296187e-15 0)
(3 -9.261795811e-15 0)
(3 -6.362356829e-15 0)
(3 -2.346882315e-15 0)
(3 3.179035201e-15 0)
(3 6.011741846e-15 0)
(3 6.416436699e-15 0)
(3 5.82056314e-15 0)
(3 4.175394955e-15 0)
(3 6.125266103e-15 0)
(3 -1.935187138e-16 0)
(3 -7.434394759e-16 0)
(3 1.30922946e-15 0)
(3 2.917494325e-15 0)
(3 4.956278363e-15 0)
(3 7.752572619e-15 0)
(3 1.173697984e-14 0)
(3 1.144896369e-14 0)
(3 1.294097926e-14 0)
(3 1.656365631e-14 0)
(3 1.316434525e-14 0)
(3 1.106294698e-14 0)
(3 9.313761454e-15 0)
(3 1.002919668e-14 0)
(3 8.157801694e-15 0)
(3 2.389241176e-15 0)
(3 -1.689780377e-16 0)
(3 1.521074634e-15 0)
(3 1.238214769e-16 0)
(3 -1.896587866e-15 0)
(3 -4.054135135e-15 0)
(3 -4.909481386e-15 0)
(3 -5.994382602e-15 0)
(3 -8.385691539e-15 0)
(3 -8.698137286e-15 0)
(3 -9.826083523e-15 0)
(3 -1.136155002e-14 0)
(3 -1.079909236e-14 0)
(3 -8.348163136e-15 0)
(3 -8.010199033e-15 0)
(3 -8.018620728e-15 0)
(3 -5.069156194e-15 0)
(3 -3.92391884e-15 0)
(3 -6.379120937e-16 0)
(3 4.235791528e-15 0)
(3 1.054023079e-14 0)
(3 1.126419671e-15 0)
(3 1.813716955e-15 0)
(3 8.295411307e-16 0)
(3 -2.050806366e-15 0)
(3 -2.163195546e-15 0)
(3 -3.381050579e-15 0)
(3 -3.924972936e-15 0)
(3 -4.821484197e-15 0)
(3 -8.508804431e-15 0)
(3 -8.11905214e-15 0)
(3 -6.424976886e-15 0)
(3 -6.691101188e-15 0)
(3 -7.49656542e-15 0)
(3 -7.311232606e-15 0)
(3 -6.668679793e-15 0)
(3 -2.400246605e-15 0)
(3 -1.355329983e-15 0)
(3 -2.415333238e-15 0)
(3 -2.136406689e-15 0)
(3 -3.027200781e-16 0)
(3 1.454967032e-15 0)
(3 3.395936435e-15 0)
(3 2.543290056e-15 0)
(3 3.284021581e-15 0)
(3 6.933893905e-15 0)
(3 8.413428718e-15 0)
(3 8.138985405e-15 0)
(3 7.244601754e-15 0)
(3 4.770043266e-15 0)
(3 8.196294497e-16 0)
(3 -1.114998972e-16 0)
(3 2.677550481e-15 0)
(3 4.016509032e-15 0)
(3 5.866014265e-15 0)
(3 5.037879182e-15 0)
(3 3.193817061e-15 0)
(3 4.011344139e-15 0)
(3 6.12272232e-15 0)
(3 9.458364377e-15 0)
(3 1.092201282e-14 0)
(3 1.241130603e-14 0)
(3 1.332538278e-14 0)
(3 1.303153337e-14 0)
(3 1.422136163e-14 0)
(3 1.36529126e-14 0)
(3 1.341304035e-14 0)
(3 1.080319456e-14 0)
(3 9.049715877e-15 0)
(3 5.517797944e-15 0)
(3 -4.466247782e-16 0)
(3 -5.542627088e-15 0)
(3 -7.034203627e-15 0)
(3 -7.648834812e-15 0)
(3 -6.840912014e-15 0)
(3 -1.124825779e-14 0)
(3 -1.366447714e-14 0)
(3 -1.469730436e-14 0)
(3 -1.498388727e-14 0)
(3 -1.045244091e-14 0)
(3 -7.643454183e-15 0)
(3 -6.568728069e-15 0)
(3 -7.016836709e-15 0)
(3 -5.271350704e-15 0)
(3 -1.116627315e-15 0)
(3 3.907429583e-15 0)
(3 6.290722126e-15 0)
(3 1.174220789e-14 0)
(3 -1.192502891e-15 0)
(3 -1.295514345e-15 0)
(3 -1.288059159e-15 0)
(3 -9.163639279e-16 0)
(3 -6.369876665e-16 0)
(3 2.563150585e-16 0)
(3 -1.247790661e-16 0)
(3 -1.397539378e-15 0)
(3 -2.35020619e-15 0)
(3 -2.981697244e-15 0)
(3 -4.419372223e-15 0)
(3 -4.477166349e-15 0)
(3 -5.023922796e-15 0)
(3 -2.514547745e-15 0)
(3 6.097270214e-17 0)
(3 1.10726477e-15 0)
(3 2.143609873e-15 0)
(3 1.417931579e-15 0)
(3 5.124805149e-16 0)
(3 8.277230731e-16 0)
(3 1.609243712e-15 0)
(3 5.596810093e-15 0)
(3 1.178408712e-14 0)
(3 1.563776528e-14 0)
(3 1.660577088e-14 0)
(3 1.48572325e-14 0)
(3 1.172345804e-14 0)
(3 8.305609871e-15 0)
(3 5.287085043e-15 0)
(3 3.177557344e-15 0)
(3 -6.279225082e-16 0)
(3 -1.962155744e-16 0)
(3 -7.88450095e-17 0)
(3 -1.100520797e-15 0)
(3 1.965219578e-16 0)
(3 1.324712048e-15 0)
(3 4.166697326e-16 0)
(3 -3.334618393e-16 0)
(3 2.721929385e-15 0)
(3 4.792492559e-15 0)
(3 6.681628247e-15 0)
(3 7.504490889e-15 0)
(3 1.186475968e-14 0)
(3 1.396007662e-14 0)
(3 1.30920359e-14 0)
(3 1.14852557e-14 0)
(3 9.70567794e-15 0)
(3 3.992355503e-15 0)
(3 -4.068452396e-16 0)
(3 -3.543339149e-15 0)
(3 -7.330525373e-15 0)
(3 -7.848301355e-15 0)
(3 -7.727457854e-15 0)
(3 -6.888167713e-15 0)
(3 -9.268394253e-15 0)
(3 -1.081605814e-14 0)
(3 -9.405188209e-15 0)
(3 -7.428197419e-15 0)
(3 -3.153276615e-15 0)
(3 -1.868637947e-15 0)
(3 -1.639059684e-15 0)
(3 -4.292155031e-16 0)
(3 -2.059073122e-16 0)
(3 3.29724112e-15 0)
(3 2.07859211e-15 0)
(3 -3.333615519e-16 0)
(3 -1.342549128e-15 0)
(3 -2.253401961e-16 0)
(3 1.320615789e-15 0)
(3 3.446455128e-15 0)
(3 4.381314396e-15 0)
(3 2.983657002e-15 0)
(3 2.441501097e-15 0)
(3 -4.212089985e-16 0)
(3 -6.290387451e-16 0)
(3 1.170665494e-15 0)
(3 2.890442204e-15 0)
(3 1.084752216e-15 0)
(3 -1.895450844e-16 0)
(3 -2.047704131e-15 0)
(3 -3.982529966e-15 0)
(3 -5.488622997e-15 0)
(3 -5.61917413e-15 0)
(3 -4.13986702e-15 0)
(3 -2.331420595e-15 0)
(3 -3.902979957e-15 0)
(3 -3.710511147e-15 0)
(3 -2.61624392e-15 0)
(3 4.022233205e-16 0)
(3 7.527541728e-15 0)
(3 1.169595732e-14 0)
(3 1.564981851e-14 0)
(3 1.401190798e-14 0)
(3 9.828852641e-15 0)
(3 7.392313138e-15 0)
(3 6.61258224e-15 0)
(3 4.803244909e-15 0)
(3 4.299779323e-15 0)
(3 2.830964174e-15 0)
(3 3.363727344e-15 0)
(3 1.974883388e-15 0)
(3 3.210391072e-15 0)
(3 4.855555201e-15 0)
(3 5.252327565e-15 0)
(3 4.580397009e-15 0)
(3 4.027313258e-15 0)
(3 3.32141624e-15 0)
(3 5.217273625e-15 0)
(3 6.490080177e-15 0)
(3 1.21509204e-14 0)
(3 1.376464497e-14 0)
(3 1.132249296e-14 0)
(3 4.728476673e-15 0)
(3 -3.744048185e-16 0)
(3 -6.070115464e-15 0)
(3 -6.755187324e-15 0)
(3 -5.255464223e-15 0)
(3 -1.794682785e-15 0)
(3 -4.736450135e-15 0)
(3 -8.159479934e-15 0)
(3 -7.433576261e-15 0)
(3 -4.034249415e-15 0)
(3 -3.243176764e-15 0)
(3 8.271480962e-16 0)
(3 1.834546945e-15 0)
(3 1.300995742e-15 0)
(3 2.773419231e-15 0)
(3 5.072838807e-15 0)
(3 8.132431942e-15 0)
(3 7.806244898e-15 0)
(3 3.646992245e-15 0)
(3 -2.348620031e-15 0)
(3 -5.916020276e-15 0)
(3 -7.202361761e-15 0)
(3 2.952502551e-16 0)
(3 7.094971141e-16 0)
(3 6.430445688e-16 0)
(3 -9.355784518e-17 0)
(3 1.642953101e-16 0)
(3 9.680736401e-16 0)
(3 -6.971485322e-16 0)
(3 5.147907033e-16 0)
(3 2.790676123e-15 0)
(3 2.17776983e-15 0)
(3 1.682207729e-15 0)
(3 -4.541370686e-16 0)
(3 -3.518689287e-15 0)
(3 -5.540491703e-15 0)
(3 -7.445958737e-15 0)
(3 -6.154508678e-15 0)
(3 -6.172982153e-15 0)
(3 -5.842854809e-15 0)
(3 -3.55442633e-15 0)
(3 -3.76935405e-15 0)
(3 -2.468091234e-15 0)
(3 -1.366726597e-15 0)
(3 2.385169565e-16 0)
(3 7.491192777e-16 0)
(3 1.191915614e-15 0)
(3 -2.285134595e-16 0)
(3 -2.445075279e-15 0)
(3 -2.312557017e-15 0)
(3 -2.421310807e-15 0)
(3 -3.251790316e-15 0)
(3 -2.098366356e-15 0)
(3 -5.666507243e-16 0)
(3 -5.42500709e-16 0)
(3 3.312190811e-15 0)
(3 2.013938962e-15 0)
(3 5.734277049e-15 0)
(3 9.397617676e-15 0)
(3 1.035322534e-14 0)
(3 8.703037272e-15 0)
(3 7.903795925e-15 0)
(3 8.587809189e-15 0)
(3 1.04560879e-14 0)
(3 7.306004386e-15 0)
(3 6.203047938e-15 0)
(3 2.484195527e-15 0)
(3 -5.424099221e-16 0)
(3 -6.61779941e-15 0)
(3 -9.135839603e-15 0)
(3 -8.445017811e-15 0)
(3 -4.015216281e-15 0)
(3 1.987104659e-15 0)
(3 1.232764836e-15 0)
(3 -4.574767671e-16 0)
(3 -6.421893723e-16 0)
(3 1.958496461e-16 0)
(3 2.553441385e-15 0)
(3 6.041697775e-15 0)
(3 7.556180528e-15 0)
(3 7.526979031e-15 0)
(3 8.45565672e-15 0)
(3 8.947077024e-15 0)
(3 1.389937272e-14 0)
(3 1.230958478e-14 0)
(3 9.935530795e-15 0)
(3 8.099798633e-15 0)
(3 6.812833103e-15 0)
(3 6.494525774e-15 0)
(3 -7.102400012e-16 0)
(3 -1.520946928e-15 0)
(3 -5.627776562e-15 0)
(3 -5.408106688e-15 0)
(3 -3.096380377e-15 0)
(3 -1.642542018e-15 0)
(3 1.678868838e-16 0)
(3 3.083324763e-15 0)
(3 3.020713554e-15 0)
(3 1.849160592e-15 0)
(3 8.366572596e-16 0)
(3 2.918599061e-16 0)
(3 -1.499816947e-15 0)
(3 -2.233772833e-15 0)
(3 -4.046087237e-15 0)
(3 -4.097943396e-15 0)
(3 -5.980539121e-15 0)
(3 -6.327982376e-15 0)
(3 -4.716072268e-15 0)
(3 -4.108843131e-15 0)
(3 -2.143163012e-15 0)
(3 -1.310145986e-15 0)
(3 -1.752656711e-15 0)
(3 -3.815800128e-15 0)
(3 -8.178434116e-15 0)
(3 -9.890744261e-15 0)
(3 -7.677543803e-15 0)
(3 -5.088539073e-15 0)
(3 -4.218536084e-15 0)
(3 -3.73754357e-15 0)
(3 -3.127433679e-15 0)
(3 -1.156126651e-15 0)
(3 8.011583676e-16 0)
(3 3.125317825e-15 0)
(3 7.578470948e-15 0)
(3 1.006404215e-14 0)
(3 1.213994257e-14 0)
(3 1.473179907e-14 0)
(3 1.369307016e-14 0)
(3 1.284567504e-14 0)
(3 1.079059843e-14 0)
(3 8.644228123e-15 0)
(3 1.153574216e-15 0)
(3 -3.890409438e-15 0)
(3 -5.687877169e-15 0)
(3 -6.446743908e-15 0)
(3 -5.196218262e-15 0)
(3 -5.392827814e-15 0)
(3 -3.318632034e-15 0)
(3 1.453261188e-15 0)
(3 3.752866845e-15 0)
(3 4.758895243e-15 0)
(3 7.162353121e-15 0)
(3 7.514037682e-15 0)
(3 7.708468972e-15 0)
(3 8.426413623e-15 0)
(3 9.843624427e-15 0)
(3 1.246821542e-14 0)
(3 1.405311845e-14 0)
(3 1.217970607e-14 0)
(3 9.21880564e-15 0)
(3 1.347837999e-14 0)
(3 1.125170719e-14 0)
(3 1.155917928e-14 0)
(3 1.051566419e-14 0)
(3 9.090344481e-15 0)
(3 8.633553064e-15 0)
(3 -1.494633694e-17 0)
(3 -9.929974561e-17 0)
(3 8.817376194e-16 0)
(3 -7.804555577e-16 0)
(3 -1.862689004e-15 0)
(3 -3.430716307e-15 0)
(3 -9.282656592e-16 0)
(3 -1.213182057e-15 0)
(3 -1.924411214e-15 0)
(3 -1.168087521e-15 0)
(3 -1.321170459e-15 0)
(3 9.195581057e-16 0)
(3 1.159366002e-15 0)
(3 2.517446028e-15 0)
(3 1.464936963e-15 0)
(3 -5.505121727e-16 0)
(3 -1.870489856e-15 0)
(3 -2.407867997e-15 0)
(3 -3.537232695e-15 0)
(3 -3.211681627e-15 0)
(3 -1.420581319e-15 0)
(3 -9.356517021e-16 0)
(3 -4.927346886e-15 0)
(3 -6.158166966e-15 0)
(3 -9.927156479e-15 0)
(3 -1.102755506e-14 0)
(3 -9.507100469e-15 0)
(3 -8.039994965e-15 0)
(3 -4.54552716e-15 0)
(3 -2.924141298e-15 0)
(3 -8.789743621e-16 0)
(3 -2.870386065e-16 0)
(3 4.817308353e-16 0)
(3 1.140172584e-15 0)
(3 3.249346729e-15 0)
(3 3.953857167e-15 0)
(3 8.859427294e-15 0)
(3 1.306080089e-14 0)
(3 1.505220414e-14 0)
(3 1.399528748e-14 0)
(3 1.083359941e-14 0)
(3 6.094685728e-15 0)
(3 2.508039561e-15 0)
(3 -4.57828186e-15 0)
(3 -4.40639778e-15 0)
(3 -3.392764707e-15 0)
(3 1.646987626e-15 0)
(3 8.604720987e-15 0)
(3 1.318266921e-14 0)
(3 1.202251357e-14 0)
(3 1.240739383e-14 0)
(3 1.312625141e-14 0)
(3 1.454193223e-14 0)
(3 1.53392767e-14 0)
(3 1.526706167e-14 0)
(3 1.475090965e-14 0)
(3 1.371897291e-14 0)
(3 1.295280321e-14 0)
(3 1.179277279e-14 0)
(3 1.094056718e-14 0)
(3 8.104388047e-15 0)
(3 1.009881411e-14 0)
(3 1.223654436e-14 0)
(3 1.403780987e-14 0)
(3 1.358815541e-14 0)
(3 1.026688516e-14 0)
(3 6.348911468e-15 0)
(3 7.293247066e-16 0)
(3 2.258605264e-15 0)
(3 2.876824491e-15 0)
(3 1.674629651e-15 0)
(3 1.063532798e-15 0)
(3 -2.752641033e-16 0)
(3 -1.958201619e-15 0)
(3 -3.413829644e-15 0)
(3 -2.79670987e-15 0)
(3 -2.61126241e-15 0)
(3 1.048802451e-15 0)
(3 -2.378262173e-16 0)
(3 -1.99267204e-16 0)
(3 2.294413651e-15 0)
(3 3.402851795e-15 0)
(3 3.506875845e-15 0)
(3 3.837320106e-15 0)
(3 2.866327248e-15 0)
(3 2.089846151e-15 0)
(3 1.933738427e-15 0)
(3 1.809884372e-17 0)
(3 -1.73169723e-15 0)
(3 -5.420334341e-15 0)
(3 -5.405952754e-15 0)
(3 -6.681513545e-15 0)
(3 -7.498358799e-15 0)
(3 -9.057584466e-15 0)
(3 -8.05594741e-15 0)
(3 -8.249758574e-15 0)
(3 -6.530358242e-15 0)
(3 -4.706144357e-15 0)
(3 -4.33522828e-15 0)
(3 -3.706576166e-15 0)
(3 -3.193564187e-15 0)
(3 -2.000727652e-15 0)
(3 -5.13967642e-16 0)
(3 2.857808471e-15 0)
(3 3.743059335e-15 0)
(3 7.161589826e-15 0)
(3 6.570686263e-15 0)
(3 3.286575102e-15 0)
(3 8.301942705e-16 0)
(3 -5.617407545e-17 0)
(3 -3.465845216e-15 0)
(3 -2.857876921e-15 0)
(3 2.614347875e-15 0)
(3 1.08475947e-14 0)
(3 1.8439662e-14 0)
(3 2.094586752e-14 0)
(3 1.941692153e-14 0)
(3 1.785182322e-14 0)
(3 1.778752901e-14 0)
(3 1.894168434e-14 0)
(3 1.970961675e-14 0)
(3 1.950802717e-14 0)
(3 1.865014386e-14 0)
(3 1.665723935e-14 0)
(3 1.315486006e-14 0)
(3 1.123209336e-14 0)
(3 9.277220271e-15 0)
(3 1.029206247e-14 0)
(3 1.008391197e-14 0)
(3 1.348480924e-14 0)
(3 1.340665926e-14 0)
(3 1.411597282e-14 0)
(3 9.816827793e-15 0)
(3 4.58722263e-15 0)
(3 9.668737407e-16 0)
(3 7.618487865e-16 0)
(3 1.854012833e-15 0)
(3 3.590469783e-15 0)
(3 4.882674465e-15 0)
(3 4.488223109e-15 0)
(3 1.74720567e-15 0)
(3 7.838232317e-17 0)
(3 5.73796454e-17 0)
(3 -1.680646311e-15 0)
(3 -3.23687482e-16 0)
(3 -4.5930583e-15 0)
(3 -2.993042018e-15 0)
(3 -2.821768584e-15 0)
(3 -4.672467622e-16 0)
(3 1.141693527e-15 0)
(3 3.418939143e-15 0)
(3 6.210990793e-15 0)
(3 4.940573238e-15 0)
(3 5.491711733e-15 0)
(3 4.499196853e-15 0)
(3 1.785900593e-15 0)
(3 2.871463552e-16 0)
(3 1.81901984e-15 0)
(3 1.057440101e-15 0)
(3 7.145534737e-17 0)
(3 4.336374576e-16 0)
(3 -1.577209006e-16 0)
(3 -4.243905138e-15 0)
(3 -3.083843755e-15 0)
(3 -3.298100189e-15 0)
(3 -3.257954742e-15 0)
(3 -3.847681095e-15 0)
(3 -1.886381647e-15 0)
(3 1.796640556e-16 0)
(3 3.589272305e-15 0)
(3 6.891058404e-15 0)
(3 3.435166189e-15 0)
(3 1.305259061e-15 0)
(3 -3.228432735e-15 0)
(3 -6.65520552e-15 0)
(3 -8.993944775e-15 0)
(3 -9.530085993e-15 0)
(3 -8.996942059e-15 0)
(3 -2.80700519e-15 0)
(3 3.017503283e-15 0)
(3 1.007639925e-14 0)
(3 1.211802917e-14 0)
(3 1.22746793e-14 0)
(3 1.796112168e-14 0)
(3 1.807596161e-14 0)
(3 1.741120852e-14 0)
(3 1.989652583e-14 0)
(3 2.073554301e-14 0)
(3 2.002903978e-14 0)
(3 1.726891635e-14 0)
(3 1.45555393e-14 0)
(3 1.401584e-14 0)
(3 1.157195874e-14 0)
(3 8.565318522e-15 0)
(3 8.473367133e-15 0)
(3 9.338702408e-15 0)
(3 1.108374952e-14 0)
(3 1.06294457e-14 0)
(3 8.867467212e-15 0)
(3 8.847483169e-15 0)
(3 6.553999885e-15 0)
(3 1.435680346e-15 0)
(3 1.843781169e-15 0)
(3 2.970491957e-15 0)
(3 3.049521856e-15 0)
(3 2.899573168e-15 0)
(3 3.147378641e-15 0)
(3 5.455377648e-15 0)
(3 3.291325362e-15 0)
(3 1.863217974e-15 0)
(3 -1.263570504e-15 0)
(3 -4.01996605e-15 0)
(3 -3.569021743e-15 0)
(3 -5.958488198e-15 0)
(3 -5.9892545e-15 0)
(3 -7.466917323e-15 0)
(3 -6.753746758e-15 0)
(3 -2.634142893e-15 0)
(3 -2.090782869e-15 0)
(3 3.70462456e-16 0)
(3 1.007624645e-15 0)
(3 1.607607876e-15 0)
(3 1.420676004e-15 0)
(3 2.429933531e-15 0)
(3 3.302770981e-15 0)
(3 5.906661022e-15 0)
(3 4.433369986e-15 0)
(3 7.839065481e-15 0)
(3 7.646549091e-15 0)
(3 1.121811744e-14 0)
(3 9.440189339e-15 0)
(3 5.012159118e-15 0)
(3 1.854884047e-15 0)
(3 9.806047347e-16 0)
(3 1.102415912e-15 0)
(3 7.226541116e-16 0)
(3 1.091724013e-15 0)
(3 1.898973617e-16 0)
(3 -7.326475356e-16 0)
(3 -3.897416248e-15 0)
(3 -7.104204692e-15 0)
(3 -9.816951076e-15 0)
(3 -9.93141946e-15 0)
(3 -7.871399608e-15 0)
(3 -2.98188074e-15 0)
(3 4.030472073e-17 0)
(3 -3.04589203e-16 0)
(3 8.337177738e-16 0)
(3 8.653486328e-16 0)
(3 1.041081538e-15 0)
(3 5.969555634e-15 0)
(3 1.258481704e-14 0)
(3 1.810441183e-14 0)
(3 1.747575072e-14 0)
(3 1.546699185e-14 0)
(3 1.507073542e-14 0)
(3 1.380366236e-14 0)
(3 1.377454559e-14 0)
(3 1.480107461e-14 0)
(3 1.368308862e-14 0)
(3 8.275873082e-15 0)
(3 4.958987074e-15 0)
(3 6.931651863e-15 0)
(3 6.971595897e-15 0)
(3 9.110011321e-15 0)
(3 1.028423766e-14 0)
(3 1.119336876e-14 0)
(3 8.316532223e-15 0)
(3 -5.39293098e-16 0)
(3 -6.796089046e-17 0)
(3 -2.855634017e-16 0)
(3 5.43389211e-17 0)
(3 3.53520264e-16 0)
(3 -4.935618717e-16 0)
(3 2.755531774e-17 0)
(3 1.274510369e-15 0)
(3 1.392717555e-15 0)
(3 1.938122211e-15 0)
(3 3.462310168e-16 0)
(3 1.188457796e-15 0)
(3 1.197552522e-15 0)
(3 2.329038181e-16 0)
(3 -2.094197597e-15 0)
(3 -4.481139176e-15 0)
(3 -4.180531373e-15 0)
(3 -5.965763602e-15 0)
(3 -5.466698614e-15 0)
(3 -4.545626917e-15 0)
(3 -3.192566115e-15 0)
(3 -8.073744773e-16 0)
(3 2.569549105e-15 0)
(3 4.904776581e-15 0)
(3 9.031775066e-15 0)
(3 1.096656737e-14 0)
(3 1.299394742e-14 0)
(3 1.509966539e-14 0)
(3 2.050994289e-14 0)
(3 1.895229666e-14 0)
(3 1.795065983e-14 0)
(3 1.604141898e-14 0)
(3 1.210834242e-14 0)
(3 7.447940105e-15 0)
(3 6.343196139e-15 0)
(3 5.035418921e-15 0)
(3 3.015016646e-15 0)
(3 1.97195916e-15 0)
(3 1.482153009e-15 0)
(3 3.75449652e-16 0)
(3 -6.741395859e-16 0)
(3 -1.297425617e-15 0)
(3 -2.438748788e-15 0)
(3 -1.460404332e-15 0)
(3 -3.65493565e-15 0)
(3 -7.395780835e-15 0)
(3 -7.280037923e-15 0)
(3 -7.713189058e-15 0)
(3 -7.798363931e-15 0)
(3 -5.585572044e-15 0)
(3 -2.392232555e-15 0)
(3 1.774954792e-15 0)
(3 3.341787005e-15 0)
(3 4.78068055e-15 0)
(3 5.365289e-15 0)
(3 3.522353138e-15 0)
(3 4.837689198e-15 0)
(3 9.869705251e-15 0)
(3 1.356722946e-14 0)
(3 1.538331705e-14 0)
(3 1.510244994e-14 0)
(3 1.227083094e-14 0)
(3 1.055384681e-14 0)
(3 7.489680013e-15 0)
(3 1.040099064e-14 0)
(3 5.723456095e-15 0)
(3 -2.578629366e-16 0)
(3 -1.021822288e-15 0)
(3 -7.552275265e-16 0)
(3 -4.708366574e-16 0)
(3 1.49386505e-15 0)
(3 2.132659213e-15 0)
(3 5.204336845e-16 0)
(3 -1.257409936e-15 0)
(3 1.579048277e-15 0)
(3 1.446386977e-15 0)
(3 1.831836884e-15 0)
(3 2.324453358e-15 0)
(3 4.011994325e-15 0)
(3 7.261182356e-15 0)
(3 8.261063697e-15 0)
(3 7.436262704e-15 0)
(3 5.099056181e-15 0)
(3 1.83635843e-15 0)
(3 7.716890134e-17 0)
(3 -1.048160027e-15 0)
(3 -2.540394619e-15 0)
(3 -3.696907431e-15 0)
(3 -3.185917895e-15 0)
(3 -1.889494302e-15 0)
(3 7.71198167e-16 0)
(3 5.739463444e-15 0)
(3 1.315366277e-14 0)
(3 1.734483698e-14 0)
(3 1.86242964e-14 0)
(3 1.865239211e-14 0)
(3 1.797869413e-14 0)
(3 1.630668545e-14 0)
(3 1.518219557e-14 0)
(3 1.032864201e-14 0)
(3 6.147744522e-15 0)
(3 5.504553411e-15 0)
(3 3.470562821e-15 0)
(3 2.857564683e-15 0)
(3 6.844438082e-16 0)
(3 1.86525748e-17 0)
(3 -9.004701228e-16 0)
(3 -2.752673353e-15 0)
(3 -3.999394316e-15 0)
(3 -6.069646499e-15 0)
(3 -6.824623622e-15 0)
(3 -7.842216573e-15 0)
(3 -8.339252203e-15 0)
(3 -1.012827398e-14 0)
(3 -1.158562329e-14 0)
(3 -1.082654007e-14 0)
(3 -9.229013715e-15 0)
(3 -7.197626651e-15 0)
(3 -1.19516963e-14 0)
(3 -1.000138682e-14 0)
(3 -7.755135389e-15 0)
(3 -3.89610305e-15 0)
(3 -4.11906514e-15 0)
(3 -1.805640759e-15 0)
(3 5.294865106e-15 0)
(3 8.006906931e-15 0)
(3 1.646376242e-14 0)
(3 2.167956158e-14 0)
(3 1.929726828e-14 0)
(3 1.393473162e-14 0)
(3 1.267359027e-14 0)
(3 8.590030058e-15 0)
(3 4.05956045e-15 0)
(3 -5.705236085e-16 0)
(3 -3.714510977e-16 0)
(3 4.615613819e-16 0)
(3 9.446053491e-16 0)
(3 6.592327055e-16 0)
(3 1.258313265e-15 0)
(3 4.347422417e-15 0)
(3 4.26274301e-15 0)
(3 3.923969326e-15 0)
(3 2.826381035e-15 0)