/*--------------------------------*- C++ -*----------------------------------*\
  =========                 |
  \\      /  F ield         | OpenFOAM: The Open Source CFD Toolbox
   \\    /   O peration     | Website:  https://openfoam.org
    \\  /    A nd           | Version:  7
     \\/     M anipulation  |
\*---------------------------------------------------------------------------*/
FoamFile
{
    version     2.0;
    format      ascii;
    class       volScalarField;
    location    "2.6";
    object      p;
}
// * * * * * * * * * * * * * * * * * * * * * * * * * * * * * * * * * * * * * //

dimensions      [1 -1 -2 0 0 0 0];

internalField   nonuniform List<scalar> 
22
(
1.011876329
1.022137208
1.021732069
1.001553296
1.016806228
1.019172203
0.9886961142
0.9861899109
1.012110884
1.016945685
0.9867166948
0.9503738047
1.009144936
1.015844623
0.9850124765
0.9082120238
0.9723788451
0.9880987767
0.8363147159
0.8793949307
0.9519834889
0.8962429987
)
;

boundaryField
{
    inlet
    {
        type            fixedValue;
        value           nonuniform 0();
    }
    outlet
    {
        type            zeroGradient;
    }
    bottom
    {
        type            slip;
    }
    top
    {
        type            slip;
    }
    obstacle
    {
        type            zeroGradient;
    }
    defaultFaces
    {
        type            empty;
    }
    procBoundary28to21
    {
        type            processor;
        value           nonuniform List<scalar> 2(0.9316130848 0.8899757776);
    }
    procBoundary28to22
    {
        type            processor;
        value           nonuniform List<scalar> 3(1.019232115 1.017487069 1.016410908);
    }
    procBoundary28to27
    {
        type            processor;
        value           nonuniform List<scalar> 6(0.8495561604 0.7903849259 0.8220064668 0.8220064668 0.8208650084 0.9713201752);
    }
    procBoundary28to29
    {
        type            processor;
        value           nonuniform List<scalar> 7(0.9882775236 0.9882775236 0.9936557333 0.9907071261 0.9882689066 0.9974268901 0.9866146014);
    }
    procBoundary28to34
    {
        type            processor;
        value           nonuniform List<scalar> 4(0.8821104945 0.8915772357 0.8821104945 1.008358206);
    }
}


// ************************************************************************* //
