/*--------------------------------*- C++ -*----------------------------------*\
  =========                 |
  \\      /  F ield         | OpenFOAM: The Open Source CFD Toolbox
   \\    /   O peration     | Website:  https://openfoam.org
    \\  /    A nd           | Version:  7
     \\/     M anipulation  |
\*---------------------------------------------------------------------------*/
FoamFile
{
    version     2.0;
    format      ascii;
    class       volScalarField;
    location    "0.4";
    object      p;
}
// * * * * * * * * * * * * * * * * * * * * * * * * * * * * * * * * * * * * * //

dimensions      [1 -1 -2 0 0 0 0];

internalField   nonuniform List<scalar> 5(0.9309002208 1.032546092 0.9596090122 1.042351819 0.972572974);

boundaryField
{
    inlet
    {
        type            fixedValue;
        value           nonuniform 0();
    }
    outlet
    {
        type            zeroGradient;
    }
    bottom
    {
        type            slip;
    }
    top
    {
        type            slip;
    }
    obstacle
    {
        type            zeroGradient;
    }
    defaultFaces
    {
        type            empty;
    }
    procBoundary16to10
    {
        type            processor;
        value           nonuniform List<scalar> 2(0.9144867031 1.02826019);
    }
    procBoundary16to21
    {
        type            processor;
        value           nonuniform List<scalar> 3(0.8394400259 0.8164702323 0.8180280387);
    }
    procBoundary16to22
    {
        type            processor;
        value           nonuniform List<scalar> 3(1.039373604 1.039373604 0.9355691334);
    }
    procBoundary16to23
    {
        type            processor;
        value           nonuniform List<scalar> 2(1.022583652 1.021509849);
    }
}


// ************************************************************************* //
