/*--------------------------------*- C++ -*----------------------------------*\
  =========                 |
  \\      /  F ield         | OpenFOAM: The Open Source CFD Toolbox
   \\    /   O peration     | Website:  https://openfoam.org
    \\  /    A nd           | Version:  7
     \\/     M anipulation  |
\*---------------------------------------------------------------------------*/
FoamFile
{
    version     2.0;
    format      ascii;
    class       volVectorField;
    location    "1";
    object      U;
}
// * * * * * * * * * * * * * * * * * * * * * * * * * * * * * * * * * * * * * //

dimensions      [0 1 -1 0 0 0 0];

internalField   nonuniform List<vector> 
80000
(
(3 -1.067943877e-16 0)
(3 6.908429216e-16 0)
(3 1.251973386e-15 0)
(3 -2.63429832e-15 0)
(3 -2.882073149e-15 0)
(3 -3.510450143e-15 0)
(3 -2.94197689e-15 0)
(3 -1.254716672e-15 0)
(3 -6.551811092e-16 0)
(3 1.598196571e-15 0)
(3 4.251611106e-15 0)
(3 4.090580602e-15 0)
(3 4.813856374e-15 0)
(3 4.26900083e-15 0)
(3 4.14265068e-15 0)
(3 4.13924142e-15 0)
(3 4.585792742e-15 0)
(3 5.704697217e-15 0)
(3 6.87601277e-15 0)
(3 3.529739869e-15 0)
(3 1.906230544e-15 0)
(3 -1.707919992e-16 0)
(3 -4.806665086e-15 0)
(3 -3.987810611e-15 0)
(3 -3.887207284e-15 0)
(3 -3.669626624e-15 0)
(3 -4.888650654e-15 0)
(3 -3.983308826e-15 0)
(3 -2.24369205e-15 0)
(3 -7.110225157e-16 0)
(3 1.711173552e-15 0)
(3 5.213142717e-15 0)
(3 7.319129323e-15 0)
(3 6.798057342e-15 0)
(3 5.737267459e-15 0)
(3 3.519694783e-15 0)
(3 2.613199919e-15 0)
(3 -7.063835103e-16 0)
(3 -4.794704738e-15 0)
(3 -2.537524428e-15 0)
(3 -3.319211473e-15 0)
(3 -1.098646146e-15 0)
(3 2.697369206e-15 0)
(3 6.658239196e-15 0)
(3 1.044452586e-14 0)
(3 9.509389543e-15 0)
(3 8.959958436e-15 0)
(3 7.550185659e-15 0)
(3 5.876147781e-15 0)
(3 1.815243912e-15 0)
(3 -4.878015118e-16 0)
(3 -2.081357201e-15 0)
(3 -1.364896566e-15 0)
(3 -1.882537349e-16 0)
(3 -9.568767067e-16 0)
(3 -7.171549413e-16 0)
(3 -4.21189675e-15 0)
(3 -7.27649674e-15 0)
(3 -7.129508122e-15 0)
(3 -7.944583812e-15 0)
(3 -6.395142478e-15 0)
(3 -3.030743492e-15 0)
(3 3.15537908e-15 0)
(3 4.153220994e-15 0)
(3 5.050885255e-15 0)
(3 8.558755236e-15 0)
(3 5.228494506e-15 0)
(3 4.767059501e-15 0)
(3 2.826154668e-15 0)
(3 2.267518433e-16 0)
(3 -1.768919402e-15 0)
(3 -6.86327333e-15 0)
(3 -9.115900554e-15 0)
(3 -8.380295101e-15 0)
(3 -9.246855588e-15 0)
(3 -8.674361615e-15 0)
(3 -7.668963871e-15 0)
(3 -7.675105076e-15 0)
(3 -7.716179058e-15 0)
(3 -7.367835363e-15 0)
(3 -6.472203878e-15 0)
(3 -4.451291294e-15 0)
(3 -3.384484147e-15 0)
(3 -1.201104287e-15 0)
(3 -4.393285454e-15 0)
(3 -4.550996685e-15 0)
(3 -5.215766108e-15 0)
(3 -4.449232618e-15 0)
(3 -2.591392183e-15 0)
(3 -1.500230411e-15 0)
(3 -9.018231819e-16 0)
(3 -1.858771748e-15 0)
(3 4.143108941e-17 0)
(3 -7.920479239e-16 0)
(3 -1.596121968e-15 0)
(3 1.780448421e-15 0)
(3 3.171254464e-15 0)
(3 3.793500378e-15 0)
(3 -1.110969377e-15 0)
(3 -1.321100843e-15 0)
(3 -6.000051826e-17 0)
(3 5.225718633e-16 0)
(3 7.080665374e-17 0)
(3 -4.188086252e-15 0)
(3 -2.598869718e-15 0)
(3 -2.420005781e-15 0)
(3 -1.435354573e-15 0)
(3 1.166011337e-15 0)
(3 2.073220424e-15 0)
(3 4.607536339e-15 0)
(3 4.090174026e-15 0)
(3 2.101606729e-15 0)
(3 2.092785149e-15 0)
(3 3.080082255e-15 0)
(3 3.282676787e-15 0)
(3 4.476222655e-15 0)
(3 5.51212756e-15 0)
(3 6.171146296e-15 0)
(3 6.537505098e-15 0)
(3 4.321951763e-15 0)
(3 2.571909619e-15 0)
(3 4.929330749e-16 0)
(3 -6.875779468e-16 0)
(3 1.241498429e-15 0)
(3 2.162795948e-15 0)
(3 6.397902942e-16 0)
(3 -1.491151374e-15 0)
(3 6.334803455e-16 0)
(3 2.430309057e-15 0)
(3 2.057775699e-15 0)
(3 3.238300551e-15 0)
(3 4.893643846e-15 0)
(3 5.434646899e-15 0)
(3 6.306804067e-15 0)
(3 5.933723244e-15 0)
(3 4.978156543e-15 0)
(3 4.004666997e-15 0)
(3 1.391153029e-15 0)
(3 -1.400371398e-15 0)
(3 -1.64337635e-15 0)
(3 -1.722758591e-15 0)
(3 -5.336574441e-16 0)
(3 5.568947988e-15 0)
(3 6.423063466e-15 0)
(3 7.297182644e-15 0)
(3 5.844661978e-15 0)
(3 5.203180626e-15 0)
(3 4.365085411e-15 0)
(3 3.607587212e-15 0)
(3 -3.75811887e-15 0)
(3 -9.18185828e-15 0)
(3 -9.379063805e-15 0)
(3 -7.006398885e-15 0)
(3 -6.293500781e-15 0)
(3 -7.222596319e-15 0)
(3 -9.037601762e-15 0)
(3 -1.325050212e-14 0)
(3 -1.898905722e-14 0)
(3 -1.807345524e-14 0)
(3 -1.543215913e-14 0)
(3 -1.260445197e-14 0)
(3 -7.780721177e-15 0)
(3 3.020400234e-15 0)
(3 4.729767524e-15 0)
(3 5.603372953e-15 0)
(3 3.399297346e-15 0)
(3 9.551614651e-16 0)
(3 -8.36595428e-16 0)
(3 -3.906297913e-15 0)
(3 -7.515022407e-15 0)
(3 -1.077478813e-14 0)
(3 -1.515151562e-14 0)
(3 -2.058661162e-14 0)
(3 -2.228219472e-14 0)
(3 -2.171817626e-14 0)
(3 -2.347813689e-14 0)
(3 -2.157642203e-14 0)
(3 -2.119513663e-14 0)
(3 -1.918685198e-14 0)
(3 -1.894719485e-14 0)
(3 -1.5068047e-14 0)
(3 -1.067418386e-14 0)
(3 -7.012801961e-15 0)
(3 -3.483228225e-15 0)
(3 -3.164829851e-15 0)
(3 -6.587938372e-15 0)
(3 -8.62124621e-15 0)
(3 -7.308073909e-15 0)
(3 -2.610663279e-15 0)
(3 1.933382076e-15 0)
(3 1.692715609e-15 0)
(3 6.448834472e-16 0)
(3 1.268998041e-15 0)
(3 -2.018379061e-15 0)
(3 -3.355478702e-15 0)
(3 1.537982055e-15 0)
(3 4.676397113e-15 0)
(3 5.964833029e-15 0)
(3 2.033820437e-16 0)
(3 -1.840160724e-15 0)
(3 3.810054568e-16 0)
(3 -2.506026656e-16 0)
(3 -1.157255001e-15 0)
(3 -1.754330437e-15 0)
(3 -1.306657025e-15 0)
(3 2.279290658e-15 0)
(3 3.129060397e-15 0)
(3 2.706971466e-15 0)
(3 1.588321944e-15 0)
(3 1.53282688e-15 0)
(3 5.060824652e-16 0)
(3 -4.831241332e-17 0)
(3 -1.835818855e-15 0)
(3 -2.687863708e-15 0)
(3 -1.372140968e-15 0)
(3 1.684318208e-15 0)
(3 -3.760185538e-17 0)
(3 -5.834165726e-16 0)
(3 2.279611387e-16 0)
(3 3.506951001e-15 0)
(3 7.210316042e-15 0)
(3 9.261483745e-15 0)
(3 1.116736295e-14 0)
(3 1.004651116e-14 0)
(3 8.43536221e-15 0)
(3 7.372873463e-15 0)
(3 8.68684236e-15 0)
(3 9.024321643e-15 0)
(3 5.505206467e-15 0)
(3 3.83481054e-15 0)
(3 3.690633852e-17 0)
(3 -1.686428009e-15 0)
(3 -4.274503627e-15 0)
(3 -3.717951359e-15 0)
(3 -2.08265425e-15 0)
(3 -2.742612547e-15 0)
(3 -8.225816614e-16 0)
(3 -8.536989419e-16 0)
(3 3.068245506e-17 0)
(3 -9.763244096e-16 0)
(3 -8.932686105e-16 0)
(3 -3.332184916e-15 0)
(3 -1.24784296e-15 0)
(3 -1.959220309e-15 0)
(3 -2.320264212e-15 0)
(3 -2.995576414e-15 0)
(3 -1.709097849e-15 0)
(3 1.8532419e-15 0)
(3 4.595451144e-15 0)
(3 3.535232494e-15 0)
(3 1.693054866e-16 0)
(3 -6.842207267e-15 0)
(3 -8.401991696e-15 0)
(3 -9.974415181e-15 0)
(3 -1.102374074e-14 0)
(3 -1.126359974e-14 0)
(3 -1.05681537e-14 0)
(3 -1.055105116e-14 0)
(3 -8.013868191e-15 0)
(3 -7.849994206e-15 0)
(3 -5.275658092e-15 0)
(3 -4.293816025e-16 0)
(3 8.331545334e-15 0)
(3 1.245395017e-14 0)
(3 1.163068408e-14 0)
(3 7.60006794e-15 0)
(3 2.117068414e-15 0)
(3 -4.223357585e-15 0)
(3 -9.012221742e-15 0)
(3 -1.511426035e-14 0)
(3 -1.808688561e-14 0)
(3 -1.812647419e-14 0)
(3 -2.122262405e-14 0)
(3 -2.527173718e-14 0)
(3 -2.936505808e-14 0)
(3 -3.06787102e-14 0)
(3 -3.080369395e-14 0)
(3 -2.780081004e-14 0)
(3 -2.311489737e-14 0)
(3 -1.819537118e-14 0)
(3 -1.16458603e-14 0)
(3 -1.272875236e-14 0)
(3 -1.296273082e-14 0)
(3 -1.207038119e-14 0)
(3 -1.788603837e-14 0)
(3 -2.261746576e-14 0)
(3 -2.435743036e-14 0)
(3 -2.268831329e-14 0)
(3 -1.860655032e-14 0)
(3 -8.975943757e-15 0)
(3 -4.283500824e-15 0)
(3 -3.903221303e-15 0)
(3 -2.330934935e-15 0)
(3 -2.449529991e-15 0)
(3 1.712314051e-15 0)
(3 7.788982788e-15 0)
(3 1.261016388e-14 0)
(3 1.373052466e-14 0)
(3 1.314079498e-14 0)
(3 1.037847687e-14 0)
(3 6.134477388e-17 0)
(3 -1.009517754e-15 0)
(3 -2.681263262e-15 0)
(3 -2.508002403e-15 0)
(3 -3.737260031e-15 0)
(3 -1.477903853e-15 0)
(3 -1.122856278e-15 0)
(3 -1.52297667e-15 0)
(3 -1.252646967e-15 0)
(3 -2.475189276e-15 0)
(3 -3.138087315e-15 0)
(3 -3.934209013e-15 0)
(3 -5.169347654e-15 0)
(3 -6.145732615e-15 0)
(3 -5.678744469e-15 0)
(3 -5.516959472e-15 0)
(3 -4.669163562e-15 0)
(3 -4.236751472e-15 0)
(3 -3.267512302e-15 0)
(3 -3.915419142e-16 0)
(3 1.381819651e-15 0)
(3 3.495695908e-15 0)
(3 6.767131508e-15 0)
(3 7.598279087e-15 0)
(3 4.224201153e-15 0)
(3 5.757472407e-15 0)
(3 5.912025743e-15 0)
(3 4.942047128e-15 0)
(3 4.687925467e-15 0)
(3 4.847571916e-15 0)
(3 4.257761788e-15 0)
(3 3.809939295e-15 0)
(3 1.064432304e-15 0)
(3 -1.852570116e-15 0)
(3 -3.192345529e-15 0)
(3 -3.352144558e-15 0)
(3 -5.529872369e-15 0)
(3 -9.136130662e-15 0)
(3 -8.25128222e-15 0)
(3 -8.706426808e-15 0)
(3 -1.132641197e-14 0)
(3 -1.392941479e-14 0)
(3 -1.353600135e-14 0)
(3 -1.023372913e-14 0)
(3 -5.213562931e-15 0)
(3 -5.851982661e-16 0)
(3 5.511963822e-16 0)
(3 4.321927692e-15 0)
(3 7.72085165e-15 0)
(3 7.441472619e-15 0)
(3 9.504949675e-15 0)
(3 4.43394545e-15 0)
(3 2.370964981e-15 0)
(3 -4.331032845e-15 0)
(3 -6.031666985e-15 0)
(3 -6.318012968e-15 0)
(3 -5.272128827e-15 0)
(3 5.740063144e-16 0)
(3 4.405435081e-15 0)
(3 4.321288781e-15 0)
(3 5.896577181e-15 0)
(3 9.200754579e-15 0)
(3 1.430230866e-14 0)
(3 1.936915901e-14 0)
(3 1.960368558e-14 0)
(3 1.717512298e-14 0)
(3 9.31963118e-15 0)
(3 2.581522658e-16 0)
(3 -2.894275303e-15 0)
(3 -9.290114924e-15 0)
(3 -1.059300538e-14 0)
(3 -1.446465321e-14 0)
(3 -1.934453932e-14 0)
(3 -2.274007346e-14 0)
(3 -2.623201294e-14 0)
(3 -2.487239453e-14 0)
(3 -2.217087057e-14 0)
(3 -1.623561314e-14 0)
(3 -1.375782466e-14 0)
(3 -1.216485389e-14 0)
(3 -1.218276242e-14 0)
(3 -1.290099869e-14 0)
(3 -1.58736104e-14 0)
(3 -1.784807325e-14 0)
(3 -2.515277322e-14 0)
(3 -3.000125898e-14 0)
(3 -2.934507261e-14 0)
(3 -2.303378082e-14 0)
(3 -2.163813814e-14 0)
(3 -1.711279557e-14 0)
(3 -1.016645611e-14 0)
(3 -7.669769136e-15 0)
(3 -4.24445692e-15 0)
(3 2.336622466e-15 0)
(3 8.733029994e-15 0)
(3 1.425934744e-14 0)
(3 2.128596391e-14 0)
(3 2.119660692e-14 0)
(3 2.338847287e-14 0)
(3 1.960970008e-14 0)
(3 -1.008953579e-15 0)
(3 -6.714605526e-16 0)
(3 -7.922784103e-16 0)
(3 -1.845630071e-15 0)
(3 -1.415336593e-15 0)
(3 -2.279872583e-15 0)
(3 -1.803521475e-15 0)
(3 -1.968777585e-15 0)
(3 -1.502997847e-15 0)
(3 -4.132537823e-16 0)
(3 -1.646312087e-16 0)
(3 -1.784412436e-15 0)
(3 -1.597004399e-15 0)
(3 -2.528343042e-15 0)
(3 -5.603541495e-15 0)
(3 -5.252551735e-15 0)
(3 -3.923424061e-15 0)
(3 -3.044257772e-15 0)
(3 -3.323732244e-15 0)
(3 -2.660132587e-15 0)
(3 -2.953063909e-15 0)
(3 2.676386926e-16 0)
(3 1.440811852e-15 0)
(3 2.123920514e-15 0)
(3 -8.109262564e-16 0)
(3 -8.603989799e-16 0)
(3 2.577669329e-16 0)
(3 1.163118556e-15 0)
(3 3.108749989e-15 0)
(3 3.765389295e-15 0)
(3 5.110982326e-15 0)
(3 4.768744346e-15 0)
(3 2.716043654e-15 0)
(3 7.181247476e-16 0)
(3 -2.310877158e-15 0)
(3 -3.642928045e-15 0)
(3 -9.686982959e-15 0)
(3 -1.225960251e-14 0)
(3 -1.631835601e-14 0)
(3 -1.975629747e-14 0)
(3 -1.884742222e-14 0)
(3 -1.829353805e-14 0)
(3 -1.337537863e-14 0)
(3 -7.443357614e-15 0)
(3 -2.036751228e-15 0)
(3 3.727708203e-15 0)
(3 4.25538854e-15 0)
(3 5.703098363e-15 0)
(3 1.263354935e-14 0)
(3 1.564754287e-14 0)
(3 1.251355321e-14 0)
(3 1.016513433e-14 0)
(3 6.314607195e-15 0)
(3 5.443433652e-15 0)
(3 1.896328474e-15 0)
(3 2.091290552e-15 0)
(3 7.399799161e-15 0)
(3 1.317693045e-14 0)
(3 1.451751881e-14 0)
(3 1.417686447e-14 0)
(3 1.601106675e-14 0)
(3 1.773964851e-14 0)
(3 1.736334928e-14 0)
(3 1.561895867e-14 0)
(3 1.84628647e-14 0)
(3 1.240913695e-14 0)
(3 4.129535078e-15 0)
(3 -4.617489085e-15 0)
(3 -5.973821902e-15 0)
(3 -5.632940389e-15 0)
(3 -5.301689742e-15 0)
(3 -9.136835524e-15 0)
(3 -1.17739747e-14 0)
(3 -1.216593271e-14 0)
(3 -1.014890711e-14 0)
(3 -1.08380221e-14 0)
(3 -6.084299009e-15 0)
(3 -5.821566676e-15 0)
(3 -7.069520667e-15 0)
(3 -1.037030641e-14 0)
(3 -1.50861647e-14 0)
(3 -1.630420754e-14 0)
(3 -1.55137147e-14 0)
(3 -1.814985645e-14 0)
(3 -2.02368254e-14 0)
(3 -1.744257971e-14 0)
(3 -1.400609785e-14 0)
(3 -1.150916214e-14 0)
(3 -1.127427251e-14 0)
(3 -1.552274105e-14 0)
(3 -1.526346967e-14 0)
(3 -1.1485572e-14 0)
(3 -9.319062572e-15 0)
(3 -4.916805277e-15 0)
(3 2.488277905e-15 0)
(3 9.840240288e-15 0)
(3 1.709786118e-14 0)
(3 1.81880767e-14 0)
(3 1.780129862e-14 0)
(3 1.654871687e-14 0)
(3 5.237676083e-16 0)
(3 1.60650587e-15 0)
(3 2.812390176e-15 0)
(3 3.445146752e-15 0)
(3 6.108994955e-15 0)
(3 4.457856195e-15 0)
(3 4.882187581e-15 0)
(3 4.68259263e-15 0)
(3 5.058548705e-15 0)
(3 8.810344683e-15 0)
(3 9.361707342e-15 0)
(3 9.345041528e-15 0)
(3 7.612420605e-15 0)
(3 5.962515271e-15 0)
(3 3.961476844e-15 0)
(3 5.030627156e-15 0)
(3 5.360884981e-15 0)
(3 6.431860722e-15 0)
(3 5.8393694e-15 0)
(3 4.943669556e-15 0)
(3 4.404467914e-15 0)
(3 3.218927862e-15 0)
(3 -2.016239253e-15 0)
(3 -6.325748006e-15 0)
(3 -6.93222868e-15 0)
(3 -6.765322108e-15 0)
(3 -6.229156909e-15 0)
(3 -6.876139216e-15 0)
(3 -5.33805004e-15 0)
(3 -3.352041981e-15 0)
(3 -4.46038204e-15 0)
(3 -3.839871232e-15 0)
(3 -4.068458682e-15 0)
(3 -6.825720225e-15 0)
(3 -9.654245892e-15 0)
(3 -1.48414547e-14 0)
(3 -1.866050358e-14 0)
(3 -1.731145921e-14 0)
(3 -1.673533915e-14 0)
(3 -1.474975365e-14 0)
(3 -1.840917904e-14 0)
(3 -1.635778717e-14 0)
(3 -8.129445133e-15 0)
(3 -2.908245025e-15 0)
(3 -9.998988589e-16 0)
(3 4.802002213e-15 0)
(3 8.507527865e-15 0)
(3 1.56802385e-14 0)
(3 2.144198e-14 0)
(3 2.18606151e-14 0)
(3 2.082374967e-14 0)
(3 1.772225002e-14 0)
(3 1.606784142e-14 0)
(3 1.587139837e-14 0)
(3 1.54706203e-14 0)
(3 1.582947894e-14 0)
(3 1.731330234e-14 0)
(3 1.465821335e-14 0)
(3 1.616692165e-14 0)
(3 2.154228256e-14 0)
(3 1.834474217e-14 0)
(3 1.576535704e-14 0)
(3 1.899375028e-14 0)
(3 1.420836027e-14 0)
(3 1.08363632e-14 0)
(3 8.760953663e-15 0)
(3 2.687297689e-15 0)
(3 -2.868682168e-15 0)
(3 -4.561171483e-15 0)
(3 -6.676342171e-15 0)
(3 -8.194465581e-15 0)
(3 -9.090299117e-15 0)
(3 -7.835706454e-15 0)
(3 -1.921701955e-15 0)
(3 2.267527275e-15 0)
(3 6.065055699e-15 0)
(3 6.723466341e-15 0)
(3 3.992793883e-15 0)
(3 2.014863428e-15 0)
(3 3.388188717e-15 0)
(3 4.44970353e-15 0)
(3 3.517531009e-15 0)
(3 -6.047954375e-16 0)
(3 -2.301255116e-15 0)
(3 9.728029938e-17 0)
(3 -1.316039243e-15 0)
(3 -4.192414659e-15 0)
(3 -9.027915464e-15 0)
(3 -1.039483373e-14 0)
(3 -8.045339543e-15 0)
(3 -6.709148694e-15 0)
(3 -8.314988621e-15 0)
(3 -8.391898839e-15 0)
(3 -5.917605108e-15 0)
(3 -3.656004912e-15 0)
(3 -5.913497007e-16 0)
(3 2.837515132e-15 0)
(3 8.937398843e-15 0)
(3 1.020998601e-14 0)
(3 1.087577106e-14 0)
(3 4.569539544e-16 0)
(3 6.006100913e-16 0)
(3 4.689425635e-15 0)
(3 5.084792693e-15 0)
(3 6.755086937e-15 0)
(3 6.952310378e-15 0)
(3 4.905263589e-15 0)
(3 6.31038785e-15 0)
(3 6.872628571e-15 0)
(3 7.463355779e-15 0)
(3 6.06937753e-15 0)
(3 4.846504053e-15 0)
(3 4.253008372e-15 0)
(3 3.897535669e-15 0)
(3 5.10715754e-15 0)
(3 8.844184394e-15 0)
(3 1.198988196e-14 0)
(3 1.174746122e-14 0)
(3 1.089037824e-14 0)
(3 6.923818639e-15 0)
(3 5.542171513e-15 0)
(3 1.854344971e-15 0)
(3 -3.594657979e-15 0)
(3 -6.684097348e-15 0)
(3 -6.259520224e-15 0)
(3 -8.06447136e-15 0)
(3 -8.691111315e-15 0)
(3 -9.289947679e-15 0)
(3 -1.241881006e-14 0)
(3 -1.224098892e-14 0)
(3 -1.661869122e-14 0)
(3 -1.693238406e-14 0)
(3 -1.671400094e-14 0)
(3 -1.700831665e-14 0)
(3 -1.713278054e-14 0)
(3 -1.259411456e-14 0)
(3 -9.845974981e-15 0)
(3 -9.105335523e-15 0)
(3 -8.366102639e-15 0)
(3 -5.667722815e-15 0)
(3 -2.292278495e-15 0)
(3 2.638887924e-15 0)
(3 -2.120820666e-16 0)
(3 1.828902331e-15 0)
(3 5.175766083e-15 0)
(3 1.330408392e-14 0)
(3 2.014453522e-14 0)
(3 2.069408899e-14 0)
(3 1.727105212e-14 0)
(3 1.752198872e-14 0)
(3 1.950338644e-14 0)
(3 2.413928464e-14 0)
(3 2.597208214e-14 0)
(3 2.455778233e-14 0)
(3 2.518532922e-14 0)
(3 2.300884296e-14 0)
(3 1.793751561e-14 0)
(3 1.38985904e-14 0)
(3 1.531438284e-14 0)
(3 1.040195093e-14 0)
(3 7.951880136e-15 0)
(3 7.893606993e-15 0)
(3 8.650743567e-15 0)
(3 9.72608001e-15 0)
(3 9.877913821e-15 0)
(3 8.372486793e-15 0)
(3 4.60004083e-15 0)
(3 2.401866636e-15 0)
(3 9.544345497e-16 0)
(3 -4.296614796e-15 0)
(3 -8.9701217e-15 0)
(3 -9.349707068e-15 0)
(3 -7.862592482e-15 0)
(3 -4.407641607e-15 0)
(3 -1.362407192e-15 0)
(3 3.221718969e-15 0)
(3 7.030124451e-17 0)
(3 -1.786374017e-15 0)
(3 5.741712311e-17 0)
(3 6.674559922e-15 0)
(3 1.218586356e-14 0)
(3 1.178991195e-14 0)
(3 1.129105181e-14 0)
(3 9.060386755e-15 0)
(3 9.317136615e-15 0)
(3 7.383192888e-15 0)
(3 4.98679213e-15 0)
(3 2.067878011e-15 0)
(3 2.288365527e-15 0)
(3 1.522375536e-15 0)
(3 -3.467349467e-15 0)
(3 -2.856255684e-15 0)
(3 -3.005267112e-15 0)
(3 -2.938509786e-15 0)
(3 -4.163521544e-16 0)
(3 -9.240678646e-16 0)
(3 -3.859098013e-15 0)
(3 -3.552611285e-15 0)
(3 1.171570876e-15 0)
(3 4.253229366e-15 0)
(3 -5.416960106e-16 0)
(3 1.930559402e-16 0)
(3 1.852368075e-15 0)
(3 3.00769963e-15 0)
(3 1.403443296e-15 0)
(3 2.855967046e-15 0)
(3 -2.172783572e-16 0)
(3 1.090376694e-15 0)
(3 -5.564431443e-16 0)
(3 -5.74941752e-15 0)
(3 -4.170756322e-15 0)
(3 -3.763948498e-15 0)
(3 -4.301649952e-15 0)
(3 -5.060172402e-15 0)
(3 -4.403990533e-15 0)
(3 -3.62089566e-15 0)
(3 -3.592160815e-15 0)
(3 -3.48550431e-15 0)
(3 -4.010059891e-15 0)
(3 -4.380075689e-15 0)
(3 -4.496635845e-15 0)
(3 -5.40895027e-15 0)
(3 -6.050259938e-15 0)
(3 -8.034026042e-15 0)
(3 -1.00878033e-14 0)
(3 -1.357716576e-14 0)
(3 -1.592274554e-14 0)
(3 -1.44567202e-14 0)
(3 -1.580004835e-14 0)
(3 -1.556614013e-14 0)
(3 -1.496468104e-14 0)
(3 -1.431958239e-14 0)
(3 -1.682301963e-14 0)
(3 -1.522985544e-14 0)
(3 -1.363253515e-14 0)
(3 -6.374422861e-15 0)
(3 2.088599584e-15 0)
(3 8.54292231e-15 0)
(3 6.817965176e-15 0)
(3 6.014391315e-15 0)
(3 8.776627258e-15 0)
(3 1.308153987e-14 0)
(3 1.196295493e-14 0)
(3 1.036558446e-14 0)
(3 1.15759733e-14 0)
(3 1.463877915e-14 0)
(3 1.745540422e-14 0)
(3 2.036478739e-14 0)
(3 2.081613355e-14 0)
(3 2.137587491e-14 0)
(3 2.114954825e-14 0)
(3 2.261174129e-14 0)
(3 2.782591193e-14 0)
(3 2.66440854e-14 0)
(3 2.348376818e-14 0)
(3 1.995786922e-14 0)
(3 1.405981765e-14 0)
(3 9.740840647e-15 0)
(3 5.294509543e-15 0)
(3 2.362689521e-15 0)
(3 1.597624249e-15 0)
(3 5.133494039e-16 0)
(3 1.606813137e-15 0)
(3 3.326433337e-15 0)
(3 5.846989482e-15 0)
(3 6.708285013e-15 0)
(3 6.252587253e-15 0)
(3 5.981411537e-15 0)
(3 4.129135688e-15 0)
(3 1.321516598e-16 0)
(3 -3.280984304e-15 0)
(3 -2.897985754e-15 0)
(3 -8.969136236e-17 0)
(3 2.057115272e-15 0)
(3 3.106692607e-15 0)
(3 8.017444478e-15 0)
(3 8.792318342e-15 0)
(3 8.603067099e-15 0)
(3 5.107983734e-15 0)
(3 2.910382542e-15 0)
(3 4.38586984e-15 0)
(3 7.088670077e-15 0)
(3 1.081238271e-14 0)
(3 1.228949243e-14 0)
(3 1.394178878e-14 0)
(3 1.578876846e-14 0)
(3 1.46251379e-14 0)
(3 1.087997416e-14 0)
(3 1.066142689e-14 0)
(3 5.675133986e-15 0)
(3 3.02879307e-15 0)
(3 3.592496082e-15 0)
(3 4.332438899e-15 0)
(3 5.318728489e-15 0)
(3 3.60875984e-15 0)
(3 9.518753657e-16 0)
(3 -1.437746793e-15 0)
(3 2.59609412e-15 0)
(3 2.803847793e-15 0)
(3 9.859646311e-15 0)
(3 3.113900006e-16 0)
(3 5.561690316e-16 0)
(3 2.583266124e-15 0)
(3 2.362265392e-15 0)
(3 2.273292745e-15 0)
(3 -3.363693447e-17 0)
(3 -1.433252643e-15 0)
(3 -2.419250239e-15 0)
(3 -2.119496721e-15 0)
(3 -2.254501226e-15 0)
(3 -2.582981941e-15 0)
(3 -4.322645978e-15 0)
(3 -3.931658178e-15 0)
(3 -4.422746888e-15 0)
(3 -8.374741761e-15 0)
(3 -1.476642146e-14 0)
(3 -1.73962558e-14 0)
(3 -1.590423031e-14 0)
(3 -1.754505648e-14 0)
(3 -1.513558442e-14 0)
(3 -1.611682081e-14 0)
(3 -1.755005911e-14 0)
(3 -1.665250103e-14 0)
(3 -1.637353415e-14 0)
(3 -1.804097171e-14 0)
(3 -1.787320487e-14 0)
(3 -1.797480158e-14 0)
(3 -1.696203756e-14 0)
(3 -1.424592465e-14 0)
(3 -1.266052766e-14 0)
(3 -1.168337802e-14 0)
(3 -8.673579484e-15 0)
(3 -3.781073611e-15 0)
(3 -8.748070807e-16 0)
(3 2.881766979e-15 0)
(3 4.339636813e-15 0)
(3 7.301779701e-15 0)
(3 1.020975902e-14 0)
(3 1.062499516e-14 0)
(3 1.026664537e-14 0)
(3 1.241416255e-14 0)
(3 1.359038436e-14 0)
(3 1.500460842e-14 0)
(3 1.539607258e-14 0)
(3 1.586424527e-14 0)
(3 1.627333858e-14 0)
(3 1.787508241e-14 0)
(3 1.704399243e-14 0)
(3 1.660212226e-14 0)
(3 1.65848038e-14 0)
(3 1.468537981e-14 0)
(3 1.497342371e-14 0)
(3 1.370960548e-14 0)
(3 1.429180119e-14 0)
(3 1.488384561e-14 0)
(3 1.468992974e-14 0)
(3 1.011253674e-14 0)
(3 8.092795267e-15 0)
(3 5.226355894e-15 0)
(3 2.971225796e-15 0)
(3 1.799623507e-16 0)
(3 -1.839824043e-15 0)
(3 -3.047381989e-15 0)
(3 -3.532011972e-15 0)
(3 -2.935311505e-15 0)
(3 -4.03372932e-16 0)
(3 1.708209353e-15 0)
(3 1.579819459e-15 0)
(3 1.422597037e-15 0)
(3 1.142098737e-15 0)
(3 9.396121627e-16 0)
(3 6.463996446e-16 0)
(3 1.203873793e-15 0)
(3 2.157117013e-15 0)
(3 1.944557173e-15 0)
(3 8.039378138e-15 0)
(3 9.994280495e-15 0)
(3 9.206093685e-15 0)
(3 8.050987933e-15 0)
(3 3.627275952e-15 0)
(3 6.643728402e-16 0)
(3 1.292132356e-15 0)
(3 7.202184584e-15 0)
(3 1.275184235e-14 0)
(3 1.386281335e-14 0)
(3 1.641167819e-14 0)
(3 1.600848318e-14 0)
(3 1.317331252e-14 0)
(3 4.992759717e-15 0)
(3 1.793598535e-15 0)
(3 2.907693125e-15 0)
(3 2.147568201e-15 0)
(3 7.074497565e-15 0)
(3 8.532536651e-15 0)
(3 6.437988815e-15 0)
(3 4.552792253e-15 0)
(3 6.064565929e-15 0)
(3 8.566209707e-15 0)
(3 8.712709739e-15 0)
(3 1.033623885e-14 0)
(3 -3.645847236e-16 0)
(3 -1.187037636e-16 0)
(3 1.928257122e-16 0)
(3 -1.6726258e-15 0)
(3 -3.262171256e-15 0)
(3 -4.639612954e-15 0)
(3 -3.499740902e-15 0)
(3 -2.936119474e-15 0)
(3 -2.390787229e-15 0)
(3 -1.26631673e-15 0)
(3 -1.959550976e-15 0)
(3 -2.547797533e-15 0)
(3 -1.150524016e-15 0)
(3 4.392785967e-16 0)
(3 -2.168455363e-15 0)
(3 -6.803318414e-15 0)
(3 -1.067642577e-14 0)
(3 -1.440496281e-14 0)
(3 -1.471810911e-14 0)
(3 -1.530995561e-14 0)
(3 -1.764717515e-14 0)
(3 -1.692069733e-14 0)
(3 -1.899561726e-14 0)
(3 -2.07571559e-14 0)
(3 -1.777895348e-14 0)
(3 -1.467847859e-14 0)
(3 -1.384798923e-14 0)
(3 -1.48130314e-14 0)
(3 -1.358846101e-14 0)
(3 -1.262030951e-14 0)
(3 -1.213310469e-14 0)
(3 -7.209017527e-15 0)
(3 -2.884628694e-15 0)
(3 9.240216397e-15 0)
(3 1.50097903e-14 0)
(3 1.298415221e-14 0)
(3 1.005510119e-14 0)
(3 7.031997863e-15 0)
(3 7.721226966e-15 0)
(3 7.727867874e-15 0)
(3 9.465710771e-15 0)
(3 1.145419528e-14 0)
(3 1.361802844e-14 0)
(3 1.600611661e-14 0)
(3 1.722334772e-14 0)
(3 1.791352646e-14 0)
(3 1.659008936e-14 0)
(3 1.355268058e-14 0)
(3 7.730261482e-15 0)
(3 5.814614345e-15 0)
(3 5.660680361e-15 0)
(3 9.184075266e-15 0)
(3 8.426952737e-15 0)
(3 6.504631372e-15 0)
(3 5.757919186e-15 0)
(3 5.621461632e-15 0)
(3 5.551612689e-15 0)
(3 6.128517563e-15 0)
(3 2.515958736e-15 0)
(3 2.161827038e-16 0)
(3 -3.997453448e-15 0)
(3 -4.487859901e-15 0)
(3 -6.798780701e-15 0)
(3 -6.25925063e-15 0)
(3 -4.546626533e-15 0)
(3 -3.082660581e-15 0)
(3 -4.902108445e-15 0)
(3 -6.146859449e-15 0)
(3 -5.155857844e-15 0)
(3 -6.874481452e-16 0)
(3 2.423126601e-16 0)
(3 4.840572056e-16 0)
(3 -1.247251512e-15 0)
(3 2.04252989e-15 0)
(3 3.388408131e-15 0)
(3 3.030749268e-15 0)
(3 3.604156226e-15 0)
(3 5.396213345e-15 0)
(3 4.378049866e-15 0)
(3 1.858994849e-15 0)
(3 -4.351474394e-15 0)
(3 -4.393520509e-15 0)
(3 -4.615868467e-15 0)
(3 -1.174864376e-16 0)
(3 -1.117918269e-15 0)
(3 -1.793824387e-16 0)
(3 3.23823273e-15 0)
(3 2.406890701e-15 0)
(3 -2.475992594e-15 0)
(3 -6.671161312e-15 0)
(3 -6.958144173e-15 0)
(3 -3.735957882e-15 0)
(3 8.719206646e-16 0)
(3 4.105324465e-15 0)
(3 8.369495958e-15 0)
(3 9.606295306e-15 0)
(3 1.31102312e-14 0)
(3 1.411866242e-14 0)
(3 1.416799753e-14 0)
(3 1.026366088e-14 0)
(3 -4.315632054e-16 0)
(3 -7.272446325e-16 0)
(3 -2.749332412e-15 0)
(3 -4.011712504e-15 0)
(3 -5.078191619e-15 0)
(3 -4.459432412e-15 0)
(3 -2.05357667e-15 0)
(3 -3.541055626e-15 0)
(3 -4.955037285e-15 0)
(3 -5.003846379e-15 0)
(3 -5.27006499e-15 0)
(3 -3.989661634e-15 0)
(3 -4.559154342e-15 0)
(3 -5.885488116e-15 0)
(3 -5.931490686e-15 0)
(3 -5.722095493e-15 0)
(3 -4.662429418e-15 0)
(3 -3.917684736e-15 0)
(3 -3.016915916e-15 0)
(3 -4.262364024e-15 0)
(3 -5.326025191e-15 0)
(3 -2.871133159e-15 0)
(3 -1.277983072e-15 0)
(3 -4.96422846e-15 0)
(3 -9.938220354e-15 0)
(3 -1.037031206e-14 0)
(3 -9.775428662e-15 0)
(3 -1.004831031e-14 0)
(3 -1.153689314e-14 0)
(3 -9.64001632e-15 0)
(3 -4.67805281e-15 0)
(3 -4.241349955e-15 0)
(3 -3.224878376e-15 0)
(3 -1.327003895e-15 0)
(3 7.838196832e-16 0)
(3 2.015109266e-15 0)
(3 1.452442006e-15 0)
(3 4.909757445e-16 0)
(3 9.749282473e-16 0)
(3 8.491308133e-16 0)
(3 1.639715987e-15 0)
(3 1.9319668e-15 0)
(3 4.279236408e-15 0)
(3 3.829582174e-15 0)
(3 3.119534875e-15 0)
(3 4.075530285e-15 0)
(3 3.81258217e-15 0)
(3 1.924849577e-15 0)
(3 -1.32347638e-15 0)
(3 -4.813690317e-15 0)
(3 -5.111166908e-15 0)
(3 -3.534343347e-15 0)
(3 7.321640049e-16 0)
(3 9.838953463e-16 0)
(3 -2.16168652e-16 0)
(3 -1.923398274e-15 0)
(3 -2.996630839e-15 0)
(3 -4.440942756e-15 0)
(3 -4.436586997e-15 0)
(3 -4.97150262e-15 0)
(3 -2.12481608e-15 0)
(3 -2.066864532e-15 0)
(3 -8.826952436e-16 0)
(3 1.225904164e-15 0)
(3 4.03997576e-15 0)
(3 3.88663775e-15 0)
(3 5.309878929e-15 0)
(3 4.67155491e-15 0)
(3 6.244617979e-15 0)
(3 8.020526898e-15 0)
(3 5.576793761e-15 0)
(3 6.051194403e-15 0)
(3 4.728393361e-15 0)
(3 2.199438687e-15 0)
(3 -2.937188112e-15 0)
(3 -7.311766641e-15 0)
(3 -6.655807372e-15 0)
(3 -5.829371924e-15 0)
(3 -4.373756564e-15 0)
(3 -3.609601016e-15 0)
(3 -7.442239263e-15 0)
(3 -1.129890589e-14 0)
(3 -1.342479236e-14 0)
(3 -1.405249045e-14 0)
(3 -1.353688933e-14 0)
(3 -1.260231266e-14 0)
(3 -1.274836315e-14 0)
(3 -1.387672288e-14 0)
(3 -1.380655811e-14 0)
(3 -1.145614787e-14 0)
(3 -1.055303804e-14 0)
(3 -5.061930368e-15 0)
(3 -1.892778917e-15 0)
(3 8.770024081e-16 0)
(3 6.113300489e-15 0)
(3 1.339619771e-14 0)
(3 1.461472629e-14 0)
(3 1.343506272e-14 0)
(3 1.436800488e-14 0)
(3 1.235902472e-14 0)
(3 3.91917708e-16 0)
(3 -1.485070175e-15 0)
(3 -1.455943517e-15 0)
(3 1.581644467e-15 0)
(3 1.26010942e-15 0)
(3 -1.774964603e-16 0)
(3 -1.118838041e-15 0)
(3 -3.186600324e-15 0)
(3 -5.210153772e-15 0)
(3 -7.31973887e-15 0)
(3 -7.079303094e-15 0)
(3 -8.393275989e-15 0)
(3 -8.298315962e-15 0)
(3 -8.936214312e-15 0)
(3 -6.787252752e-15 0)
(3 -4.389387305e-15 0)
(3 -4.958851286e-15 0)
(3 -4.239410708e-15 0)
(3 -3.965532259e-15 0)
(3 -2.836964346e-15 0)
(3 -4.347596307e-15 0)
(3 -3.050291382e-15 0)
(3 1.034783572e-15 0)
(3 3.923848936e-15 0)
(3 4.592556205e-15 0)
(3 -4.326620788e-16 0)
(3 -4.832097586e-15 0)
(3 -4.954472455e-15 0)
(3 -4.408549501e-15 0)
(3 -5.645828678e-15 0)
(3 -5.7126649e-15 0)
(3 -2.732730027e-15 0)
(3 -1.39220996e-15 0)
(3 -2.992633358e-15 0)
(3 -5.356361028e-15 0)
(3 -2.372512903e-15 0)
(3 -4.544334176e-16 0)
(3 3.897826067e-15 0)
(3 3.709070168e-15 0)
(3 4.143523055e-15 0)
(3 1.480926735e-15 0)
(3 4.193074066e-15 0)
(3 7.840557945e-15 0)
(3 9.604461793e-15 0)
(3 5.512108707e-15 0)
(3 4.006547125e-15 0)
(3 1.957618273e-15 0)
(3 5.363141719e-18 0)
(3 -2.531967426e-15 0)
(3 -8.099059722e-15 0)
(3 -7.803591913e-15 0)
(3 -8.710270747e-15 0)
(3 -8.112060899e-15 0)
(3 -6.703138982e-15 0)
(3 -6.521803539e-15 0)
(3 -6.347463413e-15 0)
(3 -6.363873446e-15 0)
(3 -8.313824392e-15 0)
(3 -4.437826285e-15 0)
(3 -2.416656756e-15 0)
(3 2.581148526e-15 0)
(3 3.268876026e-15 0)
(3 6.436768154e-15 0)
(3 7.293880418e-15 0)
(3 8.116205282e-15 0)
(3 8.121660881e-15 0)
(3 1.158118642e-14 0)
(3 1.417591427e-14 0)
(3 1.475088597e-14 0)
(3 1.36217712e-14 0)
(3 1.247977782e-14 0)
(3 1.170859205e-14 0)
(3 6.690001385e-15 0)
(3 -1.38707949e-15 0)
(3 -5.392191957e-15 0)
(3 -7.482561365e-15 0)
(3 -9.864038711e-15 0)
(3 -1.06686034e-14 0)
(3 -1.00177503e-14 0)
(3 -1.197984573e-14 0)
(3 -1.302649638e-14 0)
(3 -1.571953167e-14 0)
(3 -1.94145899e-14 0)
(3 -2.408878334e-14 0)
(3 -2.492625772e-14 0)
(3 -2.313367646e-14 0)
(3 -1.948464163e-14 0)
(3 -1.423530579e-14 0)
(3 -1.293616874e-14 0)
(3 -9.219320763e-15 0)
(3 -3.866470223e-15 0)
(3 -2.084040663e-16 0)
(3 4.053439909e-15 0)
(3 7.901783797e-15 0)
(3 1.430924182e-14 0)
(3 1.835602978e-14 0)
(3 2.386816507e-14 0)
(3 2.482929018e-14 0)
(3 2.608768674e-14 0)
(3 2.54589045e-14 0)
(3 2.562192134e-17 0)
(3 5.072899095e-17 0)
(3 7.980885617e-17 0)
(3 5.025817568e-17 0)
(3 -1.881066301e-17 0)
(3 -6.820273989e-16 0)
(3 -3.211880225e-15 0)
(3 -3.304315342e-15 0)
(3 -4.303219105e-15 0)
(3 -7.031696533e-15 0)
(3 -6.993763772e-15 0)
(3 -9.859408414e-15 0)
(3 -1.033762068e-14 0)
(3 -8.148245282e-15 0)
(3 -7.07817376e-15 0)
(3 -4.811492989e-15 0)
(3 -3.915695952e-15 0)
(3 -5.198451842e-15 0)
(3 -5.391343913e-15 0)
(3 -2.313260003e-15 0)
(3 -1.572097033e-15 0)
(3 -1.357928409e-15 0)
(3 9.144154032e-16 0)
(3 6.411696585e-15 0)
(3 1.183170829e-14 0)
(3 9.308384734e-15 0)
(3 2.820445518e-15 0)
(3 -1.792202583e-15 0)
(3 -1.164923819e-15 0)
(3 -1.999295037e-15 0)
(3 -2.657690376e-15 0)
(3 -2.692284995e-15 0)
(3 -1.556019404e-16 0)
(3 -9.131962561e-16 0)
(3 -8.292551523e-15 0)
(3 -5.820199541e-15 0)
(3 -5.062684317e-15 0)
(3 -2.182461545e-15 0)
(3 -5.457292282e-16 0)
(3 -1.433585171e-15 0)
(3 -2.302794337e-16 0)
(3 3.167060401e-15 0)
(3 4.98677568e-15 0)
(3 5.34362212e-15 0)
(3 3.68429751e-15 0)
(3 3.782647411e-15 0)
(3 -2.273069085e-16 0)
(3 -1.214043305e-15 0)
(3 -2.84641077e-15 0)
(3 -3.360676418e-15 0)
(3 -4.710166784e-15 0)
(3 -7.509021971e-15 0)
(3 -9.757758125e-15 0)
(3 -1.246614548e-14 0)
(3 -9.961261596e-15 0)
(3 -7.531136228e-15 0)
(3 -6.268148136e-15 0)
(3 -6.645451608e-15 0)
(3 -6.623539813e-16 0)
(3 6.681372414e-15 0)
(3 7.633746923e-15 0)
(3 8.08550714e-15 0)
(3 7.74622065e-15 0)
(3 7.485490935e-15 0)
(3 5.990317108e-15 0)
(3 6.116156026e-15 0)
(3 7.409709062e-15 0)
(3 9.574669431e-15 0)
(3 1.308175449e-14 0)
(3 1.482345974e-14 0)
(3 1.686048481e-14 0)
(3 1.757426133e-14 0)
(3 1.658265474e-14 0)
(3 8.220534472e-15 0)
(3 2.153707759e-15 0)
(3 -1.2938898e-15 0)
(3 -5.908114658e-15 0)
(3 -8.509896349e-15 0)
(3 -1.014173577e-14 0)
(3 -1.183511577e-14 0)
(3 -1.021975021e-14 0)
(3 -1.293260448e-14 0)
(3 -1.752067976e-14 0)
(3 -2.108489137e-14 0)
(3 -2.134650783e-14 0)
(3 -1.928472344e-14 0)
(3 -1.973332163e-14 0)
(3 -1.599224716e-14 0)
(3 -1.035113997e-14 0)
(3 -1.011836998e-14 0)
(3 -6.267076073e-15 0)
(3 -3.270797179e-15 0)
(3 4.530095168e-15 0)
(3 1.097035037e-14 0)
(3 1.411542578e-14 0)
(3 1.776084119e-14 0)
(3 2.082367272e-14 0)
(3 2.302924737e-14 0)
(3 2.505280077e-14 0)
(3 2.472487101e-14 0)
(3 -2.77856982e-16 0)
(3 6.726747288e-16 0)
(3 1.582136723e-15 0)
(3 -3.49726433e-15 0)
(3 -5.579910657e-15 0)
(3 -4.02142399e-15 0)
(3 -3.178731314e-15 0)