/*--------------------------------*- C++ -*----------------------------------*\
  =========                 |
  \\      /  F ield         | OpenFOAM: The Open Source CFD Toolbox
   \\    /   O peration     | Website:  https://openfoam.org
    \\  /    A nd           | Version:  7
     \\/     M anipulation  |
\*---------------------------------------------------------------------------*/
FoamFile
{
    version     2.0;
    format      ascii;
    class       volScalarField;
    location    "0.5";
    object      T;
}
// * * * * * * * * * * * * * * * * * * * * * * * * * * * * * * * * * * * * * //

dimensions      [0 0 0 1 0 0 0];

internalField   nonuniform List<scalar> 
555
(
1.006702561
1.004189133
0.9993356428
0.9130911622
0.898692211
0.8868401409
0.869351668
0.8388647686
0.8208458224
0.8202311133
0.8266467268
0.8440148188
0.8810311394
0.9355351178
0.9812713534
0.9989711822
1.003550623
1.005674162
1.002423181
0.9980222952
0.9117380879
0.8994944294
0.8882604762
0.8694324789
0.8386874914
0.8220980764
0.8215492142
0.8286972197
0.8496748737
0.887383559
0.9423070442
0.9829758014
0.9963142452
1.001631408
1.003934301
1.000528589
0.9965923698
0.9099487541
0.9000849697
0.8895556587
0.8695966332
0.8386479757
0.8231914182
0.8231479539
0.8319318794
0.8544082943
0.8969435641
0.9543587687
0.9871856943
0.9951234915
0.9990588126
1.001835489
0.99866824
0.9951591311
0.9090968715
0.9002485431
0.8907790785
0.8697046183
0.8385671318
0.8241874802
0.8245555232
0.8345962256
0.8605959419
0.9143420457
0.9658923872
0.9893353415
0.9948410039
0.996150614
0.9991546178
0.996150976
0.9934985728
0.9080305997
0.9004370081
0.8918166569
0.8695740537
0.8387466297
0.8254399758
0.8264508984
0.8374203965
0.8714662083
0.9282182392
0.9729248332
0.9897042312
0.9932705415
0.9935406312
0.9962299147
0.9929984349
0.906827981
0.9007850215
0.8928457138
0.8693216031
0.8392974893
0.8273414642
0.8286877533
0.8432470312
0.8816822155
0.9361379872
0.9761486797
0.988369213
0.9908022702
0.9919527482
0.9933485606
0.9898422372
0.906080312
0.9014456208
0.8941160039
0.8690339048
0.8403519959
0.8301326561
0.8318714132
0.8503932493
0.8893806685
0.9441223436
0.9786957819
0.986625379
0.9884434068
0.9907004424
0.99102933
0.9873127303
0.9056502187
0.9020578977
0.894735063
0.869065241
0.8415026056
0.8323840079
0.8356881244
0.8554759293
0.9020578492
0.953826808
0.9798288656
0.9851537691
0.9857737999
0.9884859873
0.9890343859
0.985553058
0.9049003335
0.9027041625
0.8955392033
0.8686429452
0.8434028826
0.8347230601
0.8391779488
0.8641380671
0.9173712593
0.9600905769
0.9790680733
0.9831857079
0.9835124607
0.9863243251
0.9869346055
0.983926974
0.904142526
0.9036929047
0.8966598709
0.8698587356
0.8461514719
0.8378816877
0.8449870205
0.8792283307
0.9285653755
0.9639684165
0.9778484654
0.9813773363
0.9820367041
0.9840867178
0.9849648029
0.9824421251
0.9039088561
0.9049824827
0.8973848638
0.8715008326
0.8492826356
0.84208743
0.8547431241
0.8913779836
0.9377238934
0.9686089921
0.9786667423
0.980467033
0.9816815375
0.9829300254
0.9835479732
0.9811939999
0.9040591082
0.9062518506
0.8978226187
0.8729783034
0.8521616815
0.8477953539
0.8624473935
0.8999586659
0.9465762505
0.9733243921
0.979470265
0.9801644458
0.9818649604
0.9825860197
0.982737415
0.9805697063
0.9047611748
0.9074111096
0.8982518829
0.8745072385
0.8555626901
0.8528784975
0.8692970928
0.9142336491
0.9568662964
0.9763174406
0.9801703724
0.9801218473
0.9819218414
0.9829606121
0.9824470517
0.9057822332
0.9086594492
0.899330475
0.8768052489
0.8597976057
0.8586029401
0.8830415234
0.9312024684
0.9638075075
0.9776277478
0.9806959714
0.9806508224
0.982327711
0.9835510903
0.9828767814
0.9067937595
0.9100344615
0.900118601
0.8789369431
0.8645040342
0.8691694974
0.9013397788
0.943454463
0.9686207034
0.9790535613
0.9817798187
0.9816703573
0.9830868961
0.9842648039
0.9836932325
0.9081122607
0.91144606
0.9006032697
0.8811905653
0.8710631512
0.8818594757
0.9149248329
0.954293007
0.9747932021
0.9816038652
0.9835726017
0.9834566108
0.9846074196
0.9856059256
0.9851262356
0.9098877591
0.9127707236
0.9017445269
0.8843683485
0.8782052274
0.8910406625
0.9267535551
0.9654422161
0.9830439347
0.9858285677
0.9864981836
0.9863145075
0.9872473183
0.9878493877
0.9872977063
0.9117971391
0.9144292776
0.9036517432
0.8879637129
0.8839390044
0.9018153138
0.945393798
0.979327322
0.9909487017
0.9915331051
0.9909611076
0.9904980979
0.9911384206
0.9912301762
0.9903851705
0.9134936689
0.9163446597
0.9053960236
0.8916459506
0.8932612817
0.9200280462
0.960791253
0.9879105266
0.9958686485
0.9970062833
0.9964508279
0.9959082696
0.9963892703
0.9959510052
0.9945454739
0.9152086723
0.9177852908
0.9068478346
0.8971936151
0.9076703086
0.9368505316
0.9697330175
0.9928476403
1.000316298
1.001443322
1.001232607
1.000986858
1.002173984
1.001667397
0.9167890548
0.9192092254
0.909819341
0.9052600267
0.9188779015
0.949773529
0.981440987
0.999985179
1.004675933
1.006020641
1.006106905
1.006008696
1.007435495
1.00731036
0.9178113261
0.9210119855
0.9142350641
0.9118675287
0.9302086753
0.9673853085
0.9979303882
1.008860493
1.010429134
1.011099201
1.011199091
1.011333223
1.013078821
1.01324924
0.9191081045
0.9228864051
0.9177876685
0.9198399268
0.9492458404
0.9915810907
1.014456312
1.01911406
1.018008412
1.017515899
1.017317007
1.017448392
1.019125691
1.01945129
0.9214116213
0.9248755328
0.9218537847
0.9352656915
0.9711789797
1.006912717
1.024078152
1.028558368
1.027542417
1.025667618
1.024477175
1.024534379
1.026193931
1.026487789
0.9224083807
0.9280524193
0.929946563
0.9518317223
0.9850900375
1.014528147
1.03175782
1.035980495
1.035921046
1.034826846
1.033160772
1.032950398
1.034242271
1.034170763
0.9239641086
0.9322191355
0.9398316324
0.9624415581
0.9980363077
1.027080599
1.037918675
1.042751398
1.042994632
1.042363749
1.04212361
1.042065252
1.042964632
1.042263554
0.9271846398
0.9354964052
0.9474339494
0.9794384565
1.020540518
1.042371101
1.045409152
1.048340984
1.049194892
1.049167248
1.049308508
1.049744061
1.050593064
0.9279917169
0.9395310021
0.9604918204
1.008594302
1.045751037
1.055240837
1.053805959
1.05453294
1.05430888
1.054708312
1.055583046
1.05654783
1.057500273
0.9295168705
0.9470846844
0.9837451283
1.029914923
1.057909685
1.06293547
1.0627993
1.061365114
1.060358678
1.059660251
1.060615868
1.062613152
1.063938929
0.934306489
0.958046823
1.000508068
1.038581522
1.063402285
1.068481031
1.069665491
1.069496774
1.066935227
1.066106931
1.06609552
1.067955055
1.070222674
0.936355638
0.9686474172
1.009372064
1.046830649
1.068964521
1.071943657
1.074863801
1.075981681
1.075150628
1.073345941
1.07349118
1.074743578
1.077061784
0.938631187
0.9819753639
1.025326533
1.060826925
1.075724148
1.075905767
1.07934877
1.082606787
1.082883503
1.081481311
1.081813321
1.083303264
1.085845892
0.9447776161
1.006070767
1.050025047
1.075141373
1.083144691
1.083341136
1.085186643
1.08907203
1.090447132
1.090403265
1.091131214
1.092682847
0.9515471124
1.031876183
1.066102526
1.086650554
1.093363205
1.093430706
1.094570878
1.096276578
1.097329848
1.099072575
1.100257166
1.102063149
0.961106889
1.053297779
1.081141168
1.099787689
1.104690115
1.104803972
1.104113237
1.105233402
1.104584009
1.105541497
1.107698456
1.109337025
0.9819210141
1.081184583
1.102806912
1.113167814
1.113714045
1.112889968
1.113621938
1.112886905
1.111398905
1.110381902
1.11159701
1.113723708
1.002853626
1.115529556
1.123027842
1.121869871
1.118100095
1.117353286
1.119494406
1.118961121
1.115606479
1.113803921
1.11385883
1.114893181
1.02918683
1.152592036
1.130951907
1.126367787
1.120807329
1.118662186
1.121430254
1.120787135
1.117572765
1.115363071
1.115064284
1.115670479
1.030346438
1.156798834
1.131520784
)
;

boundaryField
{
    inlet
    {
        type            fixedValue;
        value           nonuniform 0();
    }
    outlet
    {
        type            inletOutlet;
        inletValue      nonuniform 0();
        value           nonuniform 0();
    }
    bottom
    {
        type            slip;
    }
    top
    {
        type            slip;
    }
    obstacle
    {
        type            zeroGradient;
    }
    defaultFaces
    {
        type            empty;
    }
    procBoundary15to9
    {
        type            processor;
        value           nonuniform List<scalar> 
18
(
1.00733788
1.005698655
1.00013184
0.9141742523
0.8977843153
0.8852418085
0.869595723
0.838919265
0.8200549236
0.8194490364
0.8252460616
0.840425837
0.8704215439
0.9278132374
0.9812294991
1.000596011
1.00425004
1.00425004
)
;
    }
    procBoundary15to10
    {
        type            processor;
        value           nonuniform List<scalar> 9(1.005157888 1.003665558 1.00188895 0.9998090277 0.9977344622 0.9911829671 0.9911829671 0.9884317086 0.9858455432);
    }
    procBoundary15to16
    {
        type            processor;
        value           nonuniform List<scalar> 
35
(
0.9840373782
0.9830407827
0.9822465987
0.9814592484
0.9808066979
0.9804332172
0.9804332172
0.9809779692
0.9821737531
0.9835596415
0.9855734551
0.9886741102
0.9929722701
0.9997325608
0.9997325608
1.005691339
1.01200597
1.018616609
1.025580729
1.032893275
1.040312183
1.049612301
1.049612301
1.056427646
1.062971306
1.069962022
1.077555035
1.086095406
1.09498165
1.09498165
1.10329669
1.109454703
1.113452721
1.115037308
1.115253824
)
;
    }
    procBoundary15to21
    {
        type            processor;
        value           nonuniform List<scalar> 
13
(
1.126859566
1.121453474
1.120120254
1.119488308
1.117944121
1.115799691
1.114786117
1.115354892
1.116226173
1.005686984
1.120780032
1.126859566
1.124606818
)
;
    }
}


// ************************************************************************* //
