/*--------------------------------*- C++ -*----------------------------------*\
  =========                 |
  \\      /  F ield         | OpenFOAM: The Open Source CFD Toolbox
   \\    /   O peration     | Website:  https://openfoam.org
    \\  /    A nd           | Version:  7
     \\/     M anipulation  |
\*---------------------------------------------------------------------------*/
FoamFile
{
    version     2.0;
    format      ascii;
    class       volScalarField;
    location    "2.6";
    object      T;
}
// * * * * * * * * * * * * * * * * * * * * * * * * * * * * * * * * * * * * * //

dimensions      [0 0 0 1 0 0 0];

internalField   nonuniform List<scalar> 
555
(
1
1
1
1
1
1
1
1
1
1
1
1
1
1
1
1
1
1
1
1
1
1
1
1
1
1
1
1
1
1
1
1
1
1
1
1
1
1
1
1
1
1
1
1
1
1
1
1
1
1
1
1
1
1
1
1
1
1
1
1
1
1
1
1
1
1
1
1
1
1
1
1
1
1
1
1
1
0.9999999993
1
1
1
1
1
1
1
1
1
1
1
1
1
1
1
1
1
1
1
1
1
1
1
1
1
1
1
1
1
1
1.000000002
1.000000089
0.9999999946
1
1
1
1
1
1
1
1
1
1
1
1
1
1
1
1
1
1
1
1
1
1
1
1
1
1
1.000000003
1.000000022
1.000000122
1.000000609
1.000002263
1.000018477
1.000006767
1
1
1
1
1
1
1
1
1
1
1
1
1
1
1
1
1
1
1
1
1
1.000000001
1.000000006
1.000000035
1.000000186
1.000000866
1.000003434
1.000013028
1.000040834
1.000127385
1.000314298
1.000931879
1.00135033
1
1
1
1
1
1
1
1
1
1
1
1
1
1
1
1
1
1.000000001
1.00000001
1.000000058
1.000000295
1.000001314
1.00000509
1.000018082
1.000056156
1.000165035
1.000413019
1.001018072
1.002111605
1.004300265
1.007611939
1.013627137
1.019192359
1
1
1
1
1
1
1
1
1
1
1
1
1
1.000000003
1.000000018
1.000000099
1.000000467
1.000002013
1.000007569
1.000026096
1.000078613
1.00022284
1.000546374
1.001273773
1.002616473
1.005221913
1.009028942
1.015156614
1.022592848
1.032720142
1.043960203
1.05588407
1.067029154
1
1
1
1
1
1
1
1
1.000000001
1.000000006
1.000000034
1.000000178
1.0000008
1.000003234
1.000011662
1.000038135
1.000110717
1.00030332
1.000720165
1.001639562
1.003306123
1.006258219
1.010756033
1.017465353
1.02553316
1.036228933
1.048374639
1.060066525
1.070106205
1.080145231
1.090398389
1.097404783
1.104101395
1
1
1
1
1.000000002
1.000000014
1.000000073
1.000000341
1.000001435
1.000005415
1.000018241
1.000057758
1.000161191
1.000414726
1.000990522
1.002116591
1.004180245
1.007781174
1.012670219
1.020131202
1.029828286
1.040072874
1.051677037
1.063915926
1.075622125
1.085927876
1.094431587
1.100340993
1.106551474
1.11212055
1.115417358
1.116550936
1.118145313
1.000000007
1.000000036
1.000000166
1.0000007
1.000002718
1.000009658
1.000030725
1.000090264
1.000243703
1.000589078
1.001334869
1.002799159
1.005238716
1.009460513
1.015492556
1.023172766
1.034083709
1.045665656
1.055876193
1.068081154
1.079641214
1.088673962
1.09800684
1.102424175
1.105831353
1.10972729
1.112400152
1.11352722
1.114758763
1.115521919
1.116400467
1.117206942
1.118170161
1.000005685
1.000018018
1.000053872
1.000144986
1.000370776
1.000873848
1.001833934
1.003741431
1.006873932
1.011465263
1.018837021
1.027591791
1.037617813
1.050274723
1.062151678
1.074021761
1.085096044
1.09295018
1.10069198
1.109032167
1.113074248
1.115956981
1.118950874
1.119432512
1.119730993
1.120476511
1.120835783
1.120746588
1.120544164
1.119762969
1.118486218
1.117090086
1.117044815
1.000583116
1.001298701
1.002637708
1.004932578
1.008938449
1.014373468
1.02188931
1.032750645
1.043124802
1.054664072
1.068258549
1.078975314
1.089791487
1.097101421
1.101762869
1.107423595
1.111936074
1.113239596
1.115125438
1.116195373
1.116285254
1.117146407
1.119171011
1.119700645
1.119878298
1.120335875
1.120966208
1.1209755
1.120684561
1.120111831
1.119340046
1.118359465
1.117648051
1.011245411
1.018401452
1.026594573
1.037053388
1.049587358
1.060904225
1.073609879
1.084811012
1.093564542
1.103679562
1.10999181
1.114139835
1.118381752
1.12056236
1.121071621
1.122190917
1.122975819
1.122885713
1.122592782
1.121881984
1.120675228
1.119382694
1.118516742
1.118159462
1.117914331
1.117683659
1.117486432
1.117238175
1.116903855
1.116489138
1.115955626
1.115398382
1.115071643
1.05427525
1.066668698
1.077144932
1.088508058
1.096051921
1.102353489
1.110182118
1.112776582
1.114574736
1.11661893
1.117020936
1.11766704
1.119437951
1.121317472
1.12186281
1.122270216
1.122851681
1.122827286
1.122489954
1.121754469
1.120898005
1.120068544
1.119284348
1.118488709
1.117474796
1.116215178
1.115134513
1.114626943
1.114356128
1.114063064
1.113961122
1.114086045
1.114414312
1.104928045
1.109972815
1.114184921
1.119654616
1.121688323
1.122864043
1.123726414
1.123620544
1.123437636
1.123236682
1.122642873
1.121848334
1.121334954
1.120721164
1.120058795
1.118977327
1.117922303
1.117222928
1.117048145
1.116802769
1.116354048
1.11580688
1.115576929
1.115290038
1.114708243
1.113991039
1.11332577
1.113205718
1.113090055
1.113100423
1.113226362
1.113626656
1.114420292
1.113963573
1.116785716
1.120553179
1.123675623
1.124610336
1.124067967
1.123207997
1.122977578
1.122664526
1.121891062
1.120496542
1.119477074
1.118823767
1.118194094
1.117217954
1.115921044
1.115482244
1.115391819
1.115118771
1.114819761
1.114773649
1.114848914
1.115140878
1.115271536
1.115188139
1.114944609
1.114840333
1.114862793
1.114864329
1.114831486
1.114834173
1.115034384
1.115162284
1.112350963
1.112279143
1.112390629
1.112812009
1.113439814
1.1139918
1.114395942
1.114730763
1.115306511
1.115975853
1.116454525
1.116591624
1.11673451
1.116808554
1.116713004
)
;

boundaryField
{
    inlet
    {
        type            fixedValue;
        value           nonuniform 0();
    }
    outlet
    {
        type            inletOutlet;
        inletValue      nonuniform 0();
        value           nonuniform 0();
    }
    bottom
    {
        type            slip;
    }
    top
    {
        type            slip;
    }
    obstacle
    {
        type            zeroGradient;
    }
    defaultFaces
    {
        type            empty;
    }
    procBoundary14to7
    {
        type            processor;
        value           nonuniform List<scalar> 2(1 1);
    }
    procBoundary14to8
    {
        type            processor;
        value           nonuniform List<scalar> 
35
(
1
1
1
1
1
1
1
1
1
1
1
1
1
1
1
1
1
1
1
1
1
1
1
1
1
1
1
1
1
1
1
1
1
1
1
)
;
    }
    procBoundary14to9
    {
        type            processor;
        value           nonuniform List<scalar> 
17
(
1.000000019
1.000002059
1.000095512
1.001842846
1.014980611
1.051014867
1.090005976
1.107959436
1.118188248
1.118843001
1.116946839
1.115785731
1.114381043
1.114047952
1.113289773
1.101595007
1.048859637
)
;
    }
    procBoundary14to13
    {
        type            processor;
        value           nonuniform List<scalar> 
16
(
1
1
1
1
1
1
1
1
1
1.000000001
1.000001671
1.000254585
1.006734837
1.042035108
1.095599444
1.109786231
)
;
    }
    procBoundary14to20
    {
        type            processor;
        value           nonuniform List<scalar> 
19
(
1.139798717
1.134877296
1.129708183
1.12637505
1.124307333
1.122290156
1.120376871
1.119301006
1.118366651
1.116832892
1.115218401
1.114849347
1.114570872
1.114079814
1.113256876
1.112757011
1.112826377
1.112729175
1.112729175
)
;
    }
}


// ************************************************************************* //
