/*--------------------------------*- C++ -*----------------------------------*\
  =========                 |
  \\      /  F ield         | OpenFOAM: The Open Source CFD Toolbox
   \\    /   O peration     | Website:  https://openfoam.org
    \\  /    A nd           | Version:  7
     \\/     M anipulation  |
\*---------------------------------------------------------------------------*/
FoamFile
{
    version     2.0;
    format      ascii;
    class       volVectorField;
    location    "1";
    object      U;
}
// * * * * * * * * * * * * * * * * * * * * * * * * * * * * * * * * * * * * * //

dimensions      [0 1 -1 0 0 0 0];

internalField   nonuniform List<vector> 
80000
(
(3 1.091100019e-15 0)
(3 1.058108063e-15 0)
(3 2.833880602e-16 0)
(3 -1.707746555e-15 0)
(3 -1.458447297e-15 0)
(3 -8.163064539e-16 0)
(3 -9.591467948e-16 0)
(3 6.028077886e-16 0)
(3 2.534900576e-15 0)
(3 3.893837629e-15 0)
(3 3.803959163e-17 0)
(3 -1.726947103e-15 0)
(3 -1.595255539e-15 0)
(3 -1.432649265e-15 0)
(3 -2.737798298e-15 0)
(3 -1.597676052e-15 0)
(3 -9.509230413e-16 0)
(3 -8.232274438e-16 0)
(3 -3.027331023e-16 0)
(3 7.45747571e-16 0)
(3 5.820219882e-16 0)
(3 9.62704063e-17 0)
(3 9.330353352e-16 0)
(3 1.502309145e-15 0)
(3 5.514900785e-16 0)
(3 1.256397278e-15 0)
(3 2.166567703e-15 0)
(3 1.554120229e-15 0)
(3 1.239198739e-15 0)
(3 1.130223088e-15 0)
(3 1.235685455e-15 0)
(3 1.459511237e-15 0)
(3 1.915594955e-15 0)
(3 1.381593421e-15 0)
(3 -5.811010017e-17 0)
(3 -2.688026451e-15 0)
(3 -3.041977381e-15 0)
(3 -3.022464852e-15 0)
(3 -4.131453855e-16 0)
(3 1.883083754e-15 0)
(3 1.946366196e-15 0)
(3 1.28544398e-15 0)
(3 1.36832221e-15 0)
(3 9.321164638e-16 0)
(3 2.804137526e-16 0)
(3 -1.487206773e-15 0)
(3 -1.766799242e-15 0)
(3 -1.322940781e-15 0)
(3 -2.231963272e-15 0)
(3 -3.348188853e-15 0)
(3 -2.285866215e-15 0)
(3 -6.466995549e-16 0)
(3 -1.861117104e-15 0)
(3 -2.161188026e-15 0)
(3 -1.085786699e-15 0)
(3 1.48395714e-15 0)
(3 2.990577702e-15 0)
(3 4.189579864e-15 0)
(3 5.324259393e-15 0)
(3 6.326077623e-15 0)
(3 5.986771815e-15 0)
(3 4.64777337e-15 0)
(3 3.111830702e-15 0)
(3 1.635848496e-15 0)
(3 2.126071586e-15 0)
(3 1.531808727e-15 0)
(3 9.362387189e-17 0)
(3 -1.797800289e-15 0)
(3 -2.407596615e-15 0)
(3 -1.288819509e-15 0)
(3 -2.6893822e-15 0)
(3 -5.391638264e-15 0)
(3 -3.760412999e-15 0)
(3 -7.212596e-16 0)
(3 6.027403688e-17 0)
(3 -1.64776979e-16 0)
(3 1.826094475e-15 0)
(3 2.630270266e-15 0)
(3 1.090550769e-15 0)
(3 -2.810489009e-16 0)
(3 -4.207469032e-16 0)
(3 -6.783672401e-16 0)
(3 -6.513624531e-16 0)
(3 -2.738894328e-15 0)
(3 -4.137927321e-15 0)
(3 -2.215259156e-15 0)
(3 -8.487012387e-16 0)
(3 -2.433081906e-16 0)
(3 1.851146772e-15 0)
(3 2.83550163e-15 0)
(3 1.066105432e-15 0)
(3 -1.141101299e-15 0)
(3 -1.441255981e-15 0)
(3 -1.87389524e-15 0)
(3 -2.655275565e-15 0)
(3 -3.931633432e-15 0)
(3 -3.367145898e-15 0)
(3 -3.337506201e-15 0)
(3 -2.457179367e-15 0)
(3 -2.28882052e-15 0)
(3 5.56234104e-16 0)
(3 1.716596775e-15 0)
(3 1.607345101e-15 0)
(3 -1.770647308e-15 0)
(3 -9.497573112e-16 0)
(3 3.308836573e-16 0)
(3 -4.808522883e-16 0)
(3 8.574967381e-16 0)
(3 2.169367407e-15 0)
(3 1.680268703e-15 0)
(3 -5.888927542e-16 0)
(3 -2.236086128e-15 0)
(3 -1.435122652e-15 0)
(3 -1.03658934e-15 0)
(3 -3.237964309e-15 0)
(3 -2.187935123e-15 0)
(3 9.973534624e-17 0)
(3 1.930452792e-17 0)
(3 1.088604225e-15 0)
(3 -1.196433447e-15 0)
(3 -1.630536718e-15 0)
(3 -1.937929848e-15 0)
(3 -5.240735863e-16 0)
(3 -1.310723594e-15 0)
(3 -2.68760469e-15 0)
(3 -1.514912261e-15 0)
(3 -1.994741861e-16 0)
(3 -2.262935891e-16 0)
(3 2.239870839e-16 0)
(3 -2.189914033e-16 0)
(3 1.958340913e-16 0)
(3 1.475592849e-15 0)
(3 2.876677368e-15 0)
(3 -2.109625829e-16 0)
(3 -2.679387369e-15 0)
(3 -4.211334232e-15 0)
(3 -4.60449696e-15 0)
(3 -3.328107051e-15 0)
(3 2.844108972e-15 0)
(3 5.828605358e-15 0)
(3 4.744630883e-15 0)
(3 9.169482299e-16 0)
(3 -8.881099093e-16 0)
(3 -3.791658776e-15 0)
(3 -3.576337934e-15 0)
(3 -5.609267349e-15 0)
(3 -6.386009486e-15 0)
(3 -3.884252137e-15 0)
(3 -5.29138909e-15 0)
(3 -5.056134461e-15 0)
(3 -4.382454033e-15 0)
(3 -2.571659853e-15 0)
(3 -2.801239271e-15 0)
(3 -2.253599337e-15 0)
(3 -4.110470785e-16 0)
(3 2.462260557e-15 0)
(3 5.431424377e-15 0)
(3 5.362824664e-15 0)
(3 5.292536441e-15 0)
(3 4.239651922e-15 0)
(3 3.038352318e-15 0)
(3 2.699564556e-15 0)
(3 2.46167934e-15 0)
(3 1.601363588e-15 0)
(3 3.333828693e-15 0)
(3 5.232138784e-16 0)
(3 -6.593415433e-16 0)
(3 -3.168884374e-15 0)
(3 -5.355841792e-15 0)
(3 -5.940407362e-15 0)
(3 -5.782132921e-15 0)
(3 -5.670662703e-15 0)
(3 -3.319275527e-15 0)
(3 1.779084136e-15 0)
(3 3.716696111e-15 0)
(3 2.151237667e-15 0)
(3 3.490403976e-15 0)
(3 4.106656317e-15 0)
(3 2.749573875e-15 0)
(3 -3.605150842e-16 0)
(3 -1.226704811e-16 0)
(3 -9.932244946e-17 0)
(3 -9.196361959e-16 0)
(3 -4.693562512e-15 0)
(3 -2.38524852e-15 0)
(3 1.184362158e-15 0)
(3 4.361894005e-15 0)
(3 5.679821453e-15 0)
(3 6.030131884e-15 0)
(3 4.601332281e-15 0)
(3 9.473414448e-17 0)
(3 -2.834808822e-15 0)
(3 -4.102869039e-15 0)
(3 -5.366955081e-15 0)
(3 -8.278483361e-15 0)
(3 -1.132395459e-14 0)
(3 -5.569123336e-15 0)
(3 -1.545330051e-15 0)
(3 8.461500952e-17 0)
(3 1.73068913e-15 0)
(3 -6.926090508e-16 0)
(3 -3.349934222e-16 0)
(3 1.345472016e-15 0)
(3 1.462293959e-15 0)
(3 1.811836145e-15 0)
(3 2.099125132e-15 0)
(3 1.858517887e-15 0)
(3 1.873622452e-15 0)
(3 1.68294834e-15 0)
(3 1.988925543e-15 0)
(3 3.502935249e-15 0)
(3 2.527413545e-15 0)
(3 1.520658886e-15 0)
(3 8.713266429e-16 0)
(3 -6.245325507e-16 0)
(3 2.209262806e-15 0)
(3 1.284439291e-15 0)
(3 4.604762867e-16 0)
(3 2.337683543e-16 0)
(3 -7.056817035e-16 0)
(3 -3.440120828e-16 0)
(3 1.887721989e-15 0)
(3 5.002585454e-16 0)
(3 -7.35585896e-16 0)
(3 -1.546483067e-15 0)
(3 -2.186900371e-15 0)
(3 -1.569360395e-15 0)
(3 5.774244127e-17 0)
(3 -1.109857106e-16 0)
(3 -1.539937014e-15 0)
(3 -2.240105129e-15 0)
(3 -1.072882598e-15 0)
(3 -9.687049845e-16 0)
(3 -1.535163574e-15 0)
(3 -4.840764258e-17 0)
(3 1.410087276e-15 0)
(3 1.111630999e-15 0)
(3 2.704465787e-15 0)
(3 3.628997733e-15 0)
(3 5.541167919e-15 0)
(3 5.077239784e-15 0)
(3 4.348104158e-15 0)
(3 2.433219701e-15 0)
(3 9.992101903e-16 0)
(3 -5.10391205e-16 0)
(3 -2.170617411e-15 0)
(3 -3.701117867e-15 0)
(3 -3.664032896e-15 0)
(3 -3.801198425e-15 0)
(3 -4.165693407e-15 0)
(3 -3.101642991e-15 0)
(3 -2.554037874e-15 0)
(3 -1.385722936e-15 0)
(3 1.312448121e-15 0)
(3 8.543907265e-16 0)
(3 3.637016027e-16 0)
(3 1.335017009e-15 0)
(3 1.464734108e-15 0)
(3 1.822521413e-15 0)
(3 4.842722567e-16 0)
(3 1.149265055e-17 0)
(3 4.80687547e-16 0)
(3 1.784548812e-15 0)
(3 2.512532856e-15 0)
(3 4.190739089e-15 0)
(3 3.737684973e-15 0)
(3 2.61019688e-15 0)
(3 -1.363694002e-15 0)
(3 -5.489172674e-15 0)
(3 -5.963077597e-15 0)
(3 -4.368520641e-15 0)
(3 -3.827754036e-15 0)
(3 -2.436386399e-15 0)
(3 -6.535626667e-16 0)
(3 2.663170757e-15 0)
(3 2.824049019e-15 0)
(3 2.006291588e-15 0)
(3 1.709182223e-15 0)
(3 1.947340669e-15 0)
(3 3.745459482e-16 0)
(3 -1.775897972e-15 0)
(3 -2.969519697e-15 0)
(3 -5.628805332e-15 0)
(3 -6.60383298e-15 0)
(3 -5.836400033e-15 0)
(3 -4.941721743e-15 0)
(3 -1.931747921e-15 0)
(3 2.833517862e-16 0)
(3 2.018456832e-15 0)
(3 -1.103058886e-16 0)
(3 -2.369001386e-15 0)
(3 -3.598109187e-15 0)
(3 -3.283218136e-15 0)
(3 -6.511510026e-15 0)
(3 -1.094041641e-14 0)
(3 -1.073719731e-14 0)
(3 -8.342821744e-15 0)
(3 -5.286699535e-15 0)
(3 -1.139083151e-15 0)
(3 1.026124536e-15 0)
(3 8.413679354e-17 0)
(3 -1.529680321e-15 0)
(3 -5.858404976e-16 0)
(3 6.037409735e-16 0)
(3 4.656598639e-16 0)
(3 1.278024465e-15 0)
(3 1.318553635e-15 0)
(3 1.909633135e-15 0)
(3 1.860391883e-15 0)
(3 2.021251706e-15 0)
(3 4.331921446e-15 0)
(3 3.782109011e-15 0)
(3 1.059398949e-15 0)
(3 -9.750446583e-16 0)
(3 -1.105435386e-15 0)
(3 9.470880885e-16 0)
(3 -5.872715673e-16 0)
(3 6.169508318e-16 0)
(3 7.261098708e-16 0)
(3 5.659812625e-16 0)
(3 5.728177818e-16 0)
(3 3.195289765e-15 0)
(3 4.578026608e-15 0)
(3 3.987738104e-15 0)
(3 4.519723714e-15 0)
(3 3.479404395e-15 0)
(3 3.477951931e-15 0)
(3 3.050382027e-15 0)
(3 1.268188503e-15 0)
(3 1.379166047e-15 0)
(3 -2.956911057e-16 0)
(3 -1.125242439e-15 0)
(3 -2.183653727e-15 0)
(3 -4.803022399e-16 0)
(3 2.143329236e-15 0)
(3 5.237679369e-15 0)
(3 5.691809012e-15 0)
(3 4.95048982e-15 0)
(3 3.138356001e-15 0)
(3 2.505372974e-15 0)
(3 3.169939884e-15 0)
(3 2.805112159e-15 0)
(3 8.882561459e-16 0)
(3 6.203974418e-16 0)
(3 -8.246347827e-16 0)
(3 -1.207288234e-15 0)
(3 -1.085162611e-15 0)
(3 -1.64886608e-15 0)
(3 -2.809213225e-15 0)
(3 -2.376699802e-15 0)
(3 -1.469445984e-15 0)
(3 -4.199137536e-16 0)
(3 -7.025589784e-16 0)
(3 -8.742009625e-16 0)
(3 -8.488857819e-16 0)
(3 -2.121931033e-15 0)
(3 -1.945863383e-15 0)
(3 -6.164931158e-16 0)
(3 -1.104644755e-16 0)
(3 1.959468682e-16 0)
(3 2.392647411e-15 0)
(3 4.83952594e-15 0)
(3 6.200777703e-15 0)
(3 7.589187621e-15 0)
(3 6.062708324e-15 0)
(3 2.983173606e-15 0)
(3 1.76867526e-15 0)
(3 -4.233602233e-16 0)
(3 -5.459855272e-15 0)
(3 -5.985690889e-15 0)
(3 -4.698718789e-15 0)
(3 -2.074252579e-15 0)
(3 -3.181871076e-15 0)
(3 -4.260200745e-15 0)
(3 -1.885725846e-15 0)
(3 2.788563539e-15 0)
(3 2.805902016e-15 0)
(3 1.41367111e-15 0)
(3 6.341757929e-16 0)
(3 -6.012067261e-16 0)
(3 -3.618130808e-15 0)
(3 -5.495579525e-15 0)
(3 -7.998957698e-15 0)
(3 -5.798179457e-15 0)
(3 -4.061672784e-15 0)
(3 -2.270283574e-15 0)
(3 -1.531438831e-15 0)
(3 1.63231218e-16 0)
(3 1.555342937e-15 0)
(3 1.047260149e-15 0)
(3 -1.723384388e-15 0)
(3 -3.953265829e-15 0)
(3 -4.245510851e-15 0)
(3 -5.676817229e-15 0)
(3 -5.731247233e-15 0)
(3 -4.893462028e-15 0)
(3 -3.852810359e-15 0)
(3 -2.607335051e-15 0)
(3 -1.310742237e-15 0)
(3 1.94442027e-15 0)
(3 -1.036192107e-16 0)
(3 4.235949095e-16 0)
(3 5.246732915e-16 0)
(3 -2.236504046e-16 0)
(3 -3.668105645e-16 0)
(3 -3.682410772e-16 0)
(3 -4.680033659e-17 0)
(3 2.404603482e-17 0)
(3 1.496942947e-15 0)
(3 1.018732655e-15 0)
(3 8.640116054e-16 0)
(3 2.49374749e-16 0)
(3 6.182378894e-16 0)
(3 6.597941465e-17 0)
(3 -7.754393932e-16 0)
(3 -2.311098701e-15 0)
(3 1.945556508e-15 0)
(3 4.485505302e-15 0)
(3 4.120659405e-15 0)
(3 3.143292962e-15 0)
(3 2.283305553e-15 0)
(3 4.029712003e-15 0)
(3 6.590881396e-15 0)
(3 7.614988753e-15 0)
(3 7.656475164e-15 0)
(3 8.42790819e-15 0)
(3 8.079840289e-15 0)
(3 6.839925232e-15 0)
(3 6.341890796e-15 0)
(3 5.587773385e-15 0)
(3 4.470373652e-15 0)
(3 7.309937752e-16 0)
(3 -8.311572295e-16 0)
(3 1.296293206e-15 0)
(3 2.212424978e-15 0)
(3 2.120100916e-15 0)
(3 4.895946448e-15 0)
(3 4.176232084e-15 0)
(3 3.668182788e-15 0)
(3 3.389902827e-15 0)
(3 3.568973903e-15 0)
(3 1.524875017e-15 0)
(3 1.307199267e-15 0)
(3 7.547222216e-16 0)
(3 -6.443595221e-16 0)
(3 -1.280983757e-15 0)
(3 -2.093832221e-15 0)
(3 -3.530285262e-15 0)
(3 -3.515018038e-15 0)
(3 -3.101333861e-15 0)
(3 -3.058100162e-15 0)
(3 -3.224922268e-15 0)
(3 -2.803694597e-15 0)
(3 -4.607729063e-15 0)
(3 -4.636383027e-15 0)
(3 -3.367890607e-15 0)
(3 -1.725040356e-15 0)
(3 -1.528012956e-15 0)
(3 -7.437216129e-16 0)
(3 3.732468499e-16 0)
(3 3.618544926e-15 0)
(3 6.515051119e-15 0)
(3 5.585173099e-15 0)
(3 5.036094196e-15 0)
(3 3.97708057e-15 0)
(3 3.430078328e-15 0)
(3 3.63109687e-15 0)
(3 2.257684748e-15 0)
(3 -8.954567848e-16 0)
(3 -5.100144229e-15 0)
(3 -5.439292045e-15 0)
(3 -5.672711787e-15 0)
(3 -5.63456232e-15 0)
(3 -5.057032613e-15 0)
(3 -3.410043955e-15 0)
(3 1.467565062e-16 0)
(3 1.630749393e-15 0)
(3 1.168943339e-15 0)
(3 -1.000149445e-15 0)
(3 -2.564418249e-15 0)
(3 -3.997709845e-15 0)
(3 -4.275772997e-15 0)
(3 -6.372483286e-15 0)
(3 -8.440748074e-15 0)
(3 -7.875317038e-15 0)
(3 -6.340022921e-15 0)
(3 -4.563903643e-15 0)
(3 -1.985549215e-15 0)
(3 -1.521583192e-15 0)
(3 3.153022085e-16 0)
(3 -1.1626488e-16 0)
(3 -2.868559574e-15 0)
(3 -5.996901469e-15 0)
(3 -7.427616192e-15 0)
(3 -5.762167277e-15 0)
(3 -4.352539812e-15 0)
(3 -3.034442199e-15 0)
(3 -2.450569798e-15 0)
(3 -2.31232145e-15 0)
(3 -4.46581354e-16 0)
(3 -5.261819238e-16 0)
(3 5.490076943e-16 0)
(3 -4.305482521e-16 0)
(3 -4.709412281e-16 0)
(3 -3.418991947e-16 0)
(3 -3.24837164e-16 0)
(3 -2.612676845e-16 0)
(3 1.202095639e-15 0)
(3 1.520029709e-15 0)
(3 1.736769864e-15 0)
(3 4.559560669e-16 0)
(3 7.776876249e-16 0)
(3 2.07800647e-15 0)
(3 3.219973274e-16 0)
(3 -1.464247368e-15 0)
(3 -4.014613827e-15 0)
(3 -2.139118937e-15 0)
(3 -1.171374431e-15 0)
(3 -2.95303649e-16 0)
(3 3.900479315e-15 0)
(3 6.271932451e-15 0)
(3 6.117975367e-15 0)
(3 6.507387156e-15 0)
(3 7.056695149e-15 0)
(3 5.137852242e-15 0)
(3 3.687506782e-15 0)
(3 3.544431538e-15 0)
(3 2.429300286e-15 0)
(3 2.650557668e-15 0)
(3 2.462716541e-15 0)
(3 2.337198481e-15 0)
(3 9.892514677e-16 0)
(3 3.794438165e-16 0)
(3 2.563675282e-15 0)
(3 1.125031477e-15 0)
(3 8.938440552e-16 0)
(3 1.801169547e-15 0)
(3 5.617875304e-15 0)
(3 5.321452912e-15 0)
(3 4.43981553e-15 0)
(3 1.279989114e-15 0)
(3 1.284450042e-15 0)
(3 1.953521172e-15 0)
(3 8.920547495e-16 0)
(3 -6.43540998e-16 0)
(3 -1.236645421e-15 0)
(3 -3.851899085e-15 0)
(3 -5.467079718e-15 0)
(3 -4.387304683e-15 0)
(3 -5.48381922e-15 0)
(3 -5.083423876e-15 0)
(3 -4.817319724e-15 0)
(3 -5.240728838e-15 0)
(3 -5.517145049e-15 0)
(3 -3.067573114e-15 0)
(3 -6.934225422e-16 0)
(3 5.632385601e-16 0)
(3 1.448219493e-15 0)
(3 2.47438242e-15 0)
(3 2.575100303e-15 0)
(3 2.472103466e-15 0)
(3 1.56089997e-15 0)
(3 1.221297874e-15 0)
(3 -1.00341117e-15 0)
(3 -1.213611788e-15 0)
(3 3.765390495e-16 0)
(3 1.790328387e-16 0)
(3 -1.085355027e-15 0)
(3 -9.605492352e-16 0)
(3 5.474431496e-16 0)
(3 -2.572364104e-15 0)
(3 -4.167135091e-15 0)
(3 -4.512909688e-15 0)
(3 -3.955528141e-15 0)
(3 -3.712567003e-15 0)
(3 -1.172911445e-15 0)
(3 1.041127867e-15 0)
(3 -7.062090553e-16 0)
(3 -1.986135845e-15 0)
(3 -1.280153709e-15 0)
(3 -2.891813112e-15 0)
(3 -3.005626412e-15 0)
(3 -3.750372565e-15 0)
(3 -6.700741286e-15 0)
(3 -6.795529999e-15 0)
(3 -7.032158719e-15 0)
(3 -5.41836144e-15 0)
(3 -4.643789121e-15 0)
(3 -4.456024524e-15 0)
(3 -1.914828692e-15 0)
(3 -8.303283757e-16 0)
(3 -1.753781346e-15 0)
(3 -3.6501864e-15 0)
(3 -4.409224832e-15 0)
(3 -4.008800539e-15 0)
(3 -2.523601968e-15 0)
(3 -2.515213571e-15 0)
(3 4.283620277e-16 0)
(3 3.111548012e-15 0)
(3 4.119538962e-15 0)
(3 3.017683975e-16 0)
(3 -1.209394537e-16 0)
(3 -9.248287767e-16 0)
(3 -6.027402265e-16 0)
(3 -6.971698471e-16 0)
(3 5.67212552e-16 0)
(3 3.96953953e-16 0)
(3 -6.545753625e-17 0)
(3 -6.775788377e-16 0)
(3 -8.545289493e-16 0)
(3 1.026671275e-15 0)
(3 1.665777457e-15 0)
(3 3.306992869e-16 0)
(3 -2.847234614e-15 0)
(3 -3.519009138e-15 0)
(3 -3.828804076e-15 0)
(3 -3.508063658e-15 0)
(3 -2.790816801e-15 0)
(3 -1.343871262e-15 0)
(3 1.914630129e-15 0)
(3 4.547343423e-15 0)
(3 4.264711268e-15 0)
(3 3.843585122e-15 0)
(3 1.307606323e-15 0)
(3 4.760239696e-16 0)
(3 -1.789550849e-15 0)
(3 -1.850502282e-15 0)
(3 -2.898790632e-15 0)
(3 -2.693989918e-15 0)
(3 -2.261352233e-15 0)
(3 -9.601855651e-16 0)
(3 -9.299168457e-16 0)
(3 1.138677994e-15 0)
(3 2.592184169e-15 0)
(3 4.329129589e-15 0)
(3 3.55694588e-15 0)
(3 2.18679507e-15 0)
(3 2.824243605e-15 0)
(3 2.611341844e-15 0)
(3 2.547593229e-15 0)
(3 3.424889718e-15 0)
(3 2.387833207e-15 0)
(3 1.678542208e-15 0)
(3 4.078413887e-17 0)
(3 -2.956973146e-15 0)
(3 -3.296495428e-15 0)
(3 -2.156827239e-15 0)
(3 -2.285020679e-15 0)
(3 -3.134387684e-15 0)
(3 -3.834146918e-15 0)
(3 -3.27719462e-15 0)
(3 -2.666625741e-15 0)
(3 -4.179740877e-15 0)
(3 -3.259510078e-15 0)
(3 -1.72055045e-15 0)
(3 -6.753927737e-16 0)
(3 1.119899124e-16 0)
(3 1.520948774e-15 0)
(3 2.423925301e-15 0)
(3 2.391341125e-15 0)
(3 8.86903081e-16 0)
(3 -1.075281407e-15 0)
(3 7.61713763e-17 0)
(3 8.083237505e-16 0)
(3 4.429787331e-16 0)
(3 -1.385975501e-16 0)
(3 -7.146934393e-16 0)
(3 -1.590575759e-15 0)
(3 1.488026616e-15 0)
(3 5.602980585e-15 0)
(3 1.135589754e-15 0)
(3 -2.747076651e-15 0)
(3 -4.221232892e-15 0)
(3 -5.370272601e-15 0)
(3 -3.311854924e-15 0)
(3 -2.815845827e-15 0)
(3 -5.853100269e-16 0)
(3 1.287054353e-15 0)
(3 1.245911793e-15 0)
(3 1.126115407e-15 0)
(3 1.536364904e-16 0)
(3 -2.9035468e-15 0)
(3 -2.624156964e-15 0)
(3 -1.756900727e-15 0)
(3 -2.255904423e-15 0)
(3 -2.09575996e-15 0)
(3 -4.218635332e-15 0)
(3 -5.057702316e-15 0)
(3 -4.186337671e-15 0)
(3 -3.142817165e-15 0)
(3 -2.107936048e-15 0)
(3 -1.810969507e-15 0)
(3 -2.274597336e-15 0)
(3 -2.700691411e-15 0)
(3 -1.586296198e-15 0)
(3 1.870701306e-15 0)
(3 2.88650557e-15 0)
(3 2.787733239e-15 0)
(3 4.468398719e-15 0)
(3 5.349425933e-15 0)
(3 1.704736614e-16 0)
(3 2.261962288e-16 0)
(3 -6.508823973e-16 0)
(3 8.253545481e-16 0)
(3 1.045951767e-15 0)
(3 1.200847983e-15 0)
(3 1.200131559e-15 0)
(3 -1.231795937e-16 0)
(3 -5.386452766e-16 0)
(3 -6.487790144e-16 0)
(3 -1.797826404e-15 0)
(3 -1.927586394e-15 0)
(3 -3.880207696e-15 0)
(3 -4.886687172e-15 0)
(3 -4.493877239e-15 0)
(3 -8.517312138e-16 0)
(3 6.816869776e-16 0)
(3 2.129955857e-15 0)
(3 3.070656352e-15 0)
(3 2.578238881e-15 0)
(3 2.844945273e-15 0)
(3 1.835653728e-15 0)
(3 -8.252250366e-18 0)
(3 -4.974424067e-16 0)
(3 -4.115028504e-16 0)
(3 5.0304127e-17 0)
(3 -7.886541223e-16 0)
(3 -3.098105351e-15 0)
(3 -2.83492285e-15 0)
(3 -2.792042812e-15 0)
(3 -3.500414526e-16 0)
(3 5.934021475e-16 0)
(3 4.884312454e-16 0)
(3 1.161271535e-15 0)
(3 3.428545687e-15 0)
(3 2.436093614e-15 0)
(3 9.052839962e-16 0)
(3 -2.602765339e-15 0)
(3 -2.75854316e-15 0)
(3 -7.378128797e-16 0)
(3 1.617797958e-15 0)
(3 8.153861237e-16 0)
(3 -1.472235489e-15 0)
(3 -4.046988679e-15 0)
(3 -4.823084545e-15 0)
(3 -3.556196129e-15 0)
(3 -1.417165213e-15 0)
(3 -7.808576188e-17 0)
(3 -2.533519574e-15 0)
(3 -1.636339796e-15 0)
(3 -1.26166197e-15 0)
(3 -1.426526569e-15 0)
(3 -8.86014058e-16 0)
(3 -9.971439087e-16 0)
(3 -5.589846376e-16 0)
(3 9.653921252e-17 0)
(3 2.255471726e-15 0)
(3 4.850094518e-15 0)
(3 5.693531644e-15 0)
(3 5.764680118e-15 0)
(3 4.537156383e-15 0)
(3 2.149438507e-15 0)
(3 2.752641625e-16 0)
(3 1.753393428e-15 0)
(3 2.184881268e-15 0)
(3 1.068865146e-15 0)
(3 7.865455241e-16 0)
(3 9.508516073e-16 0)
(3 1.512134819e-15 0)
(3 1.437133291e-15 0)
(3 -1.441317994e-15 0)
(3 -3.0809047e-15 0)
(3 -4.336217409e-15 0)
(3 -6.175682319e-15 0)
(3 -4.687849381e-15 0)
(3 -5.546045626e-15 0)
(3 -3.535525241e-15 0)
(3 7.963867619e-17 0)
(3 5.080395925e-16 0)
(3 8.770862187e-16 0)
(3 2.500757252e-15 0)
(3 1.135238435e-15 0)
(3 6.483216857e-16 0)
(3 1.223966109e-15 0)
(3 -2.663556158e-15 0)
(3 -3.468942415e-15 0)
(3 -4.351114731e-15 0)
(3 -5.26269381e-15 0)
(3 -5.457495029e-15 0)
(3 -5.532391674e-15 0)
(3 -4.887406041e-15 0)
(3 -5.664638454e-15 0)
(3 -5.026783777e-15 0)
(3 -3.939839137e-15 0)
(3 -3.01600212e-16 0)
(3 3.364697246e-15 0)
(3 6.043706614e-15 0)
(3 5.05780517e-15 0)
(3 3.176232002e-15 0)
(3 2.035767608e-15 0)
(3 -5.208351056e-17 0)
(3 9.838037919e-17 0)
(3 -2.578918265e-16 0)
(3 -4.376956409e-16 0)
(3 -3.729870832e-16 0)
(3 -8.326306883e-16 0)
(3 2.683614941e-16 0)
(3 -1.417894098e-15 0)
(3 -2.070213774e-15 0)
(3 -2.071028775e-15 0)
(3 -3.218729755e-15 0)
(3 -3.857716066e-15 0)
(3 -4.021455038e-15 0)
(3 -2.662814932e-15 0)
(3 -5.860345719e-16 0)
(3 8.42666439e-16 0)
(3 5.441228217e-16 0)
(3 8.571879375e-16 0)
(3 4.946671403e-16 0)
(3 3.535512557e-16 0)
(3 -7.140475735e-16 0)
(3 -1.99907412e-15 0)
(3 -2.290156407e-15 0)
(3 -2.098295395e-15 0)
(3 -2.484334031e-15 0)
(3 -2.201059432e-15 0)
(3 -3.139800987e-15 0)
(3 -2.447925236e-15 0)
(3 -1.61905015e-15 0)
(3 -2.01863588e-15 0)
(3 -2.298713918e-15 0)
(3 -2.479336368e-15 0)
(3 -3.119516687e-15 0)
(3 -7.754556056e-16 0)
(3 3.749098894e-16 0)
(3 1.656616416e-15 0)
(3 6.896135163e-16 0)
(3 -3.573206373e-16 0)
(3 -6.158034119e-16 0)
(3 -2.907359424e-16 0)
(3 -6.99272961e-16 0)
(3 8.894548081e-16 0)
(3 -8.135525037e-16 0)
(3 -2.84786592e-15 0)
(3 -3.009480617e-15 0)
(3 -1.141192631e-15 0)
(3 1.233858947e-15 0)
(3 2.087819613e-15 0)
(3 -8.6643461e-16 0)
(3 -1.737079731e-15 0)
(3 -1.946536668e-15 0)
(3 -1.961130928e-15 0)
(3 -7.969182086e-16 0)
(3 1.797472811e-15 0)
(3 -2.238896964e-16 0)
(3 5.247363237e-16 0)
(3 2.269317727e-15 0)
(3 3.828195888e-15 0)
(3 5.792441549e-15 0)
(3 6.06611341e-15 0)
(3 2.733498924e-15 0)
(3 -6.334462938e-16 0)
(3 -2.785643502e-15 0)
(3 -3.010645948e-15 0)
(3 -1.831922721e-15 0)
(3 -1.350133332e-15 0)
(3 -6.219096156e-16 0)
(3 4.613892679e-16 0)
(3 -1.087498507e-16 0)
(3 -2.177755547e-15 0)
(3 -8.446171104e-16 0)
(3 -6.619271347e-17 0)
(3 -2.050189533e-15 0)
(3 -4.408583096e-15 0)
(3 -6.130071542e-15 0)
(3 -6.403309291e-15 0)
(3 -5.382587481e-15 0)
(3 -4.624663785e-15 0)
(3 -2.523704208e-15 0)
(3 -1.088267926e-17 0)
(3 3.007714767e-15 0)
(3 3.10497123e-15 0)
(3 -2.343012815e-16 0)
(3 -2.361681401e-15 0)
(3 -2.163901779e-15 0)
(3 -2.791920841e-15 0)
(3 -2.89576962e-15 0)
(3 -3.752332809e-15 0)
(3 -5.866270783e-15 0)
(3 -6.339864541e-15 0)
(3 -5.536824192e-15 0)
(3 -4.837428636e-15 0)
(3 -4.189298105e-15 0)
(3 -3.719948424e-15 0)
(3 -1.560462054e-15 0)
(3 3.473015447e-16 0)
(3 3.048137522e-15 0)
(3 3.270344274e-15 0)
(3 3.482505758e-15 0)
(3 3.498294362e-15 0)
(3 4.41238701e-19 0)
(3 -7.722086194e-17 0)
(3 -1.109197454e-16 0)
(3 -1.395335407e-15 0)
(3 -2.025121581e-15 0)
(3 -2.969141179e-15 0)
(3 -1.611910904e-15 0)
(3 -2.140502932e-15 0)
(3 -3.480414425e-15 0)
(3 -4.701395593e-15 0)
(3 -2.543540078e-15 0)
(3 -3.433233275e-15 0)
(3 -2.223823098e-15 0)
(3 -2.396682764e-15 0)
(3 -2.782244514e-15 0)
(3 -4.228203837e-15 0)
(3 -4.709955698e-15 0)
(3 -4.92143182e-15 0)
(3 -3.367487817e-15 0)
(3 -2.282117807e-15 0)
(3 -2.732714135e-15 0)
(3 -3.609155059e-15 0)
(3 -3.882824485e-15 0)
(3 -5.754547579e-15 0)
(3 -6.681763276e-15 0)
(3 -6.281808825e-15 0)
(3 -5.109078758e-15 0)
(3 -2.271481036e-15 0)
(3 -1.713778e-15 0)
(3 -3.700451189e-15 0)
(3 -3.590783322e-15 0)
(3 -4.042952643e-15 0)
(3 1.056099321e-17 0)
(3 7.264872888e-16 0)
(3 3.344680544e-16 0)
(3 9.602977825e-16 0)
(3 5.21132644e-16 0)
(3 1.128484347e-15 0)
(3 1.231568645e-15 0)
(3 -2.826265708e-16 0)
(3 -2.452945234e-15 0)
(3 -3.829431329e-15 0)
(3 -3.403487546e-15 0)
(3 -2.944919922e-15 0)
(3 -3.618333333e-16 0)
(3 4.466212912e-15 0)
(3 3.683798293e-15 0)
(3 3.767057743e-15 0)
(3 3.326739162e-15 0)
(3 1.975913384e-15 0)
(3 1.218703831e-16 0)
(3 7.452342607e-17 0)
(3 -9.800429825e-16 0)
(3 3.97157543e-16 0)
(3 1.367454566e-15 0)
(3 2.477766662e-15 0)
(3 3.004894634e-15 0)
(3 2.168767217e-15 0)
(3 1.595247299e-15 0)
(3 1.734120261e-15 0)
(3 1.188775825e-16 0)
(3 -2.319498269e-15 0)
(3 -4.11016557e-15 0)
(3 -5.337728786e-15 0)
(3 -4.618298482e-15 0)
(3 -2.486286488e-15 0)
(3 -9.45531746e-16 0)
(3 1.078730611e-15 0)
(3 2.294832933e-15 0)
(3 8.889318916e-16 0)
(3 9.719373702e-16 0)
(3 -3.909231179e-16 0)
(3 -1.683911221e-15 0)
(3 -2.803910028e-15 0)
(3 -6.403630112e-15 0)
(3 -5.550546953e-15 0)
(3 -4.659336414e-15 0)
(3 -3.134346815e-15 0)
(3 -3.681827701e-16 0)
(3 -2.825552529e-16 0)
(3 -9.171020749e-16 0)
(3 -3.895695416e-16 0)
(3 -2.543780114e-15 0)
(3 -2.936224177e-15 0)
(3 -1.780409582e-17 0)
(3 -9.795693705e-16 0)
(3 -2.29917336e-15 0)
(3 -1.97340142e-15 0)
(3 -1.407702532e-15 0)
(3 -3.549873434e-15 0)
(3 -4.657286522e-15 0)
(3 -3.14568474e-15 0)
(3 -1.328954717e-15 0)
(3 -1.976174517e-15 0)
(3 -3.469607262e-15 0)
(3 -5.844204974e-15 0)
(3 -3.125519256e-15 0)
(3 -1.30702668e-16 0)
(3 1.190000131e-15 0)
(3 1.692365066e-15 0)
(3 -8.528144574e-17 0)
(3 -9.547771677e-16 0)
(3 -7.585390874e-16 0)
(3 -9.418941704e-16 0)
(3 -1.852062655e-15 0)
(3 -1.4592193e-15 0)
(3 -2.08113598e-15 0)
(3 -1.144889725e-15 0)
(3 -1.148957476e-15 0)
(3 -8.820362668e-16 0)
(3 -9.962947639e-16 0)
(3 -5.571760043e-16 0)
(3 9.787279584e-17 0)
(3 -5.907596314e-16 0)
(3 -1.560263024e-15 0)
(3 -1.336633106e-15 0)
(3 2.790395669e-16 0)
(3 6.492717165e-16 0)
(3 1.110736794e-15 0)
(3 3.198725942e-16 0)
(3 2.529531178e-16 0)
(3 -1.059901955e-15 0)
(3 -1.557315811e-15 0)
(3 -4.731229094e-15 0)
(3 -5.129221211e-15 0)
(3 -4.50885592e-15 0)
(3 -3.012193248e-15 0)
(3 -2.525025858e-15 0)
(3 -3.820866619e-15 0)
(3 -6.701721345e-15 0)
(3 -7.797111657e-15 0)
(3 -4.224011049e-15 0)
(3 -3.133349303e-16 0)
(3 2.185589601e-16 0)
(3 1.505063821e-15 0)
(3 2.148163496e-15 0)
(3 2.345723858e-15 0)
(3 1.8279872e-15 0)
(3 3.063856715e-18 0)
(3 -2.022133782e-15 0)
(3 -5.459605082e-15 0)
(3 -6.101627019e-15 0)
(3 -5.127073785e-15 0)
(3 -2.207378171e-15 0)
(3 1.184821995e-15 0)
(3 3.148084345e-15 0)
(3 3.731329458e-15 0)
(3 4.048738769e-15 0)
(3 4.436963632e-15 0)
(3 3.998938065e-15 0)
(3 2.659703078e-15 0)
(3 2.706619582e-15 0)
(3 3.352263798e-15 0)
(3 2.493078604e-15 0)
(3 2.605690923e-15 0)
(3 3.501071344e-15 0)
(3 4.766626483e-15 0)
(3 2.096727726e-15 0)
(3 3.451666268e-17 0)
(3 -1.95243503e-15 0)
(3 -3.275981289e-15 0)
(3 -1.736824232e-15 0)
(3 -2.725980786e-15 0)
(3 -3.891628644e-15 0)
(3 -5.352211355e-15 0)
(3 -4.738953424e-15 0)
(3 -2.589703147e-15 0)
(3 1.55510966e-15 0)
(3 2.187746361e-15 0)
(3 2.059447222e-15 0)
(3 6.327190169e-16 0)
(3 -8.917912636e-16 0)
(3 -7.800770244e-16 0)
(3 1.757572943e-16 0)
(3 -2.233139665e-15 0)
(3 -2.257511414e-15 0)
(3 -2.946502679e-15 0)
(3 -2.705856952e-15 0)
(3 -2.622693339e-15 0)
(3 -4.066661055e-15 0)
(3 -6.170808608e-15 0)
(3 -7.299065613e-15 0)
(3 -2.934924718e-15 0)
(3 -8.726807396e-16 0)
(3 -1.252347575e-15 0)
(3 -1.904571527e-15 0)
(3 -3.352049418e-15 0)
(3 -3.480276514e-15 0)
(3 -6.280670172e-16 0)
(3 -7.211449422e-16 0)
(3 -5.51229137e-16 0)
(3 2.879247857e-16 0)
(3 -1.248518041e-15 0)
(3 -1.613413756e-15 0)
(3 -4.889327489e-15 0)
(3 -7.006390179e-15 0)
(3 -8.630274851e-15 0)
(3 -5.401680711e-15 0)
(3 -1.117777898e-15 0)
(3 1.528461404e-16 0)
(3 -6.850706201e-17 0)
(3 -8.539433047e-16 0)
(3 -7.209775479e-16 0)
(3 -4.344729674e-16 0)
(3 -4.89379099e-16 0)
(3 -5.953342947e-16 0)
(3 -3.429059189e-15 0)
(3 -2.054005263e-15 0)
(3 3.781745205e-16 0)
(3 2.271494626e-15 0)
(3 7.081096808e-16 0)
(3 3.576251764e-16 0)
(3 1.364847683e-15 0)
(3 1.130286008e-15 0)
(3 1.117288968e-15 0)
(3 2.065758037e-15 0)
(3 3.275617641e-15 0)
(3 5.641551282e-15 0)
(3 3.898540648e-15 0)
(3 2.349568037e-15 0)
(3 1.397229734e-15 0)
(3 1.007821527e-15 0)
(3 -3.744099499e-16 0)
(3 -7.546247577e-16 0)
(3 -1.039233089e-15 0)
(3 -1.297019162e-15 0)
(3 -1.332414179e-15 0)
(3 -3.027012657e-15 0)
(3 -5.335372207e-15 0)
(3 -6.376238183e-15 0)
(3 -5.489103266e-15 0)
(3 -1.203486422e-15 0)
(3 -8.164797076e-16 0)
(3 -6.080509742e-18 0)
(3 2.421025689e-15 0)
(3 3.574430114e-15 0)
(3 6.286105639e-15 0)
(3 3.224301165e-15 0)
(3 2.117297147e-15 0)
(3 -1.087295429e-15 0)
(3 -3.877735278e-15 0)
(3 -3.158239756e-15 0)
(3 -4.158292398e-16 0)
(3 1.343100735e-15 0)
(3 -3.073198326e-16 0)
(3 -9.304872509e-16 0)
(3 1.494982976e-15 0)
(3 2.401883277e-15 0)
(3 4.172958228e-15 0)
(3 4.963763509e-15 0)
(3 4.581914657e-15 0)
(3 6.270514609e-15 0)
(3 8.735675546e-15 0)
(3 4.535871563e-15 0)
(3 1.479142581e-15 0)
(3 -1.602358923e-16 0)
(3 -1.947965341e-15 0)
(3 -4.006773629e-15 0)
(3 -4.078812598e-15 0)
(3 -3.915445816e-15 0)
(3 -3.577285415e-15 0)
(3 -2.842460227e-15 0)
(3 -1.975139256e-15 0)
(3 -1.806777785e-15 0)
(3 -1.320732902e-15 0)
(3 3.95967229e-16 0)
(3 -2.696592237e-16 0)
(3 6.946287051e-16 0)
(3 -1.066693939e-15 0)
(3 -2.130554939e-15 0)
(3 -3.123316782e-15 0)
(3 -3.302993848e-15 0)
(3 -2.254294038e-16 0)
(3 1.668004846e-15 0)
(3 2.334765883e-15 0)
(3 -5.324102167e-16 0)
(3 -3.629040975e-15 0)
(3 -8.04177171e-15 0)
(3 -7.968295023e-15 0)
(3 -7.413992006e-15 0)
(3 -7.92032536e-15 0)
(3 -9.242568906e-15 0)
(3 -4.497045221e-15 0)
(3 -2.252024644e-15 0)
(3 -1.506440671e-15 0)
(3 -1.608396085e-15 0)
(3 -1.580032184e-15 0)
(3 -7.632513091e-16 0)
(3 2.174361857e-15 0)
(3 1.738755232e-15 0)
(3 2.168689396e-15 0)
(3 3.336393335e-15 0)
(3 -2.419950473e-16 0)
(3 -2.6546071e-15 0)
(3 -6.657633313e-15 0)
(3 -8.40005283e-15 0)
(3 -9.754016363e-15 0)
(3 -6.379024573e-15 0)
(3 -2.272782966e-15 0)
(3 2.310243515e-15 0)
(3 -1.372613207e-17 0)
(3 -8.439766523e-17 0)
(3 -3.459795591e-16 0)
(3 -3.01205849e-16 0)
(3 -4.915267806e-16 0)
(3 -1.489295167e-15 0)
(3 -1.545012182e-15 0)
(3 -7.949396038e-16 0)
(3 -1.768495225e-16 0)
(3 1.130111521e-15 0)
(3 2.386559829e-15 0)
(3 2.1671858e-15 0)
(3 1.955396018e-15 0)
(3 1.263647975e-15 0)
(3 1.514689776e-15 0)
(3 7.95317965e-16 0)
(3 1.351008809e-16 0)
(3 -8.10588317e-16 0)
(3 -8.786757646e-16 0)
(3 -9.724985369e-16 0)
(3 -1.188410951e-15 0)
(3 1.017606298e-15 0)
(3 6.913463133e-16 0)
(3 1.631027632e-15 0)
(3 1.231250809e-15 0)
(3 -8.667446539e-16 0)
(3 -3.744188728e-15 0)
(3 -5.02083859e-15 0)
(3 -7.147501662e-15 0)
(3 -5.873547799e-15 0)
(3 -2.231217463e-15 0)
(3 -1.635703271e-15 0)
(3 -1.45572929e-15 0)
(3 -1.784096659e-15 0)
(3 -5.028193949e-18 0)
(3 2.485716589e-15 0)
(3 3.948299843e-15 0)
(3 3.303299037e-15 0)
(3 3.522686415e-15 0)
(3 2.797315514e-15 0)
(3 1.711238325e-15 0)
(3 -9.36796041e-16 0)
(3 -2.7978036e-16 0)
(3 1.273839039e-15 0)
(3 2.206902823e-15 0)
(3 1.46039695e-15 0)
(3 1.094325038e-15 0)
(3 8.196793454e-16 0)
(3 2.588642271e-15 0)
(3 4.604208985e-15 0)
(3 6.143851379e-15 0)
(3 7.238148469e-15 0)
(3 8.570571097e-15 0)
(3 1.025630449e-14 0)
(3 9.269869958e-15 0)
(3 6.112169785e-15 0)
(3 6.475625447e-16 0)
(3 -2.931810154e-15 0)
(3 -4.342052264e-15 0)
(3 -3.052107883e-15 0)
(3 -2.074658032e-15 0)
(3 -3.564707931e-15 0)
(3 -2.853992743e-15 0)
(3 -1.613455222e-15 0)
(3 -2.767271669e-17 0)
(3 1.591641034e-15 0)
(3 2.661473093e-16 0)
(3 -1.599084502e-15 0)
(3 -2.148259601e-15 0)
(3 -4.399345801e-15 0)
(3 -5.724988107e-15 0)
(3 -3.086147313e-15 0)
(3 -2.410599125e-15 0)
(3 -4.927662962e-16 0)
(3 3.33361894e-16 0)
(3 -1.183145263e-16 0)
(3 -2.534133501e-15 0)
(3 -8.046692233e-15 0)
(3 -9.519160456e-15 0)
(3 -8.133425942e-15 0)
(3 -8.49558077e-15 0)
(3 -7.497506873e-15 0)
(3 -5.57965308e-15 0)
(3 -4.998886829e-15 0)
(3 -1.699457275e-15 0)
(3 -3.149897632e-16 0)
(3 1.997704811e-15 0)
(3 4.851753638e-15 0)
(3 5.491395618e-15 0)
(3 6.090034903e-15 0)
(3 4.497719766e-15 0)
(3 2.16756964e-15 0)
(3 1.143453396e-15 0)
(3 -1.612215044e-15 0)
(3 -4.972849361e-15 0)
(3 -9.297891542e-15 0)
(3 -1.118948326e-14 0)
(3 -7.978323632e-15 0)
(3 -4.886736323e-15 0)
(3 -1.819245637e-15 0)
(3 2.473073734e-17 0)
(3 3.837607891e-16 0)
(3 -2.756722694e-16 0)
(3 -1.12228042e-15 0)