/*--------------------------------*- C++ -*----------------------------------*\
  =========                 |
  \\      /  F ield         | OpenFOAM: The Open Source CFD Toolbox
   \\    /   O peration     | Website:  https://openfoam.org
    \\  /    A nd           | Version:  7
     \\/     M anipulation  |
\*---------------------------------------------------------------------------*/
FoamFile
{
    version     2.0;
    format      ascii;
    class       volVectorField;
    location    "2.5";
    object      U;
}
// * * * * * * * * * * * * * * * * * * * * * * * * * * * * * * * * * * * * * //

dimensions      [0 1 -1 0 0 0 0];

internalField   nonuniform List<vector> 
558
(
(2.923915582 0.2213358802 0)
(2.903270081 0.2453800637 0)
(2.891994383 0.2502957059 0)
(2.890364119 0.2486633767 0)
(2.89074114 0.2444296366 0)
(2.895536494 0.2353452628 0)
(2.905433153 0.21823541 0)
(2.917797946 0.1961426077 0)
(3 8.338918629e-15 0)
(3 3.259051001e-12 0)
(2.999999998 3.937170416e-09 0)
(2.999999912 2.295988252e-07 0)
(2.999996686 8.264738719e-06 0)
(2.999933281 0.0001835050175 0)
(2.999342497 0.001670761299 0)
(2.994653845 0.01430444069 0)
(2.982419646 0.04554510225 0)
(2.944374039 0.1288165892 0)
(2.93886263 0.178122679 0)
(2.912274633 0.2532771292 0)
(2.900997882 0.2533125687 0)
(2.891095305 0.2474565431 0)
(2.890140282 0.247265088 0)
(2.89157907 0.2431967924 0)
(2.897160502 0.2332862226 0)
(2.906387197 0.2177253484 0)
(3 5.680166977e-15 0)
(3 3.542007009e-14 0)
(3 8.57887422e-11 0)
(2.999999998 5.035536897e-09 0)
(2.999999818 4.672178832e-07 0)
(2.999996468 9.210845797e-06 0)
(2.999914064 0.000225017589 0)
(2.999351669 0.001763286975 0)
(2.994359841 0.01484564134 0)
(2.981497329 0.04505018561 0)
(2.949122555 0.1326261706 0)
(2.923694621 0.2002099228 0)
(2.926231118 0.222165712 0)
(2.903477517 0.2435194334 0)
(2.891477136 0.2471217679 0)
(2.889889599 0.2462202497 0)
(2.891670523 0.2421676442 0)
(2.898100157 0.2320503674 0)
(3 2.739228182e-15 0)
(3 8.589448136e-15 0)
(3 9.055025552e-13 0)
(3 8.996893518e-11 0)
(2.999999995 1.305652479e-08 0)
(2.999999822 4.6359955e-07 0)
(2.999994684 1.328751772e-05 0)
(2.999917903 0.0002233724938 0)
(2.999210274 0.001986803406 0)
(2.994535784 0.01493328467 0)
(2.981476582 0.0473441743 0)
(2.944545054 0.1295415385 0)
(2.941019247 0.1802107371 0)
(2.913977558 0.2535240748 0)
(2.898119331 0.2496050935 0)
(2.88994534 0.2459617598 0)
(2.890103941 0.2456804459 0)
(2.892865683 0.2413102756 0)
(3 -3.260036878e-15 0)
(3 -5.280226723e-15 0)
(3 6.287081287e-15 0)
(3 8.504140286e-13 0)
(3 2.808786023e-10 0)
(2.999999995 1.262557307e-08 0)
(2.99999971 7.377822819e-07 0)
(2.999994893 1.316813612e-05 0)
(2.999895315 0.0002698955985 0)
(2.999263884 0.001991123207 0)
(2.993882598 0.0159687435 0)
(2.982011018 0.04514129787 0)
(2.947716414 0.1396996634 0)
(2.929304367 0.191526742 0)
(2.92558057 0.2232829923 0)
(2.901834115 0.2411991882 0)
(2.890684624 0.2452528066 0)
(2.890719368 0.2443929109 0)
(3 -1.517668597e-14 0)
(3 -4.616827964e-15 0)
(3 1.271706417e-15 0)
(3 1.289129297e-14 0)
(3 3.351451054e-12 0)
(3 2.430766448e-10 0)
(2.999999991 2.357788375e-08 0)
(2.999999748 6.548454825e-07 0)
(2.999992763 1.819137086e-05 0)
(2.999908606 0.0002450837241 0)
(2.999066205 0.002327808073 0)
(2.994599296 0.01493195479 0)
(2.98033842 0.04972577439 0)
(2.94641636 0.1284929158 0)
(2.943229801 0.1824354902 0)
(2.91351452 0.2534026688 0)
(2.894847273 0.2468544396 0)
(2.890323569 0.2445089776 0)
(3 -1.463277791e-14 0)
(3 -1.03218318e-14 0)
(3 -1.479873914e-15 0)
(3 5.32732642e-15 0)
(3 3.679227606e-14 0)
(3 2.866985193e-12 0)
(3 4.819674878e-10 0)
(2.999999992 2.004612487e-08 0)
(2.999999634 9.370079277e-07 0)
(2.999993739 1.623434935e-05 0)
(2.999884918 0.0002923230969 0)
(2.999191066 0.002169454022 0)
(2.993662518 0.01602012093 0)
(2.981751631 0.04602682029 0)
(2.947989959 0.142390203 0)
(2.934024075 0.1854017876 0)
(2.923573664 0.2230404164 0)
(2.899944963 0.2389463702 0)
(3 -1.104383314e-14 0)
(3 -1.137595566e-14 0)
(3 -1.263910081e-14 0)
(3 -1.103697049e-15 0)
(3 3.876697016e-15 0)
(3 2.474024671e-14 0)
(3 5.91095515e-12 0)
(3 3.737872422e-10 0)
(2.999999988 3.138679892e-08 0)
(2.999999708 7.590177328e-07 0)
(2.999991447 2.165862619e-05 0)
(2.999905977 0.0002480174117 0)
(2.998956579 0.002564295132 0)
(2.994675433 0.01445365396 0)
(2.979207892 0.05167794733 0)
(2.949096586 0.1264857153 0)
(2.943421696 0.185267152 0)
(2.911531145 0.2529783478 0)
(3 -7.080314787e-15 0)
(3 -1.067707995e-14 0)
(3 -1.199682922e-14 0)
(3 -3.952263586e-15 0)
(3 -1.526912905e-15 0)
(3 -8.920548699e-16 0)
(3 2.550750298e-14 0)
(3 4.762674548e-12 0)
(3 6.030197564e-10 0)
(2.99999999 2.48974787e-08 0)
(2.999999586 1.058551532e-06 0)
(2.999992979 1.824737774e-05 0)
(2.99987948 0.0003023039456 0)
(2.99914082 0.002288286323 0)
(2.99355597 0.01580257361 0)
(2.98149096 0.04707536598 0)
(2.948429919 0.1421468484 0)
(2.936325458 0.1817996812 0)
(3 -3.761032793e-15 0)
(3 -1.064267778e-14 0)
(3 -1.142326759e-14 0)
(3 -3.64857746e-15 0)
(3 -9.3474814e-16 0)
(3 -3.284730266e-15 0)
(3 -4.535532542e-15 0)
(3 4.42589816e-14 0)
(3 7.755914215e-12 0)
(3 4.824355654e-10 0)
(2.999999986 3.763883731e-08 0)
(2.999999673 8.451585902e-07 0)
(2.999990413 2.448101336e-05 0)
(2.999904267 0.0002516753125 0)
(2.998885552 0.002721901442 0)
(2.994732156 0.01407841808 0)
(2.978514863 0.05263549652 0)
(2.950548557 0.1257342855 0)
(3 -3.406944253e-16 0)
(3 -7.660279476e-15 0)
(3 -9.539096142e-15 0)
(3 -5.678394666e-15 0)
(3 -3.16357249e-15 0)
(3 -6.200776878e-15 0)
(3 -3.171376074e-15 0)
(3 -4.454726961e-15 0)
(3 4.581845254e-14 0)
(3 7.519664241e-12 0)
(3 7.380697937e-10 0)
(2.999999988 3.01576872e-08 0)
(2.999999539 1.185757596e-06 0)
(2.999992365 1.994124191e-05 0)
(2.999874213 0.0003134897482 0)
(2.999102047 0.002376180522 0)
(2.993472349 0.01571560926 0)
(2.981313956 0.04770637896 0)
(3 5.837761659e-16 0)
(3 -2.933616211e-15 0)
(3 -5.022644552e-15 0)
(3 -8.537549867e-15 0)
(3 -5.640298295e-15 0)
(3 -4.517197821e-15 0)
(3 -3.363683885e-15 0)
(3 -6.185514283e-15 0)
(3 -5.203109969e-15 0)
(3 8.274021705e-14 0)
(3 1.053115475e-11 0)
(3 6.367685787e-10 0)
(2.999999983 4.40366044e-08 0)
(2.999999637 9.363874196e-07 0)
(2.999989424 2.71211997e-05 0)
(2.999899919 0.0002621205171 0)
(2.998830365 0.002844039997 0)
(2.994653124 0.01416368652 0)
(3 2.251695972e-15 0)
(3 -1.197639641e-17 0)
(3 -3.956916179e-15 0)
(3 -7.051942408e-15 0)
(3 -5.501757754e-15 0)
(3 -4.254086799e-15 0)
(3 -1.130173266e-15 0)
(3 -3.128846279e-16 0)
(3 -2.236639652e-15 0)
(3 -4.741030275e-15 0)
(3 8.554312754e-14 0)
(3 1.171679202e-11 0)
(3 8.973352437e-10 0)
(2.999999986 3.574461748e-08 0)
(2.999999484 1.332537904e-06 0)
(2.999991631 2.193207117e-05 0)
(2.999866584 0.0003319314644 0)
(2.999058433 0.002482396762 0)
(3 3.344780654e-15 0)
(3 -3.046043409e-15 0)
(3 -8.168521576e-15 0)
(3 -1.079688338e-14 0)
(3 -1.089084643e-14 0)
(3 -1.50924837e-14 0)
(3 -1.023337968e-14 0)
(3 -5.834054053e-15 0)
(3 -5.464787631e-15 0)
(3 -1.048593318e-14 0)
(3 -6.502021085e-15 0)
(3 1.634186831e-13 0)
(3 1.421384138e-11 0)
(3 8.147503798e-10 0)
(2.999999981 5.087210582e-08 0)
(2.999999594 1.050714849e-06 0)
(2.999988447 2.975335883e-05 0)
(2.999892813 0.0002807922969 0)
(3 -2.561739132e-15 0)
(3 -8.050724739e-15 0)
(3 -1.098376367e-14 0)
(3 -9.787578602e-15 0)
(3 -8.948692494e-15 0)
(3 -1.168994696e-14 0)
(3 -1.21482864e-14 0)
(3 -1.392385731e-14 0)
(3 -1.340995803e-14 0)
(3 -1.234623019e-14 0)
(3 -1.140291669e-14 0)
(3 5.567207229e-16 0)
(3 1.514199403e-13 0)
(3 1.645738033e-11 0)
(3 1.065815001e-09 0)
(2.999999984 4.108229008e-08 0)
(2.99999943 1.47950382e-06 0)
(2.999990918 2.389758118e-05 0)
(3 -5.923763383e-15 0)
(3 -9.222485743e-15 0)
(3 -1.332052408e-14 0)
(3 -1.127531679e-14 0)
(3 -1.078998905e-14 0)
(3 -5.181565027e-15 0)
(3 -9.715468734e-15 0)
(3 -1.616964549e-14 0)
(3 -1.698276218e-14 0)
(3 -1.350481046e-14 0)
(3 -7.40971808e-15 0)
(3 3.219269123e-16 0)
(3 2.107698913e-14 0)
(3 2.647554234e-13 0)
(3 1.785520563e-11 0)
(3 9.578386149e-10 0)
(2.999999979 5.6737462e-08 0)
(2.999999555 1.156909132e-06 0)
(3 -2.951554265e-15 0)
(3 -1.081226114e-14 0)
(3 -1.457272281e-14 0)
(3 -1.522367846e-14 0)
(3 -1.466370693e-14 0)
(3 -1.324597827e-14 0)
(3 -1.431215638e-14 0)
(3 -1.497591881e-14 0)
(3 -1.644716437e-14 0)
(3 -1.091670582e-14 0)
(3 -8.104459169e-15 0)
(3 7.78286068e-15 0)
(3 1.394202803e-14 0)
(3 2.939243977e-14 0)
(3 2.318335603e-13 0)
(3 1.988708012e-11 0)
(3 1.200701062e-09 0)
(2.999999983 4.485040737e-08 0)
(3 3.308901586e-15 0)
(3 -6.715452138e-15 0)
(3 -1.165343264e-14 0)
(3 -1.428018153e-14 0)
(3 -1.770279534e-14 0)
(3 -2.237816493e-14 0)
(3 -1.551431681e-14 0)
(3 -1.236370158e-14 0)
(3 -8.702793347e-15 0)
(3 -8.074592331e-15 0)
(3 -2.903005805e-15 0)
(3 7.768824483e-15 0)
(3 1.079289532e-14 0)
(3 1.417447985e-14 0)
(3 2.245747858e-14 0)
(3 3.102729424e-13 0)
(3 2.060528376e-11 0)
(3 1.037731346e-09 0)
(3 2.478720543e-15 0)
(3 -1.218280571e-15 0)
(3 -7.535350582e-15 0)
(3 -1.33857274e-14 0)
(3 -1.73427762e-14 0)
(3 -2.12766104e-14 0)
(3 -1.657190527e-14 0)
(3 -4.657720642e-15 0)
(3 3.134274876e-16 0)
(3 9.79872185e-16 0)
(3 7.295716906e-15 0)
(3 1.748204394e-14 0)
(3 1.594435856e-14 0)
(3 1.611577992e-14 0)
(3 2.056772175e-14 0)
(3 3.093856967e-14 0)
(3 2.539472911e-13 0)
(3 2.131368878e-11 0)
(3 -6.575036601e-15 0)
(3 -4.809388285e-15 0)
(3 -2.68409316e-15 0)
(3 -1.010607873e-14 0)
(3 -1.667983028e-14 0)
(3 -2.072977856e-14 0)
(3 -1.778810886e-14 0)
(3 -4.536944945e-15 0)
(3 3.586595524e-15 0)
(3 5.917966942e-15 0)
(3 7.703764669e-15 0)
(3 1.890042152e-14 0)
(3 1.963451412e-14 0)
(3 2.233211568e-14 0)
(3 2.578078566e-14 0)
(3 2.861963381e-14 0)
(3 2.121068885e-14 0)
(3 3.125171179e-13 0)
(3 -9.214613661e-15 0)
(3 -6.090536547e-15 0)
(3 1.021932831e-15 0)
(3 -2.605731787e-15 0)
(3 -1.089309826e-14 0)
(3 -1.976633686e-14 0)
(3 -1.709064985e-14 0)
(3 -1.311738476e-14 0)
(3 -2.104660304e-15 0)
(3 5.98125671e-15 0)
(3 1.331107511e-14 0)
(3 1.898168106e-14 0)
(3 1.581570273e-14 0)
(3 2.215229806e-14 0)
(3 1.958509394e-14 0)
(3 2.054188199e-14 0)
(3 1.637924077e-14 0)
(3 2.053465016e-14 0)
(3 -1.516501447e-14 0)
(3 -4.51727708e-15 0)
(3 8.121341514e-15 0)
(3 8.147462742e-15 0)
(3 -1.487495062e-15 0)
(3 -7.82807789e-15 0)
(3 -6.252696597e-15 0)
(3 -3.257983993e-15 0)
(3 4.614413067e-15 0)
(3 1.103567735e-14 0)
(3 1.93728461e-14 0)
(3 1.747755905e-14 0)
(3 1.413318833e-14 0)
(3 1.586244167e-14 0)
(3 1.383006765e-14 0)
(3 1.577211981e-14 0)
(3 1.228619628e-14 0)
(3 8.275056155e-15 0)
(3 1.331012191e-14 0)
(3 -1.717162394e-14 0)
(3 -3.835762543e-16 0)
(3 8.716111508e-15 0)
(3 1.083389471e-14 0)
(3 3.11812764e-15 0)
(3 1.655562241e-15 0)
(3 2.330950524e-15 0)
(3 3.810864595e-15 0)
(3 1.178129219e-14 0)
(3 1.684724743e-14 0)
(3 1.477109315e-14 0)
(3 1.155144054e-14 0)
(3 1.277980587e-14 0)
(3 9.224491349e-15 0)
(3 1.174576829e-14 0)
(3 1.170708188e-14 0)
(3 1.018991689e-14 0)
(3 8.350698839e-15 0)
(3 1.138098814e-14 0)
(3 -1.120993565e-14 0)
(3 4.288071486e-16 0)
(3 1.032033096e-14 0)
(3 1.541431372e-14 0)
(3 1.254322113e-14 0)
(3 3.995161034e-15 0)
(3 1.763318371e-15 0)
(3 5.350053918e-15 0)
(3 1.159918706e-14 0)
(3 1.398056846e-14 0)
(3 1.355587065e-14 0)
(3 1.379188431e-14 0)
(3 1.543483059e-14 0)
(3 1.009409674e-14 0)
(3 9.831200891e-15 0)
(3 9.479101619e-15 0)
(3 1.007064888e-14 0)
(3 1.345722189e-14 0)
(3 1.443748353e-14 0)
(3 -1.478752112e-14 0)
(3 -5.295095132e-15 0)
(3 2.511265638e-15 0)
(3 9.496638297e-15 0)
(3 1.07440425e-14 0)
(3 8.589742714e-15 0)
(3 3.490947345e-15 0)
(3 1.080562397e-14 0)
(3 1.053577128e-14 0)
(3 1.23350985e-14 0)
(3 1.406773025e-14 0)
(3 7.750526304e-15 0)
(3 9.396545024e-15 0)
(3 1.059512229e-14 0)
(3 1.101777251e-14 0)
(3 1.005823904e-14 0)
(3 1.462852389e-14 0)
(3 1.645577263e-14 0)
(3 1.357871425e-14 0)
(3 -1.266601374e-14 0)
(3 -7.375683185e-15 0)
(3 -2.183520879e-15 0)
(3 2.418655393e-15 0)
(3 7.526737554e-15 0)
(3 1.283342141e-14 0)
(3 1.269601829e-14 0)
(3 1.195767201e-14 0)
(3 1.07573536e-14 0)
(3 1.109134375e-14 0)
(3 9.307540078e-15 0)
(3 4.666536366e-15 0)
(3 1.635207109e-15 0)
(3 2.985752667e-15 0)
(3 7.188798922e-15 0)
(3 8.114863494e-15 0)
(3 5.414396853e-15 0)
(3 4.925081763e-15 0)
(3 9.799524588e-15 0)
(3 -9.875508268e-15 0)
(3 -6.059116007e-15 0)
(3 -3.923151932e-15 0)
(3 -4.816431113e-15 0)
(3 6.443723161e-15 0)
(3 1.208555595e-14 0)
(3 1.499208895e-14 0)
(3 9.456950398e-15 0)
(3 1.193365016e-14 0)
(3 9.481965964e-15 0)
(3 5.79859884e-15 0)
(3 4.738929069e-15 0)
(3 3.299421891e-15 0)
(3 2.076692329e-15 0)
(3 3.578214644e-15 0)
(3 5.746823644e-15 0)
(3 -1.505718358e-15 0)
(3 -3.839712878e-15 0)
(3 2.051843514e-15 0)
(3 -8.090262673e-15 0)
(3 -4.100318674e-15 0)
(3 -7.720566241e-15 0)
(3 -6.944930821e-15 0)
(3 2.868053544e-15 0)
(3 1.401778896e-14 0)
(3 1.424631293e-14 0)
(3 8.616137961e-15 0)
(3 6.86136771e-15 0)
(3 9.01062707e-15 0)
(3 3.19325973e-15 0)
(3 3.01888388e-15 0)
(3 4.69934442e-15 0)
(3 4.251633459e-15 0)
(3 2.589736902e-15 0)
(3 5.477201639e-16 0)
(3 -1.666900538e-15 0)
(3 -4.874813663e-15 0)
(3 -2.025398573e-15 0)
(3 -1.147666784e-14 0)
(3 -8.403637037e-15 0)
(3 -8.833855616e-15 0)
(3 -5.721332547e-15 0)
(3 9.757554224e-16 0)
(3 2.899475305e-15 0)
(3 4.596903927e-15 0)
(3 5.502839417e-15 0)
(3 3.90812146e-15 0)
(3 5.526195766e-15 0)
(3 2.204921771e-15 0)
(3 3.144931541e-15 0)
(3 4.568805207e-15 0)
(3 5.502685353e-15 0)
(3 4.960899668e-15 0)
(3 -2.901310871e-16 0)
(3 -3.961878063e-15 0)
(3 -4.966004479e-15 0)
(3 -3.148263885e-15 0)
(3 -8.734579033e-15 0)
(3 -5.966110056e-15 0)
(3 -5.134334103e-15 0)
(3 -1.237453291e-15 0)
(3 3.711842821e-16 0)
(3 -6.672743739e-18 0)
(3 1.908481229e-15 0)
(3 5.529516146e-15 0)
(3 2.711123753e-15 0)
(3 -1.058321699e-15 0)
(3 -1.004300187e-15 0)
(3 -3.20778488e-15 0)
(3 -1.928113894e-15 0)
(3 5.054306432e-15 0)
(3 3.792844423e-15 0)
(3 1.574955139e-15 0)
(3 -1.955796345e-15 0)
(3 -4.050209071e-15 0)
(3 -7.880721523e-16 0)
(3 -2.538055389e-15 0)
(3 -1.455550501e-15 0)
(3 -2.182182179e-15 0)
(3 -5.696692181e-16 0)
(3 2.395806518e-16 0)
(3 1.52065131e-16 0)
(3 1.032986857e-15 0)
(3 1.128224399e-15 0)
(3 2.491239935e-15 0)
(3 6.292842794e-16 0)
(3 -2.357128914e-16 0)
(3 -2.589175302e-15 0)
(3 -2.552059018e-15 0)
(3 1.593822219e-15 0)
(3 9.346761701e-16 0)
(3 1.931642406e-15 0)
(3 1.736375534e-16 0)
(3 -2.717820625e-15 0)
(3 -1.397526377e-15 0)
)
;

boundaryField
{
    inlet
    {
        type            fixedValue;
        value           nonuniform 0();
    }
    outlet
    {
        type            inletOutlet;
        inletValue      nonuniform 0();
        value           nonuniform 0();
    }
    bottom
    {
        type            slip;
    }
    top
    {
        type            slip;
    }
    obstacle
    {
        type            slip;
    }
    defaultFaces
    {
        type            empty;
    }
    procBoundary33to26
    {
        type            processor;
        value           nonuniform List<vector> 
13
(
(3 9.997460569e-15 0)
(3 7.436688947e-15 0)
(3 -3.719819293e-15 0)
(3 -6.812214202e-15 0)
(3 -1.512405026e-14 0)
(3 -1.478922959e-14 0)
(3 -1.138781268e-14 0)
(3 -4.996207179e-15 0)
(3 -1.553561724e-15 0)
(3 3.368186794e-15 0)
(3 6.03345697e-15 0)
(3 3.102894567e-15 0)
(3 -5.059327815e-16 0)
)
;
    }
    procBoundary33to27
    {
        type            processor;
        value           nonuniform List<vector> 
19
(
(2.899753214 0.2564430516 0)
(2.890945431 0.2498280846 0)
(2.889778499 0.2491922747 0)
(2.890376601 0.2456075246 0)
(2.894779234 0.236445456 0)
(2.904025908 0.2198461919 0)
(2.916474999 0.1972894104 0)
(2.930101569 0.1714273764 0)
(3 1.006367101e-14 0)
(3 3.584653791e-10 0)
(2.999999933 1.700706482e-07 0)
(2.999998097 4.951825172e-06 0)
(2.999938538 0.000159161523 0)
(2.999427113 0.001534926836 0)
(2.994938138 0.01325576757 0)
(2.980646434 0.04625792713 0)
(2.952386673 0.1256705884 0)
(2.920308821 0.2090303795 0)
(2.920308821 0.2090303795 0)
)
;
    }
    procBoundary33to32
    {
        type            processor;
        value           nonuniform List<vector> 
17
(
(3 -7.84527668e-16 0)
(3 1.156299927e-15 0)
(3 8.944930028e-15 0)
(3 8.278619149e-15 0)
(3 1.676258047e-15 0)
(3 -4.794093603e-15 0)
(3 -1.238769377e-14 0)
(3 -2.12095142e-14 0)
(3 -2.813359891e-14 0)
(3 -2.339737426e-14 0)
(3 -1.883324034e-14 0)
(3 -9.994700974e-15 0)
(3 -8.505867309e-15 0)
(3 -8.638599934e-15 0)
(3 -1.074526768e-14 0)
(3 -6.574481095e-15 0)
(3 -1.606152076e-15 0)
)
;
    }
    procBoundary33to34
    {
        type            processor;
        value           nonuniform List<vector> 
32
(
(2.930859329 0.1710176769 0)
(2.919717557 0.1936283277 0)
(2.908133457 0.2158468796 0)
(2.8994023 0.2311287962 0)
(2.893739195 0.2399316942 0)
(2.891410542 0.243273191 0)
(2.891331503 0.2435042078 0)
(2.893148367 0.2454637163 0)
(2.921380399 0.2216816412 0)
(2.941787533 0.1864148632 0)
(2.94855409 0.1412936434 0)
(2.978325809 0.05295725257 0)
(2.993367323 0.01591754694 0)
(2.998793815 0.00292485511 0)
(2.99985779 0.0003541048033 0)
(2.999987702 3.170931916e-05 0)
(2.999999386 1.597952928e-06 0)
(2.999999977 6.065397823e-08 0)
(3 1.28878162e-09 0)
(3 2.22682381e-11 0)
(3 2.594080023e-13 0)
(3 2.594080023e-13 0)
(3 2.933434544e-13 0)
(3 1.949719412e-14 0)
(3 1.308789835e-14 0)
(3 8.228764484e-15 0)
(3 1.037385883e-14 0)
(3 4.540497507e-15 0)
(3 2.03948498e-15 0)
(3 -2.143602612e-15 0)
(3 2.364438304e-16 0)
(3 1.694811196e-15 0)
)
;
    }
}


// ************************************************************************* //
