/*--------------------------------*- C++ -*----------------------------------*\
  =========                 |
  \\      /  F ield         | OpenFOAM: The Open Source CFD Toolbox
   \\    /   O peration     | Website:  https://openfoam.org
    \\  /    A nd           | Version:  7
     \\/     M anipulation  |
\*---------------------------------------------------------------------------*/
FoamFile
{
    version     2.0;
    format      ascii;
    class       volScalarField;
    location    "2";
    object      rho;
}
// * * * * * * * * * * * * * * * * * * * * * * * * * * * * * * * * * * * * * //

dimensions      [1 -3 0 0 0 0 0];

internalField   nonuniform List<scalar> 
2222
(
1.256965228
1.248706273
1.248803807
1.251203521
1.255402048
1.26409036
1.26964384
1.270316346
1.27177592
1.273491001
1.274838461
1.275422283
1.275280578
1.275116845
1.276245452
1.277480802
1.277870765
1.274846684
0.9443987835
1.177573588
1.25887048
1.276850615
1.266076691
1.257771413
1.249677858
1.248859624
1.252314309
1.260957715
1.268510066
1.270857638
1.271489723
1.271260611
1.272613492
1.274367252
1.275387255
1.275865296
1.276168864
1.276534526
1.27752803
1.27662389
1.273386316
0.9377626644
1.147709493
1.252048168
1.274423686
1.266430885
1.260321441
1.257273964
1.258841887
1.264177518
1.2673254
1.268830191
1.269993174
1.270876115
1.272165409
1.273705186
1.275787423
1.276914445
1.277360489
1.278099366
1.279057964
1.278449963
1.276752609
1.273736938
0.9283332841
1.091028353
1.217560165
1.269319469
1.270987149
1.270429781
1.272541472
1.276119514
1.274944594
1.271402138
1.269171869
1.270005309
1.272008351
1.275891378
1.280219623
1.281176266
1.28122529
1.281294011
1.281689893
1.282119699
1.280726403
1.278246314
1.275945927
0.9175624829
1.029357704
1.169706865
1.260542562
1.28550634
1.286166587
1.286030585
1.284679609
1.280743542
1.274762373
1.272144351
1.272166795
1.276094863
1.283106097
1.286824007
1.287175488
1.286246524
1.285771755
1.285518984
1.285132893
1.28469873
1.283156053
1.282304132
0.9042549377
0.9837456439
1.138365979
1.263282993
1.298037487
1.297258101
1.293157432
1.287727935
1.282459961
1.279503755
1.277350171
1.278937915
1.285269569
1.289470194
1.290965747
1.291584311
1.291869538
1.291399818
1.290580314
1.289896166
1.290481344
1.291290354
1.291032728
1.289470023
0.8913999109
0.953776757
1.089695674
1.256501329
1.298795836
1.300655775
1.296641478
1.287883542
1.283116757
1.282252474
1.283423157
1.289243927
1.293875551
1.294854632
1.294545468
1.295130875
1.296083383
1.296866179
1.296880647
1.296572007
1.298283033
1.299921878
1.299908483
1.297863852
0.8847255035
0.9259579849
1.030865191
1.219190517
1.291279732
1.300925666
1.291362465
1.288390084
1.286586314
1.286433912
1.291895951
1.296814578
1.299089048
1.298681667
1.29835924
1.299617643
1.300974167
1.301978456
1.302548204
1.303780659
1.306306919
1.307896485
1.308534434
1.306341612
0.8776754134
0.9078781371
0.9978338975
1.138001291
1.254939473
1.29210445
1.290745159
1.292612116
1.294871981
1.296735719
1.299708891
1.301436155
1.30098208
1.301175994
1.303560552
1.30636576
1.307717257
1.308194197
1.308934016
1.310766182
1.312730996
1.314290542
1.314943611
1.31286641
0.8672335747
0.897020098
0.9692736739
1.091345843
1.227373653
1.287632073
1.295361616
1.302794073
1.306115096
1.306622658
1.306331743
1.30528902
1.30339587
1.305756677
1.311112827
1.315087263
1.316338354
1.316302809
1.316477005
1.317519768
1.318909636
1.320251836
1.319976661
1.31742165
0.8627284901
0.8867923516
0.930803161
1.064356255
1.222238376
1.29143838
1.307460492
1.31410139
1.315382772
1.313424479
1.310715605
1.307233948
1.308393914
1.313437699
1.319194527
1.322558854
1.324052912
1.324646714
1.324605647
1.324674719
1.32494768
1.324519189
1.323323658
1.322126107
0.862116276
0.8777357632
0.9072345141
1.022322875
1.203916002
1.302815714
1.31978878
1.323086145
1.32315892
1.318625628
1.312536623
1.312379684
1.315811587
1.321688914
1.326206246
1.329512655
1.331027257
1.331831446
1.332282373
1.33210076
1.33044173
1.329321214
1.328497255
1.327577829
1.326876792
0.8586382157
0.8708670116
0.8979206339
0.9805285695
1.145918984
1.297579622
1.326686352
1.331584406
1.327904469
1.320348614
1.317918164
1.319744447
1.325118563
1.329621164
1.333432674
1.334842589
1.336497778
1.338560457
1.339103821
1.337820869
1.336528486
1.336351981
1.335817622
1.33470802
1.333251354
0.8545227047
0.8649762971
0.892335989
0.9520974452
1.080021743
1.243924921
1.32458698
1.33249688
1.32902411
1.327100519
1.326775105
1.330611191
1.334517509
1.337767549
1.337809396
1.338997928
1.341760858
1.344019288
1.344642347
1.343973856
1.343885532
1.344349977
1.344633479
1.343920999
1.342216854
0.8521203035
0.8601990152
0.881410258
0.9257089922
1.042997259
1.195651017
1.302139997
1.331571698
1.336034614
1.336885542
1.338793969
1.341754011
1.343978406
1.342949947
1.342773456
1.345879246
1.349222116
1.350816421
1.351178164
1.351081548
1.351808431
1.353022598
1.353561626
1.35322131
1.351314352
0.8485511355
0.8576405519
0.8722769701
0.9070507462
1.011692855
1.171354548
1.285986465
1.334612084
1.34621648
1.349706049
1.350913021
1.351985954
1.350158538
1.34839563
1.350387211
1.354449192
1.35784104
1.358586722
1.358682492
1.358969671
1.360201813
1.361521635
1.362258736
1.36220802
1.360675799
0.8460938247
0.8555264149
0.8682057599
0.8972972625
0.9739709077
1.138316676
1.286398571
1.341640901
1.359175494
1.361142344
1.361085582
1.358621968
1.354944315
1.355635193
1.35932774
1.364271238
1.366664536
1.366947835
1.367255623
1.36768992
1.368696197
1.369769833
1.370282239
1.369658532
1.368322264
0.8440046664
0.8524247164
0.8635079525
0.8902683591
0.9471632558
1.0796357
1.266182987
1.352016914
1.369381096
1.3712133
1.367243175
1.361854279
1.360823054
1.363831291
1.368651853
1.372595819
1.373965416
1.37490109
1.375870333
1.376211988
1.376508803
1.376891432
1.376933681
1.376744629
1.376017728
0.8422421656
0.8491885007
0.8605417935
0.8825417063
0.928143924
1.034367381
1.208338576
1.347148926
1.374904357
1.37628176
1.369251706
1.366516051
1.368402083
1.372663568
1.376460322
1.377845063
1.378783974
1.381276589
1.382967488
1.383185977
1.383126182
1.383523717
1.383870205
1.383772839
1.383205451
1.382557496
0.8423653124
0.8464291612
0.858682566
0.8762070752
0.9151881952
1.003777066
1.153119813
1.300584414
1.368247302
1.375126703
1.372871923
1.373968846
1.37719952
1.380487017
1.380909197
1.380689927
1.383252481
1.386765852
1.388858915
1.389243129
1.389246615
1.389611731
1.39026782
1.390180558
1.389541953
1.388899308
0.841282153
0.8445160971
0.855868859
0.8738199565
0.9064107913
0.9741298724
1.116148365
1.260290449
1.348914742
1.375519791
1.378815442
1.382056176
1.385060992
1.385073134
1.383605389
1.384585556
1.387945492
1.391271684
1.393398895
1.394132971
1.394420328
1.394720443
1.395434244
1.39549612
1.394748749
1.394017485
0.8400638927
0.8430893088
0.8536779356
0.8710787679
0.8977972733
0.951710478
1.071266232
1.238394204
1.340775406
1.378914199
1.385643783
1.389015116
1.389807691
1.387397759
1.386715557
1.388635309
1.392063016
1.39488018
1.396958762
1.397983862
1.39820815
1.398351597
1.398571973
1.398670573
1.398135344
1.397484542
0.8390536022
0.8420173388
0.8517692575
0.8677709773
0.8909232582
0.9353119857
1.025967184
1.204967618
1.344314334
1.387934436
1.391142264
1.3924408
1.390990958
1.388554441
1.389452604
1.392059644
1.39514151
1.397542241
1.399311248
1.400109369
1.399830564
1.400116666
1.400932329
1.40156972
1.400540705
1.400127614
0.8378087544
0.8407601725
0.8506155316
0.8662559582
0.8870024536
0.9230023598
0.9985925249
1.148188541
1.325979543
1.388980899
1.3943348
1.393611899
1.390559332
1.390387508
1.392239593
1.394937691
1.397480693
1.399530888
1.400627233
1.40094841
1.401551612
1.402599824
1.404009622
1.404719765
1.403459912
1.403240653
0.8363207652
0.8399493705
0.8499563556
0.8649201415
0.8852901721
0.915742851
0.9756366898
1.099114293
1.269397069
1.378628665
1.394992202
1.393283082
1.392295639
1.394452486
1.396523701
1.397924562
1.399203172
1.400823918
1.401793266
1.402555802
1.404008083
1.405246662
1.406052637
1.406544232
1.40544492
1.405211834
1.404790276
0.8356987075
0.8397528526
0.8500777968
0.8647165496
0.8843496612
0.9095701984
0.9531866078
1.056479167
1.208896166
1.341042804
1.384993737
1.392403552
1.39545872
1.398890981
1.399707473
1.399426298
1.399810036
1.401371196
1.402835628
1.4042059
1.405662982
1.406830753
1.407185313
1.4069285
1.405790729
1.405376322
1.405370955
0.8363291851
0.8400648088
0.8505183711
0.86479111
0.8835429404
0.9048980701
0.9398977273
1.015845561
1.170539558
1.305849681
1.37342444
1.393229089
1.398410781
1.401279595
1.400573652
1.399161493
1.399707646
1.401394964
1.403198969
1.405171038
1.406563338
1.406884684
1.406560889
1.405971476
1.405074974
1.404454488
1.404569389
0.8396774794
0.8401752255
0.8506081302
0.8651168346
0.8827725038
0.9025421262
0.9315578789
0.9926025985
1.131745127
1.291316685
1.373684455
1.395170703
1.399823185
1.400835274
1.398187723
1.397939676
1.399433701
1.401251658
1.403441864
1.405598785
1.406120429
1.405378871
1.404850177
1.405131808
1.404578544
1.403806429
1.403546507
0.8413637111
0.8405056066
0.8506665756
0.865259347
0.8819446741
0.9003610166
0.9250680347
0.9753547639
1.085479493
1.267461292
1.375605536
1.398274482
1.398618175
1.397581469
1.395534756
1.396499986
1.398812729
1.400670473
1.403094608
1.404199222
1.40384919
1.403757382
1.404949511
1.406215679
1.405523722
1.404556979
1.403908436
0.8422559044
0.8410023225
0.8508082398
0.8656308602
0.8817651831
0.898203654
0.9183031606
0.9521279076
1.044383677
1.211537928
1.361642088
1.395759919
1.39650001
1.394131844
1.395775181
1.397661058
1.398282282
1.399500732
1.400876101
1.401383894
1.402184349
1.403926488
1.405708435
1.407300913
1.406476003
1.405351246
1.404700687
0.8431152833
0.841347814
0.8507986846
0.8661159847
0.8817459784
0.8970746748
0.9129719924
0.9375328355
1.004010878
1.15369714
1.307242789
1.379544817
1.39118416
1.39386088
1.397543567
1.398615122
1.398486872
1.398507901
1.399255931
1.400059466
1.401780879
1.404328699
1.406232234
1.407532551
1.406541375
1.405469249
1.405133946
0.8434469461
0.8413676393
0.850567853
0.8667331926
0.8822845762
0.8969432877
0.9110411316
0.9312525411
0.9809765799
1.105785772
1.255874573
1.353760346
1.385396646
1.394867023
1.398987318
1.398640814
1.397443003
1.397114243
1.398189847
1.399600874
1.401938341
1.40433113
1.405810801
1.406486922
1.405591041
1.404757602
1.404682704
1.405366555
0.8439093355
0.8418149793
0.8506878647
0.8671471268
0.8829881177
0.897276133
0.9097778523
0.9267959171
0.9659672818
1.060866927
1.223558655
1.337156927
1.384670894
1.39657499
1.398619727
1.396290264
1.395011519
1.396086095
1.397569264
1.399796241
1.402128645
1.403511701
1.403958598
1.403963276
1.403452771
1.402761621
1.402841481
1.403636912
0.8446345929
0.8424616536
0.8510563833
0.8674701884
0.8838154658
0.8979134709
0.9088193256
0.9214925868
0.9474943792
1.026006678
1.180908699
1.331486886
1.388278384
1.395893961
1.395702467
1.392873288
1.393745166
1.395557188
1.397280838
1.399452222
1.401273573
1.401151516
1.400731796
1.401993517
1.402667519
1.401430167
1.40108512
1.401347213
0.845339356
0.8437663247
0.8516654515
0.8678332419
0.8844806669
0.8986858202
0.908625414
0.9186598608
0.9361014721
0.997697161
1.132335462
1.303403537
1.383630688
1.392897809
1.390173086
1.390848256
1.39312142
1.394680769
1.396422738
1.398004766
1.398046903
1.397316251
1.398729848
1.401234231
1.40219728
1.400365383
1.399551677
1.399616873
0.847183937
0.8449895382
0.8522252201
0.8683075014
0.8849483135
0.8991969969
0.9084116587
0.9176269358
0.9307672312
0.9718667162
1.090776751
1.251338305
1.360569366
1.384476619
1.386416673
1.389658128
1.39173138
1.392500972
1.393399149
1.393575636
1.393145374
1.394370737
1.397281296
1.400309356
1.401152891
1.399207161
1.397774822
1.398082611
0.8509831938
0.8457495356
0.8522749911
0.868550793
0.8852845491
0.8996003535
0.9078542076
0.9155306924
0.9255130504
0.9543074396
1.039497029
1.205845411
1.325199662
1.373482716
1.384666782
1.389767358
1.389627771
1.389023255
1.388881573
1.38906265
1.389687217
1.392106149
1.395762642
1.399549373
1.400105986
1.396862267
1.396195746
1.396635212
0.8524772797
0.8462615156
0.8519878306
0.8683924311
0.8855921071
0.900046595
0.9077299379
0.9133191885
0.9199034536
0.9401040302
1.005174143
1.151055365
1.298086052
1.365723095
1.385264335
1.387812148
1.386624845
1.385089344
1.385260124
1.386296053
1.387659655
1.390274964
1.394656229
1.397397131
1.397365037
1.394845427
1.394214941
1.394645779
1.397139159
0.8524976077
0.8467102629
0.8522915068
0.8684353644
0.8860859877
0.9005454365
0.908263854
0.9129887293
0.9179729803
0.9326506477
0.9833853569
1.099979537
1.269559422
1.362439579
1.38351305
1.385240647
1.382354286
1.382569429
1.38335994
1.384488627
1.386222923
1.389613247
1.392719627
1.394593715
1.394559512
1.393028833
1.392588069
1.392515733
1.39432289
0.8508196093
0.847291433
0.8526444646
0.8687993441
0.8871898434
0.9018384439
0.9090756637
0.9131486929
0.9176484558
0.9284223294
0.9618309745
1.064868692
1.223466127
1.347948488
1.380778407
1.380894978
1.380113174
1.380840331
1.382507777
1.384152567
1.386387133
1.388473322
1.390120973
1.390948996
1.391108816
1.389760936
1.389470549
1.388973495
1.390506861
0.8505646572
0.8477654376
0.8530559697
0.8693279153
0.8883678718
0.9030024051
0.9103447908
0.9137638524
0.9175591849
0.9247137476
0.9455143517
1.024716973
1.17949129
1.317326715
1.372569241
1.377432516
1.378841854
1.381196116
1.382764003
1.383849668
1.385088208
1.386575726
1.386204643
1.386436378
1.38763215
1.388563544
1.386400212
1.386451826
1.387955506
0.8504195755
0.8486931788
0.8533131987
0.8696912694
0.8892712476
0.904158381
0.9115223978
0.914088052
0.9165774941
0.9208734126
0.9347664704
0.9884102619
1.136402974
1.286523684
1.358022118
1.375034231
1.380155848
1.381574507
1.38154381
1.382179779
1.382981477
1.382210765
1.38146798
1.383625234
1.386861
1.386992154
1.384544944
1.384719641
1.38636005
0.8508316189
0.8505466727
0.8533765206
0.8699103601
0.8901060082
0.9052049883
0.9125854109
0.9141604392
0.9154639049
0.9182326965
0.9278023027
0.9687617179
1.079928661
1.25396716
1.346500656
1.374002547
1.379658061
1.37974099
1.379321846
1.378808545
1.378175186
1.377216614
1.378950009
1.382894117
1.386117814
1.386177044
1.383761253
1.383884404
1.385740689
0.853387844
0.8509571666
0.8532677026
0.8698977824
0.8909378154
0.90620129
0.9136363695
0.9144003719
0.9146152046
0.9166537121
0.9232195192
0.9510952117
1.04050894
1.199567504
1.334722443
1.372794557
1.377444424
1.376669426
1.375640713
1.374730094
1.374836429
1.375365733
1.377844113
1.382275052
1.386368366
1.386316462
1.38391253
1.383776008
1.385085886
0.8541205539
0.8503045728
0.8530710123
0.8698404083
0.8917417461
0.9071642471
0.9145654709
0.9149081619
0.9141333695
0.9153188997
0.9189589493
0.936118701
1.008634593
1.152240911
1.306932499
1.368763604
1.375176118
1.37333706
1.373206162
1.373203078
1.373458729
1.37475757
1.377973657
1.382622198
1.387147831
1.386456657
1.383748866
1.383117995
1.383608096
1.385744971
0.8531379871
0.8490167063
0.8525791643
0.8699403558
0.8927282061
0.9081752304
0.9154671577
0.9155135144
0.9140902521
0.9144020514
0.9159448849
0.9269995826
0.9763180391
1.119635312
1.270013958
1.355530794
1.370825815
1.371653176
1.371998984
1.372912186
1.374298301
1.376136067
1.37921631
1.383867059
1.386509492
1.385498162
1.383645737
1.381854482
1.381566967
1.383850847
0.850406547
0.8479948457
0.8519414824
0.8697590691
0.8936594756
0.9091588809
0.9163816138
0.916524518
0.9142983389
0.9136501113
0.9140126761
0.9211649953
0.9560992229
1.069325913
1.239237368
1.336751258
1.366385426
1.372197192
1.374265533
1.3756446
1.376523618
1.37792393
1.380053224
1.383153825
1.384772266
1.384516857
1.382401079
1.379917234
1.380095749
1.382833331
0.8487287171
0.847410705
0.8514553397
0.8697454212
0.8944834826
0.9098494233
0.9171849945
0.9175764081
0.9148251954
0.9128501186
0.9123508537
0.9165442565
0.9406801159
1.017918165
1.189832959
1.32022154
1.361824446
1.374228777
1.376475814
1.376619552
1.376349949
1.377040784
1.378428912
1.380852162
1.383028012
1.383091317
1.38063164
1.37865529
1.379084842
1.382320929
0.8473499738
0.849688296
0.8512874217
0.8699319466
0.8952534539
0.9103655984
0.917855179
0.9183650765
0.91530876
0.9121507709
0.9108336376
0.912671348
0.9272680158
0.992093735
1.130232763
1.295253809
1.361169391
1.374646173
1.376617477
1.375475966
1.374904845
1.37493556
1.375721932
1.377616794
1.379494922
1.381785967
1.379446618
1.378359833
1.37906482
1.382954196
0.847589989
0.8513254164
0.8512171912
0.870402939
0.8960271094
0.9108192455
0.9184334437
0.9188906917
0.9155955084
0.9118238792
0.9097846661
0.910356874
0.9199532998
0.9715195158
1.097845017
1.255653348
1.355397375
1.373947104
1.374578299
1.372764898
1.372586781
1.372570544
1.372487149
1.375335094
1.378181548
1.381670794
1.379776772
1.378772221
1.379399217
1.383053372
0.8490688077
0.8509324324
0.8521400781
0.8697621731
0.8957804913
0.9111577781
0.9189153475
0.9193390353
0.9160529726
0.9118844662
0.9089847857
0.9090571082
0.9151541244
0.94944386
1.066308317
1.22388123
1.341172037
1.371693911
1.370160495
1.370519479
1.370540115
1.370695811
1.372236756
1.374790462
1.377960118
1.382757979
1.380423524
1.378930011
1.378934769
1.381884804
0.8488389678
0.8503032416
0.8527484904
0.8699549644
0.8955258837
0.9116146574
0.9194687324
0.9197399407
0.9169880287
0.9123443371
0.908060493
0.9074667211
0.9111953227
0.932725243
1.01584733
1.197872247
1.321362902
1.363208938
1.368610261
1.369377702
1.370505899
1.371699417
1.372627432
1.37440886
1.379682604
1.382397224
1.38113935
1.378890989
1.37817591
1.380160926
1.382585793
0.8481272144
0.8500769117
0.8535627185
0.8711931002
0.8954244349
0.9118768917
0.9195070385
0.9199932087
0.9177457444
0.9130234527
0.9074733076
0.9062359259
0.9083905318
0.9221589319
0.9806247761
1.137310752
1.299101616
1.355150833
1.368008841
1.372001277
1.372573756
1.372435024
1.373124538
1.375780976
1.38020555
1.381916444
1.381451806
1.378145272
1.377259916
1.378826692
1.382073359
0.846846189
0.8503792118
0.8551275903
0.8720719317
0.8954500976
0.9124545942
0.9199352935
0.9200075398
0.9182146435
0.9135000265
0.9073526043
0.9057026483
0.9069198457
0.9163924476
0.9618987845
1.07616472
1.251901869
1.344402982
1.371065964
1.375863349
1.373483964
1.372870992
1.373333541
1.375472645
1.379074177
1.381567454
1.380803528
1.37696538
1.37653059
1.378376099
1.382394217
0.8459956538
0.8516552543
0.8568034813
0.8729428975
0.8957312839
0.9134649646
0.9200833399
0.9200648336
0.9185127039
0.9137721506
0.9074135192
0.9055101458
0.9060081216
0.9125924098
0.9452824046
1.045213437
1.196591525
1.329459528
1.372562744
1.375444802
1.372596021
1.372286044
1.372548292
1.374378077
1.377953702
1.380561396
1.380090402
1.376579351
1.376970932
1.378941838
1.383423422
0.8467756389
0.8538176699
0.8579858521
0.8745804773
0.8967889701
0.9138249113
0.9202915198
0.9203538048
0.918764857
0.9142070982
0.9079329098
0.9052748736
0.9049533744
0.9084481205
0.9292639436
1.014739911
1.168455023
1.310379542
1.369970661
1.374180272
1.37054336
1.370772247
1.371374706
1.374144026
1.377343364
1.379557284
1.380895601
1.37763219
1.377798751
1.379285713
1.383162026
0.8497130947
0.8551594927
0.8589801061
0.87564611
0.8977624471
0.9136059454
0.920830143
0.9208285404
0.9189412878
0.9147309395
0.9083059714
0.9045224304
0.9037748826
0.9053384643
0.9189525264
0.9796248063
1.140771598
1.289102935
1.361296318
1.368841614
1.369369552
1.369898603
1.371574922
1.373690863
1.375921869
1.37970427
1.382244276
1.378350523
1.376913267
1.378042074
1.381957881
0.8512628453
0.8562485961
0.8598200001
0.8763087402
0.8984073163
0.9135853795
0.9216799829
0.9209840687
0.9189377533
0.9149438186
0.9083766012
0.9037586704
0.9030910119
0.9041905218
0.9136894513
0.9570235243
1.083998817
1.26520557
1.344884521
1.366569582
1.370124178
1.371281948
1.372207962
1.37301657
1.375379092
1.381235051
1.381746426
1.377212301
1.375222207
1.376120627
1.380540375
0.8520240751
0.8570623709
0.8600454651
0.8769150119
0.8986625097
0.9144250011
0.9223780498
0.9209475711
0.9182845451
0.9147363222
0.9084345009
0.9033462729
0.9026133945
0.9037793623
0.9099488039
0.9410992235
1.038403489
1.215690339
1.331448895
1.365763287
1.373246648
1.372934891
1.372167241
1.372850394
1.376192171
1.381180208
1.380483334
1.375493214
1.374237345
1.375105752
1.379791378
0.851739048
0.8573184422
0.8601177539
0.8787649474
0.9000469621
0.9154955842
0.9227738119
0.920537137
0.9178430727
0.9145909003
0.9087203485
0.9032279327
0.902259196
0.9029718916
0.9064609968
0.9273293953
1.009527985
1.158822388
1.309160461
1.366808399
1.374366218
1.373634063
1.372262116
1.372817573
1.376110121
1.379911906
1.379395485
1.375206148
1.374294154
1.375267006
1.380331324
1.383769372
0.8489273645
0.8574565405
0.8613954315
0.8808292013
0.9023156612
0.9163533306
0.9230185578
0.9205963208
0.9178334603
0.9144854179
0.9091364132
0.9036113649
0.9024917931
0.9020552554
0.9040726219
0.9174877987
0.9791800489
1.124149635
1.278623416
1.362442261
1.373808135
1.371438714
1.370873445
1.37190428
1.375654741
1.378279474
1.37961221
1.376433065
1.375507299
1.376469646
1.381559827
1.383068693
0.8481739333
0.8589516289
0.864356638
0.8820836513
0.9035140004
0.9168161525
0.9231698965
0.9209521595
0.9181100879
0.9143479904
0.9094832041
0.9043718023
0.9023890166
0.9015571507
0.9024450898
0.911288668
0.9531577941
1.082656836
1.245570331
1.352799863
1.369797998
1.369106886
1.369685929
1.372027436
1.375764118
1.378010689
1.380754492
1.377891464
1.376291137
1.376729222
1.380940212
1.381736319
0.848992113
0.8616782447
0.8657844098
0.8831769259
0.9034259335
0.9173538793
0.9237628691
0.9216654267
0.9184188285
0.9141612077
0.9094045604
0.9046463073
0.9022367056
0.9010770059
0.9013928769
0.9072262037
0.9367262346
1.035697563
1.212752202
1.328194007
1.363685451
1.3682652
1.370614009
1.37307511
1.374949919
1.377765665
1.381701609
1.378208265
1.375491646
1.375712411
1.379662432
1.380652675
0.8498453118
0.8626492338
0.866708189
0.8831844822
0.9030758736
0.9181155683
0.9246260451
0.9230339104
0.9185914456
0.9138702458
0.9091863539
0.9047359305
0.9018596861
0.9007491433
0.9006485534
0.9041922632
0.9250482108
1.008641992
1.17438508
1.31284821
1.360674475
1.370664215
1.372745386
1.373286818
1.373895238
1.378105472
1.381339339
1.377351203
1.37424453
1.374168557
1.377929744
1.380181989
0.8497118457
0.8627881255
0.8669379397
0.882650238
0.9038973011
0.9191540218
0.9257872289
0.9245007962
0.9185370886
0.9136559598
0.9087602831
0.9043738187
0.9018745234
0.9005991331
0.9004725121
0.9024957374
0.9162322578
0.9794349704
1.131085548
1.30154341
1.363238882
1.372813008
1.372784026
1.372783875
1.373632671
1.377512364
1.380177631
1.376327049
1.372903263
1.373092243
1.377177985
1.380765491
0.8486400541
0.8625876798
0.8666874801
0.8830480078
0.9056528904
0.9209993918
0.927022476
0.9253306636
0.9186713722
0.9135544749
0.9083827923
0.9042931822
0.9019065712
0.9006819662
0.9007922548
0.9013690654
0.9096571877
0.9506560021
1.083995747
1.258073339
1.354260902
1.371848787
1.371901625
1.370855926
1.372118224
1.376414711
1.379040886
1.374985537
1.372443224
1.372789097
1.377442419
1.381738117
0.8419330758
0.861043283
0.8667779397
0.8852113443
0.9078477219
0.9227448659
0.9282145045
0.9257373345
0.9188961969
0.9135678327
0.9081582252
0.9042514633
0.9020644533
0.9009760487
0.9004535802
0.9007029891
0.905821774
0.9341444243
1.02957361
1.193741894
1.332219017
1.370524306
1.367878651
1.369461287
1.371204752
1.375215566
1.377734676
1.374585842
1.373091183
1.374235538
1.378752309
1.381903819
1.380344441
0.8363052388
0.8589354704
0.8695528932
0.8875919893
0.9093999764
0.924150768
0.9284537234
0.9260194497
0.9202922444
0.9137642447
0.9080226789
0.9043519358
0.9023502578
0.9010527934
0.9000687352
0.8999943366
0.9034176638
0.9244696906
1.001325187
1.158488596
1.303261352
1.363621908
1.365541211
1.368892526
1.371612557
1.374471816
1.377201319
1.376316176
1.375248024
1.376009102
1.379094815
1.381226066
1.379690199
0.8332276916
0.8582989848
0.8727343524
0.8889602243
0.9106910594
0.9246181199
0.9285352955
0.9267659242
0.9223020439
0.9138540016
0.907945531
0.9044667242
0.9024999027
0.9008852788
0.8996464715
0.8992521587
0.9013717203
0.9156705146
0.9848570457
1.14015103
1.288206837
1.357144368
1.366667964
1.371102424
1.373073642
1.374684275
1.378116593
1.379264075
1.376384905
1.376356509
1.378298354
1.380122905
1.378843418
0.8307682924
0.8579916618
0.8741286129
0.8895255444
0.9109857799
0.9244746213
0.9294239138
0.928432727
0.9230810996
0.9139025918
0.9079143235
0.9044804622
0.9022927745
0.9007520166
0.8994523265
0.8990912686
0.8999999371
0.9081973233
0.9540736262
1.101188077
1.2812175
1.356050023
1.369881389
1.372832028
1.373580379
1.375059541
1.379659896
1.38003857
1.375880563
1.375644776
1.376984328
1.379320877
1.378423326
0.8272618782
0.8559278052
0.8752288081
0.8892439884
0.9104190154
0.9251776186
0.9306482755
0.930281936
0.9233978453
0.9140067601
0.9078633362
0.9042245556
0.9023237681
0.9007946461
0.8997474574
0.8991909283
0.899184697
0.9043779741
0.9320009185
1.037132301
1.231159145
1.345876807
1.368664072
1.372597631
1.37321912
1.37556515
1.379776129
1.379313664
1.375127689
1.374450977
1.376049235
1.378833522
1.378888445
0.8216808938
0.8510742603
0.8760910393
0.8890999311
0.9111142679
0.9265199771
0.9318270056
0.9312091786
0.923586818
0.9141946711
0.9078532238
0.90414914
0.9024025948
0.9010696291
0.8999836935
0.899018623
0.8988112635
0.902304032
0.9226714294
0.9969174156
1.15859257
1.314847652
1.365326716
1.371197739
1.371249504
1.37464797
1.3789838
1.378023323
1.373937632
1.373789084
1.37570302
1.37916944
1.379835432
0.8155938792
0.8455008598
0.8762146071
0.8897098097
0.9127393065
0.9281130515
0.9326875673
0.9314008454
0.9238771325
0.9146451567
0.9078839506
0.9040947086
0.902496451
0.901363266
0.9000302492
0.8988223848
0.8983391585
0.9000837014
0.915579229
0.9796634219
1.119260506
1.276269632
1.355988158
1.367585036
1.370377694
1.373836612
1.377836529
1.376821623
1.373740573
1.37402017
1.37615656
1.380115002
1.380016449
0.810370645
0.8402062756
0.8752998343
0.8917094539
0.9139126623
0.9290426004
0.9330613008
0.9314413123
0.9252636987
0.9156197461
0.9080443121
0.9040570965
0.9025651066
0.9015201508
0.9000288182
0.8986563761
0.8979398315
0.8988957952
0.9081445496
0.9595140273
1.097496891
1.257148659
1.344760064
1.366164309
1.37012959
1.373426557
1.376505404
1.377536824
1.374462966
1.375237793
1.377545241
1.380217587
1.379651777
0.8060656529
0.8347964223
0.8734445316
0.8926759254
0.9138970838
0.9289200754
0.9328796266
0.931927289
0.9273981945
0.9162681075
0.9083742751
0.9040534522
0.9025506133
0.9014244573
0.9000500697
0.8985982102
0.8977917742
0.8982133228
0.9037349832
0.9347164824
1.057321138
1.247464604
1.34051128
1.367422368
1.371971578
1.374397489
1.377375336
1.379412222
1.376091644
1.376597313
1.378126316
1.379506393
1.378881286
1.377425289
0.8024022865
0.8295425172
0.8709762163
0.8931394072
0.9137533021
0.927812888
0.9330082753
0.9327837453
0.9281742638
0.9165251659
0.9085592223
0.9041158068
0.9025951672
0.9015698777
0.90018333
0.8989104987
0.8980486541
0.897779554
0.9014039145
0.9219889266
1.007100998
1.200422248
1.334956539
1.366820758
1.37379824
1.375630563
1.378516539
1.381604948
1.377109438
1.376563306
1.378087404
1.378531531
1.378392095
1.377207178
0.7990689072
0.8242736075
0.8690723401
0.8929993985
0.9131563671
0.9272828702
0.9333807401
0.9338555086
0.9283704229
0.9166819375
0.9086636549
0.9041331093
0.9026589549
0.9017680134
0.9005664848
0.8994771713
0.8980755619
0.8973300108
0.8996361127
0.9153436282
0.978207133
1.128106766
1.299470451
1.361610065
1.373467145
1.375921279
1.3800991
1.382289835
1.376952977
1.376010215
1.377418442
1.377637298
1.378405613
1.377629004
0.7961231244
0.8185360858
0.8663568666
0.8919093716
0.9132912713
0.9273865712
0.9342008636
0.9344399234
0.9283957545
0.9171738048
0.9087665789
0.904152593
0.9027356745
0.9021600687
0.9010110644
0.8996664207
0.8980435692
0.8970322201
0.8982754752
0.9090250568
0.9606993914
1.08389253
1.244840396
1.347430451
1.371310105
1.375504375
1.380552518
0.7937620158
0.812544153
)
;

boundaryField
{
    inlet
    {
        type            calculated;
        value           nonuniform 0();
    }
    outlet
    {
        type            calculated;
        value           nonuniform 0();
    }
    bottom
    {
        type            calculated;
        value           nonuniform 0();
    }
    top
    {
        type            calculated;
        value           nonuniform 0();
    }
    obstacle
    {
        type            calculated;
        value           nonuniform List<scalar> 
78
(
0.9443987835
0.9377626644
0.9283332841
0.9175624829
0.9042549377
0.8913999109
0.8847255035
0.8776754134
0.8672335747
0.8627284901
0.862116276
0.8586382157
0.8545227047
0.8521203035
0.8485511355
0.8460938247
0.8440046664
0.8422421656
0.8423653124
0.841282153
0.8400638927
0.8390536022
0.8378087544
0.8363207652
0.8356987075
0.8363291851
0.8396774794
0.8413637111
0.8422559044
0.8431152833
0.8434469461
0.8439093355
0.8446345929
0.845339356
0.847183937
0.8509831938
0.8524772797
0.8524976077
0.8508196093
0.8505646572
0.8504195755
0.8508316189
0.853387844
0.8541205539
0.8531379871
0.850406547
0.8487287171
0.8473499738
0.847589989
0.8490688077
0.8488389678
0.8481272144
0.846846189
0.8459956538
0.8467756389
0.8497130947
0.8512628453
0.8520240751
0.851739048
0.8489273645
0.8481739333
0.848992113
0.8498453118
0.8497118457
0.8486400541
0.8419330758
0.8363052388
0.8332276916
0.8307682924
0.8272618782
0.8216808938
0.8155938792
0.810370645
0.8060656529
0.8024022865
0.7990689072
0.7961231244
0.7937620158
)
;
    }
    defaultFaces
    {
        type            empty;
    }
    procBoundary21to15
    {
        type            processor;
        value           nonuniform List<scalar> 
24
(
1.253258574
1.252783459
1.255425807
1.255768067
1.256435609
1.257917629
1.263728418
1.26988145
1.273475895
1.274902429
1.275167413
1.274622952
1.274303169
1.275062516
1.276936191
1.279882976
1.280567477
1.277022919
0.9295488869
1.198703936
1.253037349
1.276452209
1.267448478
1.267448478
)
;
    }
    procBoundary21to22