/*--------------------------------*- C++ -*----------------------------------*\
  =========                 |
  \\      /  F ield         | OpenFOAM: The Open Source CFD Toolbox
   \\    /   O peration     | Website:  https://openfoam.org
    \\  /    A nd           | Version:  7
     \\/     M anipulation  |
\*---------------------------------------------------------------------------*/
FoamFile
{
    version     2.0;
    format      ascii;
    class       volVectorField;
    location    "1";
    object      U;
}
// * * * * * * * * * * * * * * * * * * * * * * * * * * * * * * * * * * * * * //

dimensions      [0 1 -1 0 0 0 0];

internalField   nonuniform List<vector> 
2222
(
(3 2.419757824e-15 0)
(3 2.696162685e-15 0)
(3 3.77504891e-15 0)
(3 3.109236703e-15 0)
(3 2.257880489e-15 0)
(3 2.303228877e-15 0)
(3 2.409643521e-15 0)
(3 1.741186301e-15 0)
(3 1.06110639e-15 0)
(3 1.902833301e-15 0)
(3 2.020161718e-15 0)
(3 2.618019796e-15 0)
(3 4.446671911e-15 0)
(3 6.324709937e-15 0)
(3 4.89909716e-15 0)
(3 3.770812068e-15 0)
(3 2.372842672e-15 0)
(3 1.427841457e-15 0)
(3 1.700215186e-15 0)
(3 2.2875601e-15 0)
(3 2.184365789e-15 0)
(3 3.599767846e-15 0)
(3 4.20071755e-15 0)
(3 3.556003431e-15 0)
(3 2.68304771e-15 0)
(3 3.475157266e-15 0)
(3 4.284963228e-15 0)
(3 4.445304448e-15 0)
(3 4.747806734e-15 0)
(3 1.538678653e-15 0)
(3 -7.294782733e-16 0)
(3 1.773283543e-15 0)
(3 3.843674585e-15 0)
(3 7.523598604e-15 0)
(3 4.448476445e-15 0)
(3 2.726215831e-15 0)
(3 3.063986532e-15 0)
(3 3.367034344e-15 0)
(3 3.392869997e-15 0)
(3 3.327469566e-15 0)
(3 4.111555332e-15 0)
(3 2.679680615e-15 0)
(3 2.619180364e-15 0)
(3 4.234557063e-15 0)
(3 6.626617597e-15 0)
(3 8.144348587e-15 0)
(3 8.449221016e-15 0)
(3 7.068947137e-15 0)
(3 5.515766746e-15 0)
(3 4.076411163e-15 0)
(3 2.900815596e-15 0)
(3 7.873738719e-16 0)
(3 -8.230405803e-16 0)
(3 -9.724131424e-16 0)
(3 1.452858703e-16 0)
(3 2.410129065e-15 0)
(3 2.539923711e-15 0)
(3 4.048594345e-15 0)
(3 3.713887136e-15 0)
(3 2.5382565e-15 0)
(3 3.542778767e-15 0)
(3 4.971029582e-15 0)
(3 4.278310393e-15 0)
(3 8.490181363e-16 0)
(3 -2.790352053e-16 0)
(3 2.843108529e-15 0)
(3 6.124679345e-15 0)
(3 8.540984918e-15 0)
(3 4.358727552e-15 0)
(3 2.921231731e-15 0)
(3 1.280739683e-15 0)
(3 6.382911593e-16 0)
(3 4.519510689e-16 0)
(3 2.857160142e-16 0)
(3 7.446771262e-16 0)
(3 1.18596888e-15 0)
(3 3.327139022e-15 0)
(3 5.987760324e-15 0)
(3 7.682442573e-15 0)
(3 7.799085171e-15 0)
(3 4.234210685e-15 0)
(3 2.219252878e-15 0)
(3 3.151396848e-15 0)
(3 2.052279535e-15 0)
(3 1.744619181e-15 0)
(3 1.16168298e-15 0)
(3 -1.733047231e-15 0)
(3 -2.239329639e-15 0)
(3 -2.244610311e-16 0)
(3 4.018785447e-16 0)
(3 1.207356261e-16 0)
(3 1.227951852e-15 0)
(3 1.320190893e-15 0)
(3 -1.48954465e-16 0)
(3 6.679952098e-16 0)
(3 2.94334895e-15 0)
(3 1.317357719e-15 0)
(3 -1.657988055e-15 0)
(3 9.978087951e-16 0)
(3 5.056209185e-15 0)
(3 8.753950867e-15 0)
(3 9.279556914e-15 0)
(3 2.800212743e-15 0)
(3 4.898539367e-15 0)
(3 2.777215386e-15 0)
(3 8.225332796e-16 0)
(3 -1.106681209e-15 0)
(3 -2.317037525e-15 0)
(3 -1.960015906e-15 0)
(3 -2.96057805e-16 0)
(3 2.170976461e-15 0)
(3 3.723584934e-15 0)
(3 5.35115061e-15 0)
(3 6.530961693e-15 0)
(3 7.644707172e-15 0)
(3 6.743381515e-15 0)
(3 4.665997815e-15 0)
(3 2.83478372e-15 0)
(3 2.266509487e-15 0)
(3 1.855204645e-15 0)
(3 -1.640528434e-15 0)
(3 -1.435253667e-15 0)
(3 -2.759815084e-15 0)
(3 -3.335256098e-15 0)
(3 -3.073739353e-15 0)
(3 -3.121164872e-15 0)
(3 -1.6199815e-15 0)
(3 -3.929040264e-15 0)
(3 -6.386059028e-15 0)
(3 -3.378782626e-15 0)
(3 -4.567570615e-15 0)
(3 -6.054281117e-15 0)
(3 -4.961873967e-15 0)
(3 9.39144289e-16 0)
(3 7.479291039e-15 0)
(3 9.309424474e-15 0)
(3 5.160966259e-16 0)
(3 1.131851952e-15 0)
(3 -2.303265348e-15 0)
(3 -7.34276105e-16 0)
(3 -2.508496958e-17 0)
(3 5.467968124e-16 0)
(3 2.227751393e-15 0)
(3 2.924253863e-15 0)
(3 3.510962955e-15 0)
(3 3.605635693e-15 0)
(3 4.057090577e-15 0)
(3 7.115374359e-15 0)
(3 1.027698723e-14 0)
(3 9.970749813e-15 0)
(3 8.780608792e-15 0)
(3 5.372727372e-15 0)
(3 3.995823107e-15 0)
(3 9.98387559e-16 0)
(3 -1.426602299e-16 0)
(3 -1.412400511e-16 0)
(3 -2.232760752e-15 0)
(3 -3.59174543e-15 0)
(3 -2.913007815e-15 0)
(3 -3.405959379e-15 0)
(3 -3.079759881e-15 0)
(3 -6.333822118e-15 0)
(3 -9.72363266e-15 0)
(3 -1.017576462e-14 0)
(3 -8.153223202e-15 0)
(3 -5.367818016e-15 0)
(3 -3.85162025e-15 0)
(3 -1.846032142e-15 0)
(3 9.051342815e-16 0)
(3 4.276321449e-15 0)
(3 1.552978778e-15 0)
(3 -2.06654932e-15 0)
(3 -3.147462352e-15 0)
(3 -2.829055418e-15 0)
(3 -1.816110624e-15 0)
(3 -1.399294213e-16 0)
(3 1.904871324e-15 0)
(3 2.985273888e-15 0)
(3 3.474533646e-15 0)
(3 3.130922384e-15 0)
(3 3.612579917e-15 0)
(3 4.521607537e-15 0)
(3 7.074593108e-15 0)
(3 9.777315853e-15 0)
(3 7.206356024e-15 0)
(3 6.603395348e-15 0)
(3 2.3186456e-15 0)
(3 4.548949453e-16 0)
(3 1.759296455e-15 0)
(3 -9.861835891e-17 0)
(3 -8.846918212e-16 0)
(3 -1.575645482e-15 0)
(3 -2.438338625e-15 0)
(3 -2.079662229e-15 0)
(3 -4.112800391e-15 0)
(3 -4.930887731e-15 0)
(3 -5.434385308e-15 0)
(3 -6.69098154e-15 0)
(3 -6.076227134e-15 0)
(3 -5.352612282e-15 0)
(3 -5.675945507e-15 0)
(3 -5.709037264e-15 0)
(3 -3.005486437e-15 0)
(3 -9.952523432e-16 0)
(3 5.684361473e-16 0)
(3 -5.899761236e-15 0)
(3 -5.422716013e-15 0)
(3 -4.673349065e-15 0)
(3 -4.391720488e-15 0)
(3 -3.370991099e-15 0)
(3 -1.707820091e-15 0)
(3 1.001463013e-15 0)
(3 2.437533164e-15 0)
(3 3.006488642e-15 0)
(3 3.503234335e-15 0)
(3 4.157015568e-15 0)
(3 4.407824516e-15 0)
(3 5.755635002e-15 0)
(3 4.725785225e-15 0)
(3 4.313161266e-15 0)
(3 3.835986899e-15 0)
(3 2.708521982e-15 0)
(3 6.539700718e-16 0)
(3 -1.232752387e-15 0)
(3 -2.745923546e-15 0)
(3 -9.723418973e-16 0)
(3 3.095929332e-18 0)
(3 -1.920331232e-16 0)
(3 -1.697248212e-15 0)
(3 -2.562350055e-15 0)
(3 -3.477820215e-15 0)
(3 -4.793918733e-15 0)
(3 -5.660801275e-15 0)
(3 -6.601021631e-15 0)
(3 -6.464713801e-15 0)
(3 -8.024799525e-15 0)
(3 -7.819232216e-15 0)
(3 -4.026815982e-15 0)
(3 -1.005574116e-14 0)
(3 -8.157263752e-15 0)
(3 -6.923381911e-15 0)
(3 -6.562477508e-15 0)
(3 -6.530412793e-15 0)
(3 -2.456327658e-15 0)
(3 -7.079540622e-16 0)
(3 1.310503419e-15 0)
(3 2.506549384e-15 0)
(3 3.127122427e-15 0)
(3 4.23652092e-15 0)
(3 3.656598569e-15 0)
(3 2.331605848e-15 0)
(3 3.77738559e-15 0)
(3 2.75917122e-15 0)
(3 1.360363965e-15 0)
(3 5.281837506e-16 0)
(3 -4.600221656e-16 0)
(3 -1.779467681e-15 0)
(3 -1.548161454e-15 0)
(3 -3.363008486e-15 0)
(3 -6.817590983e-16 0)
(3 9.642192652e-16 0)
(3 1.316593336e-16 0)
(3 -8.180540115e-16 0)
(3 -3.173643008e-15 0)
(3 -5.156855121e-15 0)
(3 -4.364778163e-15 0)
(3 -4.334502357e-15 0)
(3 -4.948548259e-15 0)
(3 -5.150796985e-15 0)
(3 -6.926690588e-15 0)
(3 -6.354836764e-15 0)
(3 -6.857078367e-15 0)
(3 -7.881823276e-15 0)
(3 -6.817926624e-15 0)
(3 -3.607154794e-15 0)
(3 -3.428308218e-15 0)
(3 -2.883426643e-15 0)
(3 -3.596153181e-16 0)
(3 2.304204732e-16 0)
(3 1.181548292e-15 0)
(3 3.2910825e-15 0)
(3 4.000953124e-15 0)
(3 5.681312661e-15 0)
(3 3.031353459e-15 0)
(3 2.71292336e-15 0)
(3 3.73453748e-15 0)
(3 6.253033376e-16 0)
(3 -5.698475335e-16 0)
(3 -1.982802296e-15 0)
(3 -9.41059586e-16 0)
(3 1.709291433e-15 0)
(3 2.754140172e-15 0)
(3 2.977721016e-15 0)
(3 1.890270214e-15 0)
(3 9.609203365e-16 0)
(3 -1.319923494e-16 0)
(3 -2.073973657e-15 0)
(3 -3.40907889e-15 0)
(3 -5.325556412e-15 0)
(3 -7.275671064e-15 0)
(3 -6.75467031e-15 0)
(3 -7.618247582e-15 0)
(3 -6.963597022e-15 0)
(3 -1.015371428e-14 0)
(3 -9.079157202e-15 0)
(3 -8.565713781e-15 0)
(3 -6.063485682e-15 0)
(3 -3.593690222e-15 0)
(3 -2.074697594e-15 0)
(3 -1.108570629e-15 0)
(3 7.36332239e-16 0)
(3 2.158179899e-15 0)
(3 3.841064269e-15 0)
(3 3.866382562e-15 0)
(3 6.042364565e-15 0)
(3 6.882443496e-15 0)
(3 7.085851612e-15 0)
(3 1.609337348e-15 0)
(3 -7.739905588e-16 0)
(3 -2.052846926e-15 0)
(3 -1.792241401e-16 0)
(3 -1.564250273e-16 0)
(3 5.88287648e-16 0)
(3 3.143967705e-15 0)
(3 7.464920989e-15 0)
(3 8.184442209e-15 0)
(3 9.233789035e-15 0)
(3 5.654655e-15 0)
(3 2.748762215e-15 0)
(3 7.089836731e-16 0)
(3 -2.273419177e-15 0)
(3 -3.968121057e-15 0)
(3 -8.100405839e-15 0)
(3 -1.129568713e-14 0)
(3 -1.063059416e-14 0)
(3 -1.105707604e-14 0)
(3 -1.172272636e-14 0)
(3 -1.036725713e-14 0)
(3 -1.000708379e-14 0)
(3 -9.407116287e-15 0)
(3 -1.422169669e-15 0)
(3 -2.164197174e-16 0)
(3 6.968995632e-16 0)
(3 1.240426099e-15 0)
(3 1.632267521e-15 0)
(3 3.403044346e-15 0)
(3 4.593443824e-15 0)
(3 4.955757193e-15 0)
(3 5.690844373e-15 0)
(3 5.010746677e-15 0)
(3 1.484132792e-15 0)
(3 4.217318798e-16 0)
(3 -9.797027569e-16 0)
(3 -1.214434114e-15 0)
(3 -3.668663389e-16 0)
(3 -8.360357035e-17 0)
(3 -2.418271543e-16 0)
(3 1.6500934e-15 0)
(3 5.083831556e-15 0)
(3 6.590850372e-15 0)
(3 1.021001976e-14 0)
(3 1.041019689e-14 0)
(3 7.671266463e-15 0)
(3 1.550804763e-15 0)
(3 -5.551577536e-15 0)
(3 -6.831156163e-15 0)
(3 -8.274245554e-15 0)
(3 -8.89517268e-15 0)
(3 -1.005060544e-14 0)
(3 -9.901682936e-15 0)
(3 -1.218315504e-14 0)
(3 -1.135492404e-14 0)
(3 -1.039913675e-14 0)
(3 -9.10077079e-15 0)
(3 -1.363440226e-15 0)
(3 -2.273949262e-15 0)
(3 -1.152938864e-15 0)
(3 6.651047627e-16 0)
(3 8.241982096e-16 0)
(3 2.237090327e-15 0)
(3 2.128488162e-15 0)
(3 9.33943337e-16 0)
(3 1.2560788e-15 0)
(3 2.36628796e-15 0)
(3 -1.178659872e-15 0)
(3 -3.368964201e-15 0)
(3 -3.277067543e-15 0)
(3 -1.489914273e-15 0)
(3 -3.472946106e-16 0)
(3 -3.760630183e-16 0)
(3 -3.250621561e-15 0)
(3 1.929250649e-16 0)
(3 3.104961773e-15 0)
(3 7.241763204e-15 0)
(3 1.112711161e-14 0)
(3 1.207308854e-14 0)
(3 9.922289661e-15 0)
(3 3.325767868e-15 0)
(3 1.609223654e-16 0)
(3 -3.649574549e-15 0)
(3 -6.614090326e-15 0)
(3 -8.945865348e-15 0)
(3 -8.625694065e-15 0)
(3 -9.173761693e-15 0)
(3 -9.45408299e-15 0)
(3 -9.376076599e-15 0)
(3 -9.714722668e-15 0)
(3 -8.909700306e-15 0)
(3 1.503118629e-16 0)
(3 -1.359387368e-15 0)
(3 -1.874218856e-15 0)
(3 -6.950623224e-16 0)
(3 1.665845929e-15 0)
(3 2.133988054e-15 0)
(3 2.946438269e-16 0)
(3 -2.157446369e-15 0)
(3 -2.386971875e-15 0)
(3 -3.657555815e-16 0)
(3 -2.677487303e-15 0)
(3 -4.737321866e-15 0)
(3 -5.1720324e-15 0)
(3 -6.029673933e-15 0)
(3 -4.167530586e-15 0)
(3 -2.16932512e-15 0)
(3 -7.558783235e-16 0)
(3 4.838611143e-15 0)
(3 6.717319427e-15 0)
(3 6.348445661e-15 0)
(3 7.258461752e-15 0)
(3 7.916113444e-15 0)
(3 7.410783026e-15 0)
(3 3.843303183e-15 0)
(3 3.276948301e-15 0)
(3 -5.24018108e-16 0)
(3 -7.785222533e-15 0)
(3 -1.120253032e-14 0)
(3 -1.10633354e-14 0)
(3 -9.760063575e-15 0)
(3 -7.437050375e-15 0)
(3 -6.452403322e-15 0)
(3 -6.367415279e-15 0)
(3 -6.147817657e-15 0)
(3 1.480419765e-15 0)
(3 2.775970213e-15 0)
(3 6.552480899e-16 0)
(3 2.311359818e-16 0)
(3 4.239764496e-16 0)
(3 1.980283562e-16 0)
(3 1.530941845e-15 0)
(3 6.945394686e-16 0)
(3 -4.719773296e-17 0)
(3 -1.384148892e-15 0)
(3 -5.180201168e-15 0)
(3 -5.857566846e-15 0)
(3 -7.376665981e-15 0)
(3 -8.734542212e-15 0)
(3 -7.054231803e-15 0)
(3 -1.218814875e-15 0)
(3 4.754514346e-15 0)
(3 6.911415544e-15 0)
(3 6.116263732e-15 0)
(3 5.396108106e-15 0)
(3 5.729202991e-15 0)
(3 5.593343905e-15 0)
(3 6.441170637e-15 0)
(3 3.36116791e-15 0)
(3 5.252156037e-16 0)
(3 -1.464115507e-15 0)
(3 -4.350286714e-15 0)
(3 -1.019008319e-14 0)
(3 -1.314209851e-14 0)
(3 -1.236267982e-14 0)
(3 -1.096941011e-14 0)
(3 -8.125858199e-15 0)
(3 -4.109096939e-15 0)
(3 -3.925754786e-15 0)
(3 1.721160228e-15 0)
(3 1.186758517e-15 0)
(3 1.02070793e-15 0)
(3 -6.702255002e-16 0)
(3 -5.367989845e-16 0)
(3 3.589105748e-16 0)
(3 1.712422057e-15 0)
(3 1.596190782e-15 0)
(3 1.248798178e-15 0)
(3 -6.014138636e-15 0)
(3 -6.879192945e-15 0)
(3 -7.468465799e-15 0)
(3 -7.351040024e-15 0)
(3 -4.757404978e-15 0)
(3 -1.515450647e-15 0)
(3 1.069835254e-16 0)
(3 5.936676655e-15 0)
(3 8.111132237e-15 0)
(3 7.87531777e-15 0)
(3 8.157179877e-15 0)
(3 7.718813334e-15 0)
(3 7.680321526e-15 0)
(3 7.244865664e-15 0)
(3 1.552653559e-15 0)
(3 7.542169055e-16 0)
(3 7.657019795e-16 0)
(3 -1.692530706e-15 0)
(3 -3.668668071e-15 0)
(3 -5.65075462e-15 0)
(3 -7.492042087e-15 0)
(3 -8.478805144e-15 0)
(3 -7.766739592e-15 0)
(3 -5.692280698e-15 0)
(3 -6.363481322e-15 0)
(3 4.421376525e-15 0)
(3 1.196634477e-16 0)
(3 -4.869429116e-16 0)
(3 7.663279965e-16 0)
(3 3.610132107e-15 0)
(3 3.386510896e-15 0)
(3 1.597750564e-15 0)
(3 -6.230755346e-16 0)
(3 -4.815792183e-15 0)
(3 -7.032797793e-15 0)
(3 -5.260888771e-15 0)
(3 -4.14037623e-15 0)
(3 -4.482202994e-15 0)
(3 -2.430036086e-15 0)
(3 1.129002507e-15 0)
(3 3.975535377e-15 0)
(3 5.377702419e-15 0)
(3 8.578921811e-15 0)
(3 9.78495319e-15 0)
(3 9.03090807e-15 0)
(3 7.659998592e-15 0)
(3 6.35991908e-15 0)
(3 3.749049947e-15 0)
(3 2.600325667e-15 0)
(3 2.08053559e-15 0)
(3 2.826405431e-15 0)
(3 2.105415948e-15 0)
(3 3.742013406e-15 0)
(3 1.034092072e-15 0)
(3 -1.55953547e-15 0)
(3 -4.125317527e-15 0)
(3 -5.972534756e-15 0)
(3 -5.895853128e-15 0)
(3 -8.751399486e-15 0)
(3 4.654602933e-15 0)
(3 2.897578458e-15 0)
(3 3.765902677e-16 0)
(3 1.71462745e-15 0)
(3 3.003156977e-15 0)
(3 8.252894805e-16 0)
(3 4.408749086e-17 0)
(3 -2.428629989e-15 0)
(3 -2.588241117e-15 0)
(3 -1.381655796e-15 0)
(3 -8.994062689e-16 0)
(3 -7.819840763e-16 0)
(3 -1.738441228e-16 0)
(3 4.245621534e-16 0)
(3 1.831377417e-15 0)
(3 3.734999087e-15 0)
(3 4.815906535e-15 0)
(3 6.340086856e-15 0)
(3 6.30296211e-15 0)
(3 5.136323379e-15 0)
(3 3.173458462e-15 0)
(3 3.081663566e-15 0)
(3 3.241282433e-15 0)
(3 3.842146466e-15 0)
(3 4.65022064e-15 0)
(3 5.208253332e-15 0)
(3 4.580827238e-15 0)
(3 4.205756244e-15 0)
(3 2.440062662e-15 0)
(3 -1.175785294e-15 0)
(3 -6.323196164e-15 0)
(3 -7.611185727e-15 0)
(3 -7.951646024e-15 0)
(3 -8.824147627e-15 0)
(3 5.480098929e-15 0)
(3 5.544697798e-15 0)
(3 2.678151776e-15 0)
(3 2.489887675e-15 0)
(3 2.743094e-16 0)
(3 -3.429108927e-16 0)
(3 -6.301979604e-16 0)
(3 -7.083297912e-16 0)
(3 -5.038992006e-16 0)
(3 -8.872498151e-16 0)
(3 -5.524517451e-16 0)
(3 8.670744189e-17 0)
(3 2.522069813e-15 0)
(3 5.209078877e-15 0)
(3 5.087828584e-15 0)
(3 4.850033451e-15 0)
(3 2.258924573e-15 0)
(3 9.549703344e-16 0)
(3 -1.338104521e-15 0)
(3 -2.194831035e-15 0)
(3 -2.918048641e-15 0)
(3 -2.353143695e-15 0)
(3 1.886845551e-15 0)
(3 4.350460284e-15 0)
(3 5.469418593e-15 0)
(3 4.256503778e-15 0)
(3 1.258717615e-15 0)
(3 -1.553271006e-15 0)
(3 -1.669316912e-15 0)
(3 -2.750954607e-15 0)
(3 -3.9587612e-15 0)
(3 -5.05804457e-15 0)
(3 -8.016722096e-15 0)
(3 -8.347702297e-15 0)
(3 5.360755057e-15 0)
(3 5.300143085e-15 0)
(3 5.402538192e-15 0)
(3 3.862288325e-15 0)
(3 1.244968131e-15 0)
(3 2.920397956e-16 0)
(3 3.184423017e-16 0)
(3 -1.802409088e-15 0)
(3 -3.585729837e-15 0)
(3 -3.837104113e-15 0)
(3 -2.053920081e-15 0)
(3 1.569372695e-15 0)
(3 1.946432373e-15 0)
(3 2.686277905e-15 0)
(3 4.413035715e-15 0)
(3 4.161494389e-15 0)
(3 3.57806402e-15 0)
(3 4.109472451e-16 0)
(3 -2.48712844e-15 0)
(3 -3.301730207e-15 0)
(3 -2.907562679e-15 0)
(3 -3.495815337e-15 0)
(3 -6.023774002e-16 0)
(3 2.634035865e-16 0)
(3 9.596354791e-16 0)
(3 -5.689906248e-16 0)
(3 -9.775265804e-16 0)
(3 -1.900842645e-15 0)
(3 -3.418593228e-15 0)
(3 -4.312277597e-15 0)
(3 -5.105170793e-15 0)
(3 -5.03864438e-15 0)
(3 -5.752348491e-15 0)
(3 -5.622500505e-15 0)
(3 7.829899768e-15 0)
(3 7.848594085e-15 0)
(3 7.796063455e-15 0)
(3 5.304078149e-15 0)
(3 3.010571708e-15 0)
(3 6.20545667e-16 0)
(3 -1.759903279e-15 0)
(3 -4.663543543e-15 0)
(3 -5.633576802e-15 0)
(3 -4.074721625e-15 0)
(3 -3.323438972e-15 0)
(3 -1.775218637e-15 0)
(3 -1.987004764e-16 0)
(3 2.321450432e-16 0)
(3 2.267271536e-15 0)
(3 4.400522198e-15 0)
(3 4.98242241e-15 0)
(3 1.201016144e-15 0)
(3 4.247160221e-16 0)
(3 1.239536007e-15 0)
(3 6.971282539e-16 0)
(3 2.40884921e-16 0)
(3 -6.733162592e-16 0)
(3 -5.715286684e-15 0)
(3 -7.263799912e-15 0)
(3 -7.763355645e-15 0)
(3 -6.620839761e-15 0)
(3 -5.162258065e-15 0)
(3 -6.849580951e-15 0)
(3 -9.00987725e-15 0)
(3 -8.394102627e-15 0)
(3 -6.252660892e-15 0)
(3 -4.704258543e-15 0)
(3 -2.572999827e-15 0)
(3 1.238899487e-14 0)
(3 1.224511045e-14 0)
(3 1.08952438e-14 0)
(3 8.55785828e-15 0)
(3 3.179277005e-15 0)
(3 2.06920417e-15 0)
(3 -2.046898337e-15 0)
(3 -3.222799316e-15 0)
(3 -4.093661434e-15 0)
(3 -3.264047515e-15 0)
(3 -4.157007464e-15 0)
(3 -3.64510715e-15 0)
(3 -1.530275358e-15 0)
(3 1.027590122e-15 0)
(3 1.737320827e-15 0)
(3 2.600322388e-15 0)
(3 1.688016591e-15 0)
(3 7.013205084e-16 0)
(3 3.03136725e-15 0)
(3 2.713630481e-15 0)
(3 1.67953265e-15 0)
(3 1.52276636e-15 0)
(3 -3.644855334e-15 0)
(3 -6.826908146e-15 0)
(3 -9.200027393e-15 0)
(3 -8.833548157e-15 0)
(3 -7.718390286e-15 0)
(3 -7.187066969e-15 0)
(3 -8.030453355e-15 0)
(3 -1.05070855e-14 0)
(3 -1.086891672e-14 0)
(3 -5.578934669e-15 0)
(3 -4.21776069e-15 0)
(3 -1.737779021e-15 0)
(3 8.542038576e-15 0)
(3 8.555592252e-15 0)
(3 8.92104125e-15 0)
(3 8.207210472e-15 0)
(3 4.938672324e-15 0)
(3 1.791254782e-15 0)
(3 2.004685306e-15 0)
(3 4.699664064e-16 0)
(3 -3.286179978e-16 0)
(3 -1.568224044e-15 0)
(3 -3.35420938e-15 0)
(3 -3.419919585e-15 0)
(3 2.870329365e-16 0)
(3 3.009030699e-15 0)
(3 2.264599427e-15 0)
(3 9.577374726e-16 0)
(3 5.606655098e-16 0)
(3 4.654338703e-15 0)
(3 5.002581995e-15 0)
(3 3.400736327e-15 0)
(3 2.395808624e-15 0)
(3 1.192923467e-15 0)
(3 -2.620528659e-15 0)
(3 -1.879333672e-15 0)
(3 -3.947149886e-15 0)
(3 -4.523286538e-15 0)
(3 -6.928325979e-15 0)
(3 -8.759594568e-15 0)
(3 -8.747042212e-15 0)
(3 -9.59126149e-15 0)
(3 -6.531199177e-15 0)
(3 -3.530754024e-15 0)
(3 -5.786439454e-16 0)
(3 1.412782914e-15 0)
(3 4.709203452e-15 0)
(3 8.206493819e-15 0)
(3 6.139895249e-15 0)
(3 4.603100701e-15 0)
(3 6.20892711e-15 0)
(3 6.15825591e-15 0)
(3 5.438741007e-15 0)
(3 3.670876761e-15 0)
(3 1.837321101e-15 0)
(3 -6.330202223e-16 0)
(3 -1.490829216e-15 0)
(3 -1.180923965e-15 0)
(3 2.919866087e-15 0)
(3 3.249790085e-15 0)
(3 2.34874457e-15 0)
(3 6.962216375e-16 0)
(3 -3.590924657e-16 0)
(3 1.830212281e-15 0)
(3 3.597737893e-15 0)
(3 3.53466661e-15 0)
(3 2.801473444e-15 0)
(3 2.54810824e-15 0)
(3 1.296393729e-15 0)
(3 -1.214546595e-16 0)
(3 -2.156112024e-15 0)
(3 -2.900042199e-15 0)
(3 -8.029762081e-15 0)
(3 -1.137538463e-14 0)
(3 -1.011919397e-14 0)
(3 -8.424962218e-15 0)
(3 -3.403562153e-15 0)
(3 -1.795998023e-15 0)
(3 -8.749055264e-16 0)
(3 2.575793744e-15 0)
(3 3.302678867e-15 0)
(3 5.874811011e-15 0)
(3 5.449569974e-15 0)
(3 5.822128398e-15 0)
(3 4.997485164e-15 0)
(3 4.081396201e-15 0)
(3 6.250240554e-15 0)
(3 5.684516751e-15 0)
(3 2.748357745e-15 0)
(3 1.884278112e-15 0)
(3 2.187031411e-15 0)
(3 1.426404499e-15 0)
(3 6.021419397e-16 0)
(3 -2.297915599e-15 0)
(3 -2.62919343e-15 0)
(3 -1.89607741e-15 0)
(3 -1.13074117e-15 0)
(3 -4.896509718e-17 0)
(3 5.156357443e-16 0)
(3 2.626397706e-15 0)
(3 2.478904808e-15 0)
(3 6.24021367e-16 0)
(3 -9.613504626e-16 0)
(3 -4.556271496e-15 0)
(3 -6.365272032e-15 0)
(3 -6.079090073e-15 0)
(3 -5.549151164e-15 0)
(3 -7.008249461e-15 0)
(3 -6.816271076e-15 0)
(3 -2.888394556e-15 0)
(3 3.496312321e-16 0)
(3 1.805617223e-15 0)
(3 1.615269575e-15 0)
(3 3.323950415e-15 0)
(3 1.01594278e-15 0)
(3 -1.617896988e-15 0)
(3 2.113601e-15 0)
(3 4.223218911e-15 0)
(3 5.88119663e-15 0)
(3 4.008251229e-15 0)
(3 4.261569599e-15 0)
(3 4.688109341e-15 0)
(3 4.157040334e-15 0)
(3 4.043458245e-15 0)
(3 3.398641001e-15 0)
(3 6.563631155e-15 0)
(3 3.154151182e-15 0)
(3 5.000087612e-15 0)
(3 3.104587001e-15 0)
(3 2.289939166e-15 0)
(3 2.039353454e-15 0)
(3 1.430296996e-15 0)
(3 -7.424300956e-18 0)
(3 -6.008184909e-16 0)
(3 -2.515029773e-15 0)
(3 -3.144715236e-15 0)
(3 -2.262506042e-15 0)
(3 -5.295544002e-15 0)
(3 -7.134922872e-15 0)
(3 -6.664511389e-15 0)
(3 -4.677431158e-15 0)
(3 -3.920825278e-15 0)
(3 6.688887598e-16 0)
(3 4.720455891e-15 0)
(3 4.009789173e-15 0)
(3 4.558466728e-15 0)
(3 4.395148193e-15 0)
(3 3.781029144e-15 0)
(3 3.4228138e-16 0)
(3 -9.164033482e-16 0)
(3 4.704821267e-15 0)
(3 7.399417381e-15 0)
(3 8.682406116e-15 0)
(3 8.274457837e-15 0)
(3 4.572766232e-15 0)
(3 4.753896078e-15 0)
(3 5.571205272e-15 0)
(3 5.029373372e-15 0)
(3 5.206949531e-15 0)
(3 6.074578409e-15 0)
(3 6.362446428e-15 0)
(3 9.185355773e-15 0)
(3 9.478123898e-15 0)
(3 6.981952405e-15 0)
(3 4.920127094e-15 0)
(3 2.189094219e-15 0)
(3 -8.886696812e-16 0)
(3 -2.812970664e-15 0)
(3 -6.499224724e-15 0)
(3 -6.378161269e-15 0)
(3 -5.572844759e-15 0)
(3 -6.867004939e-15 0)
(3 -7.176566524e-15 0)
(3 -5.743341635e-15 0)
(3 -4.189189958e-15 0)
(3 -2.727549818e-15 0)
(3 2.792204475e-15 0)
(3 4.289901832e-15 0)
(3 2.760215985e-15 0)
(3 2.156087915e-15 0)
(3 2.825854257e-15 0)
(3 3.881397261e-15 0)
(3 5.140506153e-15 0)
(3 8.086405555e-15 0)
(3 1.242143949e-14 0)
(3 1.106561615e-14 0)
(3 1.12487849e-14 0)
(3 1.187418735e-14 0)
(3 1.202841421e-14 0)
(3 1.038251918e-14 0)
(3 7.136788734e-15 0)
(3 7.236423797e-15 0)
(3 8.201290607e-15 0)
(3 7.161603404e-15 0)
(3 7.957941257e-15 0)
(3 7.797893152e-15 0)
(3 6.717980903e-15 0)
(3 6.476845591e-15 0)
(3 5.578139252e-15 0)
(3 5.680274016e-15 0)
(3 3.974626885e-15 0)
(3 1.936232073e-15 0)
(3 -5.392888011e-16 0)
(3 -7.201067736e-15 0)
(3 -7.313831502e-15 0)
(3 -6.722597761e-15 0)
(3 -4.776892831e-15 0)
(3 -5.071473985e-15 0)
(3 -2.343436051e-15 0)
(3 2.263983782e-15 0)
(3 4.33972016e-15 0)
(3 4.035896546e-15 0)
(3 4.283082277e-15 0)
(3 3.517646039e-15 0)
(3 3.685691906e-15 0)
(3 4.856594691e-15 0)
(3 3.392842067e-15 0)
(3 2.371131081e-15 0)
(3 2.095949356e-15 0)
(3 3.467223416e-15 0)
(3 5.023289971e-15 0)
(3 7.692101116e-15 0)
(3 1.083652284e-14 0)
(3 1.089359198e-14 0)
(3 1.128532071e-14 0)
(3 1.059139891e-14 0)
(3 9.43969775e-15 0)
(3 6.969870209e-15 0)
(3 4.23367595e-15 0)
(3 3.966727647e-15 0)
(3 3.879750475e-15 0)
(3 4.465888947e-15 0)
(3 3.812194062e-15 0)
(3 1.909461825e-15 0)
(3 1.739632496e-15 0)
(3 8.898065173e-16 0)
(3 -1.719713092e-15 0)
(3 -2.437399883e-15 0)
(3 -4.588057396e-15 0)
(3 -3.495395186e-15 0)
(3 -1.182144582e-15 0)
(3 -1.06608557e-15 0)
(3 4.900590292e-15 0)
(3 9.444791032e-15 0)
(3 9.61950081e-15 0)
(3 7.989071716e-15 0)
(3 6.36382081e-15 0)
(3 6.181025753e-15 0)
(3 6.671889132e-15 0)
(3 6.622277091e-15 0)
(3 -7.222326838e-16 0)
(3 -1.697199926e-15 0)
(3 -2.107299422e-15 0)
(3 -1.946036888e-15 0)
(3 2.138726605e-15 0)
(3 1.733120687e-15 0)
(3 3.894236863e-15 0)
(3 6.304221401e-15 0)
(3 7.371041445e-15 0)
(3 6.927471386e-15 0)
(3 4.390405944e-15 0)
(3 1.042795796e-15 0)
(3 -1.718228539e-15 0)
(3 -1.675244834e-15 0)
(3 9.993786216e-16 0)
(3 8.78710201e-16 0)
(3 4.683998779e-16 0)
(3 2.776250551e-16 0)
(3 -1.95664694e-16 0)
(3 -9.732846214e-16 0)
(3 -7.486356953e-16 0)
(3 -7.51605431e-16 0)
(3 -1.620358725e-15 0)
(3 -1.507251141e-15 0)
(3 -1.077842593e-15 0)
(3 1.144498427e-15 0)
(3 9.290230616e-15 0)
(3 1.212791986e-14 0)
(3 1.137662e-14 0)
(3 1.09134443e-14 0)
(3 9.516952339e-15 0)
(3 8.402287472e-15 0)
(3 8.089319414e-15 0)
(3 8.064628829e-15 0)
(3 -2.163728139e-15 0)
(3 -5.115193217e-15 0)
(3 -4.512612949e-15 0)
(3 -4.962026529e-15 0)
(3 -5.454141387e-15 0)
(3 -4.32988859e-15 0)
(3 1.112594528e-15 0)
(3 4.773073272e-15 0)
(3 3.679526752e-15 0)
(3 2.692685608e-15 0)
(3 3.100662856e-15 0)
(3 3.13150974e-15 0)
(3 1.489877069e-15 0)
(3 -1.303769535e-16 0)
(3 -4.234957121e-16 0)
(3 1.60650989e-15 0)
(3 5.107862316e-15 0)
(3 5.326436695e-15 0)
(3 2.854991102e-15 0)
(3 -1.82704422e-15 0)
(3 -2.577394506e-15 0)
(3 -2.884204749e-15 0)
(3 -2.176305493e-15 0)
(3 1.364717488e-15 0)
(3 3.506803489e-15 0)
(3 8.287024587e-15 0)
(3 1.467003847e-14 0)
(3 1.496192157e-14 0)
(3 1.319563706e-14 0)
(3 1.162253502e-14 0)
(3 9.598214813e-15 0)
(3 6.560559664e-15 0)
(3 6.086377946e-15 0)
(3 5.561640606e-15 0)
(3 -5.51017283e-15 0)
(3 -8.072990039e-15 0)
(3 -8.624523381e-15 0)
(3 -7.864566319e-15 0)
(3 -6.440926158e-15 0)
(3 -3.676064495e-15 0)
(3 6.769282806e-16 0)
(3 2.782941177e-15 0)
(3 5.521521177e-15 0)
(3 6.84171752e-15 0)
(3 7.024092599e-15 0)
(3 7.282834201e-15 0)
(3 6.591384478e-15 0)
(3 5.155219913e-15 0)
(3 3.622557523e-15 0)
(3 3.399760447e-15 0)
(3 3.878121629e-15 0)
(3 2.288988792e-15 0)
(3 -5.43926563e-16 0)
(3 -4.37861425e-15 0)
(3 -4.897865347e-15 0)
(3 -3.20972252e-15 0)
(3 -1.547838886e-15 0)
(3 1.24643923e-15 0)
(3 5.646087728e-15 0)
(3 1.037943616e-14 0)
(3 1.277499498e-14 0)
(3 1.358731977e-14 0)
(3 1.383636108e-14 0)
(3 1.120070963e-14 0)
(3 8.506955117e-15 0)
(3 5.887040541e-15 0)
(3 5.469507258e-15 0)
(3 2.338864649e-15 0)
(3 -8.933829723e-15 0)
(3 -9.806950227e-15 0)
(3 -9.878602835e-15 0)
(3 -6.998771988e-15 0)
(3 -1.506374384e-15 0)
(3 1.131283921e-15 0)
(3 2.59793891e-15 0)
(3 3.766846369e-15 0)
(3 5.221543809e-15 0)
(3 7.116963378e-15 0)
(3 7.584883569e-15 0)
(3 9.075419063e-15 0)
(3 8.289183901e-15 0)
(3 6.348506526e-15 0)
(3 5.994019708e-15 0)
(3 4.295670993e-15 0)
(3 1.425417219e-15 0)
(3 -2.66104651e-15 0)
(3 -6.444635915e-15 0)
(3 -7.021076017e-15 0)
(3 -6.764258338e-15 0)
(3 -2.736571964e-15 0)
(3 2.956698586e-16 0)
(3 3.60483648e-15 0)
(3 5.471802589e-15 0)
(3 6.066492689e-15 0)
(3 7.398673245e-15 0)
(3 9.247927668e-15 0)
(3 1.190159133e-14 0)
(3 1.103303849e-14 0)
(3 9.294428069e-15 0)
(3 7.543960635e-15 0)
(3 5.467789995e-15 0)
(3 -4.586838522e-16 0)
(3 1.071236711e-14 0)
(3 1.29507971e-14 0)
(3 1.403153845e-14 0)
(3 9.860270492e-15 0)
(3 1.032196692e-14 0)
(3 1.216652666e-14 0)
(3 1.271817025e-14 0)
(3 1.250335343e-14 0)
(3 1.149348035e-14 0)
(3 8.8988623e-15 0)
(3 8.74567512e-15 0)
(3 8.16332489e-15 0)
(3 7.515677922e-15 0)
(3 9.250077734e-15 0)
(3 9.013203887e-15 0)
(3 7.901685395e-15 0)
(3 9.623816858e-15 0)
(3 1.045694731e-14 0)
(3 1.068688453e-14 0)
(3 9.305936816e-15 0)
(3 9.034503072e-15 0)
(3 8.083308202e-15 0)
(3 8.179181705e-15 0)
(3 8.383766219e-15 0)
(3 9.405673176e-15 0)
(3 1.137110785e-14 0)
(3 1.361059197e-14 0)
(3 1.488633972e-14 0)
(3 1.409544142e-14 0)
(3 1.483447772e-14 0)
(3 1.676844664e-14 0)
(3 7.82529976e-15 0)
(3 6.184373886e-15 0)
(3 5.63444771e-15 0)
(3 5.411758095e-15 0)
(3 5.460023085e-15 0)
(3 5.108465682e-15 0)
(3 6.261607165e-15 0)
(3 7.861730434e-15 0)
(3 1.090346425e-14 0)
(3 1.06036464e-14 0)
(3 1.121208103e-14 0)
(3 1.272310426e-14 0)
(3 1.488594313e-14 0)
(3 1.589607292e-14 0)
(3 1.399720921e-14 0)
(3 1.261131415e-14 0)
(3 1.305927756e-14 0)
(3 1.377899092e-14 0)
(3 1.530759845e-14 0)
(3 1.446731439e-14 0)
(3 1.278708447e-14 0)
(3 1.097909727e-14 0)
(3 1.012103472e-14 0)
(3 8.909087648e-15 0)
(3 6.755136188e-15 0)
(3 5.396196426e-15 0)
(3 7.271516653e-15 0)
(3 7.483773788e-15 0)
(3 8.081141301e-15 0)
(3 7.720054402e-15 0)
(3 9.395219937e-15 0)
(3 1.17636316e-14 0)
(3 1.106196505e-14 0)
(3 1.137905606e-14 0)
(3 1.231509572e-14 0)
(3 1.395742991e-14 0)
(3 1.532798605e-14 0)
(3 1.607400041e-14 0)
(3 1.570144769e-14 0)
(3 1.224354102e-14 0)
(3 1.042042155e-14 0)
(3 1.072885715e-14 0)
(3 1.019702985e-14 0)
(3 7.340456054e-15 0)
(3 5.202855714e-15 0)
(3 4.660427878e-15 0)
(3 4.480459729e-15 0)
(3 3.516901047e-15 0)
(3 3.867731346e-15 0)
(3 5.698488538e-15 0)
(3 5.960600534e-15 0)
(3 3.881374971e-15 0)
(3 1.799134653e-15 0)
(3 1.588893747e-15 0)
(3 2.093754144e-16 0)
(3 -1.785091623e-15 0)
(3 3.78421461e-15 0)
(3 1.247944053e-14 0)
(3 1.320497919e-14 0)
(3 1.470921551e-14 0)
(3 1.635495644e-14 0)
(3 1.648031165e-14 0)
(3 1.637717264e-14 0)
(3 1.578032695e-14 0)
(3 1.480864291e-14 0)
(3 1.529416649e-14 0)
(3 1.639755224e-14 0)
(3 1.659385428e-14 0)
(3 1.553506457e-14 0)
(3 1.535301644e-14 0)
(3 1.448729412e-14 0)
(3 1.143167356e-14 0)
(3 8.318567383e-15 0)
(3 8.218594311e-15 0)
(3 8.057883161e-15 0)
(3 6.179461476e-15 0)
(3 4.091485309e-15 0)
(3 2.270540144e-15 0)
(3 1.053472591e-15 0)
(3 -3.501730155e-16 0)
(3 -2.014983509e-15 0)
(3 -2.479004315e-15 0)
(3 -2.324799378e-15 0)
(3 -1.575556991e-15 0)
(3 -1.698655408e-15 0)
(3 -3.476253666e-15 0)
(3 -3.95016995e-15 0)
(3 -3.748747031e-15 0)
(3 -3.242018406e-15 0)
(3 3.005553252e-15 0)
(3 5.346819103e-15 0)
(3 7.6815801e-15 0)
(3 1.377035757e-14 0)
(3 1.506705006e-14 0)
(3 1.496793106e-14 0)
(3 1.363816961e-14 0)
(3 1.301895415e-14 0)
(3 1.447895067e-14 0)
(3 1.445898894e-14 0)
(3 1.371591626e-14 0)
(3 1.251149586e-14 0)
(3 1.362132189e-14 0)
(3 1.415434091e-14 0)
(3 1.315862503e-14 0)
(3 1.08485086e-14 0)
(3 5.688944289e-15 0)
(3 3.990674199e-15 0)
(3 3.061543351e-15 0)
(3 3.721794323e-15 0)
(3 2.941866692e-15 0)
(3 2.284368246e-15 0)
(3 1.517978987e-15 0)
(3 1.203967814e-15 0)
(3 -7.086467485e-18 0)
(3 -4.037021443e-16 0)
(3 -8.602631163e-16 0)
(3 -1.882066488e-15 0)
(3 -2.837819259e-15 0)
(3 -3.591831804e-15 0)
(3 -3.803509896e-15 0)
(3 -3.740705305e-15 0)
(3 -3.044039502e-15 0)
(3 -2.875161936e-15 0)
(3 2.76726532e-16 0)
(3 3.928653217e-15 0)
(3 6.648713194e-15 0)
(3 9.321894984e-15 0)
(3 1.131778038e-14 0)
(3 1.08982344e-14 0)
(3 1.039338613e-14 0)
(3 1.017390787e-14 0)
(3 1.215641445e-14 0)
(3 1.245835947e-14 0)
(3 1.330599876e-14 0)
(3 1.351545198e-14 0)
(3 8.753708203e-15 0)
(3 8.145980089e-15 0)
(3 8.190239372e-15 0)
(3 8.128262127e-15 0)
(3 6.042898453e-15 0)
(3 3.219980069e-15 0)
(3 1.936240112e-15 0)
(3 1.679934422e-15 0)
(3 1.832392652e-15 0)
(3 2.77065173e-15 0)
(3 2.829631025e-15 0)
(3 2.304215249e-15 0)
(3 8.220116475e-16 0)
(3 4.112748765e-16 0)
(3 -8.763553289e-16 0)
(3 -1.764854396e-15 0)
(3 -3.636550609e-15 0)
(3 -2.362216734e-15 0)
(3 -2.353055246e-15 0)
(3 -2.844417944e-15 0)
(3 -7.5272231e-15 0)
(3 -5.514400808e-15 0)
(3 -3.401635288e-15 0)
(3 6.613487527e-16 0)
(3 1.329821757e-15 0)
(3 3.885975413e-15 0)
(3 6.132902927e-15 0)
(3 8.279329804e-15 0)
(3 8.819978339e-15 0)
(3 8.634518291e-15 0)
(3 7.812518726e-15 0)
(3 6.86695864e-15 0)
(3 5.681287097e-15 0)
(3 5.496371375e-15 0)
(3 6.231606628e-15 0)
(3 6.857092622e-15 0)
(3 7.149590692e-15 0)
(3 6.152203905e-15 0)
(3 4.133650606e-15 0)
(3 2.879453146e-15 0)
(3 1.597569167e-15 0)
(3 1.118833257e-15 0)
(3 1.145199574e-15 0)
(3 1.498974605e-15 0)
(3 1.143175927e-15 0)
(3 1.41033476e-15 0)
(3 8.282941313e-16 0)
(3 1.610932282e-15 0)
(3 1.653826191e-15 0)
(3 1.114240204e-15 0)
(3 -1.724131887e-16 0)
(3 -2.114210037e-15 0)
(3 -1.316465197e-15 0)
(3 -9.44349706e-15 0)
(3 -9.695801762e-15 0)
(3 -7.952219979e-15 0)
(3 -4.876504455e-15 0)
(3 -1.354934796e-15 0)
(3 8.616649535e-16 0)
(3 2.985344411e-15 0)
(3 3.320544218e-15 0)
(3 2.585378087e-15 0)
(3 2.564431803e-15 0)