/*--------------------------------*- C++ -*----------------------------------*\
  =========                 |
  \\      /  F ield         | OpenFOAM: The Open Source CFD Toolbox
   \\    /   O peration     | Website:  https://openfoam.org
    \\  /    A nd           | Version:  7
     \\/     M anipulation  |
\*---------------------------------------------------------------------------*/
FoamFile
{
    version     2.0;
    format      ascii;
    class       volVectorField;
    location    "1";
    object      U;
}
// * * * * * * * * * * * * * * * * * * * * * * * * * * * * * * * * * * * * * //

dimensions      [0 1 -1 0 0 0 0];

internalField   nonuniform List<vector> 
2222
(
(2.61800148 0.01120019028 0)
(2.627188862 0.01022987599 0)
(2.638619947 0.01112843331 0)
(2.650592056 0.01179654779 0)
(2.661909714 0.0124185966 0)
(2.672645111 0.01292938199 0)
(2.6836384 0.01301857449 0)
(2.694840649 0.01293680042 0)
(2.705695857 0.01298426839 0)
(2.715870667 0.01309606442 0)
(2.725409176 0.01346906757 0)
(2.734235199 0.01344016875 0)
(2.742365253 0.01281152106 0)
(2.750721366 0.01280137715 0)
(2.759288422 0.01331376859 0)
(2.767361617 0.01376092295 0)
(2.774876544 0.01398109793 0)
(2.782285411 0.01397290637 0)
(2.789879939 0.01378282907 0)
(2.797585532 0.01366574255 0)
(2.805112377 0.01366885044 0)
(2.812228984 0.0137942574 0)
(2.81889048 0.01376419016 0)
(2.825317712 0.01361749508 0)
(2.831763506 0.01330746767 0)
(2.838408634 0.012980159 0)
(2.845232633 0.01282871552 0)
(2.852066128 0.01270948933 0)
(2.858818809 0.01257875956 0)
(2.865714018 0.01270923566 0)
(2.871654869 0.01262176773 0)
(2.881532935 0.01248202409 0)
(2.627741033 0.02905818582 0)
(2.640082253 0.02304773573 0)
(2.653799135 0.02177588223 0)
(2.666132287 0.02160396496 0)
(2.676905419 0.02174119181 0)
(2.686529038 0.02212719623 0)
(2.695386877 0.02233886728 0)
(2.704705113 0.02270207944 0)
(2.714565523 0.02301424841 0)
(2.724374725 0.02354243664 0)
(2.733714919 0.02437569554 0)
(2.742406944 0.024022965 0)
(2.749784709 0.0233442695 0)
(2.757658033 0.02389718411 0)
(2.766294355 0.02490751986 0)
(2.774756429 0.02542338738 0)
(2.782625501 0.02559040834 0)
(2.790105052 0.02532958721 0)
(2.797587139 0.02477681111 0)
(2.805212817 0.02446877584 0)
(2.812760248 0.02449563792 0)
(2.819934301 0.02472861165 0)
(2.826579978 0.02466493115 0)
(2.832883557 0.02432231014 0)
(2.839125274 0.02369797954 0)
(2.845546621 0.02305995427 0)
(2.852196271 0.02269259664 0)
(2.858917756 0.02242695485 0)
(2.86559289 0.02218925178 0)
(2.872474069 0.02233780625 0)
(2.878411858 0.02222957684 0)
(2.888235104 0.02202649614 0)
(2.645842032 0.04163199331 0)
(2.656987804 0.04208538436 0)
(2.665086021 0.0426658805 0)
(2.673227401 0.04152812901 0)
(2.682088646 0.04105348252 0)
(2.690933384 0.04094309028 0)
(2.699335481 0.03996848131 0)
(2.707689599 0.03957585362 0)
(2.716236553 0.03972277505 0)
(2.724825737 0.04030545601 0)
(2.73319561 0.04116909247 0)
(2.740984703 0.04009472043 0)
(2.748614843 0.04016327959 0)
(2.756620146 0.04055522702 0)
(2.765493005 0.04120805325 0)
(2.774239395 0.04188353382 0)
(2.782041634 0.04209922583 0)
(2.789263392 0.04165691371 0)
(2.796662757 0.040920453 0)
(2.80428772 0.04059011831 0)
(2.81167748 0.04061362895 0)
(2.818451823 0.04076835618 0)
(2.824624666 0.04044770839 0)
(2.830553184 0.03976361139 0)
(2.836606702 0.03874678251 0)
(2.842967471 0.03775837342 0)
(2.849548465 0.03714150937 0)
(2.856157496 0.03666956291 0)
(2.862669221 0.03621911077 0)
(2.869298572 0.03628926918 0)
(2.875063512 0.03606294019 0)
(2.884664346 0.03564508009 0)
(2.655946695 0.06277411052 0)
(2.667949078 0.06458772515 0)
(2.676803743 0.0602163656 0)
(2.684621464 0.05674602776 0)
(2.693060877 0.05653649584 0)
(2.701467666 0.05661021429 0)
(2.709184919 0.0556993674 0)
(2.716394703 0.05535739146 0)
(2.723544215 0.05565469109 0)
(2.730862315 0.05686719817 0)
(2.738382649 0.0576199847 0)
(2.748257112 0.05924667333 0)
(2.757538536 0.05968911639 0)
(2.766089079 0.0588622616 0)
(2.774221952 0.05806907857 0)
(2.781449973 0.05882301586 0)
(2.787371509 0.0588991117 0)
(2.793538963 0.05839220277 0)
(2.800474977 0.05763780799 0)
(2.80777971 0.05743292835 0)
(2.814707572 0.05762028601 0)
(2.820819567 0.05793009986 0)
(2.826255808 0.05757480981 0)
(2.831547444 0.05671274197 0)
(2.837183544 0.05539112476 0)
(2.843330781 0.05413177133 0)
(2.849793965 0.05341072244 0)
(2.856249885 0.05291053912 0)
(2.86247972 0.0524012764 0)
(2.868690827 0.05256740876 0)
(2.874002324 0.05226101828 0)
(2.882862037 0.05157797319 0)
(2.657572145 0.08470020916 0)
(2.66201864 0.08346076894 0)
(2.670353787 0.07636634849 0)
(2.680381483 0.07447935136 0)
(2.690986561 0.07420051265 0)
(2.700701286 0.07372706554 0)
(2.709404132 0.07292012383 0)
(2.716928276 0.07258123138 0)
(2.724026738 0.07277004859 0)
(2.73134067 0.0741545537 0)
(2.738817988 0.07447786097 0)
(2.745416355 0.07635180005 0)
(2.754125899 0.07596797004 0)
(2.763485182 0.07458256636 0)
(2.771254526 0.07313146339 0)
(2.778828051 0.07530448951 0)
(2.78676503 0.0760780252 0)
(2.794809014 0.07586160531 0)
(2.802405531 0.07542800525 0)
(2.809482148 0.07533350803 0)
(2.816280274 0.07541930802 0)
(2.822920416 0.07564859991 0)
(2.829380451 0.07524223483 0)
(2.835651056 0.07433538474 0)
(2.841845994 0.07287663908 0)
(2.848091626 0.07144237261 0)
(2.854426827 0.0705449114 0)
(2.860799509 0.06993072748 0)
(2.867085953 0.06933250894 0)
(2.873438455 0.0695077145 0)
(2.878881427 0.06926754935 0)
(2.887758225 0.06849518613 0)
(2.655577218 0.09885573379 0)
(2.659773727 0.09567731896 0)
(2.671468041 0.09432845346 0)
(2.68524953 0.0986216797 0)
(2.695502393 0.0955151806 0)
(2.704796188 0.09284606301 0)
(2.714312287 0.09182641786 0)
(2.723325373 0.09159139097 0)
(2.731956585 0.09185809116 0)
(2.740280252 0.09313609649 0)
(2.747734194 0.09273601938 0)
(2.754645573 0.09319499287 0)
(2.762406119 0.09256516178 0)
(2.768521247 0.09176721233 0)
(2.775239824 0.09066554257 0)
(2.783379971 0.09103263898 0)
(2.792175319 0.0908386287 0)
(2.80121527 0.09088695723 0)
(2.809296106 0.09091774005 0)
(2.81623976 0.09087102458 0)
(2.822835443 0.09058114724 0)
(2.829692891 0.09033321978 0)
(2.836785275 0.08951737194 0)
(2.843706371 0.08837940076 0)
(2.850229595 0.08682042565 0)
(2.856418917 0.08536716138 0)
(2.862486498 0.08444321813 0)
(2.868674866 0.08373556524 0)
(2.874978964 0.08294010607 0)
(2.88148402 0.08295951976 0)
(2.887194887 0.08254156669 0)
(2.896327188 0.08145534837 0)
(2.691124665 0.05454704536 0)
(2.680604013 0.0918805978 0)
(2.671802622 0.1138600865 0)
(2.675643649 0.1160509386 0)
(2.684185975 0.1115347492 0)
(2.694816141 0.1099096341 0)
(2.706032722 0.1085373184 0)
(2.716995671 0.1074789943 0)
(2.727499176 0.1075895329 0)
(2.73708734 0.1087446333 0)
(2.745669709 0.1084351695 0)
(2.753840439 0.1079714347 0)
(2.762647814 0.1080784945 0)
(2.771789754 0.1089166051 0)
(2.777968456 0.1087727217 0)
(2.783490508 0.1072052435 0)
(2.790937632 0.1063339055 0)
(2.799317154 0.1063448229 0)
(2.806331164 0.1062000753 0)
(2.81236246 0.1055371854 0)
(2.818563782 0.1047072605 0)
(2.825309724 0.1041181205 0)
(2.832318451 0.1031689196 0)
(2.83910511 0.1020672192 0)
(2.84551361 0.1006117189 0)
(2.851666838 0.09924798123 0)
(2.857802299 0.09829017744 0)
(2.864144397 0.09748710976 0)
(2.870626857 0.09652013797 0)
(2.877293557 0.09634743705 0)
(2.883119382 0.09582878039 0)
(2.892341067 0.0945329727 0)
(2.734810043 -0.01427363362 0)
(2.68901082 0.1359065058 0)
(2.672290095 0.1320755535 0)
(2.675504296 0.1289112804 0)
(2.683512022 0.1273753258 0)
(2.697522195 0.1318244429 0)
(2.709188033 0.1291207215 0)
(2.719132031 0.1265145141 0)
(2.728123863 0.1256223851 0)
(2.736149135 0.1253752191 0)
(2.743959539 0.1244052246 0)
(2.75225294 0.1236569905 0)
(2.761011934 0.1239959774 0)
(2.768993314 0.124812845 0)
(2.777014435 0.1248254235 0)
(2.785233375 0.1240649179 0)
(2.793080819 0.1230526415 0)
(2.799789238 0.12303191 0)
(2.805590773 0.1239984017 0)
(2.811386721 0.1237244869 0)
(2.817721438 0.1230172215 0)
(2.824430532 0.1225121224 0)
(2.831188465 0.1217334529 0)
(2.83773011 0.1208482911 0)
(2.844120228 0.1195464821 0)
(2.850508345 0.1182523296 0)
(2.857022048 0.1171732028 0)
(2.863737217 0.11621956 0)
(2.870476454 0.1150411864 0)
(2.877247004 0.1146234392 0)
(2.883062996 0.1140313544 0)
(2.892173655 0.1125331787 0)
(2.7789773 -0.1416504147 0)
(2.738792037 0.004994361052 0)
(2.704140879 0.09692071671 0)
(2.69596001 0.1272601348 0)
(2.689588279 0.148663394 0)
(2.691920057 0.1503132054 0)
(2.699960208 0.1466114974 0)
(2.710797863 0.1451800137 0)
(2.721447354 0.1438830618 0)
(2.73092419 0.1420602031 0)
(2.740466353 0.1402591312 0)
(2.750506682 0.1395161415 0)
(2.760115505 0.1402345175 0)
(2.769082625 0.1410872395 0)
(2.778623441 0.1410411717 0)
(2.788182546 0.140672823 0)
(2.797008666 0.1401144005 0)
(2.803877232 0.1399142501 0)
(2.809369897 0.1388643202 0)
(2.815934372 0.1382075812 0)
(2.823066631 0.1374908559 0)
(2.830192878 0.1370400373 0)
(2.837068975 0.1363807594 0)
(2.843625034 0.135591102 0)
(2.85006261 0.1342972731 0)
(2.856567492 0.1329212492 0)
(2.863229648 0.1316306085 0)
(2.870079665 0.1304876257 0)
(2.876891762 0.1291017539 0)
(2.883653128 0.1284667867 0)
(2.889415517 0.127799185 0)
(2.898368043 0.1261855769 0)
(2.832438679 -0.2693986067 0)
(2.780000239 -0.1112993949 0)
(2.746427102 0.0315622122 0)
(2.708586608 0.1734055447 0)
(2.690634973 0.1672024238 0)
(2.693062227 0.1635374883 0)
(2.701210974 0.1616214382 0)
(2.714894574 0.1659001337 0)
(2.727078401 0.1628776991 0)
(2.736443137 0.1588328044 0)
(2.745304884 0.1576345438 0)
(2.753344161 0.156551004 0)
(2.760263071 0.156039562 0)
(2.767233966 0.1553837588 0)
(2.775013856 0.1549791208 0)
(2.782546568 0.1541506302 0)
(2.79001755 0.1540658936 0)
(2.796553539 0.1532180645 0)
(2.804020821 0.1517261385 0)
(2.811319092 0.1513873127 0)
(2.818590664 0.1508929298 0)
(2.825692446 0.1505848984 0)
(2.832504201 0.1500358261 0)
(2.839003917 0.1492852846 0)
(2.84540466 0.1479922713 0)
(2.851854071 0.146565256 0)
(2.858462504 0.1451286975 0)
(2.865257863 0.1438501454 0)
(2.872061978 0.1423031106 0)
(2.878852879 0.1414694229 0)
(2.884621913 0.1407043338 0)
(2.893554141 0.1389414584 0)
(2.849363539 -0.2941556756 0)
(2.839039881 -0.2446910902 0)
(2.792202698 -0.08533541637 0)
(2.746634975 0.07202305908 0)
(2.715109017 0.138291346 0)
(2.711026443 0.1625925603 0)
(2.709732101 0.1846456184 0)
(2.712972389 0.1846676042 0)
(2.71942352 0.180213165 0)
(2.729823514 0.1767450893 0)
(2.740795978 0.1765119982 0)
(2.750292425 0.1754629468 0)
(2.758080571 0.1744498754 0)
(2.765661702 0.1728055924 0)
(2.773422716 0.172256997 0)
(2.78114326 0.1717416191 0)
(2.788322436 0.1722209261 0)
(2.795475383 0.1718650933 0)
(2.802800241 0.1706986716 0)
(2.809926125 0.1700087016 0)
(2.816902405 0.1693223341 0)
(2.82372947 0.1689757528 0)
(2.830425871 0.1685530385 0)
(2.836971564 0.1679613965 0)
(2.843450389 0.1668638372 0)
(2.849881781 0.1655695979 0)
(2.856388446 0.1640735977 0)
(2.863061885 0.1626775626 0)
(2.869831129 0.1609161119 0)
(2.876645651 0.159808546 0)
(2.88241453 0.1589788901 0)
(2.891252512 0.1571580543 0)
(2.860499881 -0.2999943116 0)
(2.858542457 -0.2740640507 0)
(2.848951422 -0.2184975631 0)
(2.788695911 -0.04396647772 0)
(2.748770538 0.08035007272 0)
(2.725511174 0.2038484403 0)
(2.713399152 0.2026199222 0)
(2.714322559 0.1974184878 0)
(2.720390231 0.1929499891 0)
(2.732699911 0.1949490133 0)
(2.74529986 0.1958694739 0)
(2.755639319 0.1921734498 0)
(2.76419315 0.1898861278 0)
(2.772160973 0.1880767392 0)
(2.779992098 0.1874897254 0)
(2.787776068 0.186924549 0)
(2.795128386 0.1874843476 0)
(2.802417127 0.187269819 0)
(2.809583552 0.1860271701 0)
(2.816317633 0.1849550709 0)
(2.822827772 0.1840531693 0)
(2.829317435 0.1836351779 0)
(2.83592287 0.1831548535 0)
(2.842575342 0.1824712523 0)
(2.849225927 0.1813812575 0)
(2.85577564 0.1801222725 0)
(2.862297788 0.1785881781 0)
(2.868920979 0.1770679981 0)
(2.875638939 0.1751329315 0)
(2.882403006 0.1738024404 0)
(2.888156167 0.1729192488 0)
(2.896941923 0.1711051225 0)
(2.863349369 -0.2908349864 0)
(2.870702847 -0.2838894042 0)
(2.867496993 -0.2496766909 0)
(2.852531455 -0.1838596865 0)
(2.806839909 -0.03120958929 0)
(2.743736585 0.1472517825 0)
(2.723901543 0.1813211071 0)
(2.723482738 0.1946848604 0)
(2.727910178 0.2114915704 0)
(2.733815937 0.2161969403 0)
(2.741980768 0.2127842219 0)
(2.751191194 0.2071097977 0)
(2.760432506 0.2059320202 0)
(2.768826884 0.2043679166 0)
(2.776522457 0.2032423161 0)
(2.783857856 0.2022304029 0)
(2.790707059 0.2024343136 0)
(2.797511038 0.2021042087 0)
(2.804473593 0.2006920101 0)
(2.811379559 0.1993350284 0)
(2.818181567 0.1981514714 0)
(2.824876169 0.1974437585 0)
(2.83154477 0.1966930563 0)
(2.838187024 0.1957496628 0)
(2.844807146 0.1946498321 0)
(2.851324465 0.1934710338 0)
(2.857805659 0.1919534685 0)
(2.864368198 0.1903172165 0)
(2.871036992 0.1882719445 0)
(2.877774333 0.1867347009 0)
(2.883519875 0.1858196361 0)
(2.892420125 0.1840205353 0)
(2.867541997 -0.2770200481 0)
(2.873233719 -0.2770259479 0)
(2.880709763 -0.2569581176 0)
(2.877781256 -0.2249377955 0)
(2.862948798 -0.158770318 0)
(2.790626518 0.02255039341 0)
(2.748800574 0.1292459185 0)
(2.735741961 0.2118300595 0)
(2.731137391 0.2390103774 0)
(2.735426208 0.2381640708 0)
(2.743404255 0.2301000794 0)
(2.751201098 0.2257515178 0)
(2.757175379 0.2250429299 0)
(2.763680564 0.2221742651 0)
(2.770756898 0.2210675032 0)
(2.777517881 0.2207238176 0)
(2.783825871 0.2208548583 0)
(2.790312108 0.2204286108 0)
(2.79754144 0.2191033146 0)
(2.805390472 0.2176598415 0)
(2.813443265 0.216277889 0)
(2.821212532 0.2154081697 0)
(2.828512825 0.2146901389 0)
(2.835410897 0.2138798387 0)
(2.842109846 0.2129727055 0)
(2.848701627 0.2119359281 0)
(2.855269286 0.2105484918 0)
(2.861869269 0.2089308616 0)
(2.868500607 0.2069526499 0)
(2.875183028 0.2052520786 0)
(2.880903049 0.2043590193 0)
(2.890042734 0.2024805304 0)
(2.86948763 -0.2724270608 0)
(2.878997425 -0.2620817388 0)
(2.886911179 -0.2530692271 0)
(2.887867363 -0.2303166425 0)
(2.88551582 -0.2024445364 0)
(2.856692746 -0.1153693261 0)
(2.821751765 0.02700975454 0)
(2.744360765 0.2195276565 0)
(2.721968103 0.2296188339 0)
(2.726050983 0.2414541571 0)
(2.735385558 0.2434151155 0)
(2.745862969 0.2475106022 0)
(2.755218191 0.2464205253 0)
(2.764468518 0.2403917055 0)
(2.772102613 0.2376136875 0)
(2.779588976 0.2375751477 0)
(2.786501783 0.2374468814 0)
(2.793388723 0.2364556153 0)
(2.801010808 0.2348375757 0)
(2.809359834 0.2330990966 0)
(2.818009617 0.2313122779 0)
(2.826356939 0.2300727 0)
(2.834083677 0.2291162924 0)
(2.841226837 0.228092214 0)
(2.84807357 0.2271555968 0)
(2.854813685 0.226129728 0)
(2.861504528 0.2247483686 0)
(2.8681621 0.2231174411 0)
(2.874804386 0.2212425253 0)
(2.881489174 0.2194576192 0)
(2.887217913 0.2185596206 0)
(2.896403247 0.2164984729 0)
(2.875235695 -0.2613662538 0)
(2.879284446 -0.2577649087 0)
(2.894177965 -0.2358158581 0)
(2.894631796 -0.228707229 0)
(2.896114291 -0.2092961109 0)
(2.893087767 -0.1791919517 0)
(2.875539245 -0.09148396059 0)
(2.800829368 0.0965752586 0)
(2.771924522 0.1654313922 0)
(2.740934702 0.2347741803 0)
(2.728982555 0.2587561835 0)
(2.730356788 0.2646060107 0)
(2.740222346 0.2590635646 0)
(2.751875965 0.2541269062 0)
(2.764152237 0.2530625432 0)
(2.773685149 0.2530169525 0)
(2.782106254 0.2527423691 0)
(2.790213555 0.2522912739 0)
(2.798621007 0.2510589801 0)
(2.80724259 0.2491779446 0)
(2.815899687 0.2470901033 0)
(2.824276294 0.2457458013 0)
(2.832047071 0.244782743 0)
(2.839208899 0.243620927 0)
(2.846117529 0.2425718931 0)
(2.852971104 0.2415344545 0)
(2.859722165 0.2402604834 0)
(2.866349355 0.238794307 0)
(2.872915653 0.2370591827 0)
(2.879645623 0.2351910425 0)
(2.885371143 0.2342014121 0)
(2.894521684 0.2316778628 0)
(2.880017002 -0.2518910221 0)
(2.883860755 -0.2488180658 0)
(2.895399145 -0.2302474408 0)
(2.90292244 -0.2107505792 0)
(2.902200009 -0.2106451804 0)
(2.906668913 -0.1927272308 0)
(2.904121331 -0.1565423906 0)
(2.865206542 -0.04364620348 0)
(2.839034623 0.08917777697 0)
(2.757605638 0.2738174416 0)
(2.731894833 0.2767302405 0)
(2.733249513 0.2770983082 0)
(2.742170308 0.2748529881 0)
(2.753057169 0.2764856288 0)
(2.761770642 0.2734445155 0)
(2.769031166 0.2704333389 0)
(2.777063715 0.2682570578 0)
(2.7858431 0.2674446086 0)
(2.794531292 0.2658196669 0)
(2.802718466 0.2637239046 0)
(2.810351975 0.2615902308 0)
(2.817452972 0.2599741155 0)
(2.824339281 0.2586218453 0)
(2.831289151 0.2571670821 0)
(2.838285071 0.2560427947 0)
(2.845220149 0.2550701498 0)
(2.852106813 0.2540542594 0)
(2.859060314 0.2531106017 0)
(2.865871975 0.2518587091 0)
(2.872530854 0.2497018385 0)
(2.878243901 0.24848089 0)
(2.887973454 0.2459225546 0)
(2.88449776 -0.2427818437 0)
(2.888535219 -0.2394791279 0)
(2.899599268 -0.2211871277 0)
(2.905675083 -0.2020349091 0)
(2.909938602 -0.1952525685 0)
(2.912703924 -0.1959501574 0)
(2.918353197 -0.1685825565 0)
(2.909360399 -0.1269430376 0)
(2.88312857 -0.02175701662 0)
(2.810681892 0.1600524559 0)
(2.782738138 0.2244833021 0)
(2.761926235 0.2750039887 0)
(2.750288525 0.2932626077 0)
(2.750982242 0.2965944499 0)
(2.75746339 0.2926583296 0)
(2.766022205 0.2876187984 0)
(2.774105703 0.2861963827 0)
(2.782486878 0.2847717284 0)
(2.790537104 0.2824656982 0)
(2.797942491 0.2802549324 0)
(2.804718085 0.2783885977 0)
(2.811042974 0.2771342317 0)
(2.817490151 0.2756238304 0)
(2.824298501 0.2736641075 0)
(2.831033062 0.2722991172 0)
(2.837505029 0.2712462175 0)
(2.843937352 0.2701078897 0)
(2.850565045 0.2690070194 0)
(2.857179701 0.2677428767 0)
(2.863895041 0.2657671649 0)
(2.869970576 0.2643374872 0)
(2.880485899 0.2614560505 0)
(2.889670494 -0.2317876208 0)
(2.891886362 -0.2307299719 0)
(2.90548663 -0.2094231458 0)
(2.909867508 -0.1922626058 0)
(2.912755152 -0.1850470743 0)
(2.919273656 -0.1833907531 0)
(2.927948987 -0.1736466225 0)
(2.922400388 -0.143170512 0)
(2.917087897 -0.1066806291 0)
(2.862550904 0.03053152532 0)
(2.833539106 0.1596969326 0)
(2.782642432 0.3074128524 0)
(2.760825425 0.3153073109 0)
(2.761137399 0.3120290321 0)
(2.763939891 0.3054032477 0)
(2.771119855 0.3033223328 0)
(2.780271331 0.3032721002 0)
(2.788332082 0.300863927 0)
(2.795716528 0.297615543 0)
(2.802680069 0.295594862 0)
(2.80919552 0.2940201785 0)
(2.815385306 0.2925677242 0)
(2.821595194 0.290611136 0)
(2.828032791 0.2884399454 0)
(2.834539828 0.2871569962 0)
(2.840889241 0.2862289847 0)
(2.847121843 0.2852866346 0)
(2.853479103 0.2844853917 0)
(2.859973319 0.2831007801 0)
(2.86685076 0.2806347689 0)
(2.872805066 0.2788063644 0)
(2.883031415 0.2757420852 0)
(2.89427655 -0.2220085793 0)
(2.896888659 -0.2202819029 0)
(2.909067819 -0.2002955978 0)
(2.914783608 -0.1796900841 0)
(2.916038658 -0.177026366 0)
(2.922578835 -0.171525258 0)
(2.93212836 -0.1615001401 0)
(2.933592653 -0.1452053994 0)
(2.929359342 -0.1209928062 0)
(2.913917374 -0.07133110317 0)
(2.882810621 0.05094869593 0)
(2.808998558 0.2444989671 0)
(2.793709181 0.2823274778 0)
(2.77579737 0.3095365812 0)
(2.77466119 0.3213915933 0)
(2.775710067 0.3245997119 0)
(2.780129883 0.3216168037 0)
(2.786423283 0.3165463864 0)
(2.793591135 0.3131504926 0)
(2.800298671 0.3111340844 0)
(2.806400148 0.3090901815 0)
(2.812408885 0.3072872644 0)
(2.818756234 0.3052564562 0)
(2.825376382 0.3031194881 0)
(2.831840337 0.3018279275 0)
(2.838025874 0.3007727751 0)
(2.844051015 0.2998344123 0)
(2.849906522 0.2984976512 0)
(2.855913917 0.2961289503 0)
(2.862527729 0.2931713236 0)
(2.868477822 0.2912229514 0)
(2.878558515 0.288080474 0)
(2.899429192 -0.211963013 0)
(2.901603411 -0.2105531084 0)
(2.913646632 -0.1902785208 0)
(2.918602189 -0.170210662 0)
(2.920614736 -0.1661769187 0)
(2.923593327 -0.1655311402 0)
(2.936870341 -0.1453660079 0)
(2.938910898 -0.1366813544 0)
(2.937779307 -0.1213902365 0)
(2.934923452 -0.09967267949 0)
(2.923438493 -0.04611448058 0)
(2.858731273 0.1170083026 0)
(2.827640391 0.2239266594 0)
(2.792829868 0.3249193277 0)
(2.78277081 0.3490476794 0)
(2.783110173 0.3477128663 0)
(2.785511854 0.3406009458 0)
(2.789756822 0.3351517293 0)
(2.795430132 0.3326212029 0)
(2.80094515 0.3307343597 0)
(2.806384814 0.3281583023 0)
(2.812171646 0.3259163448 0)
(2.818472292 0.3235157522 0)
(2.824843665 0.3211397143 0)
(2.830744379 0.3197519994 0)
(2.83628508 0.3184611325 0)
(2.841609465 0.3173734608 0)
(2.846631746 0.3158226595 0)
(2.851885543 0.3130588109 0)
(2.857858205 0.3100998282 0)
(2.863387233 0.3081674404 0)
(2.872794254 0.3051558101 0)
(2.904786456 -0.2020347497 0)
(2.906167192 -0.2016572283 0)
(2.91844144 -0.1807809138 0)
(2.9227903 -0.1604987008 0)
(2.92444775 -0.1572651805 0)
(2.927738182 -0.1562121609 0)
(2.938506684 -0.1388840834 0)
(2.944696377 -0.1178094876 0)
(2.943115783 -0.1182882673 0)
(2.94552111 -0.1058622366 0)
(2.942299897 -0.07771384194 0)
(2.917699904 -0.0006568035438 0)
(2.885804118 0.1218357885 0)
(2.806943357 0.3127601783 0)
(2.780885766 0.3454121216 0)
(2.781323064 0.3509493256 0)
(2.786473546 0.3499176982 0)
(2.794039906 0.3501119424 0)
(2.801575722 0.3498802119 0)
(2.807547971 0.3463856426 0)
(2.813076669 0.3428526114 0)
(2.818798356 0.3410165355 0)
(2.824634253 0.3392319304 0)
(2.830218484 0.3371059716 0)
(2.835394517 0.3356732993 0)
(2.84051728 0.3342464321 0)
(2.845728498 0.3331957677 0)
(2.850313192 0.3301343383 0)
(2.855350118 0.3265667105 0)
(2.86140627 0.3240056534 0)
(2.867032058 0.3224420739 0)
(2.876491174 0.3194333955 0)
(2.909891119 -0.1923520569 0)
(2.911042691 -0.1926419299 0)
(2.923045147 -0.1716526219 0)
(2.927146218 -0.1504544001 0)
(2.928584238 -0.1481307414 0)
(2.93174724 -0.1470228134 0)
(2.942547635 -0.129528723 0)
(2.946980237 -0.1103109295 0)
(2.949141723 -0.1019126477 0)
(2.949444426 -0.1062853043 0)
(2.955959326 -0.08374997313 0)
(2.949813285 -0.05395447233 0)
(2.932083945 0.01670291938 0)
(2.851142239 0.2049326713 0)
(2.821530959 0.2761592547 0)
(2.790833974 0.3482304867 0)
(2.783920394 0.3646835548 0)
(2.786454344 0.3695242171 0)
(2.794316048 0.3644593106 0)
(2.801957898 0.3603557175 0)
(2.809710114 0.3591038129 0)
(2.816904297 0.3581860285 0)
(2.823078654 0.3561416656 0)
(2.828318282 0.3536664243 0)
(2.833174829 0.3519414171 0)
(2.838302621 0.3504687147 0)
(2.84357759 0.3485166038 0)
(2.84820461 0.3446866988 0)
(2.854019547 0.3411753954 0)
(2.860441703 0.3390847037 0)
(2.865624617 0.3370082203 0)
(2.874303771 0.3333260089 0)
(2.914668045 -0.1824198687 0)
(2.915979663 -0.1826518546 0)
(2.927856375 -0.1613645593 0)
(2.93148967 -0.1404426809 0)
(2.933060702 -0.1381943876 0)
(2.934933845 -0.1390123714 0)
(2.946630037 -0.1203177542 0)
(2.950806162 -0.1010730403 0)
(2.951488455 -0.09475786525 0)
(2.956000371 -0.09288016215 0)
(2.964135175 -0.0871293419 0)
(2.959711368 -0.06130635784 0)
(2.95514489 -0.03313090913 0)
(2.913950321 0.06701763324 0)
(2.874531173 0.2043858141 0)
(2.806884563 0.367213155 0)
(2.781208412 0.3849210111 0)
(2.781317256 0.3844922648 0)
(2.787966353 0.3805262083 0)
(2.798039913 0.3797199211 0)
(2.80856499 0.3804813928 0)
(2.818355129 0.3784788125 0)
(2.827387706 0.3754736091 0)
(2.835198724 0.3726101038 0)
(2.841510913 0.3700930298 0)
(2.846930523 0.368353423 0)
(2.851525998 0.3644060535 0)
(2.857072804 0.3611562299 0)
(2.862280524 0.3567908135 0)
(2.865684924 0.3555178731 0)
(2.868600537 0.3536479391 0)
(2.875062457 0.3502221529 0)
(2.919120912 -0.1720577188 0)
(2.920535866 -0.1720107145 0)
(2.932448112 -0.1504715334 0)
(2.935944257 -0.1296880586 0)
(2.937477675 -0.1279701738 0)
(2.939164298 -0.1293118328 0)
(2.949935465 -0.1116937938 0)
(2.954925928 -0.09050558934 0)
(2.955285305 -0.08656786531 0)
(2.958781785 -0.08348827212 0)
(2.967529912 -0.07549101726 0)
(2.969977427 -0.06164575849 0)
(2.964967031 -0.0405115708 0)
(2.954498096 -0.00413638427 0)
(2.928231445 0.09219797808 0)
(2.846411948 0.2860401569 0)
(2.8230287 0.3390706703 0)
(2.797365853 0.3818516166 0)
(2.789151855 0.3957251887 0)
(2.790661261 0.398253985 0)
(2.798192505 0.3949959688 0)
(2.807702752 0.3904246891 0)
(2.817805622 0.3863766699 0)
(2.827595131 0.3831675693 0)
(2.836348019 0.380686404 0)
(2.843546144 0.3795978638 0)
(2.849397796 0.3768721116 0)
(2.855655412 0.375679752 0)
(2.862726241 0.3741546166 0)
(2.868087937 0.37104718 0)
(2.8728583 0.3680855287 0)
(2.880358991 0.3647225211 0)
(2.923342952 -0.1617333461 0)
(2.924790161 -0.1612680248 0)
(2.936751137 -0.1395431239 0)
(2.940241414 -0.1187268658 0)
(2.941655897 -0.1176999198 0)
(2.943159065 -0.1190359251 0)
(2.953667535 -0.1017248612 0)
(2.958623114 -0.08057218739 0)
(2.959904299 -0.07567836385 0)
(2.961315155 -0.07625093866 0)
(2.971629106 -0.0605469028 0)
(2.974790968 -0.0505265241 0)
(2.973179667 -0.03662296456 0)
(2.970868993 -0.0218607699 0)
(2.960102108 0.02117536877 0)
(2.910957985 0.1459706346 0)
(2.854991935 0.2929480964 0)
(2.82554337 0.4066023553 0)
(2.790546037 0.4211294414 0)
(2.790258519 0.4187620737 0)
(2.795810696 0.4136767447 0)
(2.803513967 0.4081556307 0)
(2.811505559 0.4036996896 0)
(2.819599372 0.3996017262 0)
(2.827356163 0.3960525089 0)
(2.834357435 0.3943635955 0)
(2.841537233 0.3894736646 0)
(2.848781747 0.3868809308 0)
(2.855629272 0.3859510266 0)
(2.863509291 0.3844767715 0)
(2.869662133 0.3829110184 0)
(2.878368502 0.3802587044 0)
(2.927660125 -0.1513946254 0)
(2.92900498 -0.1507293199 0)
(2.94093357 -0.1289418945 0)
(2.944546003 -0.1077509423 0)
(2.945984045 -0.1066802983 0)
(2.947056519 -0.1079947744 0)
(2.957989708 -0.09017624245 0)
(2.962641193 -0.06949067442 0)
(2.964039683 -0.06495858381 0)
(2.965969053 -0.06599689164 0)
(2.973691273 -0.05293970559 0)
(2.979092081 -0.03238298973 0)
(2.97759816 -0.03147054705 0)
(2.979117673 -0.02255808558 0)
(2.97542281 -0.0008522544026 0)
(2.958712074 0.05860536671 0)
(2.914396265 0.1810833021 0)
(2.84560326 0.3523681423 0)
(2.826671954 0.4091808016 0)
(2.804542775 0.4205368328 0)
(2.803713221 0.4238225421 0)
(2.809136149 0.422742561 0)
(2.81608389 0.4197359133 0)
(2.822575297 0.4158849535 0)
(2.828585935 0.4119298297 0)
(2.834663058 0.4089994504 0)
(2.843113759 0.4076424837 0)
(2.850112103 0.4059526573 0)
(2.856241285 0.4042011356 0)
(2.863575961 0.4029166731 0)
(2.870305204 0.4015040014 0)
(2.880914623 0.3982106976 0)
(2.932079676 -0.1413077204 0)
(2.933301629 -0.1405759208 0)
(2.945159617 -0.11862617 0)
(2.948777628 -0.09713977592 0)
(2.950230316 -0.09604671669 0)
(2.951013355 -0.09733106424 0)
(2.962056697 -0.07925861517 0)
(2.966535334 -0.05857042024 0)
(2.967923978 -0.05509542246 0)
(2.969917058 -0.0563528343 0)
(2.977691198 -0.04313768134 0)
(2.981569783 -0.02321365042 0)
(2.982193486 -0.01476120219 0)
(2.981831577 -0.02011453132 0)
(2.986702165 -0.002835974682 0)
(2.982416523 0.02279362769 0)
(2.964833226 0.08314026561 0)
(2.886536846 0.2498823249 0)
(2.862464509 0.3537638523 0)
(2.814474658 0.4399546914 0)
(2.8118805 0.4448542929 0)
(2.812382184 0.4427547282 0)
(2.815325652 0.4377383594 0)
(2.819874797 0.4330049949 0)
(2.825294739 0.428629633 0)
(2.83093656 0.4251813198 0)
(2.836382853 0.4228160832 0)
(2.843199563 0.4197577436 0)
(2.850415374 0.4174059184 0)
(2.858105089 0.4160816068 0)
(2.864755849 0.4147573507 0)
(2.876193338 0.4117145672 0)
(2.93663906 -0.1312404186 0)
(2.93775325 -0.1307087881 0)
(2.949344186 -0.1088151926 0)
(2.953013411 -0.08710371761 0)
(2.954560079 -0.08597887393 0)
(2.955222521 -0.08737310089 0)
(2.96613889 -0.06942751134 0)
(2.97040951 -0.0486750132 0)
(2.971928504 -0.04551961606 0)
(2.973167069 -0.0478868349 0)
(2.981580748 -0.03364832642 0)
(2.985065319 -0.01340171692 0)
(2.984282543 -0.005794405051 0)
(2.987048936 -0.005704435656 0)
(2.993347105 -0.002471083072 0)
(2.991160989 0.02050447046 0)
(2.985784244 0.04769838768 0)
(2.957333509 0.1182121813 0)
(2.885305064 0.299283416 0)
(2.851621581 0.3979827879 0)
(2.815583214 0.4547486745 0)
(2.816561435 0.4577220296 0)
(2.821479784 0.4559479943 0)
(2.828046173 0.4526047313 0)
(2.834799435 0.4486688349 0)
(2.840831518 0.4449173868 0)
(2.845888616 0.4416087 0)
(2.849937831 0.4379275782 0)
(2.852552094 0.4339364449 0)
(2.856359823 0.4318136395 0)
(2.860342792 0.4298605732 0)
(2.868679549 0.4247369227 0)
(2.941285281 -0.1208268604 0)
(2.942344511 -0.1206037789 0)
(2.953610404 -0.09893121653 0)
(2.957294309 -0.07739323135 0)
(2.958933448 -0.07653101007 0)
(2.959510921 -0.07801588757 0)
(2.970384701 -0.06004056507 0)
(2.97435112 -0.03935653477 0)
(2.975826165 -0.03641309174 0)
(2.97667274 -0.03942929516 0)
(2.985011006 -0.02448586075 0)
(2.988651323 -0.002875269308 0)
(2.987399033 0.002994345886 0)
(2.989554429 0.005586583341 0)
(2.996431289 0.008045824408 0)
(2.999548295 0.02221496856 0)
(2.994140872 0.04130226921 0)
(2.986191845 0.07422667847 0)
(2.9584425 0.1535439238 0)
(2.877657815 0.3461202011 0)
(2.84734295 0.4194169195 0)
(2.818010924 0.4674484964 0)
(2.820168695 0.4698487795 0)
(2.825485441 0.4680952745 0)
(2.832252304 0.463730685 0)
(2.839433999 0.4596440807 0)
(2.846083225 0.4566571774 0)
(2.852354753 0.4547003087 0)
(2.857569996 0.4521925672 0)
(2.860688111 0.447784562 0)
(2.864480647 0.4455936452 0)
(2.873058152 0.4414971729 0)
(2.945927538 -0.1097348017 0)
(2.946971682 -0.109694275 0)
(2.95796574 -0.08832054163 0)
(2.961784321 -0.06683263448 0)
(2.963518863 -0.06601836857 0)
(2.963993058 -0.06764109821 0)
(2.974666829 -0.0497932145 0)
(2.978379581 -0.02915765261 0)
(2.979736091 -0.0265175291 0)
(2.980727255 -0.02931192459 0)
(2.988442865 -0.01463293408 0)
(2.991925773 0.00779071847 0)
(2.991389639 0.01362529567 0)
(2.991700974 0.01234695693 0)
(2.999750566 0.02287712609 0)
(3.003247231 0.03095440207 0)
(3.0014425 0.0461800047 0)
(2.999996935 0.05860865142 0)
(2.987975827 0.1029724709 0)
(2.953994135 0.1982824389 0)
(2.870766276 0.3865986112 0)
(2.842338672 0.4538081958 0)
(2.818761034 0.4871373404 0)
(2.823576019 0.4875971605 0)
(2.831420191 0.4823434634 0)
(2.83864618 0.4761314877 0)
(2.844290684 0.471610314 0)
(2.849301464 0.4687655128 0)
(2.85375475 0.4654664276 0)
(2.858578387 0.461817855 0)
(2.863141077 0.4597554558 0)
(2.870506343 0.4556129007 0)
(2.950670277 -0.09780752328 0)
(2.951678043 -0.09786224051 0)
(2.96242775 -0.07681238891 0)
(2.966183811 -0.05570244548 0)
(2.967833022 -0.05519940547 0)
(2.968188343 -0.05674830528 0)