/*--------------------------------*- C++ -*----------------------------------*\
  =========                 |
  \\      /  F ield         | OpenFOAM: The Open Source CFD Toolbox
   \\    /   O peration     | Website:  https://openfoam.org
    \\  /    A nd           | Version:  7
     \\/     M anipulation  |
\*---------------------------------------------------------------------------*/
FoamFile
{
    version     2.0;
    format      ascii;
    class       volScalarField;
    location    "2.6";
    object      T;
}
// * * * * * * * * * * * * * * * * * * * * * * * * * * * * * * * * * * * * * //

dimensions      [0 0 0 1 0 0 0];

internalField   nonuniform List<scalar> 
2222
(
1.012413667
1.012526661
1.01272946
1.012744898
1.012877411
1.012845652
1.012763152
1.012654056
1.012612875
1.012662987
1.012830466
1.013113944
1.013222813
1.013245478
1.013157145
1.012952269
1.012705799
1.012490278
1.012365247
1.012420788
1.012369435
1.012166225
1.011989611
1.012247983
1.012602227
1.012753532
1.012702426
1.012703948
1.012641523
1.012418829
1.012299542
1.01226569
1.012354489
1.012599116
1.013154701
1.012951887
1.012758096
1.012786074
1.012783626
1.012788657
1.012721076
1.012694254
1.01254386
1.012571511
1.012576328
1.012709923
1.012966453
1.013141194
1.013229977
1.01316976
1.012959462
1.012695969
1.012554301
1.012517523
1.012381699
1.01214522
1.012126632
1.012142291
1.012386096
1.012671432
1.012780344
1.012758941
1.012634222
1.012516962
1.012410531
1.012269943
1.012174319
1.012207573
1.012971819
1.013092704
1.012886585
1.012745946
1.01261085
1.012567788
1.012545623
1.012512552
1.012487854
1.012395241
1.012187491
1.01215517
1.012348749
1.012738251
1.013089681
1.013043803
1.012846945
1.012775934
1.012567628
1.012496654
1.012376053
1.012322643
1.012309851
1.012103654
1.012123765
1.012321339
1.012491171
1.012525905
1.012573857
1.012611337
1.012550227
1.012375904
1.012198163
1.0119838
1.012603876
1.01289684
1.012942631
1.012767247
1.012570708
1.012426837
1.012324574
1.012180844
1.01221527
1.012107362
1.01207321
1.012036026
1.012065758
1.012268492
1.012646719
1.012745858
1.012808029
1.012660956
1.012483528
1.012422706
1.012420727
1.012475678
1.012308506
1.012143979
1.012043788
1.012059355
1.012119427
1.012208279
1.012346778
1.012460138
1.012488639
1.012436277
1.012296997
1.011999194
1.012216057
1.012566285
1.012812836
1.012773686
1.012620417
1.012447459
1.012255312
1.012081897
1.011884274
1.011862312
1.011932702
1.011819902
1.011769757
1.011914545
1.012195539
1.012403226
1.012588827
1.01253697
1.012472701
1.01239042
1.012412353
1.012377387
1.0122565
1.012241155
1.012110634
1.01207358
1.012085803
1.01209405
1.012088864
1.012116433
1.012201941
1.012337941
1.012340144
1.012119028
1.011966816
1.012218755
1.012465493
1.012617868
1.012603348
1.012488405
1.012324566
1.012118918
1.011851721
1.011719167
1.011710008
1.011704663
1.011750564
1.011843874
1.011835084
1.012009297
1.012132276
1.012312838
1.012348787
1.012316026
1.012233847
1.0121766
1.012259695
1.012275522
1.012193956
1.012150903
1.012134533
1.012071141
1.011984695
1.011910785
1.011926479
1.012058252
1.012163399
1.01217439
1.011742243
1.011819151
1.01207093
1.012277514
1.01237053
1.01239873
1.012354909
1.012160186
1.011967392
1.011718052
1.011601117
1.011702051
1.011790241
1.011830887
1.011850409
1.011910751
1.011907117
1.01194695
1.012045036
1.012081162
1.012034067
1.012090679
1.012193419
1.012183242
1.012147859
1.012107407
1.012086071
1.012050011
1.012000978
1.011905727
1.011835081
1.011809904
1.011876633
1.012028747
1.01161112
1.011555127
1.011745903
1.011895487
1.011978943
1.012016032
1.012081197
1.012119664
1.012023341
1.01179204
1.011644807
1.011674082
1.011712578
1.011779147
1.011905395
1.011866749
1.011823697
1.011782248
1.011756307
1.011726759
1.011739869
1.011831957
1.011846164
1.01186914
1.011894035
1.011910423
1.011948473
1.012002534
1.012011482
1.011953188
1.011855033
1.011729552
1.011658362
1.011765862
1.011601345
1.011493257
1.011540092
1.011650022
1.011674853
1.011641402
1.011639005
1.011733502
1.011856114
1.011796661
1.01171209
1.011609179
1.011559362
1.011642176
1.011755485
1.011779717
1.011796904
1.011704882
1.011584091
1.011431529
1.011383116
1.01138858
1.011454637
1.011551215
1.011577055
1.011572265
1.011633867
1.01175497
1.011856179
1.011897699
1.011836922
1.011718527
1.01161266
1.011600851
1.011634741
1.011545961
1.011462798
1.011425145
1.011504988
1.011500213
1.011437624
1.011327336
1.011290192
1.011361787
1.011562856
1.011538507
1.011409434
1.011332474
1.011307375
1.011406867
1.01160261
1.011692561
1.011616391
1.011483144
1.011296764
1.011194391
1.011159599
1.011218048
1.011281881
1.01128455
1.011255832
1.011263173
1.011305735
1.011422216
1.011567121
1.01163277
1.011642516
1.011594197
1.011509652
1.010933958
1.011268428
1.011308405
1.011320781
1.011375669
1.011379139
1.011321816
1.011179282
1.011029974
1.010939742
1.011013228
1.011039221
1.011099341
1.011047071
1.010922687
1.010954366
1.01119359
1.011389666
1.011445232
1.011353578
1.01122857
1.011102459
1.01103628
1.011045313
1.011072257
1.011078197
1.011029258
1.010951745
1.010894682
1.010948052
1.011069316
1.011204682
1.011351353
1.011439609
1.011401282
1.010261593
1.010670694
1.010933866
1.011056533
1.011097789
1.011146617
1.011145826
1.011046735
1.01086869
1.010680555
1.010467616
1.010417266
1.010507084
1.010559273
1.01053028
1.010536575
1.010677726
1.010899646
1.011080945
1.011084483
1.011083338
1.010959144
1.010859422
1.010812497
1.010822273
1.010844489
1.010810969
1.010722397
1.010617694
1.010585208
1.010627889
1.010727373
1.010840124
1.011020137
1.011150979
1.009838692
1.010092098
1.010365683
1.010507906
1.01054863
1.01064525
1.01074807
1.01076873
1.010679999
1.010448175
1.010146876
1.009971891
1.009973272
1.010081675
1.01015846
1.010183826
1.010161641
1.010276517
1.010497074
1.010664572
1.010755626
1.010687966
1.010589082
1.010509358
1.010489629
1.010513035
1.01053781
1.010480894
1.010361621
1.01028407
1.010281276
1.010314737
1.010366938
1.010496512
1.010689849
1.009550659
1.009728208
1.009872067
1.009923036
1.009946742
1.009978784
1.010051587
1.010181565
1.010292814
1.01015716
1.009885487
1.009646182
1.009613052
1.009704178
1.009824241
1.009876412
1.009817877
1.009816668
1.00987227
1.010068195
1.010196347
1.010251999
1.010218278
1.010142015
1.010069443
1.010070089
1.010117219
1.010099644
1.010011935
1.009932634
1.009919297
1.009937486
1.00999914
1.010087554
1.010209225
1.009522189
1.009434171
1.009498278
1.009513172
1.009473278
1.009373922
1.009319765
1.009366691
1.009529512
1.009678845
1.009546339
1.009333425
1.009281277
1.009331195
1.009487914
1.009560719
1.00955569
1.009487724
1.009451672
1.00951562
1.009588847
1.009698984
1.009739745
1.009691803
1.009571823
1.009499537
1.009470693
1.009496731
1.00951834
1.009485832
1.009487403
1.009529552
1.009614017
1.009678535
1.009764731
1.009323176
1.009279264
1.009202892
1.009122813
1.009037172
1.008871431
1.008752771
1.008628384
1.008653401
1.008850951
1.009018557
1.0089252
1.008844651
1.008844196
1.009032116
1.009228319
1.009248283
1.009195831
1.009074823
1.009051249
1.009059876
1.009096952
1.009142395
1.009119079
1.009001535
1.008894091
1.00881728
1.008825497
1.008896925
1.008918852
1.008935487
1.009001797
1.009113257
1.009193809
1.009251205
1.00890603
1.008792757
1.008801296
1.008816631
1.008752688
1.008550578
1.008223914
1.007988616
1.007938138
1.007905524
1.008206103
1.008343912
1.008259235
1.00823843
1.008380962
1.008671451
1.008727045
1.008724479
1.008678665
1.008521831
1.008481209
1.008435786
1.008438333
1.008437757
1.00838248
1.008271502
1.008211536
1.008187404
1.00822123
1.008244042
1.008248881
1.008280639
1.008400343
1.008511655
1.008606698
1.008185045
1.008132326
1.008185333
1.00818185
1.008126822
1.008042704
1.007846645
1.007474798
1.007209757
1.007079737
1.007193586
1.007515764
1.007588458
1.007568005
1.007599016
1.007744015
1.007952396
1.008086331
1.008024819
1.007894434
1.007767734
1.007656716
1.007602228
1.007631279
1.007646488
1.007579482
1.007526133
1.007469866
1.007470203
1.007481564
1.007478565
1.007454605
1.007467558
1.007572049
1.007783164
1.007104259
1.007138204
1.007259686
1.007330938
1.007326273
1.007254279
1.0070734
1.006879994
1.006403515
1.006242112
1.006220884
1.006440323
1.006736329
1.006772211
1.006749779
1.006770798
1.006908625
1.00710861
1.007120958
1.007043653
1.006874779
1.006708441
1.006644752
1.006641781
1.006649577
1.006672898
1.006654615
1.006607498
1.006602185
1.00657941
1.00658016
1.006569183
1.006509314
1.0065229
1.006704115
1.005772043
1.005837249
1.00594887
1.006090617
1.006195804
1.006208761
1.006102098
1.005922198
1.005663358
1.005314234
1.005223059
1.005310087
1.005627434
1.005792117
1.005799429
1.0057928
1.005803565
1.005882861
1.005899448
1.005860914
1.00574885
1.005614266
1.005567526
1.005497048
1.005439999
1.005463716
1.005517117
1.005561128
1.005579863
1.005579952
1.005637076
1.005671585
1.005589874
1.005487628
1.005539442
1.004414042
1.004455377
1.004487663
1.004588043
1.004713982
1.004831627
1.004840653
1.004807146
1.004641523
1.004345278
1.004106316
1.00412174
1.004281681
1.004603846
1.004687185
1.004664498
1.004605573
1.004618746
1.004578937
1.004513648
1.004477303
1.004445595
1.004394692
1.004272598
1.00419516
1.004211919
1.004252669
1.004347277
1.004367561
1.004408569
1.004519374
1.004590548
1.00458841
1.004484354
1.004360703
1.003041793
1.003051254
1.003030233
1.003074266
1.003182971
1.003274569
1.003381087
1.003495477
1.003470786
1.00334136
1.002869664
1.002823294
1.002882012
1.003183081
1.003439895
1.003404182
1.00335997
1.003293282
1.003266868
1.00324436
1.003223745
1.00321713
1.003145506
1.003062178
1.003015622
1.003034576
1.003085272
1.003115772
1.0030864
1.003111662
1.003182656
1.00332538
1.003414647
1.003400222
1.003255797
1.001654912
1.00164029
1.001636494
1.001613418
1.001722137
1.001774013
1.001914839
1.002079158
1.002181924
1.002150101
1.001860945
1.001522508
1.001570017
1.001759949
1.002088914
1.002180513
1.002189903
1.00205985
1.001989994
1.001980261
1.001976739
1.002006157
1.002000508
1.00197941
1.001960157
1.001947239
1.001932069
1.001910425
1.001884192
1.001878035
1.001874503
1.001901793
1.002068969
1.002191844
1.002156601
1.000755165
1.000578766
1.000361169
1.000273129
1.000244734
1.000304583
1.000356448
1.000496311
1.000672987
1.000827241
1.000903422
1.000830373
1.000583101
1.000348155
1.000501778
1.000744805
1.000954932
1.001011111
1.000931828
1.00088191
1.000868975
1.000838521
1.000819923
1.000839043
1.000889377
1.000934631
1.000944047
1.000908284
1.000819766
1.000764223
1.000703617
1.000655664
1.00064775
1.000717471
1.000902545
1.000989647
0.9996919899
0.9996686448
0.9994981441
0.9992712445
0.9990937536
0.999019092
0.9990894944
0.9992048732
0.9993465535
0.9995264471
0.9996905533
0.9997907418
0.9998111808
0.999549099
0.9993904916
0.9996056201
0.9997762798
0.999873029
0.9998512332
0.9998538584
0.9998324339
0.9997582675
0.9997301155
0.9997681998
0.9998356603
0.9998925516
0.9999132925
0.9999343592
0.999920262
0.9998907929
0.9997794378
0.9996316393
0.9995767507
0.9996265299
0.9997143345
0.999886553
0.9986590031
0.9986910443
0.9986313284
0.9985455579
0.9983826147
0.9981359092
0.9980805151
0.99808989
0.9981924382
0.9983933851
0.9985991656
0.9988532609
0.9990007456
0.9990083175
0.9987710092
0.9986901463
0.9988139713
0.9988589917
0.9988885658
0.9989337631
0.9988925121
0.9988138756
0.9987698382
0.9987993702
0.9988651072
0.9989341591
0.9989840716
0.999045753
0.999104626
0.9991593096
0.9991427622
0.9990323117
0.9988227015
0.9987299655
0.9988111019
0.9989573507
0.9979084062
0.9977994545
0.9978087767
0.9977857677
0.9977613046
0.9976312281
0.9975144062
0.9973213273
0.997297055
0.9974920698
0.997720731
0.9980579555
0.9982682287
0.9984187605
0.9984058378
0.9982310896
0.9981023812
0.9980688189
0.9980967435
0.9981156275
0.9980963649
0.9980517783
0.9980191718
0.998046853
0.9981109044
0.9981802462
0.9982446334
0.9983226101
0.9984402986
0.9985304961
0.9985818371
0.9986072113
0.9985278874
0.9982638605
0.9981444565
0.9982967818
0.9970777732
0.9970496429
0.9971415491
0.9971493767
0.9971797668
0.9971979906
0.9971339848
0.9969900395
0.9968017292
0.9968184742
0.9970579211
0.9974063831
0.9976531911
0.9979335109
0.9980286015
0.9979621633
0.9977964995
0.9976280784
0.9975104438
0.9974938559
0.9974935036
0.9974964177
0.9974953327
0.9975127865
0.997575072
0.9976543345
0.9977349148
0.9978361004
0.9979327948
0.9980254975
0.998129188
0.9982091136
0.998249671
0.9981798198
0.9979384045
0.9978773033
0.9963882883
0.9964637094
0.9965357222
0.9966203473
0.9967067885
0.9968314234
0.9968153921
0.9967961992
0.9966805795
0.9965295424
0.9965699868
0.996872677
0.9971895318
0.9974937405
0.9976533999
0.9976755914
0.9975899759
0.9974897218
0.9973363135
0.9972087475
0.9971830303
0.9972268962
0.9972673722
0.9972913942
0.997351533
0.9974379331
0.9975371026
0.9976025526
0.9976291984
0.9976574537
0.9977251576
0.9978411873
0.9979678242
0.99803462
0.9979852462
0.9978304333
0.9959721978
0.9960704643
0.9961365223
0.9962747479
0.996421565
0.9965748302
0.9966012508
0.9966476007
0.99661132
0.9964960953
0.9963917098
0.9964677347
0.9967699599
0.9970895706
0.9973462597
0.9974171995
0.9974150394
0.9973542305
0.997277034
0.9971663741
0.9971055919
0.9970948626
0.9971348828
0.9971734076
0.9972319068
0.9973211619
0.9974197519
0.9974818762
0.9975167436
0.9974673348
0.997415472
0.9974666545
0.9976099297
0.9978235588
0.9979197826
0.9979047362
0.9960551171
0.9961431655
0.9961893865
0.9962553475
0.9963622389
0.9964323066
0.9964842591
0.9965632454
0.9965682096
0.9965006192
0.9964144106
0.996324336
0.9964047461
0.996695784
0.997040986
0.9972257924
0.9972784717
0.9972208782
0.9971787632
0.9970911858
0.9970438564
0.99702699
0.9970596638
0.9970899815
0.997132105
0.9972173009
0.9973096011
0.9973867254
0.9974374214
0.9974165265
0.9973119607
0.9972537139
0.997306961
0.9975157806
0.9977527839
0.9978488527
0.9962815453
0.9963906782
0.9964558343
0.9964470399
0.9964246641
0.996362651
0.9964117304
0.99648799
0.9965080254
0.9964763026
0.9964251653
0.9963443745
0.9963018117
0.9963971762
0.9967021775
0.9970394169
0.9971697486
0.997134137
0.9970846875
0.9970486396
0.9970259563
0.9970006137
0.9970217244
0.9970463584
0.9970829409
0.9971485862
0.9972289992
0.9973190944
0.9973679959
0.9974047802
0.9974098812
0.997316212
0.9972168551
0.9973037543
0.9975359588
0.9977570323
0.9963370479
0.9964812091
0.9965588133
0.996558566
0.9965062943
0.9963470269
0.9963192012
0.9963598396
0.9964289892
0.9964604087
0.9964429897
0.9964012895
0.996369054
0.996345187
0.9964869222
0.9968057368
0.9970627144
0.9970754165
0.9969773249
0.9969496585
0.9969616783
0.996971163
0.9970007455
0.9970290653
0.9970683786
0.9971249753
0.9972031446
0.9972912729
0.9973262619
0.9973734375
0.9974762883
0.9974909736
0.9974302617
0.9973601835
0.9974501111
0.9977047587
0.9964389144
0.9965165978
0.9965236232
0.9965440598
0.9965242243
0.9963425586
0.9962135863
0.9962167133
0.9963022191
0.9964157698
0.9964490885
0.9964850044
0.9965230336
0.9964973512
0.9964846545
0.9966544994
0.9969134447
0.9969914117
0.9969027998
0.9968436146
0.9968787838
0.9969256475
0.9969982849
0.997050861
0.9970951405
0.997161359
0.9972639579
0.9973549546
0.9973714765
0.9974050363
0.997526121
0.9976271865
0.9976476862
0.9975862154
0.9975467351
0.9976989636
0.9965923055
0.9965008469
0.9964487411
0.9964678475
0.9964642088
0.9963577055
0.9961958814
0.9961589364
0.9962143897
0.9963587717
0.996453651
0.9965526977
0.9966743892
0.9967788716
0.9968271286
0.9967404391
0.9968221991
0.996928992
0.9968973174
0.9968419637
0.9968701085
0.9969312099
0.9970496224
0.9971364576
0.9972010982
0.9972855373
0.9974106413
0.9975015767
0.9975226864
0.9975340945
0.9975788612
0.9976670429
0.9977608384
0.997808627
0.9977452852
0.9977670843
0.9965966775
0.9965017854
0.9964110702
0.9964297545
0.9964484276
0.9964976941
0.9963843319
0.9962753414
0.9962624332
0.996359499
0.9965050524
0.9966588512
0.9968400855
0.9970818366
0.9972503291
0.9971660323
0.996958788
0.9969486655
0.9969809312
0.9970151661
0.9970199021
0.9970401287
0.9971341123
0.9972497196
0.9973575076
0.9974545935
0.9975577726
0.9976658764
0.9977478431
0.9977693629
0.9977207171
0.9977428638
0.9978615377
0.9979894122
0.9979979534
0.9979479385
0.9967743979
0.9967344621
0.996680375
0.9967354059
0.996786011
0.9969155741
0.9968959553
0.9967792988
0.9966694243
0.9966302442
0.9967381021
0.9969344995
0.9971520902
0.9974185137
0.9976546699
0.9977464423
0.9975235896
0.9972621823
0.9972706225
0.9973499567
0.9973850538
0.9973886676
0.997405249
0.9975120361
0.9976472116
0.9977509445
0.9978192533
0.9979090962
0.9980313569
0.9981138956
0.9980885357
0.998056588
0.9981147825
0.9982355062
0.9983081974
0.9982936041
0.9977023196
0.9975129711
0.9974692234
0.9975415421
0.9976424158
0.9976645004
0.9976936085
0.9977154557
0.9976429049
0.9975616327
0.9974639352
0.9974453769
0.9975757079
0.997789525
0.9980105787
0.9982643893
0.9983890422
0.9983742816
0.9981925416
0.9980203052
0.997983216
0.9980389392
0.9980980256
0.9981285522
0.9981941806
0.9983007712
0.9984004926
0.9984566457
0.9985046491
0.9985933376
0.998687832
0.9987568684
0.998771742
0.9987783174
0.9987994871
0.9988824286
0.9989295236
0.9988726168
0.9986861175
0.9987011916
0.9988307274
0.998909443
0.9989089024
0.998876807
0.9989035495
0.9988815855
0.9988336823
0.9987821802
0.9987660704
0.9987939389
0.9988949711
0.9990653467
0.9992379209
0.9993371769
0.9994704127
0.999490247
0.9993684389
0.9991912341
0.9991792633
0.9992508694
0.9993360412
0.9994127382
0.999466173
0.9995231156
0.9995830626
0.9996459391
0.999686802
0.9997165059
0.9997972305
0.9998621346
0.9998854055
0.9998961186
0.9999501508
0.9999944928
1.000459758
1.000334799
1.000495284
1.000656219
1.000686774
1.000683476
1.000615113
1.000615636
1.000613457
1.000567191
1.000553465
1.000594148
1.00060383
1.000573263
1.00062747
1.000719191
1.000844293
1.001034196
1.001150367
1.001121311
1.000969253
1.000899662
1.00094036
1.001020762
1.001076568
1.001095537
1.001114019
1.00116251
1.001228745
1.001288447
1.001340846
1.001408633
1.001484622
1.001492081
1.001493975
1.001531181
1.001557432
1.002645115
1.002639168
1.002949026
1.003112735
1.003122342
1.003130568
1.003060454
1.003002737
1.002949953
1.002883049
1.002852353
1.002898591
1.002923753
1.002873419
1.002807449
1.002840882
1.002998484
1.003206651
1.0033462
1.003347941
1.003279997
1.003208991
1.003226723
1.003281589
1.003306049
1.00331165
1.003317841
1.003365386
1.003429489
1.003507171
1.003597219
1.003693927
1.003794831
1.003796002
1.003761688
1.003747936
1.003729492
1.005594155
1.005722718
1.006110067
1.006165652
1.006178171
1.006217477
1.006203103
1.006135247
1.006017572
1.005893044
1.005796033
1.005784261
1.005789108
1.005787662
1.005712968
1.005690523
1.005832365
1.006002217
1.006148218
1.006187257
1.00622457
1.006212336
1.006209334
1.00621867
1.006219578
1.006227862
1.006254195
1.006313873
1.006392097
1.006491924
1.006591972
1.006691494
1.006780746
1.006799327
1.006777138
1.006715174
1.006634242
1.009373953
1.009580466
1.009925988
1.009924931
1.009946722
1.009988043
1.010025346
1.009984497
1.00983688
1.009614626
1.009421827
1.009312928
1.00928143
1.009341475
1.009349739
1.009348769
1.009456523
1.009550062
1.009655292
1.009736793
1.009861049
1.009894374
1.009863342
1.009834355
1.009832708
1.009853278
1.009900148
1.009973491
1.01007545
1.010206089
1.010342328
1.010466717
1.010530585
1.010537654
1.010518635
1.010432941
1.01029445
1.0139755
1.0141614
1.014367324
1.014402479
1.014440416
1.014470045
1.01452026
1.014495218
1.014337683
1.014050234
1.013753831
1.013536766
1.013477095
1.013585608
1.013668147
1.013719782
1.013813927
1.013890225
1.01396654
1.014054879
1.01418624
1.01423417
1.014206872
1.014175316
1.014180259
1.014212009
1.014267945
1.014354437
1.014471139
1.0146217
1.014799694
1.014973288
1.015058079
1.015056206
1.015025533
1.01492053
1.014727131
1.019275321
1.019386514
1.019426974
1.019504923
1.019587368
1.019605417
1.019634718
1.019610039
1.019443849
1.019151155
1.018794032
1.018481063
1.018397824
1.018520249
1.018668567
1.018760524
1.01884482
1.018928158
1.019022849
1.019121447
1.019200228
1.019230609
1.019234758
1.019230925
1.019245214
1.019274836
1.019324929
1.01942361
1.019561633
1.019721946
1.019927541
1.020145817
1.020283839
1.020305513
1.02027576
1.020179024
1.019941741
1.025045755
1.025110271
1.025080742
1.025166912
1.025334233
1.025322569
1.025301149
1.025258112
1.025101126
1.024842456
1.02453081
1.024174546
1.024022473
1.024094676
1.024273429
1.024412513
1.024529946
1.024672256
1.024816868
1.024910601
1.024881076
1.02486255
1.024900421
1.024932449
1.024943567
1.024952508
1.02499341
1.025100607
1.025270731
1.025448192
1.025676556
1.025929396
1.026116863
1.026165823
1.026147272
1.026088227
1.025845354
1.031151326
1.031195095
1.031185024
1.031292081
1.031560463
1.031521693
1.031440797
1.031342844
1.031217757
1.031034432
1.030844489
1.030567809
1.03033589
1.030271083
1.030380571
1.030574231
1.030795968
1.031043169
1.031281084
1.031379443
1.031240117
1.031102435
1.031113026
1.031146728
1.031142916
1.031129905
1.031165816
1.031292307
1.031497776
1.031702808
1.031953728
1.032216012
1.032413013
1.032483415
1.032487689
1.032462919
1.032235934
1.037507841
1.037563575
1.037609837
1.037787194
1.038076762
1.038046617
1.037949747
1.037797207
1.037710083
1.037617118
1.037495942
1.037331478
1.037154458
1.036969177
1.036970511
1.037146435
1.037425174
1.037730446
1.038045273
1.038182313
1.038088559
1.037871646
1.037756838
1.03774675
1.037719962
1.037692677
1.037733553
1.037877929
1.038100162
1.038323576
1.03858159
1.038829245
1.039027066
1.039116344
1.039154464
1.039140173
1.038894956
1.04404782
1.044118685
1.044248359
1.044527655
1.044701363
1.044722395
1.044646534
1.044493273
1.044460567
1.044477152
1.04436226
1.04425544
1.044112873
1.043905164
1.043886739
1.04400639
1.044219199
1.044553167
1.04487667
1.045022941
1.04501599
1.044849271
1.04464669
1.044571285
1.044520828
1.044509664
1.044568305
1.044710591
1.044905061
1.04512844
1.045385358
1.045631453
1.045829399
1.045932559
1.045978347
1.045935614
1.045673291
1.050658586
1.050788377
1.050963473
1.051323994
1.051347924
1.051414202
1.051344616
1.051244303
1.051290947
1.05133535
1.051228934
1.051095878
1.050942439
1.050774621
1.050775821
1.050851266
1.051013814
1.051371764
1.051648111
1.051813805
1.051820486
1.051706464
1.051561501
1.051437714
1.051395005
1.051420924
1.051504471
1.051611447
1.051735087
1.051944301
1.052200595
1.052450027
1.052630648
1.052714932
1.052690391
1.052637841
1.05242285
1.057101425
1.057187908
1.057387572
1.057601663
1.057919053
1.057904175
1.057975021
1.057917897
1.057895586
1.057827925
1.057812574
1.057688017
1.057626556
1.057565018
1.057440107
1.057437344
1.057496834
1.057612337
1.057855784
1.058053417
1.058211414
1.058338862
1.058361939
1.058286382
1.058175748
1.058151716
1.058204982
1.058265947
1.058309199
1.058395457
1.05857501
1.058801612
1.059029987
1.059174881
1.059212235
1.059179212
1.059152782
1.059023704
1.063572724
1.063580193
1.063796642
1.063989787
1.064222389
1.0641928
1.064269896
1.064217857
1.064139046
1.064015968
1.063892447
1.063721765
1.063615099
1.063632779
1.063684362
1.063701612
1.06370794
1.063781041
1.06396393
1.064109461
1.064199367
1.064324877
1.064529209
1.064627723
1.064561809
1.064518273
1.064528851
1.064550632
1.064589733
1.064674661
1.064822708
1.065005729
1.065192687
1.065302559
1.065316273
1.065306268
1.065309048
1.065182809
1.069641488
1.06957856
1.069744047
1.069937672
1.070052387
1.070094982
1.07003218
1.069964034
1.069902112
1.069733225
1.069523005
1.069384525
1.069275179
1.069228001
1.069293196
1.069364645
1.069397144
1.069542971
1.069684088
1.069810681
1.069890848
1.069972108
1.07009902
1.07021553
1.070271769
1.070265931
1.070249903
1.070272427
1.070322197
1.070392237
1.070509683
1.070654002
1.070774881
1.070862872
1.07087889
1.070885952
1.070889933
1.070745108
1.075000367
1.074914994
1.074976482
1.075125894
1.0752172
1.075284668
1.075201266
1.075125812
1.075021576
1.074811974
1.074529993
1.074422689
1.074344989
1.07429994
1.074348186
1.074448174
1.074530624
1.074679717
1.07479205
1.074888035
1.074961166
1.075054913
1.075126337
1.075171789
1.075210221
1.075271741
1.075262273
1.075277886
1.075337715
1.075406411
1.075480279
1.075563602
1.075691064
1.07577736
1.07582993
1.075816182
1.075730714
1.075561992
1.079579327
1.079434385
1.079415099
1.079553264
1.079641292
1.079708485
1.079608328
1.079536074
1.079363128
1.07916103
1.078897249
1.078767763
1.078720893
1.078683372
1.078709575
1.078797859
1.078892324
1.079045592
1.079133653
1.07922057
1.079273909
1.079320279
1.079363013
1.07937843
1.079388288
1.079414969
1.079409974
1.079430678
1.079515651
1.079583597
1.07963697
1.07971468
1.079808399
1.079923279
1.079985778
1.079945505
1.079770747
1.079492238
1.08319195
1.08307105
1.083057424
1.083166888
1.083222448
1.083265844
1.083145773
1.083066296
1.082885868
1.082717678
1.082534446
1.082406144
1.082354929
1.082297905
1.082279754
1.082341057
1.082421986
1.082530806
1.082576532
1.082694944
1.082712987
1.082681918
1.082728919
1.082720654
1.082706385
1.082687081
1.082692167
1.082745158
1.082866261
1.08293083
1.082964804
1.083012913
1.083116371
1.083211948
1.083201071
1.083116183
1.082977258
1.082678651
1.085987442
1.085895429
1.08591215
1.085900032
1.085877968
1.085899817
1.085801769
1.085690818
1.08558445
1.085407546
1.085329276
1.085183588
1.085121613
1.085068061
1.085003648
1.084994414
1.085067768
1.085085939
1.085210288
1.085307511
1.085351656
1.085328583
1.085234985
1.085177894
1.085136509
1.08514407
1.085194525
1.085267824
1.085360909
1.08544447
1.085462872
1.085510978
1.085578813
1.0855877
1.085544103
1.085419768
1.085283596
1.085041327
1.08800339
1.087938111
1.087926664
1.087877277
1.087801979
1.087742711
1.087692571
1.087533588
1.087443104
1.087298899
1.087261351
1.087108414
1.087040555
1.086968616
1.086878936
1.086830043
1.086858055
1.086872793
1.086992662
1.087102972
1.087159218
1.0871577
1.087133034
1.087047706
1.086938036
1.086904336
1.086951413
1.087030386
1.087072085
1.087131404
1.087208669
1.087219473
1.08719363
1.087145046
1.087061415
1.086946871
1.086877987
1.086682548
1.08919073
1.089259662
1.089177103
1.089193757
1.089076805
1.088908801
1.088884646
1.088706075
1.088555691
1.08850549
1.08845927
1.088280233
1.088178653
1.088109118
1.088029771
1.087978851
1.087969851
1.088003503
1.08813719
1.088253737
1.088323252
1.088334798
1.088302437
1.088195086
1.088106442
1.088043084
1.088083787
1.088106629
1.088133701
1.088195297
1.088216469
1.088199635
1.088149238
1.088045926
1.087926147
1.087845587
1.087835371
1.087696438
1.089643825
1.089927998
1.089921525
1.089972976
1.089778163
1.089576563
1.089529789
1.089349663
1.089149648
1.089121857
1.088989622
1.088793842
1.088672406
1.088606095
1.088621111
1.088606418
1.088578768
1.088673213
1.08879768
1.088886373
1.088958275
1.088968161
1.088934023
1.088857526
1.088807993
1.088741472
1.088689624
1.088667892
1.088691801
1.088744938
1.088735117
1.08869343
1.088625112
1.088502005
1.088387673
1.088304001
1.0882704
1.088188589
1.089821951
1.090132932
1.090279949
1.090286831
1.090065555
1.089905071
1.089827138
1.089627587
1.089422576
1.089300152
1.089112689
1.088927774
1.08879956
1.088719689
1.088786303
1.088817868
1.08881758
1.088929375
1.089056736
1.089132986
1.089172241
1.089166987
1.089149683
1.08916935
1.089128487
1.089065339
1.088955374
1.08892678
1.088955621
1.088979872
1.088928156
1.088865308
1.088765975
1.088662171
1.088575382
1.088498996
1.088432636
1.08834872
1.089915982
1.09005394
1.090327888
1.090306344
1.090297345
1.090147471
1.089940515
1.089694952
1.089503046
1.089355777
1.089104601
1.088935568
1.088804191
1.088731345
1.088792028
1.088832023
1.08887516
1.089006697
1.089129744
1.089195825
1.089185891
1.089140211
1.089143978
)
;

boundaryField
{
    inlet
    {
        type            fixedValue;
        value           nonuniform 0();
    }
    outlet
    {
        type            inletOutlet;
        inletValue      uniform 1;
        value           nonuniform List<scalar> 
62
(
1.012741779
1.012684818
1.01226821
1.011975384
1.011958106
1.012077568
1.012156292
1.012048182
1.011793862
1.0116061
1.011495063
1.011385096
1.011155044
1.010717021
1.010216442
1.009753034
1.009227856
1.008596183
1.007796783
1.006753421
1.005560477
1.004358123
1.00318684
1.00212945
1.00098661
0.9999239709
0.9989880431
0.9983304507
0.9978759183
0.9977675983
0.9978736291
0.9978477426
0.9977724129
0.997724632
0.9977135849
0.9977704258
0.9979441832
0.9982910451
0.9989245349
0.999989738
1.001560291
1.003734017
1.006638379
1.010301198
1.014729053
1.019927915
1.025818608
1.032212415
1.038881833
1.045677544
1.052441175
1.059064067
1.065186289
1.070738578
1.075537516
1.079465871
1.082652131
1.085027787
1.086677475
1.087692414
1.088207603
1.088367726
)
;
    }
    bottom
    {
        type            slip;
    }
    top
    {
        type            slip;
    }
    obstacle
    {
        type            zeroGradient;
    }
    defaultFaces
    {
        type            empty;
    }
    procBoundary17to11
    {
        type            processor;
        value           nonuniform List<scalar> 
36
(
1.012783774
1.012966578
1.012994231
1.012737638
1.012785461
1.012752524
1.012721502
1.012621518
1.012749748
1.012773352
1.012891985
1.012989936
1.013038009
1.013034985
1.012924048
1.012605733
1.012387377
1.012243533
1.012208979
1.012250637
1.012198753
1.012130081
1.012194621
1.012529059
1.012699536
1.012691497
1.012549914
1.012501147
1.012452667
1.012389797
1.012389797
1.01321789
1.012729328
1.012764433
1.012845647
1.012845647
)
;
    }
    procBoundary17to16
    {
        type            processor;
        value           nonuniform List<scalar> 
64
(
1.012913966
1.012335775
1.012041377
1.011979912
1.011951925
1.011937008
1.01195981
1.011938347
1.011938347
1.011177437
1.010374336
1.009898529
1.009666489
1.009664939
1.00983203
1.009521809
1.009087965
1.008299359
1.007102426
1.005763358
1.004450714
1.003077365
1.001737647
1.001737647
1.000926417
0.9997807884
0.9987018574
0.9977664627
0.9971274401
0.9964932319
0.9960156585
0.9960188395
0.9962294513
0.9962164491