/*--------------------------------*- C++ -*----------------------------------*\
  =========                 |
  \\      /  F ield         | OpenFOAM: The Open Source CFD Toolbox
   \\    /   O peration     | Website:  https://openfoam.org
    \\  /    A nd           | Version:  7
     \\/     M anipulation  |
\*---------------------------------------------------------------------------*/
FoamFile
{
    version     2.0;
    format      ascii;
    class       volVectorField;
    location    "2.6";
    object      U;
}
// * * * * * * * * * * * * * * * * * * * * * * * * * * * * * * * * * * * * * //

dimensions      [0 1 -1 0 0 0 0];

internalField   nonuniform List<vector> 
2222
(
(2.963927928 0.000520942725 0)
(2.964245705 2.312336221e-05 0)
(2.96444478 -0.0005880731713 0)
(2.96439924 -0.0006392632937 0)
(2.961964882 -0.0004569506177 0)
(2.961803755 -0.0004058404359 0)
(2.961581309 -0.0002407249557 0)
(2.961178554 -0.0001166441425 0)
(2.960944547 -0.0003050424951 0)
(2.960458786 -0.0002915166278 0)
(2.960161091 -0.0007935247063 0)
(2.960049286 -0.001291101605 0)
(2.960097775 -0.001308992308 0)
(2.960384165 -0.001169405296 0)
(2.960788423 -0.001123186418 0)
(2.960468734 -0.000506887368 0)
(2.960947858 0.0003976757165 0)
(2.960991075 0.0004054759821 0)
(2.960879443 0.000330378393 0)
(2.96095853 0.0004225682281 0)
(2.96049832 0.000696182712 0)
(2.960072884 0.0007988903786 0)
(2.959937801 0.0006407743636 0)
(2.960057546 0.0002280488105 0)
(2.960252283 -0.0003114539302 0)
(2.960170844 -0.0005110357612 0)
(2.960430046 -0.0005297313256 0)
(2.96086042 -0.0001621695982 0)
(2.961286879 -7.46183828e-06 0)
(2.961444681 0.000283225247 0)
(2.961773381 0.00043940412 0)
(2.962075997 0.0005558564236 0)
(2.962316042 0.0003956884513 0)
(2.962454253 -0.0002798302035 0)
(2.959566508 -0.00132617242 0)
(2.959540671 -0.0008896107006 0)
(2.959893962 -0.0007617598005 0)
(2.95970314 -0.0002908138211 0)
(2.959841275 -0.0003433138082 0)
(2.959667405 -0.0004412455558 0)
(2.959426476 -0.0005387316327 0)
(2.958955869 -0.0003246024071 0)
(2.958460756 -0.0003341492562 0)
(2.958091924 -2.169188667e-05 0)
(2.958195529 0.000163347308 0)
(2.958145177 -0.0005249621623 0)
(2.958012731 -0.001142438126 0)
(2.958163242 -0.001534196234 0)
(2.958050081 -0.001568472816 0)
(2.958078384 -0.000953209209 0)
(2.958623342 -0.000489635441 0)
(2.958576573 -5.789109186e-05 0)
(2.958770906 0.0003522830183 0)
(2.958629331 0.0002316644501 0)
(2.95827014 0.0001591373778 0)
(2.958103656 0.0001298616841 0)
(2.957996983 0.0008226573201 0)
(2.958050751 0.0008693314822 0)
(2.958346895 0.0001257979673 0)
(2.958422965 -0.0006575210697 0)
(2.958667009 -0.0005949862952 0)
(2.959034572 -0.000547156278 0)
(2.9590055 -0.0006178312114 0)
(2.959175058 -0.0002815778649 0)
(2.959523823 0.0003062163401 0)
(2.95976737 0.0006223850813 0)
(2.959956767 0.0008674764621 0)
(2.960283164 0.0008674149078 0)
(2.95716821 -0.001056731278 0)
(2.95732501 -0.0009533317918 0)
(2.9572977 -0.000931364081 0)
(2.957304397 -0.000392775946 0)
(2.957410235 -0.0001070749416 0)
(2.957403219 -7.133639347e-05 0)
(2.957195894 -0.0001981856969 0)
(2.956679434 -0.0003408084206 0)
(2.956084851 -0.0001849431278 0)
(2.955678828 -6.560370567e-05 0)
(2.955741104 -0.0003407996687 0)
(2.955371549 -0.0002311217466 0)
(2.955174418 -0.0002971551716 0)
(2.955506988 -0.0009168391545 0)
(2.955432714 -0.001456242203 0)
(2.955589269 -0.001506298002 0)
(2.955747856 -0.001468701011 0)
(2.955916929 -0.0007175685956 0)
(2.956583503 -0.0001395450275 0)
(2.95623946 -0.0002206611164 0)
(2.955949342 -0.0004112188945 0)
(2.955839877 1.236470331e-05 0)
(2.956138409 0.0004111836636 0)
(2.956110999 0.0004813319467 0)
(2.956317322 0.0003820534572 0)
(2.956605711 9.893790957e-05 0)
(2.956844846 -0.0003947619514 0)
(2.956927552 -0.0007957488509 0)
(2.956946708 -0.0008043209288 0)
(2.957072098 -0.0006197280116 0)
(2.957186081 -0.0002807657074 0)
(2.957370998 0.0001253270966 0)
(2.957370132 0.0006426872389 0)
(2.957476775 0.0007608424751 0)
(2.954508604 -0.0006362733976 0)
(2.954921432 -0.001531748715 0)
(2.954732656 -0.0009760213995 0)
(2.954737943 -0.0005776591477 0)
(2.954876407 -5.816949692e-05 0)
(2.954843705 0.0002096355317 0)
(2.954597368 0.0003514742284 0)
(2.95402694 0.0001536255675 0)
(2.953577803 0.0003140632134 0)
(2.953262406 0.0002158674209 0)
(2.95349215 0.0006901331724 0)
(2.953075392 0.001247956076 0)
(2.952844011 0.001214395963 0)
(2.953190393 0.0004797345691 0)
(2.952751497 -0.0005182282894 0)
(2.952793219 -0.001116415586 0)
(2.953187084 -0.00125053238 0)
(2.953120036 -0.001529503666 0)
(2.953640101 -0.0008682842582 0)
(2.953558628 -0.0003683615327 0)
(2.95362913 -3.0909345e-05 0)
(2.953939395 0.0001106193601 0)
(2.954192627 -6.689707158e-05 0)
(2.954145889 0.0003596386135 0)
(2.954201996 0.000480361533 0)
(2.954401805 0.0002591146307 0)
(2.95459047 -2.86573365e-05 0)
(2.954662647 -0.0001097020178 0)
(2.954762815 -0.0001913646579 0)
(2.954788513 -0.0004134925986 0)
(2.954756326 -0.0006161993981 0)
(2.954741308 -0.0004872367986 0)
(2.95454971 3.324301394e-05 0)
(2.954546932 0.0007003618702 0)
(2.951705002 -6.83414357e-06 0)
(2.952331282 -0.0008678443289 0)
(2.952095856 -0.001233720443 0)
(2.952069143 -0.001019915151 0)
(2.9520862 -0.0005562574664 0)
(2.952092842 -9.418757099e-05 0)
(2.95186125 0.0002500743947 0)
(2.951256319 0.0006906997564 0)
(2.950736789 0.0004807008568 0)
(2.950661617 0.0006455334415 0)
(2.951013765 0.0005483324582 0)
(2.950677594 0.0004006318191 0)
(2.95023642 0.0004499822256 0)
(2.950342087 0.0006371551894 0)
(2.949931478 0.0007976088738 0)
(2.950246772 -0.0001604515732 0)
(2.950618537 -0.0007238787463 0)
(2.950625008 -0.0008819585722 0)
(2.950811455 -0.0008176270624 0)
(2.950752312 -0.0005268545635 0)
(2.951271128 -0.0002121551317 0)
(2.951846905 -0.0003270680763 0)
(2.951992346 -0.0007084771481 0)
(2.951911938 -0.0002702009465 0)
(2.951903778 0.0003751929878 0)
(2.952014458 0.0005750787676 0)
(2.952221965 0.0005610071091 0)
(2.952055872 0.0005205325662 0)
(2.951869056 0.0004214604728 0)
(2.951959837 0.0001935225748 0)
(2.952168348 -0.0001995767839 0)
(2.951968695 -0.0003800834705 0)
(2.951534351 -0.0004122691893 0)
(2.95143712 5.268319148e-05 0)
(2.948750172 0.0009055910486 0)
(2.949584397 3.944077752e-05 0)
(2.949206664 -0.0007055403185 0)
(2.94915258 -0.0008402885948 0)
(2.949124835 -0.0007921296027 0)
(2.949047857 -0.0006178568829 0)
(2.94880146 -0.0002471181107 0)
(2.948426888 0.0001798173027 0)
(2.94796266 0.0006195774916 0)
(2.947847944 0.0007314310332 0)
(2.94822249 0.0008620811899 0)
(2.948144045 0.0007806948813 0)
(2.947695135 0.0009732856112 0)
(2.9474962 0.0009681703925 0)
(2.947107064 0.0002152371381 0)
(2.947249416 0.0001424749172 0)
(2.947397231 3.189412011e-05 0)
(2.947867462 -0.0001903733869 0)
(2.947948229 -0.0002203619811 0)
(2.947952693 -0.0002264864833 0)
(2.948525675 -0.000319972209 0)
(2.949076839 -0.0006172341956 0)
(2.949474281 -0.0004025337441 0)
(2.949163101 -0.0004351024792 0)
(2.949117356 -0.0001673881199 0)
(2.949391586 -6.187757478e-05 0)
(2.949455377 6.642014436e-05 0)
(2.949170497 0.0001823214037 0)
(2.94887173 0.0003571822245 0)
(2.948922583 0.0003997026724 0)
(2.948983115 0.0003537143686 0)
(2.948799722 0.000185637707 0)
(2.948241441 -0.0002117187772 0)
(2.947992734 -0.0002169993281 0)
(2.945385624 0.0006248263625 0)
(2.946235267 0.0007261379684 0)
(2.946157612 0.0001576130586 0)
(2.945968979 -0.0002512191635 0)
(2.94596352 -0.0005067235667 0)
(2.945891486 -0.0006918302216 0)
(2.945723128 -0.0007594240402 0)
(2.94519577 -0.0005537800972 0)
(2.945077367 -2.403690248e-05 0)
(2.945178112 0.0003397086615 0)
(2.945393619 0.0003476947511 0)
(2.945399384 0.0003267652844 0)
(2.945038394 0.0004156416238 0)
(2.944769442 0.0004337090599 0)
(2.944453051 0.0006042132096 0)
(2.944387813 0.0006320778273 0)
(2.944341495 0.0003825008632 0)
(2.944367637 0.0002257345112 0)
(2.944610723 9.351278852e-05 0)
(2.944843843 4.742108349e-05 0)
(2.945553123 -0.000186747495 0)
(2.946416633 -0.0003182816976 0)
(2.946638898 -0.0004165921327 0)
(2.946345847 -0.0005681030489 0)
(2.946186043 -0.0006035245964 0)
(2.946250876 -0.0005307712629 0)
(2.946129319 -0.000476300739 0)
(2.945880352 -0.0004235291183 0)
(2.945701746 -0.0001776217741 0)
(2.945588491 0.000130939562 0)
(2.945328712 0.000417278959 0)
(2.944897612 0.0004690773048 0)
(2.944452016 0.0002986290005 0)
(2.944414865 -0.0001267701945 0)
(2.941885932 0.0007515066603 0)
(2.942529159 0.0006563444859 0)
(2.942537953 0.000688881336 0)
(2.942315143 0.0003171158303 0)
(2.942293282 0.0002509185488 0)
(2.942463232 -5.866022378e-06 0)
(2.942417251 -0.0004466568963 0)
(2.942176157 -0.0008820159019 0)
(2.941901132 -0.0008264146349 0)
(2.942102706 -0.0005467760341 0)
(2.942250728 7.729107019e-05 0)
(2.942296562 0.0005246817274 0)
(2.942111168 0.0003812220174 0)
(2.941695201 0.000196123917 0)
(2.94154029 4.991496114e-05 0)
(2.94164434 0.0001033985083 0)
(2.941360278 0.0002053632094 0)
(2.940966641 0.0004950767191 0)
(2.941095677 0.0005753539973 0)
(2.941298712 0.000583798619 0)
(2.94227151 0.0005268590359 0)
(2.943275148 0.0003737828591 0)
(2.943229969 0.000119497004 0)
(2.943140528 -4.627170117e-05 0)
(2.943035207 -0.0003574692771 0)
(2.942939704 -0.0005508544892 0)
(2.942690876 -0.0006911649611 0)
(2.942371719 -0.0007920238472 0)
(2.942083606 -0.0007555563208 0)
(2.941860008 -0.0004295726636 0)
(2.941532417 -9.514996424e-06 0)
(2.940972912 0.0002720867965 0)
(2.940507408 0.0003111162002 0)
(2.940472571 0.0001689450579 0)
(2.938233869 0.0002927708518 0)
(2.938748361 0.0007798940805 0)
(2.938647285 0.0007646612554 0)
(2.93841957 0.000559631632 0)
(2.938323433 0.0004444695148 0)
(2.938357994 0.0003904859223 0)
(2.938476985 0.0002833295664 0)
(2.938965723 -0.0001923573277 0)
(2.938833499 -0.0009345959403 0)
(2.938762406 -0.001122181186 0)
(2.938871227 -0.0007818810797 0)
(2.939060524 -0.0003501632552 0)
(2.939124249 -0.0002440339452 0)
(2.938672487 -0.0001672390206 0)
(2.9383873 -8.340628176e-05 0)
(2.938468338 -0.0001656211339 0)
(2.938227095 9.793390074e-06 0)
(2.937750068 3.171389688e-05 0)
(2.93748832 0.000214165716 0)
(2.937667694 0.0004019556156 0)
(2.938475099 0.0004516848128 0)
(2.939130541 0.0003255092414 0)
(2.939288383 0.0001729345441 0)
(2.939281892 0.0002615585935 0)
(2.939286975 0.0003447632547 0)
(2.939199545 0.000193369452 0)
(2.93904238 2.23165616e-06 0)
(2.938805157 -0.0003447481395 0)
(2.938491075 -0.0007382950582 0)
(2.938101314 -0.0008678862659 0)
(2.937529064 -0.0007015141151 0)
(2.937038263 -0.0002972198311 0)
(2.936605519 0.0001764247997 0)
(2.936592471 0.0004038352871 0)
(2.934278534 -0.0001951064898 0)
(2.934386571 -2.70779259e-05 0)
(2.934770292 0.0003094211043 0)
(2.934824515 0.0003846872573 0)
(2.934620655 0.0003548019178 0)
(2.934400482 0.000342415936 0)
(2.934348359 0.0003977898241 0)
(2.934515105 0.0004218645613 0)
(2.934861251 0.0003880944601 0)
(2.935579469 -5.335799254e-05 0)
(2.935593859 -0.0005927628624 0)
(2.935395433 -0.0008382691266 0)
(2.935397922 -0.0005304431892 0)
(2.93580055 6.470350803e-05 0)
(2.935515176 0.0001596257388 0)
(2.935300539 -0.0001335067848 0)
(2.935373729 -0.0004323898752 0)
(2.934997115 -0.0005039479273 0)
(2.934368566 -0.0003308769728 0)
(2.93405922 3.29950092e-05 0)
(2.934168584 0.0002879687673 0)
(2.934702926 0.0006202927683 0)
(2.935127916 0.0007563226275 0)
(2.9353234 0.0007777898297 0)
(2.935372749 0.000503659989 0)
(2.935259905 0.0003557841415 0)
(2.934985295 0.0004029349542 0)
(2.934821316 0.0005191021585 0)
(2.93483887 0.0003611524594 0)
(2.934825465 -8.537188104e-05 0)
(2.934387183 -0.0005212928833 0)
(2.933684672 -0.0007729386213 0)
(2.933096402 -0.0006734194232 0)
(2.93271879 -0.0002303472604 0)
(2.932978742 0.0002416703053 0)
(2.930595184 0.0009272472828 0)
(2.930704923 -7.984832316e-05 0)
(2.930798457 -0.0001053643844 0)
(2.930780826 -2.847277832e-05 0)
(2.93064471 -5.27882694e-05 0)
(2.930489378 -0.0001173685126 0)
(2.9305242 -6.381459504e-05 0)
(2.930716693 0.0001339772563 0)
(2.931055941 0.0004510422499 0)
(2.931614112 0.0005269917221 0)
(2.932066156 0.0004064688616 0)
(2.93208575 -0.0002967367404 0)
(2.932111892 -0.0003519854194 0)
(2.932422189 9.095880641e-06 0)
(2.932128141 0.0004054874463 0)
(2.932081789 0.0005432179436 0)
(2.932178158 0.0002373132751 0)
(2.931663782 -0.0003470027237 0)
(2.931050959 -0.0007442587754 0)
(2.930740163 -0.0006429295405 0)
(2.930772465 -0.0001529425891 0)
(2.931151778 0.0001648325168 0)
(2.931474285 0.0003810172127 0)
(2.93158334 0.00047096099 0)
(2.931704714 0.0003157388337 0)
(2.931545859 0.0003343489405 0)
(2.931213953 0.0004336045633 0)
(2.930930279 0.0005783729405 0)
(2.930857116 0.0005756752643 0)
(2.93079443 0.0004746770406 0)
(2.930517438 0.0001556278932 0)
(2.93006343 -0.0001277856838 0)
(2.929558953 -0.000267700675 0)
(2.929262991 -0.000242816072 0)
(2.929563393 6.346530721e-05 0)
(2.926486226 0.001764559188 0)
(2.926900696 0.0006461998457 0)
(2.927007012 1.55067181e-05 0)
(2.926977413 -5.017718382e-05 0)
(2.9268739 -0.0002249371644 0)
(2.926712267 -0.0004273167704 0)
(2.926647155 -0.0005387021936 0)
(2.926886386 -0.0004314611275 0)
(2.927460661 -3.444445253e-05 0)
(2.927785868 0.0005055065956 0)
(2.928081724 0.0005809769076 0)
(2.928214681 0.0005673457546 0)
(2.928511038 0.0003303553101 0)
(2.928902299 0.0003907805902 0)
(2.928701014 0.0006532972785 0)
(2.928431182 0.0007613731095 0)
(2.928372268 0.0006158221194 0)
(2.928189486 -3.133590075e-05 0)
(2.927762716 -0.0005185547402 0)
(2.927343778 -0.0008131025941 0)
(2.927410426 -0.0004582277408 0)
(2.92767004 -0.0001161567407 0)
(2.927924186 0.0002256630671 0)
(2.928122205 0.0002411849524 0)
(2.928216612 4.194617326e-05 0)
(2.928071146 -0.0001846455749 0)
(2.927806812 -9.134476031e-05 0)
(2.927550227 0.0002023279779 0)
(2.927372865 0.0004713145602 0)
(2.927187659 0.0006065675124 0)
(2.926883179 0.0005914218601 0)
(2.926420208 0.0004651552776 0)
(2.926068276 0.0002647820047 0)
(2.926054649 8.247974262e-05 0)
(2.926517984 -6.375893952e-05 0)
(2.922541441 0.001996523843 0)
(2.922840325 0.001247335372 0)
(2.923096792 0.0007561953206 0)
(2.923218783 0.0004631538189 0)
(2.923239208 0.0002602371581 0)
(2.923212853 5.633069008e-06 0)
(2.923165891 -0.0003531688526 0)
(2.923292066 -0.0006619051996 0)
(2.923632677 -0.0004729116975 0)
(2.924164676 6.793446344e-06 0)
(2.924403278 0.0004778796211 0)
(2.924414532 0.0006898257762 0)
(2.924689479 0.0006019357167 0)
(2.925131086 0.0002434347464 0)
(2.925142413 0.0003996002147 0)
(2.924866147 0.0008253352001 0)
(2.924679907 0.0008168412051 0)
(2.92439461 0.000594243372 0)
(2.924324638 1.296354642e-05 0)
(2.924182072 -0.0004331002247 0)
(2.924277249 -0.0005764053182 0)
(2.924478997 -0.0004837407788 0)
(2.924750168 -0.0001990162524 0)
(2.924916398 -9.860717704e-05 0)
(2.924905077 -3.616536128e-05 0)
(2.92467337 -0.0001772782587 0)
(2.924434574 -0.0002399090288 0)
(2.924303073 -0.0001537081796 0)
(2.924230319 7.406365147e-05 0)
(2.924090609 0.000360657029 0)
(2.923768975 0.0005646766867 0)
(2.923344866 0.0006177397053 0)
(2.923047554 0.0005460224695 0)
(2.923030413 0.0004933011098 0)
(2.923607435 0.0001654446239 0)
(2.919508523 0.001536360973 0)
(2.919357141 0.001395609251 0)
(2.919366333 0.001054376409 0)
(2.919452363 0.0008673120549 0)
(2.919534806 0.0008911902452 0)
(2.919551164 0.0007829064052 0)
(2.919804734 0.000436438404 0)
(2.920072841 -7.854425797e-05 0)
(2.920328691 -0.0004949810335 0)
(2.920608772 -0.0004261014246 0)
(2.921009275 1.933644029e-05 0)
(2.921113061 0.0004186069378 0)
(2.92132347 0.0005368023356 0)
(2.921451968 0.0003330878029 0)
(2.921497662 0.0001378554087 0)
(2.921445235 0.0002474391285 0)
(2.921415391 0.0004755663495 0)
(2.9211107 0.0006938250753 0)
(2.920966698 0.0004420155062 0)
(2.921041087 0.0002226236796 0)
(2.921247204 -0.0002330845844 0)
(2.92151113 -0.000398850139 0)
(2.921766074 -0.000252612612 0)
(2.92186833 -1.498133056e-05 0)
(2.921748019 0.0001166952157 0)
(2.921511202 9.518806498e-05 0)
(2.921377218 -0.0001416628824 0)
(2.92129363 -0.0003649093472 0)
(2.921211436 -0.0002712966428 0)
(2.921082662 5.433913237e-06 0)
(2.920934435 0.0002491176251 0)
(2.920770635 0.0003566219591 0)
(2.92064077 0.0003945377097 0)
(2.92058025 0.000507162976 0)
(2.920937664 0.0003755175367 0)
(2.916503 0.0003419770543 0)
(2.916539444 0.000674214368 0)
(2.916521952 0.0008373498543 0)
(2.916463599 0.0008963098528 0)
(2.916348608 0.001079436746 0)
(2.91624547 0.001107735965 0)
(2.916340153 0.0009783897634 0)
(2.91664159 0.0007022009739 0)
(2.917222822 4.247139507e-05 0)
(2.917507353 -0.0005223914879 0)
(2.917853948 -0.000501205991 0)
(2.917908948 -9.62466167e-05 0)
(2.917969197 0.0001281998853 0)
(2.91791249 2.659844099e-05 0)
(2.917927254 -0.0002205427409 0)
(2.918007673 -0.0002021522786 0)
(2.918214882 4.136168638e-05 0)
(2.91840311 0.0004294892235 0)
(2.918182659 0.0005894913321 0)
(2.9181491 0.0005500509739 0)
(2.918398423 0.0002332061816 0)
(2.918730835 -8.75907379e-05 0)
(2.918963124 -0.0002120410732 0)
(2.918988715 -3.946155567e-05 0)
(2.918771631 0.0001598502191 0)
(2.918543237 0.000283791394 0)
(2.918419482 9.163680691e-05 0)
(2.918333076 -0.0002527841797 0)
(2.918216637 -0.0003100857357 0)
(2.918118036 -0.0001450974069 0)
(2.918121619 1.345131006e-05 0)
(2.918142566 9.421443237e-05 0)
(2.918138967 0.0001624453206 0)
(2.918270943 0.0002707464254 0)
(2.91859374 0.0003290748373 0)
(2.913426013 -0.0003512248013 0)
(2.913722526 -7.158870394e-05 0)
(2.913848391 -4.409518748e-06 0)
(2.913846735 0.0001692516434 0)
(2.913685358 0.0005875350117 0)
(2.913690698 0.0008919513085 0)
(2.913637254 0.001113283274 0)
(2.913675518 0.001047167981 0)
(2.913992919 0.0007011367306 0)
(2.914429221 -0.0002154842966 0)
(2.9147063 -0.0008050685923 0)
(2.914987395 -0.0006520797244 0)
(2.914702216 -0.0003143094235 0)
(2.914551492 -0.0001706110718 0)
(2.914523255 -0.0003534209356 0)
(2.914807172 -0.0004965661299 0)
(2.915207077 -0.0003690936585 0)
(2.915450208 -2.337148889e-05 0)
(2.915465765 0.0003649136095 0)
(2.915560357 0.0005134527746 0)
(2.915743434 0.0005005734653 0)
(2.916010251 0.0002938398628 0)
(2.91620131 2.182693898e-05 0)
(2.916169873 -5.285479221e-05 0)
(2.915955273 2.148416463e-05 0)
(2.915750929 0.0001347710905 0)
(2.915589971 0.0001431770333 0)
(2.915431952 3.583814702e-05 0)
(2.915297687 -4.409400415e-05 0)
(2.915210459 -4.925537364e-05 0)
(2.915262825 -1.775350212e-05 0)
(2.915448425 -5.191329435e-05 0)
(2.915662567 -5.290620392e-05 0)
(2.91589538 -4.241507149e-06 0)
(2.916193995 6.906582777e-05 0)
(2.910249766 -0.0006515451679 0)
(2.910683668 -0.0005841617421 0)
(2.910906057 -0.0005206796537 0)
(2.910950566 -0.0004323070549 0)
(2.91095319 -0.0002209717672 0)
(2.911032714 7.030591256e-05 0)
(2.911150369 0.0005654129887 0)
(2.911281217 0.000905281774 0)
(2.911150441 0.000956526007 0)
(2.911284876 0.0003753031197 0)
(2.911455935 -0.0006021793013 0)
(2.911632986 -0.0008764801471 0)
(2.911456736 -0.0006087550761 0)
(2.911330834 -0.0003315608649 0)
(2.911317252 -0.0001525888898 0)
(2.911734726 -0.0003323495944 0)
(2.91205962 -0.000659131113 0)
(2.912401823 -0.0003334659046 0)
(2.912541037 0.0001209108416 0)
(2.912686607 0.0003255445445 0)
(2.912912974 0.0004290423511 0)
(2.913184799 0.0003028555945 0)
(2.91335495 4.461772608e-05 0)
(2.913287262 -0.0001614729447 0)
(2.91301586 -8.588285295e-05 0)
(2.91290975 -6.445682913e-05 0)
(2.912764489 0.0001289416675 0)
(2.912545425 0.0001874749733 0)
(2.912353688 0.000166922055 0)
(2.91228457 8.839817801e-05 0)
(2.912334082 5.709386837e-05 0)
(2.91253538 6.52896107e-05 0)
(2.912849789 1.399540379e-05 0)
(2.913165641 -0.000186231208 0)
(2.913581095 -0.0001674468584 0)
(2.907203575 -0.0007563388018 0)
(2.907499594 -0.0007257640492 0)
(2.90765302 -0.0006771571115 0)
(2.907720465 -0.0007532938318 0)
(2.907873702 -0.0006941063592 0)
(2.908062416 -0.0004365235713 0)
(2.908291024 -0.0001747796225 0)
(2.908447633 0.0003010560488 0)
(2.908332894 0.0007602984374 0)
(2.908276409 0.0005984683221 0)
(2.908196745 7.274003913e-05 0)
(2.908192361 -0.0007626632216 0)
(2.908203971 -0.0007722988294 0)
(2.908166872 -0.0001955224274 0)
(2.908213028 0.0001715295245 0)
(2.908542232 -2.064950937e-06 0)
(2.908891476 -0.0004264354736 0)
(2.909202291 -0.0004504923545 0)
(2.909521211 -0.0001610693964 0)
(2.90971916 0.0001849933801 0)
(2.909923057 0.0002803534419 0)
(2.910260004 0.0001917928747 0)
(2.910365585 5.970211719e-05 0)
(2.910206912 -4.626507743e-05 0)
(2.909965469 -0.0001052552292 0)
(2.909782392 -8.935365239e-05 0)
(2.909642076 4.130021846e-05 0)
(2.909455973 9.910448697e-05 0)
(2.909309801 7.570937434e-05 0)
(2.909240369 -3.458149561e-05 0)
(2.909300507 -4.77495624e-05 0)
(2.909487112 0.0001044111223 0)
(2.909715323 0.0001591541426 0)
(2.91003594 -5.877622814e-06 0)
(2.910514909 -0.0001792731143 0)
(2.904070581 -0.000279686279 0)
(2.90432546 -0.0003465086236 0)
(2.904488325 -0.000485858989 0)
(2.904333014 -0.000766231355 0)
(2.904430274 -0.0008446676023 0)
(2.904711562 -0.0007132789 0)
(2.905085307 -0.0006148790377 0)
(2.905285394 -0.0003169632454 0)
(2.9052269 0.0002721446481 0)
(2.905073393 0.0006760326611 0)
(2.904994483 0.0006251297547 0)
(2.904974891 0.0001051612231 0)
(2.904991889 -0.0003556864567 0)
(2.904965282 -4.479219561e-05 0)
(2.905056457 0.0002942519911 0)
(2.905283922 0.0003220749869 0)
(2.905596629 0.0001602903814 0)
(2.905927983 -0.0001783345257 0)
(2.906278914 -0.000295720776 0)
(2.906588575 -3.916373721e-05 0)
(2.906779517 6.882135742e-05 0)
(2.907061621 6.567528414e-06 0)
(2.9070933 0.0001582592503 0)
(2.906890664 0.0002607644581 0)
(2.90673027 0.0001888984647 0)
(2.90659056 2.290273222e-05 0)
(2.90643929 -7.661176425e-05 0)
(2.906257998 -0.0001189856729 0)
(2.906124509 -0.0001856286282 0)
(2.906092482 -0.0003526410436 0)
(2.906188683 -0.0003801971501 0)
(2.906359385 -0.0001559519967 0)
(2.906546491 0.000204776609 0)
(2.906746113 0.000320901729 0)
(2.907174024 0.0002054680734 0)
(2.900631183 0.0004097185424 0)
(2.900922384 0.0003559881973 0)
(2.901090758 0.0001730520941 0)
(2.9009908 -0.0001227248248 0)
(2.900925216 -0.0005857223104 0)
(2.901194486 -0.0008077871001 0)
(2.901486695 -0.0008337723925 0)
(2.901674392 -0.0006468517566 0)
(2.90175185 -0.0003231792207 0)
(2.901610476 0.0006624872724 0)
(2.901548943 0.0009295043468 0)
(2.901590947 0.000852021254 0)
(2.901707367 0.0002655408888 0)
(2.901635315 8.820138391e-05 0)
(2.901746175 0.0003400046689 0)
(2.902000139 0.000486997575 0)
(2.902083994 0.0004921964061 0)
(2.902375312 0.0003266876151 0)
(2.902667399 -3.044582856e-05 0)
(2.902992644 -0.0001223859496 0)
(2.903216399 -3.712281301e-05 0)
(2.903421193 0.0001112156884 0)
(2.903459696 0.0003994193111 0)
(2.903269661 0.0005009900559 0)
(2.903117378 0.0003661350264 0)
(2.903010297 0.0001860850109 0)
(2.902976042 -0.0001071228007 0)
(2.902847703 -0.0002525711564 0)
(2.902714488 -0.0003748117866 0)
(2.902658626 -0.0005692708533 0)
(2.902649603 -0.000555326162 0)
(2.902857241 -0.0003603374779 0)
(2.903196365 -4.826188681e-05 0)
(2.903358186 0.0004161524514 0)
(2.903647359 0.0005169650402 0)
(2.896867048 0.0009072815563 0)
(2.8971357 0.0009160241359 0)
(2.897213577 0.0008197191257 0)
(2.897256676 0.0006413878541 0)
(2.897267151 0.0001929841189 0)
(2.897433839 -0.0003884451562 0)
(2.897636079 -0.0007385660294 0)
(2.897768366 -0.0006988245504 0)
(2.897941253 -0.0005014898768 0)
(2.89790674 0.0004123509193 0)
(2.897827948 0.001074368119 0)
(2.89787866 0.001150605066 0)
(2.897956113 0.0007296035482 0)
(2.898138669 0.0001114321176 0)
(2.898299543 0.0001683410891 0)
(2.89849981 0.000353068038 0)
(2.8985782 0.0004745054359 0)
(2.898607665 0.0005771386753 0)
(2.898790299 0.0003424191882 0)
(2.899069036 8.00826409e-05 0)
(2.899325697 5.682197573e-05 0)
(2.89952045 0.0002479904173 0)
(2.899592072 0.0005063262201 0)
(2.899665456 0.0004349157579 0)
(2.899592252 0.0003433466415 0)
(2.899428454 0.0002951023118 0)
(2.899295947 0.0001505843926 0)
(2.899209857 7.343516012e-05 0)
(2.899082291 -0.0001035822352 0)
(2.898987268 -0.0002588072026 0)
(2.898937316 -0.0003885874114 0)
(2.899033198 -0.0004634429223 0)
(2.899384195 -0.0003350364441 0)
(2.899695366 2.69849209e-05 0)
(2.900047221 0.0005510122611 0)
(2.893109673 0.001055980869 0)
(2.893188724 0.001125227371 0)
(2.893190631 0.001106151276 0)
(2.89315417 0.001103611943 0)
(2.893279637 0.0008730569992 0)
(2.893418866 0.0002376738142 0)
(2.893611388 -0.0002474529061 0)
(2.893786397 -0.0004619948088 0)
(2.893917306 -0.0004787170199 0)
(2.894145588 -0.0001071577937 0)
(2.894296024 0.0007714166716 0)
(2.89426009 0.001119798277 0)
(2.894203463 0.0008837683379 0)
(2.894421166 0.0003319378184 0)
(2.89470935 5.448310481e-06 0)
(2.894888487 4.209695165e-05 0)
(2.89488142 0.000309828726 0)
(2.894913132 0.0004869162415 0)
(2.894987432 0.0004166353179 0)
(2.895177863 0.0002848643598 0)
(2.895400415 0.0001838737097 0)
(2.895590608 0.0002811302252 0)
(2.895741775 0.0002996171826 0)
(2.895938252 0.0002436892986 0)
(2.895980689 0.0002700621467 0)
(2.895901139 0.0003289900494 0)
(2.895658938 0.0003339418163 0)
(2.895466468 0.0003264028276 0)
(2.895361491 0.0002404167444 0)
(2.895296538 0.0002237202804 0)
(2.8953029 0.0001199703023 0)
(2.895338828 -0.0002160883394 0)
(2.895433352 -0.0005070540479 0)
(2.895774174 -0.0003568092979 0)
(2.896302161 0.0001108614878 0)
(2.889374836 0.001083815318 0)
(2.889408087 0.001239929478 0)
(2.889302403 0.001305535297 0)
(2.889210441 0.00120116237 0)
(2.889184564 0.001290524834 0)
(2.889319339 0.0008840341266 0)
(2.889641802 0.0004020513733 0)
(2.889913367 -2.291364625e-05 0)
(2.890127252 -0.0003738258369 0)
(2.890418885 -0.000459353716 0)
(2.890713262 -6.602994632e-05 0)
(2.890853386 0.0009187259599 0)
(2.890868229 0.0009636224497 0)
(2.89081007 0.0006378410406 0)
(2.890996117 0.0001667267427 0)
(2.89107709 -0.0001452608291 0)
(2.891107595 4.421353427e-05 0)
(2.891180785 0.000206382859 0)
(2.891232809 0.0003472903405 0)
(2.891325644 0.0003607230029 0)
(2.891531995 0.0002059361558 0)
(2.891713165 6.177301463e-05 0)
(2.891942197 -4.259021857e-05 0)
(2.892059063 -1.823340545e-05 0)
(2.892185181 0.0001004399407 0)
(2.892174524 0.0002588723081 0)
(2.89207274 0.0003785069858 0)
(2.891959044 0.000351492891 0)
(2.891852931 0.000404138472 0)
(2.891713604 0.0005497422805 0)
(2.891626355 0.0004895419715 0)
(2.891654212 0.0001983018124 0)
(2.891694908 -0.0002474607724 0)
(2.891871685 -0.0004748561976 0)
(2.892529013 -0.0002690405458 0)
(2.885263595 -0.0001279783841 0)
(2.885509539 0.0004310298403 0)
(2.88563035 0.0009771922521 0)
(2.885607731 0.00140850084 0)
(2.885555682 0.001425298328 0)
(2.885435215 0.001340423445 0)
(2.885458746 0.001066253273 0)
(2.885759156 0.0007922465877 0)
(2.886174123 0.0003327516402 0)
(2.886524156 -0.0002412839797 0)
(2.886802079 -0.0006787845644 0)
(2.887132185 -0.0007459514363 0)
(2.887427055 0.0001277816704 0)
(2.887661424 0.000977313453 0)
(2.88768479 0.0008520043532 0)
(2.887607542 0.000461272801 0)
(2.887559767 2.682036414e-05 0)
(2.887545811 -6.905606541e-05 0)
(2.887557806 -7.910745837e-05 0)
(2.887622378 8.420413118e-05 0)
(2.887776118 0.0001903801195 0)
(2.887922475 9.661989166e-05 0)
(2.888075934 -9.117779763e-05 0)
(2.888273174 -0.0001879930947 0)
(2.888453986 -0.0001477261884 0)
(2.888622053 -4.388909833e-05 0)
(2.888676743 2.282278651e-05 0)
(2.888656453 0.0001088387985 0)
(2.888643508 0.0001861298441 0)
(2.888633088 0.0003901029919 0)
(2.888565932 0.0005576647823 0)
(2.888466994 0.000538412192 0)
(2.888310323 0.0003834865191 0)
(2.888302929 0.0001714206333 0)
(2.888434304 -0.0001971969608 0)
(2.88894618 -0.0004180287137 0)
(2.88183476 -0.0008499756812 0)
(2.882099146 -0.0003721498564 0)
(2.882111913 0.0001092196514 0)
(2.882148174 0.0008279598145 0)
(2.882172601 0.001360785131 0)
(2.882284986 0.001364776746 0)
(2.882288229 0.001320793181 0)
(2.882415701 0.001052685903 0)
(2.882777607 0.0005323444822 0)
(2.883261287 -6.702463743e-05 0)
(2.88365053 -0.0006969611125 0)
(2.884001581 -0.001013740425 0)
(2.884360731 -0.0006800719353 0)
(2.884686646 0.0003065651062 0)
(2.884938564 0.0009293794634 0)
(2.884885808 0.0008052695068 0)
(2.884683123 0.0003717251313 0)
(2.884498652 6.526736657e-05 0)
(2.88440149 -9.466637797e-05 0)
(2.884479518 9.516698521e-06 0)
(2.884661179 0.0001045459426 0)
(2.884799848 4.894065197e-05 0)
(2.88496041 -3.054661264e-05 0)
(2.885123821 -6.859356006e-05 0)
(2.885330084 -6.529994155e-05 0)
(2.885489712 -1.379249772e-05 0)
(2.885587326 -5.330010792e-05 0)
(2.885633389 -6.696663034e-05 0)
(2.885639827 -6.222956737e-05 0)
(2.885700175 4.629503234e-05 0)
(2.885761865 0.0001829778063 0)
(2.88577931 0.0003984004039 0)
(2.885732754 0.0005294971947 0)
(2.885581798 0.0004279019564 0)
(2.88562154 0.0001882453271 0)
(2.886022129 -0.0002014335277 0)
(2.879168435 -0.0005137214702 0)
(2.879449803 -0.0003553873477 0)
(2.879369959 -0.0003260954182 0)
(2.879320393 6.571375197e-05 0)
(2.879356944 0.0006041082594 0)
(2.879471191 0.0009039439692 0)
(2.879683501 0.001256375787 0)
(2.879984584 0.001143744952 0)
(2.880283327 0.0006489933043 0)
(2.880723784 0.0001602260482 0)
(2.881210378 -0.0004747293683 0)
(2.881611561 -0.0008017579732 0)
(2.881988565 -0.0009859968204 0)
(2.882335113 -0.0005267373079 0)
(2.882639399 0.0003516087523 0)
(2.882778708 0.0008876787447 0)
(2.882634606 0.000675710746 0)
(2.88233878 0.0002868774059 0)
(2.882111865 0.0002350915909 0)
(2.882079541 0.0002363668743 0)
(2.882201182 0.0001403368469 0)
(2.88239116 0.0001095186592 0)
(2.882598922 9.723320744e-05 0)
(2.882762539 0.0001098657143 0)
(2.882945923 9.213933019e-05 0)
(2.883096705 0.000108004678 0)
(2.883193804 3.850040077e-05 0)
(2.883242819 -8.571485436e-05 0)
(2.883270542 -0.0001985029109 0)
(2.883309827 -0.0002884217583 0)
(2.883327025 -0.0003534269476 0)
(2.883379419 -0.0001748413871 0)
(2.883551114 0.0003347313364 0)
(2.883715386 0.0006029762966 0)
(2.883730278 0.0004468228865 0)
(2.883966496 7.109718085e-05 0)
(2.87767055 0.0004867426224 0)
(2.877760101 9.13936014e-05 0)
(2.877572871 -0.0001015824229 0)
(2.877386733 -0.0002120849759 0)
(2.877421813 6.963905721e-05 0)
(2.87746443 0.0002206082246 0)
(2.877792919 0.0006037395103 0)
(2.878240452 0.0008144345951 0)