/*--------------------------------*- C++ -*----------------------------------*\
  =========                 |
  \\      /  F ield         | OpenFOAM: The Open Source CFD Toolbox
   \\    /   O peration     | Website:  https://openfoam.org
    \\  /    A nd           | Version:  7
     \\/     M anipulation  |
\*---------------------------------------------------------------------------*/
FoamFile
{
    version     2.0;
    format      ascii;
    class       volScalarField;
    location    "3.4";
    object      T;
}
// * * * * * * * * * * * * * * * * * * * * * * * * * * * * * * * * * * * * * //

dimensions      [0 0 0 1 0 0 0];

internalField   nonuniform List<scalar> 
555
(
0.9898801588
0.9904204232
0.9849070828
0.9858174126
0.9863240115
0.9858694958
0.9859789736
0.9867735736
0.987721033
0.9881952243
0.9885345487
0.9887260393
0.9884271098
0.9882901496
0.9883068497
0.9882537161
0.9882490997
0.9882508307
0.9886408316
0.9838221224
0.9848432278
0.9850085907
0.9846019689
0.9846951994
0.9856820197
0.986562705
0.9870083798
0.9874287045
0.9879429031
0.9881417397
0.9883100953
0.9885027944
0.988458031
0.9883670319
0.9880192946
0.9879958666
0.9829485358
0.984136658
0.9842450467
0.983838455
0.9839267781
0.9848777316
0.9856785817
0.9861352874
0.9866158368
0.9871473828
0.9875205314
0.9879589392
0.9882158246
0.9882813947
0.9882836993
0.9880394742
0.9879671197
0.9822937138
0.9835329279
0.9837069023
0.9833852334
0.9834425167
0.9842809574
0.9850631041
0.9855302318
0.9859090015
0.9863866858
0.9869586578
0.9874153988
0.9878329285
0.9879475095
0.9879997106
0.987738907
0.9876901596
0.9818959288
0.9830433513
0.9832825455
0.9830410636
0.9831302116
0.9839221265
0.9846732144
0.9851068371
0.9854448181
0.9859180839
0.986419528
0.9867871891
0.9871799963
0.987293084
0.9873150664
0.9871507382
0.9872642011
0.9821665845
0.9818020176
0.9828019019
0.9830805377
0.9828899615
0.9830513702
0.9838488802
0.9845082046
0.9849193831
0.9853303052
0.9857357855
0.9859407724
0.9862678808
0.9863229203
0.9863649462
0.986379776
0.9864165887
0.9867439568
0.9827189855
0.9821945237
0.9829956054
0.9832295454
0.9831377336
0.9833958962
0.9843229308
0.984806045
0.9850917161
0.9854469167
0.9857063719
0.9857646092
0.986053028
0.9859972248
0.9859827435
0.9859577718
0.9860345103
0.9863664058
0.9833399122
0.9830533901
0.9837549906
0.9839456306
0.9838734282
0.9842091606
0.9852339137
0.985591817
0.9857830467
0.9860985674
0.9861954425
0.9860611031
0.986132701
0.9861922144
0.9860567433
0.9859695682
0.9860783408
0.9865094981
0.9842230046
0.9841121205
0.9848236941
0.9850173798
0.9850367536
0.9854205076
0.9863869541
0.9868160621
0.9871020112
0.9873174534
0.9872750275
0.9871277625
0.9869626138
0.987100283
0.9869658744
0.9869872375
0.987301586
0.9877674424
0.9860596331
0.9858735556
0.9865938368
0.9868231743
0.9869216519
0.9873026795
0.9881356229
0.9886234935
0.988958178
0.9891958517
0.9890811301
0.9889656645
0.9888865091
0.9889634879
0.9890535903
0.9893353472
0.989774785
0.9893238662
0.989084045
0.9898042934
0.9900620991
0.9901523835
0.9903764217
0.9909604547
0.9913246434
0.9916130248
0.9918954104
0.9917520257
0.9916764614
0.9916587058
0.9917847366
0.9919978248
0.9922440325
0.9925290835
0.9939942543
0.9937089198
0.9944489949
0.9945148723
0.9945718844
0.9945702087
0.9948782898
0.995067072
0.995261119
0.995446988
0.9953585542
0.9953393749
0.9953947177
0.9954983223
0.9955840319
0.9956592688
0.9958161575
1.000656282
0.9996127916
0.9991378565
0.9998100772
0.9997486277
0.9998052217
0.9997671467
0.9999412623
1.000046618
1.000130596
1.000123302
1.000004142
0.9999867504
1.000002544
1.00001319
0.9999378104
0.9998973063
1.000045366
1.006920395
1.005816271
1.005191491
1.005764815
1.005717531
1.005689657
1.0057239
1.0059322
1.006066041
1.006086149
1.005974491
1.005756683
1.005618625
1.005496157
1.005302379
1.005101471
1.004939555
1.005079445
1.013764912
1.012469571
1.011773397
1.01222798
1.012254228
1.012093741
1.012251768
1.012513528
1.012720446
1.0127412
1.012579541
1.012296672
1.012027882
1.0118256
1.011394724
1.011061539
1.010770829
1.01074268
1.02075408
1.01959286
1.018817157
1.019125603
1.019213804
1.019009506
1.019210763
1.019546322
1.019752684
1.019757448
1.019590199
1.019331985
1.019012801
1.018757817
1.018176112
1.017852396
1.017378134
1.017328246
1.027735019
1.026532443
1.026054206
1.026439157
1.026675085
1.026413605
1.026555363
1.026930518
1.027160234
1.027207532
1.027005687
1.026765089
1.026480426
1.026116812
1.02554446
1.025272086
1.024847532
1.02494412
1.034798224
1.033617949
1.033274278
1.033992952
1.034359892
1.034056747
1.034020874
1.034304289
1.034691152
1.034867472
1.034702128
1.034438401
1.03411111
1.03367649
1.033312099
1.033025892
1.032964943
1.033426559
1.041662453
1.040721347
1.040460735
1.04137902
1.041719723
1.041337892
1.040931095
1.040944006
1.041378245
1.041785647
1.042065106
1.041986043
1.041730672
1.041362345
1.041196263
1.041143431
1.041394112
1.042037784
1.050271502
1.048672651
1.047692483
1.047574119
1.048608071
1.048976976
1.048486941
1.047886509
1.047870362
1.048403643
1.048862089
1.049316042
1.049474487
1.049401074
1.049268112
1.049282747
1.049443689
1.049911102
1.050529731
1.057563281
1.055747076
1.054611795
1.054644075
1.055911667
1.056175736
1.05550965
1.055026299
1.055159997
1.055819832
1.056340046
1.056756007
1.056967522
1.057142289
1.0574173
1.057634357
1.057953664
1.058470677
1.059062665
1.064711871
1.062721962
1.061633468
1.061850291
1.063415476
1.063600342
1.062897663
1.062684407
1.062777769
1.06354041
1.064119545
1.064576577
1.064985687
1.065370402
1.065815899
1.066258447
1.066575933
1.067038164
1.067509594
1.071788152
1.069840271
1.069087623
1.06952004
1.071254792
1.071529918
1.070869694
1.070882092
1.071123712
1.072030825
1.072558374
1.072969479
1.073486661
1.073964738
1.074439502
1.074972769
1.07514789
1.075280776
1.079135326
1.077398427
1.07695128
1.077744572
1.079569343
1.079799084
1.079192832
1.079321659
1.079680418
1.080631183
1.081130761
1.081539877
1.082104732
1.082594991
1.08297151
1.083331733
1.083156053
1.083053896
1.086710696
1.085082597
1.084947822
1.086216159
1.088090042
1.088026483
1.087342915
1.087517093
1.088066181
1.088989055
1.089443134
1.089813264
1.090271193
1.090662957
1.09076903
1.09068644
1.090382901
1.090329568
1.094503744
1.094456682
1.092722823
1.092773783
1.094415087
1.096063633
1.095660058
1.094793317
1.094896172
1.095571375
1.09650977
1.096931151
1.097214926
1.097429393
1.097550581
1.097361621
1.097146712
1.096854932
1.096791462
1.102368114
1.101793725
1.09973686
1.099851986
1.101705023
1.102907393
1.102030561
1.100984514
1.100923715
1.101655102
1.10248969
1.102863919
1.103078884
1.103106832
1.102916004
1.102632268
1.102265685
1.102043976
1.102058976
1.109244421
1.107797188
1.105449612
1.105530291
1.10749815
1.108106217
1.106801341
1.105528407
1.105393754
1.106119262
1.106711718
1.106841803
1.107022212
1.106985078
1.106719735
1.106435015
1.10613312
1.105916065
1.105902871
1.114274626
1.112017618
1.109434967
1.109430028
1.111311524
1.111482312
1.109805371
1.108367158
1.108247501
1.108986132
1.109201251
1.109190859
1.109313814
1.109321986
1.109178791
1.108982923
1.108752033
1.108526074
1.10840632
1.116751214
1.113953529
1.111300929
1.111475537
1.11323252
1.113224526
1.111138018
1.109615428
1.109550947
1.110346433
1.110578769
1.110507723
1.110584518
1.110581309
1.11050259
1.110505839
1.110244803
1.10996501
1.109818321
1.117300063
1.114095249
1.111751645
1.112435073
1.114033204
1.11360925
1.11126723
1.109905476
1.109943588
1.110903021
1.111023777
1.110928625
1.111032649
)
;

boundaryField
{
    inlet
    {
        type            fixedValue;
        value           nonuniform 0();
    }
    outlet
    {
        type            inletOutlet;
        inletValue      nonuniform 0();
        value           nonuniform 0();
    }
    bottom
    {
        type            slip;
    }
    top
    {
        type            slip;
    }
    obstacle
    {
        type            zeroGradient;
    }
    defaultFaces
    {
        type            empty;
    }
    procBoundary16to10
    {
        type            processor;
        value           nonuniform List<scalar> 
18
(
0.9922692072
0.9927251497
0.9866995428
0.9878842709
0.9885833568
0.9879057896
0.9879171694
0.9884999897
0.9893609318
0.989591271
0.9895997016
0.9894345495
0.9890236704
0.9890073833
0.9891913912
0.9893398399
0.989540527
0.989540527
)
;
    }
    procBoundary16to11
    {
        type            processor;
        value           uniform 0.9908564455;
    }
    procBoundary16to15
    {
        type            processor;
        value           nonuniform List<scalar> 
35
(
0.9861623305
0.9846691824
0.983312886
0.982373873
0.9820140948
0.9820140948
0.9836659531
0.9839356781
0.9844093714
0.9853216488
0.9871652705
0.9903488664
0.9950189927
0.9950189927
1.001262036
1.008325459
1.014951084
1.021546634
1.02817641
1.035089594
1.042580889
1.042580889
1.050249764
1.057968549
1.065086925
1.07223613
1.079325442
1.08650817
1.08650817
1.092586438
1.101143943
1.108536485
1.114515891
1.11736105
1.118017907
)
;
    }
    procBoundary16to17
    {
        type            processor;
        value           nonuniform List<scalar> 
32
(
0.9891282977
0.9883402078
0.9879988781
0.987712287
0.9873994264
0.9870960519
0.9868972502
0.987036808
0.9881702362
0.990146966
0.990146966
0.9929249472
0.996141739
1.000197044
1.005227627
1.010919709
1.017562869
1.025455681
1.034073004
1.042628297
1.051129545
1.05963307
1.068046086
1.075693631
1.075693631
1.083328553
1.090594327
1.09709693
1.102312279
1.106102397
1.108536733
1.109769575
)
;
    }
    procBoundary16to22
    {
        type            processor;
        value           nonuniform List<scalar> 
20
(
1.111111439
1.111204925
1.111163952
1.110796497
1.110537349
1.110357229
1.116306079
1.113269683
1.111099209
1.11225383
1.114327864
1.113666188
1.111301166
1.109919479
1.109838081
1.110720908
1.110853856
1.110794352
1.111111439
1.110879537
)
;
    }
}


// ************************************************************************* //
