/*--------------------------------*- C++ -*----------------------------------*\
  =========                 |
  \\      /  F ield         | OpenFOAM: The Open Source CFD Toolbox
   \\    /   O peration     | Website:  https://openfoam.org
    \\  /    A nd           | Version:  7
     \\/     M anipulation  |
\*---------------------------------------------------------------------------*/
FoamFile
{
    version     2.0;
    format      ascii;
    class       volVectorField;
    location    "3.4";
    object      U;
}
// * * * * * * * * * * * * * * * * * * * * * * * * * * * * * * * * * * * * * //

dimensions      [0 1 -1 0 0 0 0];

internalField   nonuniform List<vector> 
2222
(
(3.196663807 0.00390727546 0)
(3.198763717 0.001738454071 0)
(3.200063744 -0.0009152234989 0)
(3.200269994 0.0004410869726 0)
(3.199519921 0.002284454272 0)
(3.198605438 0.002775943384 0)
(3.197538643 0.0003954790173 0)
(3.196908613 -0.003023302203 0)
(3.196929646 -0.002807403927 0)
(3.197881169 -0.001780016532 0)
(3.198423457 -0.001260464752 0)
(3.198286053 -0.0006308332235 0)
(3.197996146 -0.000108735872 0)
(3.197521755 0.0004991610745 0)
(3.196977008 0.001644889043 0)
(3.19667903 0.002183865124 0)
(3.197117069 0.001849452673 0)
(3.197849112 0.001440499584 0)
(3.236438357 -0.1314371467 0)
(3.29615551 -0.1123974521 0)
(3.201047498 0.008199610213 0)
(3.192663185 0.01045820937 0)
(3.193774555 0.006768080803 0)
(3.19609154 0.0007956920806 0)
(3.197981787 -0.005068560085 0)
(3.199400169 -0.004849030552 0)
(3.199972955 0.0012836511 0)
(3.199418896 0.003899423199 0)
(3.198740312 0.001230914558 0)
(3.197731425 -0.004123739475 0)
(3.196693813 -0.004683528929 0)
(3.196782863 -0.002100590342 0)
(3.197511086 -0.0004117437452 0)
(3.197936124 0.0001702577922 0)
(3.19802064 0.0008161409314 0)
(3.197660667 0.001344696369 0)
(3.197155439 0.001558027976 0)
(3.196712761 0.001500337183 0)
(3.196487601 0.0004980951682 0)
(3.197058824 0.0003198198689 0)
(3.197786481 0.0003352093339 0)
(3.295151157 -0.186850091 0)
(3.320330273 -0.1642622713 0)
(3.221250479 -0.007978864263 0)
(3.198305024 -0.001376744222 0)
(3.195984568 0.003892587791 0)
(3.195358311 -0.001260625068 0)
(3.196378085 -0.005252413017 0)
(3.197569846 -0.002199394586 0)
(3.198430417 0.00198749002 0)
(3.198574928 0.001272217725 0)
(3.198328403 -0.003560292223 0)
(3.19715728 -0.004923705171 0)
(3.195715652 -0.00311960204 0)
(3.195507532 -0.0008800702502 0)
(3.196576607 0.0005049111307 0)
(3.197155846 0.001255556935 0)
(3.19721221 0.001797614629 0)
(3.196917521 0.002111197212 0)
(3.196365613 0.001450556377 0)
(3.195848474 -0.0008422403599 0)
(3.19559657 -0.001886180383 0)
(3.195910986 -0.0008979382588 0)
(3.196357514 -2.818288913e-05 0)
(3.311330563 -0.2381848633 0)
(3.301039355 -0.2342940489 0)
(3.224964537 -0.04483189587 0)
(3.206060834 -0.01313607084 0)
(3.197123864 -0.003572348764 0)
(3.194318473 -0.001230988077 0)
(3.193344269 0.0003639161816 0)
(3.193841966 0.00220603964 0)
(3.195360532 0.0002910336699 0)
(3.19654825 -0.00381243607 0)
(3.196604684 -0.004379154422 0)
(3.1949348 -0.001769182713 0)
(3.193348815 -0.0004907687623 0)
(3.193151287 0.0007766215598 0)
(3.194031788 0.000913656107 0)
(3.19470306 0.001074600663 0)
(3.194727398 0.000933599345 0)
(3.194407373 0.0003930686048 0)
(3.193865917 -0.001156615913 0)
(3.193268461 -0.002581190477 0)
(3.192780038 -0.002632998553 0)
(3.19291875 -0.001272288864 0)
(3.193334885 1.057621873e-05 0)
(3.303441354 -0.2750927852 0)
(3.294516893 -0.3052128306 0)
(3.231635881 -0.1033052248 0)
(3.209096773 -0.02988485996 0)
(3.197111016 -0.01013715105 0)
(3.193237357 -0.00216078691 0)
(3.188864725 0.004533342519 0)
(3.189163707 0.004451181467 0)
(3.191236387 -0.0005958375321 0)
(3.193096408 -0.003459501102 0)
(3.192916355 -0.002003915408 0)
(3.191376228 0.0001843899161 0)
(3.189582785 0.001632052023 0)
(3.188585274 0.001167286235 0)
(3.188675215 -0.0008614596906 0)
(3.189589181 -0.00133207715 0)
(3.189979725 -0.001750318579 0)
(3.189769766 -0.002253553588 0)
(3.189251448 -0.002746154876 0)
(3.188614248 -0.00264992265 0)
(3.188193341 -0.001706286641 0)
(3.188389529 -0.000849395554 0)
(3.188791023 1.377489884e-05 0)
(3.310135567 -0.3124752387 0)
(3.289889188 -0.307711966 0)
(3.236778104 -0.1327564136 0)
(3.210996718 -0.04404811223 0)
(3.197152501 -0.007372273075 0)
(3.191691011 0.003364059951 0)
(3.185409592 0.007281925138 0)
(3.183877058 0.003776482271 0)
(3.185478216 -0.000991893521 0)
(3.185898193 -0.0009862915582 0)
(3.186686435 0.00122705114 0)
(3.185721187 0.001904629082 0)
(3.183717594 0.001665218451 0)
(3.181787499 -0.001616265335 0)
(3.181629408 -0.003113758038 0)
(3.182882601 -0.002710949145 0)
(3.183565285 -0.00243922699 0)
(3.183367903 -0.002376722906 0)
(3.182691576 -0.001972904039 0)
(3.181812689 -0.001259800524 0)
(3.181115524 -0.0005145551677 0)
(3.1810056 -0.0002326996661 0)
(3.181511857 -0.0003209218347 0)
(3.182467737 0.0005350782898 0)
(3.307774763 -0.3278748851 0)
(3.292373393 -0.3260278277 0)
(3.24202628 -0.1492469517 0)
(3.212401586 -0.0446566167 0)
(3.198466409 -0.003813353031 0)
(3.188820094 0.008103231237 0)
(3.181273165 0.008208096246 0)
(3.178293615 0.0001275089907 0)
(3.177589644 -0.001190898314 0)
(3.177655133 0.002165278433 0)
(3.178756557 0.003310936056 0)
(3.178207986 0.002219261963 0)
(3.176406979 -0.001167002263 0)
(3.174244779 -0.003298435729 0)
(3.172616762 -0.003608757607 0)
(3.173120135 -0.002015190859 0)
(3.17404757 -0.001211753907 0)
(3.173999969 -0.0008600046074 0)
(3.173397287 -0.0005079256464 0)
(3.172322072 -4.05072993e-05 0)
(3.171307868 0.0001178650207 0)
(3.170821965 -0.0004906057522 0)
(3.171266628 -0.0003626783646 0)
(3.172285332 -0.0001486485284 0)
(3.305447231 -0.3490269403 0)
(3.290033565 -0.363980191 0)
(3.240094007 -0.212931103 0)
(3.208131179 -0.06929186683 0)
(3.198332732 0.001892368582 0)
(3.182190986 0.006194300084 0)
(3.176143405 0.002869046933 0)
(3.171130372 -0.001714165478 0)
(3.169129284 -0.0005058124705 0)
(3.170541969 0.002308249257 0)
(3.170489462 0.002695126105 0)
(3.169632173 -0.0003295205541 0)
(3.168069437 -0.00259150659 0)
(3.164411271 -0.003720496065 0)
(3.161732552 -0.00312733796 0)
(3.161312624 -0.001065760191 0)
(3.162087081 2.50954382e-06 0)
(3.162130346 0.0005214389788 0)
(3.161582784 0.001023765794 0)
(3.160272935 0.001601958621 0)
(3.159336063 0.0004723185899 0)
(3.158715428 -0.0003528759987 0)
(3.158985522 -0.0005157634019 0)
(3.159772677 0.0003519179794 0)
(3.302336817 -0.3706349871 0)
(3.295124634 -0.3934468254 0)
(3.255697522 -0.2809488159 0)
(3.215421433 -0.1333483428 0)
(3.186288808 -0.01273234582 0)
(3.172012479 -0.0007263432997 0)
(3.168452245 -0.0001632519878 0)
(3.161841433 -0.002463245915 0)
(3.159970077 0.0005382134866 0)
(3.160342986 0.001785797148 0)
(3.160078312 -0.0003138681742 0)
(3.159464606 -0.00297720325 0)
(3.156919793 -0.003699102787 0)
(3.153327974 -0.002842494744 0)
(3.150277518 -0.0009970618998 0)
(3.149216809 -3.056001721e-05 0)
(3.149381394 0.0002491622359 0)
(3.149469418 0.0005964958661 0)
(3.148747546 0.001059676901 0)
(3.14745627 0.0005190848536 0)
(3.146151853 -0.00107728322 0)
(3.145228886 -0.0009262652883 0)
(3.145234652 0.0002056999836 0)
(3.145697297 0.001597738344 0)
(3.306084707 -0.3872802174 0)
(3.295628068 -0.3903960625 0)
(3.259450894 -0.3008788927 0)
(3.212107955 -0.1762411016 0)
(3.178682523 -0.05973798632 0)
(3.163988092 -0.007210998125 0)
(3.155297144 -0.002528162376 0)
(3.149868568 0.001041806639 0)
(3.148660087 0.002654391271 0)
(3.147934837 0.0008980438336 0)
(3.148311399 -0.002772297081 0)
(3.146618976 -0.003560877086 0)
(3.144620375 -0.002021430368 0)
(3.141540714 8.291538703e-05 0)
(3.138717746 0.0005217125304 0)
(3.136305982 0.0003084194016 0)
(3.135484994 6.820329672e-05 0)
(3.13523531 -0.0001454471459 0)
(3.134468983 -0.0004716116975 0)
(3.133258678 -0.001487209022 0)
(3.131605121 -0.002382117556 0)
(3.130091517 -0.001720144858 0)
(3.129498217 0.0005248262177 0)
(3.129813549 0.002527622802 0)
(3.305229844 -0.3920950936 0)
(3.296917216 -0.39542061 0)
(3.262799912 -0.3214162036 0)
(3.210814918 -0.2122605967 0)
(3.169258321 -0.09947370423 0)
(3.156745735 -0.02092951617 0)
(3.142549546 0.0005348299214 0)
(3.137532079 0.006465084913 0)
(3.135535234 0.004047147339 0)
(3.134784171 9.903562376e-05 0)
(3.132984557 -0.001992428859 0)
(3.131977245 -0.00112122893 0)
(3.130667001 0.0007309679858 0)
(3.128442716 0.001833747848 0)
(3.12564013 0.0004936816569 0)
(3.12233383 -0.0005248917655 0)
(3.120602123 -0.000657294402 0)
(3.119776128 -0.001024810164 0)
(3.11905246 -0.001853408147 0)
(3.117564536 -0.002783001355 0)
(3.115366839 -0.003205119616 0)
(3.11408047 -0.002475855048 0)
(3.113372464 0.0001013985388 0)
(3.113677627 0.00240742769 0)
(3.305523486 -0.4001689231 0)
(3.297252305 -0.4088035407 0)
(3.264609743 -0.3509878909 0)
(3.21262364 -0.2540149963 0)
(3.162546904 -0.119739671 0)
(3.14399026 -0.03298188578 0)
(3.129953565 0.006508044689 0)
(3.124369968 0.008850125554 0)
(3.120680982 0.003214910341 0)
(3.117449502 -6.264561548e-05 0)
(3.116161931 0.0005159548927 0)
(3.115819044 0.001891626459 0)
(3.114607038 0.002471051736 0)
(3.113422601 0.001433237832 0)
(3.109996594 -0.000809577909 0)
(3.10637675 -0.001628504257 0)
(3.104152621 -0.001325332492 0)
(3.103092933 -0.001299270103 0)
(3.101976533 -0.001744304607 0)
(3.100407026 -0.002399634432 0)
(3.098901368 -0.002406279581 0)
(3.097441476 -0.001790181255 0)
(3.097000179 0.0001540069188 0)
(3.097268316 0.00233013135 0)
(3.097557697 0.004056759372 0)
(3.307845281 -0.4105891073 0)
(3.299631039 -0.4176692824 0)
(3.271447607 -0.3763142058 0)
(3.223775085 -0.3037324237 0)
(3.153972541 -0.1461684365 0)
(3.1233185 -0.03628408766 0)
(3.11358592 0.009081311438 0)
(3.10737238 0.005593431403 0)
(3.101890734 0.001051251158 0)
(3.098908783 0.0004747424881 0)
(3.098082938 0.0031343073 0)
(3.097123351 0.003066808194 0)
(3.096754744 0.001768598991 0)
(3.095283073 -0.0001516304698 0)
(3.091955524 -0.002107192044 0)
(3.088182304 -0.002816818865 0)
(3.085962865 -0.002023664817 0)
(3.084886516 -0.001570053609 0)
(3.083957856 -0.001358550846 0)
(3.083011841 -0.000894649437 0)
(3.081732521 -0.0005571379926 0)
(3.080287774 -0.0001849054617 0)
(3.07942226 0.000989075761 0)
(3.079365053 0.002480705242 0)
(3.079655636 0.003838095506 0)
(3.31152804 -0.416689975 0)
(3.302180217 -0.4173086538 0)
(3.27481794 -0.3846871952 0)
(3.226855405 -0.3205654191 0)
(3.161455507 -0.2158068121 0)
(3.09878771 -0.05510447237 0)
(3.091090556 0.004121346042 0)
(3.086649684 0.001322027086 0)
(3.080565223 -0.0009685131507 0)
(3.078672817 0.002816459938 0)
(3.077438441 0.004098352184 0)
(3.077390086 0.001582520072 0)
(3.076814842 -0.0003649708294 0)
(3.075038544 -0.002058938182 0)
(3.072310601 -0.003143201299 0)
(3.069606854 -0.002872159276 0)
(3.067666188 -0.001864268605 0)
(3.066939447 -0.001119976596 0)
(3.066317422 -0.0004037943391 0)
(3.065162809 0.000561761261 0)
(3.063673369 0.0006483510877 0)
(3.062463052 0.0004960702189 0)
(3.061393128 0.0009570495344 0)
(3.061299805 0.001875030136 0)
(3.061873139 0.002709637657 0)
(3.316176886 -0.4205903782 0)
(3.306352342 -0.4187949846 0)
(3.278507666 -0.3945453964 0)
(3.230196052 -0.3401832017 0)
(3.159350908 -0.2512917022 0)
(3.101374563 -0.1174864534 0)
(3.072680584 -0.01576758654 0)
(3.064264504 -0.003007519674 0)
(3.058526221 0.000624517881 0)
(3.057189002 0.00457922848 0)
(3.056861648 0.002338554555 0)
(3.056136412 -0.000961951348 0)
(3.054840054 -0.00262691358 0)
(3.053886978 -0.002980253395 0)
(3.05239128 -0.002132679323 0)
(3.0502533 -0.001175846748 0)
(3.048657072 -0.0007147547522 0)
(3.048019941 -0.0001775041813 0)
(3.04734549 0.0003553815936 0)
(3.046340387 0.000769323071 0)
(3.045201985 0.0005495513037 0)
(3.043833789 8.44329277e-05 0)
(3.042987274 0.0001800239554 0)
(3.042961859 0.0007527366531 0)
(3.043706662 0.001608695457 0)
(3.319882361 -0.4219883404 0)
(3.310321003 -0.4230284447 0)
(3.282509414 -0.4043607003 0)
(3.234842477 -0.3635074046 0)
(3.16352071 -0.280831414 0)
(3.08905142 -0.1440064145 0)
(3.049685949 -0.04250408189 0)
(3.044222052 -0.005022767695 0)
(3.037587634 0.003621574082 0)
(3.036908787 0.004026465021 0)
(3.035050976 0.0005171537174 0)
(3.03261409 -0.002286246282 0)
(3.032287909 -0.002754110002 0)
(3.032583473 -0.001400177025 0)
(3.031584776 -0.0003309958202 0)
(3.029857916 -0.0005103566781 0)
(3.02852874 -0.0005481790917 0)
(3.027951641 -0.000217449863 0)
(3.027727874 -0.0002949874809 0)
(3.027181723 -0.0002234648735 0)
(3.026154738 -0.0006033863228 0)
(3.025048576 -0.001195374715 0)
(3.024145782 -0.0009816608248 0)
(3.024165741 -0.0002966140209 0)
(3.024466898 0.000952460006 0)
(3.323650322 -0.42342003 0)
(3.314782167 -0.4268835027 0)
(3.289539914 -0.41259269 0)
(3.239552319 -0.3781568392 0)
(3.167424202 -0.3082850648 0)
(3.086233191 -0.1869740134 0)
(3.035130443 -0.06707073707 0)
(3.0248632 -0.003174835435 0)
(3.018822785 0.006992442245 0)
(3.015605707 0.002779500173 0)
(3.011542631 -0.0001040148369 0)
(3.010288144 -0.001159462784 0)
(3.011199151 -6.028021107e-07 0)
(3.011181013 0.0005436640691 0)
(3.010605685 -0.0001807963913 0)
(3.009224398 -0.00173702954 0)
(3.008116153 -0.002046143246 0)
(3.007922875 -0.001614249463 0)
(3.00794718 -0.00146240804 0)
(3.007655318 -0.001521897263 0)
(3.006970199 -0.001895532522 0)
(3.005859351 -0.002736774493 0)
(3.005004589 -0.002414414802 0)
(3.004872355 -0.001457498749 0)
(3.004931814 0.0001980349036 0)
(3.329431322 -0.4249204229 0)
(3.319461642 -0.4280301118 0)
(3.293455824 -0.4133295719 0)
(3.242121878 -0.3848500023 0)
(3.173872672 -0.344623248 0)
(3.084666601 -0.2266741415 0)
(3.020434175 -0.08451249269 0)
(3.000705483 -0.007645959085 0)
(2.99776976 0.004371835554 0)
(2.993666867 0.001426245808 0)
(2.99023424 0.0009622429818 0)
(2.990696165 0.002087310898 0)
(2.990332849 0.001799508172 0)
(2.990326057 0.0004422732082 0)
(2.989788272 -0.001682763715 0)
(2.988678687 -0.003952703967 0)
(2.988014008 -0.004184626363 0)
(2.988032008 -0.003307456737 0)
(2.988157834 -0.002515224311 0)
(2.988020973 -0.002281520309 0)
(2.987496343 -0.002453466413 0)
(2.986333038 -0.003584138267 0)
(2.985406474 -0.003306904427 0)
(2.985514122 -0.002086983605 0)
(2.98554196 -5.253292754e-05 0)
(3.334102466 -0.427340067 0)
(3.324215062 -0.4301981396 0)
(3.296348475 -0.4180237988 0)
(3.244051696 -0.3935294207 0)
(3.17483372 -0.3554387179 0)
(3.098509365 -0.2856665669 0)
(3.003601112 -0.1194387414 0)
(2.978670933 -0.02285839494 0)
(2.974412187 -0.0004129686641 0)
(2.973514762 5.97180056e-05 0)
(2.972992329 0.004039936165 0)
(2.971013488 0.003622725341 0)
(2.970115208 0.0009862078851 0)
(2.970440536 -0.001427913914 0)
(2.97022676 -0.003924667789 0)
(2.969010192 -0.00553194572 0)
(2.968413865 -0.004933342716 0)
(2.968465669 -0.003522348668 0)
(2.968966294 -0.002135116796 0)
(2.969140225 -0.001565149486 0)
(2.96880466 -0.001578178165 0)
(2.967641823 -0.002682718994 0)
(2.966528234 -0.00257673901 0)
(2.96643334 -0.001405055931 0)
(2.966129651 0.0005238541681 0)
(2.966834224 0.002399458992 0)
(3.337248577 -0.4319235552 0)
(3.328898277 -0.4319287082 0)
(3.299615789 -0.4229167467 0)
(3.246068606 -0.4009908997 0)
(3.176925539 -0.3708376608 0)
(3.095576882 -0.2954338359 0)
(3.021314707 -0.1835209092 0)
(2.96963616 -0.04852236574 0)
(2.958477193 -0.005730889029 0)
(2.957106952 0.000885914151 0)
(2.954870908 0.005512713941 0)
(2.952819646 0.002201282899 0)
(2.952326851 -0.001354409594 0)
(2.951906215 -0.003657930614 0)
(2.951416012 -0.004975022089 0)
(2.950623492 -0.004369981252 0)
(2.949901083 -0.003405698237 0)
(2.94987434 -0.00216011155 0)
(2.950485964 -0.000897025599 0)
(2.950762162 -0.0004536356214 0)
(2.950599212 -0.0006272932794 0)
(2.949656909 -0.00158521819 0)
(2.948446058 -0.001470991411 0)
(2.94781999 -0.0004542030034 0)
(2.947125744 0.001317288969 0)
(2.947736527 0.003171774496 0)
(3.341698405 -0.4343221656 0)
(3.333145207 -0.4320025385 0)
(3.30241226 -0.4253821153 0)
(3.247675913 -0.4053944375 0)
(3.177723532 -0.3803587964 0)
(3.097124925 -0.3274014701 0)
(3.015777263 -0.1943768625 0)
(2.954418448 -0.06906584345 0)
(2.941375083 -0.01000901022 0)
(2.939728548 0.003320742143 0)
(2.939042268 0.004018402874 0)
(2.937418807 -0.0002318208991 0)
(2.935536764 -0.003140628568 0)
(2.934610865 -0.004152116538 0)
(2.934836091 -0.003024857935 0)
(2.934471057 -0.00227323068 0)
(2.933506532 -0.002566066513 0)
(2.932910638 -0.001957623616 0)
(2.932990215 -0.000754638233 0)
(2.933304702 -9.754217391e-05 0)
(2.933310396 -6.143212782e-05 0)
(2.932558195 -0.0006283836177 0)
(2.931522675 -0.0002203019236 0)
(2.930766031 0.0007161305677 0)
(2.929865776 0.001811708882 0)
(2.930675175 0.003183209939 0)
(3.345318471 -0.4353793975 0)
(3.336667659 -0.4320651956 0)
(3.304705605 -0.4262922684 0)
(3.248149107 -0.4075499062 0)
(3.178318983 -0.3889567088 0)
(3.099875947 -0.3489354149 0)
(3.014867757 -0.2398693878 0)
(2.947362758 -0.09591589319 0)
(2.924035449 -0.01348570689 0)
(2.921033425 0.004021692384 0)
(2.925352278 0.001854872421 0)
(2.921549818 -0.001226087127 0)
(2.919796401 -0.002351577002 0)
(2.920298943 -0.001454632724 0)
(2.921176726 -0.0004856243191 0)
(2.921138554 -0.0005630484115 0)
(2.920002678 -0.001366956867 0)
(2.918622835 -0.001350483007 0)
(2.917904445 -0.0007507627184 0)
(2.917993675 -0.0003724623898 0)
(2.918030904 -0.0003234380441 0)
(2.917453726 -0.0006832171212 0)
(2.916707719 -0.0001784878081 0)
(2.916122851 0.0004949182283 0)
(2.915346163 0.001599537244 0)
(2.916411655 0.003185660056 0)
(3.347661851 -0.4362999457 0)
(3.339156974 -0.4324733604 0)
(3.306737331 -0.4276618311 0)
(3.2483482 -0.4096722661 0)
(3.178674319 -0.3911015022 0)
(3.102693829 -0.3669647989 0)
(3.018677478 -0.2818918454 0)
(2.942986086 -0.1401857738 0)
(2.910620846 -0.04117444727 0)
(2.908397563 -0.005286154018 0)
(2.909707265 0.0007354413429 0)
(2.907519885 -0.0001822344421 0)
(2.908663535 0.0008409982364 0)
(2.909254468 0.001866972091 0)
(2.909756451 0.001926547412 0)
(2.90928312 0.0004450316712 0)
(2.90798205 -0.0008985412184 0)
(2.906507908 -0.001021655508 0)
(2.905453186 -0.000777735963 0)
(2.905273334 -0.0007917990338 0)
(2.905257062 -0.0006534463401 0)
(2.90501326 -0.0005599683183 0)
(2.90458434 -0.000289413464 0)
(2.904405393 0.0001346882537 0)
(2.903880175 0.001266614216 0)
(2.904938359 0.002660251008 0)
(3.348217676 -0.4372139435 0)
(3.340767611 -0.4329296999 0)
(3.308416731 -0.428856045 0)
(3.249116658 -0.4137242583 0)
(3.178736233 -0.3951141676 0)
(3.103228448 -0.3718691649 0)
(3.031613699 -0.3236047918 0)
(2.94720961 -0.1943809776 0)
(2.902559395 -0.07541369568 0)
(2.901213067 -0.01328864937 0)
(2.896357025 0.0004339640783 0)
(2.898789212 0.003003058701 0)
(2.899178666 0.003824907546 0)
(2.898847311 0.003170578673 0)
(2.898766157 0.001679964787 0)
(2.898610403 -0.0003629968904 0)
(2.897982804 -0.001379733456 0)
(2.896914689 -0.0010826936 0)
(2.896240721 -0.0007670139098 0)
(2.895838524 -0.001175507422 0)
(2.895446081 -0.001367373483 0)
(2.895186136 -0.001651014013 0)
(2.89517024 -0.00193894218 0)
(2.895430924 -0.00119973834 0)
(2.895282067 0.0003456410546 0)
(2.896255093 0.002497289347 0)
(3.347429474 -0.4375964446 0)
(3.34112742 -0.4330392982 0)
(3.308930942 -0.4295470838 0)
(3.248624416 -0.4157946669 0)
(3.178189527 -0.3992346743 0)
(3.104823021 -0.3834052488 0)
(3.033648158 -0.3266177491 0)
(2.967799861 -0.2365946096 0)
(2.912478874 -0.1070846783 0)
(2.893122218 -0.02330044668 0)
(2.888228717 0.001373597632 0)
(2.890187954 0.005563433358 0)
(2.88871554 0.004250506164 0)
(2.889310267 0.001581799678 0)
(2.889867808 -0.0001623554011 0)
(2.890092783 -0.002081039854 0)
(2.889608651 -0.002797936335 0)
(2.888887563 -0.002470817039 0)
(2.888641013 -0.002112020299 0)
(2.888228779 -0.001959337908 0)
(2.887717441 -0.001726768297 0)
(2.88724087 -0.001868061898 0)
(2.887313026 -0.002780353495 0)
(2.887976899 -0.001950924774 0)
(2.88850432 -0.0003697482975 0)
(2.889607855 0.001504130852 0)
(2.891319324 0.002821025898 0)
(3.344655734 -0.4370659221 0)
(3.339888022 -0.4329557618 0)
(3.309369727 -0.4303843981 0)
(3.248518588 -0.4176330154 0)
(3.178399892 -0.401954588 0)
(3.106066013 -0.388579132 0)
(3.037736431 -0.3509046478 0)
(2.975072428 -0.2385272125 0)
(2.915177924 -0.1057508787 0)
(2.88611338 -0.02335599507 0)
(2.881587797 0.005804169671 0)
(2.88047877 0.005880615779 0)
(2.881931446 0.001419932003 0)
(2.883144918 -0.001574779136 0)
(2.883090844 -0.002907836974 0)
(2.883017809 -0.004035528405 0)
(2.882491468 -0.003982404285 0)
(2.881956715 -0.00371439724 0)
(2.881795404 -0.003307870966 0)
(2.881653578 -0.002711665734 0)
(2.881293322 -0.001829892584 0)
(2.880827059 -0.002678411912 0)
(2.880743428 -0.00353482431 0)
(2.881430898 -0.002660342532 0)
(2.882094033 -0.001228625175 0)
(2.883260794 0.0006486023351 0)
(2.884820182 0.0019829628 0)
(3.342248568 -0.4367716376 0)
(3.338484327 -0.4331499105 0)
(3.308811997 -0.4312574045 0)
(3.24788945 -0.418545422 0)
(3.177847447 -0.4022962016 0)
(3.107369806 -0.3919708695 0)
(3.044066865 -0.3682428144 0)
(2.980100327 -0.2871952448 0)
(2.918935936 -0.1441694566 0)
(2.88286837 -0.02925669281 0)
(2.875447093 0.00621841983 0)
(2.874757728 0.00235010898 0)
(2.876906146 -0.001584726584 0)
(2.87737194 -0.00399739462 0)
(2.877076521 -0.004342695471 0)
(2.876956531 -0.003619508618 0)
(2.876716055 -0.003272996116 0)
(2.876424032 -0.003553132381 0)
(2.876388454 -0.003397407024 0)
(2.876381615 -0.002616263929 0)
(2.876133035 -0.001314107088 0)
(2.875626299 -0.002055502091 0)
(2.87551806 -0.003019788939 0)
(2.875862281 -0.002945343727 0)
(2.876534619 -0.001862578908 0)
(2.877899486 -0.0003438329319 0)
(2.879478072 0.000903413035 0)
(3.339259976 -0.4379598322 0)
(3.335734001 -0.4339707491 0)
(3.306660076 -0.4322049646 0)
(3.246624934 -0.4201789299 0)
(3.176868641 -0.4030437707 0)
(3.108473605 -0.3923597759 0)
(3.049164451 -0.3769794073 0)
(2.992387596 -0.324207701 0)
(2.928931092 -0.2031751466 0)
(2.885719285 -0.07831413235 0)
(2.872281065 -0.0113910625 0)
(2.870814487 -0.001844905359 0)
(2.870640478 -0.002538885913 0)
(2.871872313 -0.003071955592 0)
(2.872780234 -0.002037150906 0)
(2.872714738 -0.001451046815 0)
(2.87228825 -0.00226926466 0)
(2.871955247 -0.003154444057 0)
(2.871974566 -0.003216002578 0)
(2.872042887 -0.002273587119 0)
(2.871886734 -0.001412785535 0)
(2.871502298 -0.002349282394 0)
(2.871449098 -0.002748687968 0)
(2.871809652 -0.001834672109 0)
(2.872509348 -0.0005645042564 0)
(2.873846809 0.00107634062 0)
(2.875370728 0.002401927621 0)
(3.335244943 -0.4410974788 0)
(3.331941903 -0.4345084479 0)
(3.30311691 -0.4324655927 0)
(3.24504187 -0.4213193139 0)
(3.175165371 -0.4042659157 0)
(3.107999554 -0.3938616015 0)
(3.051898328 -0.3794804494 0)
(3.002197183 -0.3411311363 0)
(2.952180688 -0.2584141406 0)
(2.899021416 -0.1302232314 0)
(2.871946824 -0.03525111764 0)
(2.867505396 -0.004936444161 0)
(2.867767003 -0.001388454586 0)
(2.868893695 -0.0006502299608 0)
(2.869488765 0.0003196690493 0)
(2.869804102 0.0003788954629 0)
(2.869306488 -0.001353218549 0)
(2.868979813 -0.002441995731 0)
(2.868934665 -0.002609043322 0)
(2.868875593 -0.002119617252 0)
(2.868749277 -0.001546771569 0)
(2.868821629 -0.001558508209 0)
(2.868205272 -0.001941969354 0)
(2.868275782 -0.001184197247 0)
(2.868701088 -1.249614868e-05 0)
(2.869644924 0.001622942136 0)
(2.870918855 0.003064483969 0)
(3.329927158 -0.4420391161 0)
(3.327605227 -0.434625361 0)
(3.300317563 -0.432949155 0)
(3.243324192 -0.4223907964 0)
(3.173740232 -0.4056907729 0)
(3.106329858 -0.3947533143 0)
(3.05297526 -0.3861973894 0)
(3.006388643 -0.3466074811 0)
(2.961835915 -0.2666210198 0)
(2.915754217 -0.1592103368 0)
(2.877722266 -0.05556237622 0)
(2.866080885 -0.007659222589 0)
(2.866179955 0.001650203478 0)
(2.866566117 0.002760423606 0)
(2.866924129 0.002013026032 0)
(2.86709946 -7.914324581e-05 0)
(2.866952655 -0.001972895059 0)
(2.866841623 -0.00300625746 0)
(2.866780793 -0.003136180069 0)
(2.866856363 -0.002574396864 0)
(2.866987139 -0.00211525955 0)
(2.866584311 -0.001350637143 0)
(2.865767256 -0.001202088003 0)
(2.865591428 -0.0004758624677 0)
(2.86600127 0.0005957783039 0)
(2.866694092 0.002444222932 0)
(2.867736936 0.004003254402 0)
(3.324513578 -0.4419187986 0)
(3.322430991 -0.4338995732 0)
(3.296623113 -0.4327233055 0)
(3.241530592 -0.4229909843 0)
(3.171907989 -0.4070308215 0)
(3.104139906 -0.3959802964 0)
(3.052204298 -0.3891200187 0)
(3.009611653 -0.3659616104 0)
(2.966986889 -0.2900653897 0)
(2.924797428 -0.1641388201 0)
(2.881701519 -0.05631169266 0)
(2.866247849 -0.003120765136 0)
(2.864347066 0.00585702651 0)
(2.865032235 0.003146255667 0)
(2.86549956 0.0002217564832 0)
(2.865660327 -0.001683409597 0)
(2.865587994 -0.002831010769 0)
(2.865596282 -0.003583784936 0)
(2.865616043 -0.0035908155 0)
(2.865859321 -0.00307054192 0)
(2.865787609 -0.001520304349 0)
(2.865076343 -3.583927621e-06 0)
(2.864255794 -0.0009229513033 0)
(2.863835804 -0.0006549908364 0)
(2.864394029 0.0001009210397 0)
(2.864789241 0.002054937216 0)
(2.865538078 0.003895630291 0)
(3.319918473 -0.4412075163 0)
(3.317851184 -0.4333048002 0)
(3.293681375 -0.4329915996 0)
(3.239331293 -0.4240871084 0)
(3.16935262 -0.40836803 0)
(3.102032538 -0.3963319637 0)
(3.050316695 -0.3905030947 0)
(3.012910966 -0.3758246124 0)
(2.977896462 -0.3310871241 0)
(2.934858184 -0.2204292483 0)
(2.885672362 -0.05943998171 0)
(2.869378969 0.004702242825 0)
(2.864669835 0.005965091433 0)
(2.864566055 0.0003138124358 0)
(2.865209132 -0.001862087858 0)
(2.865511454 -0.003124589587 0)
(2.865231804 -0.003798096224 0)
(2.864988523 -0.003693889912 0)
(2.865067798 -0.003242709083 0)
(2.865345929 -0.002160692252 0)
(2.865193972 -0.0005701365777 0)
(2.864619356 -0.0001633824308 0)
(2.863845126 -0.001775615395 0)
(2.863289059 -0.001472873303 0)
(2.863556827 -0.0003834992462 0)
(2.863758798 0.001774304931 0)
(2.864377757 0.003685276007 0)
(2.865256886 0.004792672196 0)
(3.315882006 -0.4400267635 0)
(3.313922494 -0.4330309679 0)
(3.290511801 -0.4334085944 0)
(3.236474155 -0.4251995242 0)
(3.166172172 -0.4098146614 0)
(3.098934412 -0.3970913592 0)
(3.048101022 -0.3921828746 0)
(3.013617976 -0.3786191994 0)
(2.981877567 -0.3442450854 0)
(2.946325049 -0.2648316119 0)
(2.901604284 -0.1169454199 0)
(2.873105709 -0.01932678303 0)
(2.866847977 -0.001201941931 0)
(2.865476495 -0.001692191831 0)
(2.86587345 -0.002768466176 0)
(2.865647027 -0.002461216586 0)
(2.865183942 -0.001960176928 0)
(2.864971003 -0.002445999222 0)
(2.865090796 -0.002423189133 0)
(2.865570119 -0.001387870996 0)
(2.865523383 -0.0003317678865 0)
(2.865073228 -0.0008723492431 0)
(2.864273847 -0.002635662769 0)
(2.863722589 -0.002570963413 0)
(2.863908723 -0.001699963769 0)
(2.86410154 0.0002925184908 0)
(2.864638248 0.002226227456 0)
(2.865258679 0.00339161292 0)
(3.312500918 -0.4391840423 0)
(3.310191669 -0.4328879469 0)
(3.286699901 -0.4338637348 0)
(3.232603407 -0.4259558301 0)
(3.162557098 -0.4110977521 0)
(3.095694426 -0.3971858326 0)
(3.045968707 -0.3930912697 0)
(3.012322844 -0.3832930141 0)
(2.98402292 -0.3530096462 0)
(2.957097603 -0.2944260209 0)
(2.917250262 -0.1668911737 0)
(2.877569698 -0.05187235461 0)
(2.866736896 -0.00951611735 0)
(2.866767076 -0.003098634768 0)
(2.866986594 -0.002060383094 0)
(2.866456452 -0.0004015370812 0)
(2.866138479 -0.0004199575612 0)
(2.866062907 -0.00152701109 0)
(2.86611725 -0.001815776006 0)
(2.866455755 -0.001364580955 0)
(2.866716993 -0.001314622848 0)
(2.866579898 -0.002147383947 0)
(2.86566783 -0.003799586229 0)
(2.864895515 -0.003601022843 0)
(2.865299484 -0.00276130485 0)
(2.865629457 -0.001203859113 0)
(2.866081569 0.0005923510516 0)
(2.866560356 0.001810153488 0)
(3.309650584 -0.4385265539 0)
(3.306748918 -0.4327398884 0)
(3.282634289 -0.4338751303 0)
(3.22857979 -0.426343857 0)
(3.158631872 -0.4120937009 0)
(3.09284071 -0.3968287368 0)
(3.043466891 -0.3932192824 0)
(3.011410206 -0.3875350687 0)
(2.984834394 -0.3645004213 0)
(2.962568583 -0.3115295406 0)
(2.930580031 -0.1997711645 0)
(2.893061954 -0.0875672057 0)
(2.871191415 -0.02057748957 0)
(2.868855655 -0.002412812171 0)
(2.868685012 0.0005373857598 0)
(2.868734857 0.00102841533 0)
(2.868642 -0.0001978092057 0)
(2.868101163 -0.001701951701 0)
(2.868169044 -0.002345092698 0)
(2.868645366 -0.002420793864 0)
(2.868900283 -0.002610051478 0)
(2.868805601 -0.00309488949 0)
(2.867537114 -0.00326766637 0)
(2.867003192 -0.003302622383 0)
(2.8676053 -0.002722999191 0)
(2.867884437 -0.001663387083 0)
(2.86822417 0.0002064433376 0)
(2.868573554 0.001591115642 0)
(3.307392311 -0.4378469539 0)
(3.303473765 -0.432618181 0)
(3.27931473 -0.4328330769 0)
(3.224524943 -0.4265617727 0)
(3.154370065 -0.4130495202 0)
(3.090251876 -0.3966222875 0)
(3.040490405 -0.3923819612 0)
(3.009397358 -0.3871862373 0)
(2.987630653 -0.3742209097 0)
(2.96881905 -0.3408309069 0)
(2.938216021 -0.225453903 0)
(2.90263299 -0.09827718197 0)
(2.877574111 -0.02204486771 0)
(2.872471459 0.001116030634 0)
(2.87152062 0.002056309873 0)
(2.872049209 0.0001998451177 0)
(2.871390156 -0.002121636573 0)
(2.870996226 -0.003061146254 0)
(2.871017184 -0.003306353916 0)
(2.871428728 -0.003497699251 0)
(2.871865211 -0.003806535745 0)
(2.871494682 -0.002427757266 0)
(2.87066335 -0.002179272472 0)
(2.870172973 -0.002692522108 0)
(2.87056779 -0.002467489711 0)
(2.870849653 -0.001366838723 0)
(2.8711433 0.0007045806091 0)
(2.871374498 0.002252628213 0)
(3.305135844 -0.4378495334 0)
(3.299986902 -0.4329364197 0)
(3.275325105 -0.4315544086 0)
(3.220747677 -0.4265388617 0)
(3.149830583 -0.4141929269 0)
(3.087077364 -0.3973703368 0)
(3.038370168 -0.391985605 0)
(3.006825891 -0.3870251116 0)
(2.987963566 -0.3751990491 0)
(2.97243732 -0.3551999106 0)
(2.955681858 -0.2812986692 0)
(2.908779783 -0.1181609656 0)
(2.887093144 -0.01671000424 0)
(2.876963257 0.003931816042 0)
(2.875255947 0.0003258120928 0)
(2.875045042 -0.002603453159 0)
(2.874207514 -0.004110472707 0)
(2.874250604 -0.004667337307 0)
(2.874470464 -0.00476623128 0)
(2.874812759 -0.004637293425 0)
(2.875124664 -0.003499614302 0)
(2.875057083 -0.001422200983 0)
(2.874654873 -0.001575083527 0)
(2.87427991 -0.00247709952 0)
(2.874702661 -0.002435169865 0)
(2.874923757 -0.0009775827956 0)
(2.875186914 0.001312618712 0)