/*--------------------------------*- C++ -*----------------------------------*\
  =========                 |
  \\      /  F ield         | OpenFOAM: The Open Source CFD Toolbox
   \\    /   O peration     | Website:  https://openfoam.org
    \\  /    A nd           | Version:  7
     \\/     M anipulation  |
\*---------------------------------------------------------------------------*/
FoamFile
{
    version     2.0;
    format      ascii;
    class       volScalarField;
    location    "1.3";
    object      p;
}
// * * * * * * * * * * * * * * * * * * * * * * * * * * * * * * * * * * * * * //

dimensions      [1 -1 -2 0 0 0 0];

internalField   nonuniform List<scalar> 
2222
(
0.9914717708
0.9854586702
0.9710556996
0.964288627
0.9669035651
0.9731764314
0.9726652245
0.9739393781
0.9807961489
0.9876335979
0.9948349217
0.9959189364
0.9951708388
0.9942119139
0.9915078317
0.9914739369
0.9900629915
0.9909593673
0.5040270214
0.7613643353
0.9652246833
0.9895906985
0.9761678482
0.9784369894
0.9769432525
0.9687711518
0.9673650148
0.9695073438
0.9719231722
0.9725241426
0.9797821798
0.9866006038
0.9882796157
0.9914361567
0.991637313
0.9927887581
0.9950150612
0.9949242727
0.9949290142
0.9935020994
0.9929098384
0.4725138478
0.6693048357
0.8992346657
1.024900758
1.010999447
0.9951479027
0.9837489244
0.9694211642
0.9684230247
0.9687008319
0.9665410908
0.966360817
0.9753725906
0.9827972964
0.9860255
0.9869042238
0.989526192
0.992273286
0.9945815092
0.9944751224
0.9944056532
0.9932421543
0.9921379125
0.443418284
0.5563190739
0.8102271898
1.016764447
1.030809908
0.9979445503
0.9774909968
0.962910802
0.9607003642
0.954873235
0.9556412609
0.9609825107
0.9684972089
0.974840812
0.9786645518
0.9804274117
0.9846677864
0.9893009176
0.9918802418
0.9919802548
0.9934796757
0.9940885719
0.9941126469
0.4069376955
0.4813342059
0.6781806843
0.977844317
1.030815325
1.008867953
0.9831661613
0.9658887581
0.9582055702
0.9511546228
0.9602329979
0.9712859
0.9762008663
0.9811128662
0.9839428253
0.9894969014
0.9949569909
1.000408043
1.002660134
1.003134104
1.001190157
0.9977426338
0.9959416533
0.3744353852
0.4165225352
0.5795921763
0.8378792497
1.01558082
1.011040448
0.9922047239
0.9783218717
0.9704694696
0.9630853194
0.9748890386
0.9797862722
0.9788973537
0.9828309203
0.9867417748
0.9935125228
0.9975582529
1.000150154
0.9998866792
0.9972324088
0.994349324
0.991212001
0.989632776
0.9901418887
0.3326015441
0.3596871579
0.4687358266
0.7081377339
0.9601242933
1.022882905
1.014803007
1.002059254
0.9834916097
0.971620614
0.9754097946
0.9743872365
0.9724879875
0.9760132705
0.9815451865
0.9878213201
0.9901865167
0.9912735677
0.9901391113
0.9890580882
0.9895094877
0.9891063417
0.9900579364
0.9908760862
0.2975041685
0.307535609
0.3457003433
0.594899017
0.8354564094
1.002349139
1.004781842
0.9932652148
0.9771305053
0.9713073824
0.9716680913
0.9649179784
0.9656078015
0.9703013569
0.9756968338
0.9802283909
0.9834671817
0.984452912
0.9866386818
0.9889730325
0.9940455426
0.9967284417
1.000024247
1.000092068
0.2824308439
0.2819517369
0.2833507051
0.4026965605
0.7412131912
0.9317756433
0.9699535337
0.977812866
0.9727093342
0.9678593413
0.957019455
0.9539621524
0.9592064132
0.9668678719
0.9739613546
0.9775502045
0.9831938817
0.9851314141
0.9906398036
0.9961875623
1.001236055
1.001283117
1.001199509
0.9999100189
0.2793566911
0.2770936184
0.2726361751
0.2900780443
0.596471298
0.8793941121
0.9595728088
0.9678655941
0.9627301011
0.9599178935
0.9471845773
0.9533702547
0.9634101875
0.968238991
0.9758689536
0.9803349091
0.9836366559
0.9916494647
0.9980923143
0.9998100535
1.000538988
0.9994851744
0.9989789574
0.9975466971
0.2792740854
0.2764602896
0.2743221866
0.2732822993
0.3749659084
0.8280630063
0.975646721
0.9851018595
0.9719926828
0.9542568599
0.9500297795
0.9613111007
0.9677762402
0.9730675806
0.9744087826
0.9805052148
0.987127239
0.9946267756
0.9987193535
0.9994260859
0.9980791974
0.9963065736
0.9959041524
0.9943273055
0.27858619
0.2766871347
0.2756107464
0.2735108896
0.2846485151
0.5984792117
0.9381250616
0.9938845817
0.9785388425
0.9522425007
0.9636910867
0.9719008913
0.973527921
0.9706865165
0.9746962903
0.9829855387
0.9900227228
0.9958163017
0.995951784
0.9941239977
0.9926201229
0.9923026566
0.9935934205
0.9930401909
0.9939984138
0.2765861877
0.2782678584
0.276226238
0.2759865534
0.2731171817
0.3767863217
0.7961583794
0.9896555801
0.9826648788
0.9600054935
0.9790410539
0.9779233188
0.9679791989
0.9694636332
0.9767626543
0.9835982478
0.9882683339
0.9884487903
0.9871240257
0.9872065681
0.9904491511
0.9922226884
0.9954934591
0.9951333162
0.9962146572
0.2758187391
0.2792259945
0.2764665187
0.2753633275
0.2728231111
0.2887129215
0.5919536586
0.9034903371
0.9680034971
0.9722194191
0.9828132715
0.968869943
0.9649479837
0.9703712723
0.9755867337
0.9782402074
0.9775440245
0.9780428519
0.982817124
0.9877839282
0.9935312647
0.9954844418
0.9969625925
0.9961317395
0.9970596008
0.2758062861
0.2794406287
0.2769039474
0.2732373796
0.27473429
0.2750249235
0.4286041589
0.7802672941
0.9441253122
0.9822387652
0.9695438515
0.9585669505
0.9630240749
0.9702333273
0.9700426221
0.9677797645
0.9704719033
0.9766757987
0.9850823384
0.992469316
0.9968141447
0.9968351753
0.9983304787
0.9973251501
0.9979511964
0.2763764673
0.279544377
0.2769917193
0.2733286644
0.2749949058
0.2737915533
0.299343854
0.6653955404
0.9292786093
0.9838310011
0.9505727603
0.9558335556
0.9665259752
0.9678249079
0.9629642819
0.9645616719
0.9709315311
0.9817948331
0.9915377353
0.9957934169
0.9982928073
0.9968813876
0.9974900798
0.995965233
0.9963141325
0.2770802594
0.2795428715
0.2769761314
0.2735113313
0.2746120034
0.2754602146
0.27672855
0.4569331461
0.8751643529
0.9543890061
0.9440281718
0.9601963973
0.9705251773
0.9612341116
0.9617774498
0.9687156794
0.9788249835
0.9884980261
0.9961371775
0.9956164361
0.994527053
0.9932929123
0.9949877935
0.9928928609
0.9930060687
0.2773763154
0.2794961177
0.2768557628
0.273625964
0.2740207105
0.2764030218
0.2743143166
0.3100919453
0.6843203341
0.8937676928
0.9616043687
0.9688626947
0.9663243952
0.9581719857
0.9660454539
0.9774874427
0.9864223067
0.9903174548
0.9901220982
0.9886037726
0.9897917029
0.9899440893
0.9926658277
0.9920209474
0.9922736684
0.2774939161
0.2793889146
0.2767179765
0.2737735678
0.2731521066
0.2759566786
0.2738541662
0.2779439299
0.4835305332
0.8435799249
0.9697627241
0.9759082781
0.9573857403
0.9635431449
0.9747714504
0.9828784073
0.9842463263
0.9824784151
0.9807677743
0.981374086
0.986703295
0.990829591
0.9931926593
0.9940365318
0.9946730499
0.994898119
0.2775229193
0.279206093
0.2764315422
0.2749409974
0.2724427821
0.2745026514
0.2771337747
0.2763685545
0.3471289355
0.7532017199
0.9568143571
0.967714501
0.95759884
0.9748915545
0.9802846591
0.9792994195
0.9738434749
0.971030393
0.9739100976
0.9813935184
0.990752255
0.9942893617
0.9951842338
0.9959819598
0.9968973266
0.9972052706
0.2773611756
0.2786155127
0.2766014355
0.2754232569
0.2723104718
0.2737472425
0.2771087354
0.2744548545
0.2819064976
0.5405146292
0.8487161248
0.9399900153
0.9660564989
0.9804439266
0.9764210278
0.9652758677
0.9616158493
0.9659173708
0.9759899944
0.9874867786
0.9952781115
0.9955177582
0.9964530473
0.9964822497
0.9975750462
0.9978571526
0.2757764101
0.2774354051
0.2776231573
0.2754554422
0.2723759768
0.273234597
0.274756666
0.2755421111
0.2755365178
0.3734593939
0.7449097367
0.9240368981
0.9729905907
0.9770416625
0.9619800162
0.9544775287
0.9605887522
0.971705755
0.9832188556
0.9916746471
0.9931878122
0.9931942406
0.9961360293
0.995269263
0.9960937449
0.9958198407
0.2738439796
0.2767161968
0.277961074
0.2754029239
0.2725500535
0.272589372
0.273514373
0.2753724771
0.2751339945
0.2947225988
0.631906498
0.929848474
0.9712097748
0.9611038705
0.9508676329
0.9578274886
0.9698573653
0.9800528237
0.987529161
0.988031882
0.988576512
0.9894048604
0.9930138826
0.9919285441
0.9919154583
0.9913439028
0.2730406896
0.2764997074
0.2779578269
0.275268733
0.2725941559
0.2720750643
0.2728937726
0.2736026686
0.2739564214
0.2736238509
0.4238461025
0.839904849
0.9551185279
0.9389069742
0.9516867761
0.9700333351
0.9796496797
0.9829706988
0.9810474114
0.9803224297
0.9838278436
0.9854275998
0.9915713128
0.9904571877
0.9907404535
0.99111852
0.2727086333
0.276424978
0.277837026
0.2750079211
0.2724671246
0.2713082986
0.2726716864
0.2731247798
0.2744051853
0.2717214409
0.301399708
0.632098039
0.88054453
0.9377596874
0.9659109078
0.980449586
0.9820078508
0.9744911981
0.9714776616
0.9728455077
0.9804111703
0.9867987388
0.9912512913
0.9913879644
0.9927910103
0.9933831491
0.9928820089
0.2725555023
0.276859356
0.2775677917
0.2745664486
0.2721867279
0.2709737621
0.272625682
0.2730390772
0.2745272882
0.2715050408
0.2753888846
0.4727140145
0.8127085078
0.9562053514
0.9806427159
0.9820639416
0.9715745331
0.9635980945
0.9656474643
0.9758238533
0.9844505501
0.9903520999
0.9919516098
0.9931225601
0.9954150738
0.9964846727
0.9956485061
0.2724799128
0.2770067388
0.2772105038
0.274234903
0.2721799286
0.2708894101
0.2722868373
0.273311741
0.2738779022
0.2726999897
0.2712228045
0.3405949464
0.7465017157
0.9571024907
0.9798732646
0.972035365
0.9570792943
0.9598421729
0.971959279
0.9804066256
0.9865942218
0.9895030845
0.9935226192
0.9949444298
0.9970717045
0.9975478481
0.9963142005
0.2722366237
0.2768675124
0.2767264075
0.2744695717
0.2728734794
0.2711541892
0.2722616405
0.2731318155
0.2738448398
0.2726514752
0.2708239419
0.2779790553
0.5588979898
0.9116941468
0.9710203841
0.9486038196
0.9536687667
0.9663718041
0.9787376002
0.9816342472
0.9824450312
0.9864519608
0.9944255147
0.995852867
0.9964341438
0.9961753524
0.9938359168
0.2710274706
0.2766727686
0.2756440546
0.2752593723
0.2731717258
0.2711660827
0.2720460713
0.2719259898
0.2728194203
0.2718585503
0.270942858
0.2706569826
0.3670542956
0.7410647164
0.9246097667
0.9374279379
0.9604068651
0.9770146048
0.980586289
0.9763015206
0.977171368
0.9825703766
0.9924912321
0.9933897308
0.9920850366
0.9919828036
0.9907232108
0.270120088
0.2761291214
0.274681063
0.2752277547
0.2730451858
0.2710167268
0.271320471
0.270893862
0.2721901765
0.2715519604
0.2706811169
0.2705287163
0.2867152662
0.5925152282
0.8683650576
0.9492746693
0.9762892044
0.9806472556
0.974006949
0.9685008259
0.97376916
0.9800913371
0.9892567177
0.9894203313
0.9891786833
0.9901746943
0.9902993542
0.2696842906
0.2737418796
0.2743740499
0.2749357457
0.2727156966
0.2706304377
0.2708261478
0.2705721306
0.2717117249
0.2713502378
0.2704936118
0.2707233012
0.2724781044
0.4384838297
0.826219325
0.9650575029
0.9819390694
0.9767571201
0.9624539233
0.9654447254
0.977266203
0.9841112674
0.9869409437
0.9862330254
0.9882164321
0.989966307
0.9910334141
0.2692177879
0.2706485694
0.2746215098
0.2746263068
0.2723300618
0.2701921514
0.270695513
0.2705193745
0.2714647737
0.2713502673
0.2706291818
0.2709337246
0.2705689415
0.3020973208
0.6911441815
0.9487070063
0.9782325599
0.957269651
0.9595025136
0.9684227458
0.9837769017
0.9851219712
0.9828028223
0.9845593991
0.9887125991
0.9926152823
0.9942384364
0.9959809289
0.2689350453
0.269512564
0.2749994196
0.274420721
0.2724347959
0.2699400754
0.2707685118
0.2704714535
0.2714817587
0.2713746847
0.2705361215
0.2705104288
0.2703001668
0.272531038
0.4726700827
0.8444858412
0.9496890973
0.9463903951
0.9638667316
0.9788281862
0.9839209857
0.9820860975
0.9806299066
0.9838996544
0.9918760669
0.9962321654
0.9961775585
0.9962508051
0.2689331847
0.2693145016
0.2751229652
0.2742603058
0.2730762264
0.2701963475
0.2706148915
0.2703559014
0.2713592122
0.2711537648
0.2703184265
0.2699993702
0.2702460063
0.2704234891
0.3324302186
0.6923597301
0.9026453048
0.9486484829
0.9770123815
0.9802564286
0.9785940299
0.9743187975
0.9810499065
0.9873744206
0.9933010079
0.995428029
0.9950701223
0.9946965173
0.2688433265
0.2698704201
0.2751136218
0.273991413
0.2732059836
0.2703464387
0.2704094693
0.2701524061
0.2711472872
0.2711513657
0.2698296395
0.2696041991
0.270078374
0.2703008478
0.2770768806
0.5654136717
0.8731072091
0.9666374181
0.9810474761
0.9783117825
0.9669767119
0.969019941
0.984402114
0.9888997738
0.9913470151
0.9928336902
0.992036303
0.9907822062
0.2685305494
0.2712393795
0.2749779976
0.2736424547
0.2730888984
0.2701873024
0.2701889762
0.2695253468
0.2701247715
0.2707955569
0.2695254387
0.2692663216
0.2700723357
0.2703142961
0.2707585275
0.3829664619
0.814077393
0.9629507738
0.978710387
0.9627161785
0.9613835301
0.9677757213
0.9848235587
0.9888053863
0.9872568083
0.9883180339
0.9888613851
0.988291526
0.2662341831
0.2715762407
0.2743345236
0.2728977883
0.2729161475
0.2700284843
0.2698121811
0.2690240972
0.2693728522
0.2703810935
0.2693291779
0.2689736001
0.2695758846
0.2701705466
0.270039225
0.2842676138
0.6178332334
0.9219426499
0.9591388071
0.950575215
0.9622866468
0.9748765189
0.984641911
0.984302499
0.9834869934
0.9861263386
0.9882365588
0.9884248451
0.264255977
0.2715723693
0.2721596591
0.2723791985
0.272692428
0.2698645981
0.2693973829
0.2687793422
0.2691024791
0.2700980922
0.2693005833
0.2687810253
0.2692399124
0.269661133
0.2699707526
0.2703352412
0.4210361924
0.7841622795
0.9226140219
0.9482524305
0.9755264078
0.981070636
0.976847507
0.9774899285
0.9818129807
0.9874058223
0.990202897
0.9913015827
0.9955911116
0.2639504169
0.2709201117
0.2703567418
0.2720353483
0.2724244127
0.2697126248
0.2691315158
0.2686835959
0.2689707145
0.2699220992
0.269326814
0.2686992216
0.2691510825
0.2693457323
0.2699795808
0.2698894896
0.3105468039
0.6728791528
0.9008327189
0.966071123
0.9816539198
0.9807963597
0.9721366235
0.9749973953
0.9853910135
0.9905170682
0.9917030787
0.9926628943
0.9955558468
0.2640426073
0.2679287006
0.269967627
0.2716208097
0.2715421782
0.2696690411
0.2689806923
0.2686767861
0.2688826161
0.2697672388
0.2695811289
0.2686514101
0.2691238432
0.2691997766
0.2698104035
0.2695345651
0.2731355111
0.5392010532
0.9010854436
0.975129799
0.9831398088
0.9731781143
0.9699829098
0.9773518166
0.9878580152
0.9903418445
0.9904297304
0.9914278082
0.9933425734
0.265960667
0.2650136102
0.2698724816
0.2714879981
0.2706718892
0.2704913824
0.2690712651
0.2687266502
0.2687998273
0.2697013668
0.2699148452
0.2687977385
0.2688968067
0.2690935603
0.269363616
0.2695157117
0.2692077634
0.350586889
0.784601566
0.9650773833
0.9708615988
0.9582154394
0.9780328387
0.9840300869
0.9864496057
0.9880329516
0.9880343521
0.9887421626
0.9897769343
0.2668904419
0.264150331
0.2698404935
0.2710816441
0.2705601034
0.2707330278
0.2692115209
0.2688903418
0.2686933274
0.2695485223
0.269869527
0.2687585072
0.2685106911
0.2688023275
0.2690901191
0.2692919315
0.2688836454
0.2783507523
0.5639302062
0.8809982741
0.9393743476
0.9543199023
0.9842920386
0.9860277468
0.9819282987
0.9820099969
0.9847681981
0.9864955341
0.9882639021
0.2668535738
0.2640618836
0.270026702
0.2708947223
0.2707524332
0.2707910777
0.2692261073
0.2690196392
0.2685979541
0.2692845146
0.269537286
0.2684841869
0.2682752658
0.2686146587
0.2689270384
0.2689962457
0.2687972403
0.2690269438
0.4177455775
0.7737984099
0.9260591245
0.9622165702
0.9830279619
0.9819584007
0.9736027048
0.9785749629
0.983246632
0.9866332654
0.9883424828
0.2668050688
0.2642066248
0.2711931476
0.2709077297
0.2707693326
0.270777037
0.2692569585
0.2691408433
0.2684775507
0.2686532802
0.2693023705
0.2682283869
0.2681020511
0.2685407004
0.2688974725
0.2689138311
0.2691176138
0.2686623729
0.304456372
0.6933506204
0.9411263511
0.9743646379
0.9729098333
0.967717507
0.9711857405
0.9787104217
0.9864712826
0.9889667797
0.9905041407
0.2656855887
0.2654754838
0.2718728918
0.2707777157
0.2705485606
0.2707034142
0.2693215661
0.2692392849
0.2684757074
0.268225246
0.2691603001
0.2681287946
0.2680425219
0.26853427
0.2689927915
0.2692015843
0.269269095
0.2686625702
0.2715505144
0.5313465972
0.9011774533
0.9751493688
0.9536105326
0.9617062579
0.9740822842
0.9864332738
0.9900653064
0.9893638457
0.9900811527
0.9954744824
0.262473448
0.2667915061
0.2718806336
0.2705502032
0.2700270984
0.2703730343
0.2693574858
0.2694139819
0.2687260737
0.2681380199
0.2692799487
0.2683425621
0.2680097384
0.2686900156
0.2691883393
0.2693681273
0.2692012608
0.269127012
0.2686548495
0.3457759162
0.7571164649
0.9640525239
0.9475527013
0.9642751472
0.9852311055
0.989910497
0.9891293573
0.9886513805
0.9886118965
0.9915616078
0.2613360872
0.2670461245
0.2706118473
0.2704657498
0.2695461682
0.2700474158
0.2692480887
0.269552074
0.2697012439
0.2681309547
0.2694098171
0.2688893898
0.2682275275
0.2688204804
0.2692023771
0.2693415066
0.2691195282
0.2692422613
0.2688167413
0.2782979336
0.5735995636
0.881805298
0.9644467004
0.9810974867
0.9880167523
0.9885143378
0.9854573984
0.9850700646
0.9846064797
0.9875017066
0.261427873
0.2667637277
0.2677590704
0.2704464814
0.2693061938
0.2698645716
0.2691997101
0.2696733763
0.2703319287
0.267947912
0.2693816597
0.269087828
0.2684724617
0.2688185264
0.2690794262
0.2691528636
0.2690914555
0.2692134126
0.268786508
0.2694413273
0.4342070226
0.8054576406
0.9748249864
0.9868514716
0.9853849235
0.9770512282
0.9781386324
0.9816064539
0.9824936844
0.9864098378
0.2639532482
0.2650816897
0.2667220402
0.2707513752
0.2692372408
0.2697468266
0.2692257734
0.2698348695
0.2706389214
0.2680066598
0.2693170693
0.2691140093
0.2684886085
0.268676601
0.2689996371
0.2691077455
0.269169897
0.269145349
0.2690847039
0.2687662266
0.3039834072
0.7252308908
0.9606646273
0.9848790242
0.9679069065
0.9668875424
0.9745987424
0.9807427443
0.9833871269
0.9883622401
0.2674547271
0.262897637
0.2665085594
0.271707707
0.2695325678
0.2696804537
0.269201358
0.2697697208
0.2707833438
0.2682392262
0.2691115014
0.2691576357
0.2684444888
0.2686688491
0.2690097391
0.2691298007
0.2692293946
0.2691982192
0.2692042706
0.2687778181
0.2716578665
0.5338439635
0.8627497326
0.9667176298
0.9563357079
0.9663280532
0.9790258231
0.9864104679
0.9869092493
0.9904043777
0.2682364491
0.2623189899
0.2667154703
0.273303531
0.2708447156
0.2696962636
0.2690959796
0.2695385849
0.2709088666
0.2684900556
0.2691002022
0.2693224359
0.2685615249
0.2687437214
0.2690978875
0.2694433046
0.2697034387
0.2696524836
0.2693247832
0.2689702345
0.2688697638
0.3551712271
0.7313499465
0.9210971967
0.9553311598
0.977822517
0.989140184
0.9889507796
0.9876699043
0.9900934605
0.2683915277
0.2623715322
0.2678901554
0.2740660992
0.272145288
0.2696951625
0.2689490847
0.2694373101
0.2709799965
0.2690037657
0.2693998352
0.269635124
0.2688868691
0.268990657
0.2694843445
0.2699983106
0.2700817203
0.26994088
0.269690989
0.2695108197
0.2693532914
0.2826488854
0.6310636952
0.8918369057
0.9756844999
0.9886372738
0.9909387169
0.9882900016
0.9870459273
0.9873454882
0.9885260596
0.2684041383
0.2624631873
0.2685176332
0.2741338923
0.2727439326
0.2695531198
0.2689179074
0.2694614574
0.2713012398
0.2696490702
0.2696350612
0.2698573024
0.2693693043
0.2694232035
0.2697437994
0.2701762586
0.2701407207
0.2700181461
0.2698700223
0.2697509882
0.2695349576
0.2704890481
0.4573084812
0.8802128064
0.9806128691
0.9917318282
0.9870518254
0.9816448953
0.9810881874
0.9811911472
0.9845701066
0.2653735735
0.2626650927
0.2685975022
0.2730056079
0.2728157186
0.2699239518
0.2689816299
0.2696103635
0.2722899359
0.2701477644
0.2698166524
0.2700131116
0.26959604
0.2696318247
0.2697828057
0.2701491533
0.270008379
0.2699722608
0.2699582931
0.2698422959
0.2697413385
0.2696102583
0.3071661661
0.7368431168
0.9641941318
0.9845734202
0.9693024573
0.9734285636
0.9765755995
0.9786756279
0.9839425018
0.261332846
0.2632935334
0.2684640697
0.2723261435
0.2729497899
0.270144949
0.2691919188
0.269856022
0.2730703673
0.2705017691
0.2699746259
0.2701225853
0.2697017301
0.2696827432
0.2697170172
0.2701086124
0.2699969442
0.2699737797
0.2699642127
0.2698662609
0.2698604813
0.2696409483
0.2723741628
0.5170051535
0.858070738
0.9481728715
0.9599777074
0.9714411489
0.9769872586
0.9818477942
0.9892283872
0.2606317971
0.2651918035
0.2673564113
0.2720689362
0.274020887
0.2706946998
0.2700828629
0.2701223427
0.2733338541
0.2707625436
0.270073238
0.2701025571
0.2697816414
0.269672802
0.2697640163
0.2701783212
0.2700818668
0.2700930092
0.270127099
0.269995914
0.2699061828
0.2698051679
0.2699200645
0.374308332
0.7513173666
0.9229251786
0.9625904426
0.981532822
0.9862114346
0.9881475508
0.992399285
0.261079048
0.2664691222
0.264113425
0.2719390198
0.2752247019
0.2719054303
0.2707396535
0.2704232677
0.2726115647
0.2709595291
0.2702459948
0.2701887901
0.2700038537
0.2697586498
0.2699224084
0.2705140324
0.2705160242
0.2705690643
0.2707062433
0.2705909365
0.2702503217
0.2704239461
0.2703067977
0.2852101462
0.664170294
0.9272341504
0.9817834962
0.9900029872
0.9888843725
0.9889582389
0.9915679032
0.2654698085
0.2666010783
0.2621715511
0.2719030659
0.2755814681
0.2723820739
0.2708929
0.2705410394
0.2715681316
0.2711863394
0.2704733375
0.270832162
0.270708311
0.2701104305
0.2702917463
0.2708737285
0.2710880572
0.270944106
0.2710555695
0.2710440651
0.270806818
0.2708278351
0.2705639033
0.2714344025
0.4762518089
0.8932029253
0.9864104945
0.9916883902
0.988733078
0.9862939686
0.9850048805
0.2710425025
0.2663659215
0.2617572142
0.2718886953
0.2757539675
0.272562036
0.2708336191
0.2699059467
0.2714901932
0.2715885674
0.2708005796
0.2714442778
0.2711003958
0.2706897742
0.2706131207
0.2709800097
0.2712832135
0.2710571582
0.2711538879
0.271188014
0.2710387399
0.270996677
0.2708965394
0.270512406
0.316253442
0.7450670137
0.9719445705
0.9829899354
0.9758766513
0.9756896665
0.9768016111
0.2725486879
0.2649339888
0.2617436091
0.2719156207
0.2760038384
0.2727681168
0.270866162
0.2699213133
0.2716044352
0.2720740458
0.2713647871
0.2716962699
0.2712213799
0.2709912341
0.2708063243
0.2710009615
0.2713067692
0.2709912139
0.2711542461
0.271237799
0.2711170351
0.271034001
0.2709570259
0.2707122602
0.274102545
0.5415349549
0.869592172
0.9493874816
0.9633713903
0.9696050554
0.9738254927
0.9798320828
0.2728601818
0.2637283582
0.2619596797
0.2719533381
0.2764933823
0.2734129666
0.2711623387
0.2701259944
0.2718397279
0.2732164765
0.2720434439
0.2716766565
0.2712444597
0.2710964933
0.2708641015
0.2710617761
0.2713353049
0.2710326636
0.2712111335
0.2713092126
0.2711818654
0.2711136694
0.2710934444
0.2707528136
0.2710711931
0.3980019943
0.7741294857
0.93054455
0.9625451559
0.9734638279
0.980679268
0.9848026162
0.2727147268
0.2637453863
0.2628394182
0.2718842703
0.2771543503
0.2750941302
0.2721733517
0.2704494653
0.2722076391
0.273761853
0.2724439616
0.271571664
0.271254691
0.2711601291
0.2709855148
0.2712385506
0.2715298343
0.2712482011
0.2715324083
0.2716524109
0.2714656746
0.2714012391
0.2712797971
0.2711159356
0.2709404048
0.2910924554
0.696028419
0.941489234
0.9807584722
0.986361386
0.9899509791
0.9928959648
0.2692015775
0.2640029258
0.2650087794
0.2718549966
0.2774922615
0.2762961603
0.2727269113
0.270874762
0.2723708979
0.273712232
0.2724755315
0.2717033995
0.2716634829
0.2716110227
0.2712850987
0.2715864883
0.2720193678
0.2717809953
0.2718857929
0.2720891032
0.2719100251
0.2717539348
0.2718351057
0.2717352911
0.2713324495
0.2728880382
0.5107181027
0.9031565022
0.9874594566
0.9914230518
0.9912518735
0.9929135313
0.264106096
0.264399133
0.265988939
0.2703448242
0.2775203541
0.2768531899
0.2729681467
0.2710966997
0.2717636712
0.2732741796
0.2724091479
0.2718343006
0.2723428909
0.2724577314
0.2719165252
0.2719079459
0.2723601522
0.2722153268
0.2721269882
0.2723527621
0.2722738546
0.2721379504
0.2721972559
0.272124397
0.2717988308
0.2715795481
0.3357906732
0.7686088923
0.9762996784
0.9903883362
0.9877644382
0.9888233591
0.2628450357
0.2666550827
0.265896235
0.2690184898
0.2771574453
0.2772370028
0.2732650347
0.2707576682
0.2709604946
0.2731489407
0.2726216153
0.2723818913
0.2728650697
0.272853538
0.2723927148
0.2721122744
0.2724965728
0.2724175817
0.2721859227
0.2724268784
0.2723831829
0.272276723
0.2723451518
0.2722684385
0.2719686876
0.2718585692
0.2779778829
0.5798081914
0.8940378939
0.9667621103
0.9692506983
0.9746241311
0.2632006519
0.2701176436
0.264153643
0.2681547288
0.2767660581
0.2775119385
0.2736631138
0.270866939
0.2709136727
0.2730976482
0.2732078923
0.2729064876
0.2730948428
0.2729841014
0.2726515691
0.2722599993
0.2725553665
0.2724668721
0.2722332574
0.2725128083
0.2724481736
0.2722943051
0.2723766493
0.2723619826
0.272094878
0.2719640311
0.272517044
0.4364868532
0.7956593967
0.9346891937
0.9614645469
0.9685666832
0.2670591977
0.2708977983
0.2626437339
0.2677666617
0.2762823084
0.2783758734
0.2742963729
0.271151801
0.271081454
0.273305085
0.2739126311
0.2731970494
0.2731526947
0.2729971433
0.2727238771
0.2723633424
0.2726691787
0.2726166107
0.2723457841
0.2725893595
0.2725256649
0.2725240699
0.2725475015
0.272469137
0.2721501138
0.2720206559
0.2721606474
0.3064357739
0.7197529622
0.9233450098
0.9677849551
0.9736101082
0.9757662223
0.2728846189
0.270750541
0.2623980045
0.2677728137
0.2754562595
0.2791031002
0.2755281383
0.2717321469
0.2714922787
0.2736344521
0.2742207363
0.2733094215
0.2731709797
0.2730924934
0.27286954
0.2725842035
0.2728004118
0.2727080815
0.2725520222
0.2728052639
0.2728373416
0.2727286389
0.2728143029
0.2728528516
0.272515416
0.2723155925
0.272229389
0.2754851945
0.559310703
0.9220228676
0.9861462828
0.9909858193
0.9849713735
0.2753654714
0.2704989506
0.2622826627
0.2677028339
0.275224726
0.2798434254
0.2765106415
0.2727700093
0.2717378821
0.2738678114
0.2744101141
0.2732053429
0.273130237
0.2731212641
0.2730004936
0.2726635059
0.2729816389
0.2729962637
0.2726758337
0.2729522044
0.2731566188
0.2731236557
0.2731659613
0.2732233824
0.2729235688
0.27266862
0.2725980256
0.272724357
0.3736454332
0.8342054149
0.9822355312
0.9965956468
0.9943184737
0.27596262
0.2689087618
0.2621648974
0.2682143918
0.2752739199
0.2801318759
0.2769984871
0.2733212453
0.2718843608
0.2739893373
0.274403056
0.2732273676
0.2732177851
0.2734759169
0.273676408
0.2731731187
0.2732207074
0.2733681411
0.2730475544
0.2732004465
0.2733539358
0.2732583057
0.2732985608
0.2734284363
0.2731546493
0.2728563266
0.2728370772
0.2730230912
0.2905533659
0.6338956121
0.9431190312
0.995307468
0.9956588883
0.27596591
0.2665627023
0.2628584578
0.2688211631
0.2752181688
0.2800456508
0.2772713225
0.2735092334
0.2717742256
0.2735743639
0.2742479492
0.2733559252
0.2734054071
0.2738456922
0.2740299393
0.2734618943
0.2733016421
0.2735248045
0.2732086745
0.2732734598
0.2734561347
0.2733418404
0.273336096
0.2734922973
0.273244611
0.2729359871
0.2729240196
0.273089596
0.274210994
0.4914726652
0.8286132182
0.9686424768
0.989806361
0.2731193828
0.2661465256
0.264680842
0.2685467647
0.2756197704
0.2800314299
0.2774550144
0.2736350674
0.2718715459
0.2728136109
0.2741250332
0.2736436837
0.2736802283
0.2739876376
0.2741443539
0.2735365145
0.2733098692
0.2735926918
0.273260977
0.2731153623
0.2734963983
0.2732917146
0.2732492155
0.273496185
0.2733074295
0.2729518406
0.2729179515
0.2731068547
0.2734528748
0.3523452776
0.7420884906
0.9236358065
0.9636672877
0.2673148997
0.2663626412
0.2663832551
0.2669830769
0.2754056047
0.2794492812
0.277626976
0.2737730783
0.2720353751
0.2727145148
0.2741371791
0.2739855527
0.2738779196
0.2740367627
0.2742163577
0.2735113828
0.2732873911
0.2736320525
0.2733478284
0.2731203054
0.2734014287
0.2733259868
0.2732704357
0.2735059367
0.2734256566
0.2730532405
0.272987107
0.2732192625
0.2732713553
0.2826812977
0.6488543809
0.9016464865
0.9537667917
0.2649110542
0.2678331277
0.2664582042
0.2630551174
0.274458181
0.2788830114
0.2778092684
0.2745430922
0.2724890708
0.2729470353
0.2743335534
0.2741333007
0.2739156145
0.2740051121
0.2742626079
0.2736239403
0.2733126753
0.2736467767
0.2734854077
0.2731722663
0.2734210169
0.273392516
0.2733163376
0.273528248
0.2735556379
0.2732393073
0.2731439013
0.273313988
0.2733308657
0.2743786423
0.4655669766
0.8991695469
0.9682947797
0.2649855516
0.2722708976
0.2660903758
0.2609927913
0.273745617
0.2787355358
0.2779142906
0.2753381408
0.2733550396
0.2731021407
0.2744088917
0.2741825277
0.2736522987
0.2734928558
0.2742099517
0.2736678934
0.2734360958
0.273731124
0.273746812
0.2733129785
0.2735173953
0.2735550923
0.2734303127
0.2736098274
0.2736967124
0.2734404849
0.2733201178
0.2734801129
0.2736006459
0.2734879057
0.3263789372
0.7782966952
0.9764899602
0.9857320663
0.2681636328
0.2745407055
0.2656542862
0.2603156805
0.2733713296
0.2787070643
0.2780684036
0.2757305921
0.2738989645
0.2730140898
0.274282423
0.2741297462
0.2731219224
0.2730704696
0.2740446743
0.2740059469
0.2736082937
0.2738024776
0.2738173447
0.2733366591
0.2735359606
0.2736103216
0.2734548838
0.2736212257
0.2737523248
0.273485466
0.2733398222
0.273512731
0.2736620775
0.2735450416
0.2793189895
0.5700863095
0.9498757
0.9947531713
0.2728367983
0.2745942433
0.2653807599
0.2600865398
0.273021443
0.27876454
0.278288164
0.2758942271
0.2740686408
0.2723928893
0.2735665562
0.2737956827
0.272992982
0.2730096493
0.2738782496
0.2741630419
0.2735922056
0.2737600137
0.2738018024
0.2733111588
0.2735024223
0.273601357
0.2734377003
0.2735852001
0.2737430527
0.273480649
0.2733116488
0.2734935104
0.2736453131
0.2735121064
0.2736994212
0.4372034452
0.8164446147
0.9905781342
0.2744812057
0.2744882302
0.2652284374
0.260920611
0.2727709203
0.2786750476
0.278401043
0.2759200631
0.2737628558
0.2721597225
0.2731453319
0.2735150262
0.273195956
0.2731014319
0.2739125286
0.2741455573
0.2735135146
0.2736650168
0.2737442188
0.2730636874
0.2730595721
0.2734750355
0.2732438119
0.2731705659
0.2736464216
0.273431274
0.2731282602
0.2733389939
0.2735349914
)
;

boundaryField
{
    inlet
    {
        type            fixedValue;
        value           nonuniform 0();
    }
    outlet
    {
        type            zeroGradient;
    }
    bottom
    {
        type            slip;
    }
    top
    {
        type            slip;
    }
    obstacle
    {
        type            zeroGradient;
    }
    defaultFaces
    {
        type            empty;
    }
    procBoundary21to15
    {
        type            processor;
        value           nonuniform List<scalar> 
23
(
1.009009194
0.9998032078
0.981906428
0.9641893775
0.9610764022
0.974358897
0.9797437491
0.9753101704
0.9749860674
0.9792454624
0.9885683843
0.9968035501
0.9987627543
0.9965924353
0.9926602041
0.9899796284