/*--------------------------------*- C++ -*----------------------------------*\
  =========                 |
  \\      /  F ield         | OpenFOAM: The Open Source CFD Toolbox
   \\    /   O peration     | Website:  https://openfoam.org
    \\  /    A nd           | Version:  7
     \\/     M anipulation  |
\*---------------------------------------------------------------------------*/
FoamFile
{
    version     2.0;
    format      ascii;
    class       volScalarField;
    location    "4";
    object      T;
}
// * * * * * * * * * * * * * * * * * * * * * * * * * * * * * * * * * * * * * //

dimensions      [0 0 0 1 0 0 0];

internalField   nonuniform List<scalar> 
2222
(
1.117754257
1.118630212
1.119529539
1.120044043
1.120137404
1.120205844
1.120461196
1.12089389
1.121409896
1.121637534
1.121506043
1.121030768
1.120754511
1.12067954
1.120527751
1.120315573
1.11997001
1.119743912
1.119805651
1.120001888
1.12009821
1.120586054
1.122026098
1.138266693
1.306802943
1.418749497
1.449290808
1.449223644
1.447517163
1.444068427
1.439402297
1.433973993
1.427788384
1.411740039
1.117833793
1.118792341
1.119780655
1.120229136
1.120219759
1.120146343
1.120338878
1.121048071
1.121490604
1.121602038
1.12127307
1.120939335
1.120752077
1.120686833
1.120613991
1.120462679
1.120184995
1.119979578
1.120052771
1.12009814
1.120062317
1.120332245
1.121606025
1.1357596
1.293693781
1.415040579
1.447747653
1.449085124
1.446977415
1.44432385
1.441189695
1.436955057
1.429389742
1.412040145
1.117825307
1.118768166
1.119809152
1.120342049
1.120395634
1.120313836
1.120363448
1.120653255
1.120975905
1.121028464
1.120896488
1.120918152
1.120799977
1.120731592
1.120690721
1.120624139
1.120410757
1.120186285
1.120209506
1.120245905
1.120218832
1.120386077
1.121360486
1.133584716
1.280535149
1.411983989
1.444398388
1.447912604
1.445598245
1.444409244
1.443150222
1.438898039
1.430195076
1.41156293
1.117886805
1.118736528
1.119545803
1.120177418
1.120533972
1.120581683
1.120580268
1.120507117
1.120369285
1.120087991
1.119985599
1.120321197
1.120663338
1.120738178
1.120782537
1.120816196
1.120646489
1.120379191
1.120308532
1.120403653
1.120388184
1.12052627
1.121276621
1.131774769
1.268366637
1.408721793
1.440181506
1.446156832
1.444229248
1.44427156
1.443937754
1.440047792
1.430389046
1.411437857
1.118036884
1.11891298
1.119549244
1.1199317
1.12019745
1.120369402
1.120451455
1.120291439
1.119941041
1.119425613
1.119329096
1.119495838
1.119952637
1.120493387
1.120837496
1.120979879
1.120833906
1.120514127
1.120465224
1.120533676
1.120532098
1.120568341
1.121193852
1.130353081
1.257772797
1.404989293
1.435478979
1.443648716
1.443109759
1.444124263
1.443922648
1.440741056
1.431005576
1.412285109
1.118239448
1.119182535
1.119785744
1.1199933
1.120054727
1.120034101
1.119926572
1.119796236
1.119482186
1.119140776
1.11917272
1.119217833
1.119402147
1.119942563
1.120674684
1.121037524
1.121007209
1.120652405
1.120573807
1.120580026
1.120425626
1.120447246
1.121081523
1.129262696
1.248212814
1.40053881
1.430823011
1.441380349
1.441974854
1.443930148
1.444268301
1.44184628
1.432528733
1.414067647
1.118449236
1.119334057
1.119983713
1.120117406
1.120151888
1.120003261
1.119674804
1.119329606
1.118934658
1.118789528
1.118992652
1.119176372
1.119332656
1.119685966
1.120368539
1.120926977
1.121040446
1.120810276
1.120566685
1.120423496
1.120165016
1.120245342
1.12098502
1.128374474
1.238070423
1.395280262
1.427687066
1.439344408
1.44127024
1.443704436
1.444899824
1.443112697
1.43449662
1.415216647
1.11854604
1.119358802
1.120022205
1.120199283
1.120356927
1.120191729
1.119726768
1.119122125
1.118696359
1.118664472
1.119039006
1.119350325
1.119532032
1.119796581
1.120257582
1.120771324
1.120993398
1.120956789
1.120639906
1.120366872
1.120127088
1.12017212
1.120840643
1.127501762
1.225753869
1.390132827
1.42485695
1.437703625
1.440437866
1.443642744
1.445666547
1.444672368
1.435769406
1.415539326
1.118543365
1.11922961
1.120068028
1.120484773
1.120662257
1.120476853
1.119907558
1.119174768
1.118731959
1.118790753
1.119179405
1.119622625
1.119868581
1.120109577
1.120505818
1.120878344
1.121068723
1.121048881
1.12076888
1.120455021
1.120291728
1.120351805
1.120810734
1.126521126
1.21256918
1.386651943
1.421759364
1.435326092
1.439372726
1.44384381
1.446728882
1.445492304
1.435809508
1.415151956
1.118210354
1.118611273
1.119150183
1.120082114
1.120760824
1.120889142
1.120686619
1.12011291
1.119366693
1.118966691
1.119005241
1.119241352
1.119845157
1.120253744
1.120582959
1.120916812
1.121107611
1.121204525
1.120947904
1.120898551
1.121035396
1.120901593
1.120687489
1.120922091
1.125597166
1.200582083
1.383449933
1.415801123
1.430762615
1.438138292
1.444271615
1.448175983
1.446020139
1.435180328
1.415180169
1.118499939
1.118736484
1.119350516
1.12009303
1.1207276
1.120944543
1.120836213
1.120390796
1.119896056
1.119499012
1.119373841
1.119444318
1.119933528
1.120539535
1.120916139
1.121210599
1.121232836
1.121056691
1.121263433
1.121486314
1.121630453
1.121554273
1.121335848
1.121353619
1.125052846
1.191487467
1.380764345
1.407190309
1.42545697
1.437234429
1.444533302
1.44949797
1.446660634
1.435177027
1.416419236
1.118664415
1.119208387
1.119799952
1.120352137
1.120705528
1.120762452
1.120761112
1.120682378
1.120331334
1.12000272
1.119839354
1.119805147
1.11996933
1.120530724
1.121033733
1.121171122
1.121107837
1.121271087
1.121642431
1.121891212
1.12209176
1.122097903
1.12194152
1.121923417
1.124938464
1.184298945
1.377536423
1.400337921
1.41998378
1.436995202
1.44505293
1.450443395
1.447170524
1.435856325
1.418513852
1.118872535
1.119655875
1.120353406
1.120782023
1.120953531
1.120855396
1.120623356
1.120603815
1.120626052
1.120529248
1.120392862
1.120257266
1.120240531
1.120393188
1.120684007
1.120897603
1.12114568
1.121637285
1.121946003
1.122362298
1.122670106
1.122690637
1.122511821
1.122403852
1.124968098
1.177449104
1.371056389
1.395697011
1.417095481
1.437122466
1.445831953
1.451214214
1.447525914
1.437308479
1.419833003
1.119002653
1.120042358
1.120847535
1.121296804
1.121333139
1.121174638
1.120788422
1.120559598
1.120626215
1.120877484
1.120895844
1.120736624
1.120626948
1.120513109
1.120429989
1.120640466
1.121232608
1.121973777
1.122451286
1.122888927
1.12322944
1.123185682
1.122931644
1.122771863
1.124952362
1.17027396
1.360887559
1.393128124
1.417338383
1.438345984
1.446975984
1.451974343
1.448541504
1.438203455
1.420135549
1.119007523
1.119966009
1.121136374
1.121801151
1.121859861
1.121716471
1.121207941
1.120764771
1.120644053
1.120866241
1.121188864
1.121121774
1.120923411
1.120538397
1.120567723
1.120852034
1.121352883
1.122064982
1.122820285
1.123311138
1.123639484
1.123581258
1.123240766
1.123018235
1.124835463
1.162788413
1.349732763
1.391549701
1.418649102
1.439800524
1.448746386
1.452770567
1.448339662
1.437652095
1.419587929
1.119356824
1.119995303
1.120917386
1.121915151
1.122373384
1.122280526
1.121829408
1.121272865
1.121010056
1.121002329
1.121183126
1.121336288
1.121075875
1.121047295
1.121096168
1.121289037
1.121729911
1.122169273
1.122812372
1.123312813
1.123680491
1.123733824
1.123486206
1.123187287
1.124665092
1.156358839
1.337392384
1.390118618
1.420989301
1.441147639
1.450236227
1.451877371
1.447171484
1.436023841
1.419555688
1.11985628
1.1203763
1.121023522
1.121681607
1.122397041
1.122649784
1.122443022
1.122037622
1.121668696
1.121404065
1.121367568
1.121493669
1.121513237
1.121719113
1.12195435
1.122134729
1.122360406
1.122650219
1.122943653
1.123166848
1.123379125
1.123634852
1.123691049
1.123525848
1.124652955
1.151391837
1.323790189
1.388768965
1.423791694
1.442297593
1.45084948
1.450642818
1.445309714
1.434245522
1.419852801
1.120627376
1.121005404
1.121414192
1.121934948
1.122281312
1.122509197
1.122732837
1.122623295
1.122219816
1.121733439
1.121527552
1.121673652
1.122096817
1.122417085
1.12286879
1.1231613
1.123381399
1.123545492
1.123436883
1.123307419
1.123145512
1.123321208
1.123672651
1.123949177
1.124887761
1.147510308
1.31015004
1.387734854
1.42600253
1.442990649
1.450693349
1.449087833
1.442905338
1.433038345
1.420523312
1.121312941
1.121824826
1.122185149
1.122468491
1.122698451
1.122631313
1.122671886
1.122734423
1.122403765
1.12195693
1.12173233
1.121906126
1.122514175
1.123135767
1.123799184
1.124317241
1.124377521
1.124370256
1.124030604
1.123528505
1.123360474
1.123397868
1.123613494
1.124164867
1.125289015
1.144317843
1.296395282
1.386809445
1.427419063
1.443028898
1.44974811
1.447697279
1.44087352
1.43223626
1.421583348
1.121989973
1.122676212
1.123035144
1.123251042
1.123400967
1.123238642
1.123059192
1.122811827
1.122442518
1.122217213
1.122117551
1.122306769
1.122869464
1.123794278
1.124647225
1.1253491
1.125426057
1.125039399
1.124709551
1.124212098
1.123787668
1.12374666
1.123894716
1.12423649
1.125516601
1.141584536
1.282032727
1.385748667
1.428346857
1.443112831
1.448591707
1.446510327
1.43938475
1.432142974
1.42223599
1.122141123
1.123214125
1.123873972
1.124153795
1.124238807
1.124081418
1.12364567
1.123065396
1.12271448
1.122637054
1.122679241
1.122900763
1.123416079
1.124356854
1.12539812
1.126112396
1.126225511
1.12601022
1.12563149
1.125155452
1.124725517
1.124497404
1.124468076
1.124549511
1.125522503
1.139099334
1.266612918
1.38458318
1.428880771
1.444369844
1.447502768
1.445406498
1.438991895
1.432613007
1.422554455
1.122416943
1.12313348
1.124075896
1.124842589
1.124944249
1.124520273
1.123959686
1.123622724
1.123393548
1.123367944
1.1234849
1.123752641
1.124195702
1.124945516
1.126080838
1.126860585
1.12698298
1.126814554
1.12649655
1.126045554
1.125672161
1.125531867
1.125385719
1.125272905
1.125878757
1.136987431
1.250276796
1.381833458
1.429018766
1.446086662
1.446470982
1.444255927
1.437983332
1.431692333
1.422690226
1.12308442
1.123462252
1.123929501
1.124624153
1.125122404
1.125108954
1.124982988
1.124856368
1.124594844
1.124444947
1.124584077
1.12474616
1.125092121
1.125664992
1.126757948
1.127593475
1.127740167
1.127662892
1.127412836
1.127009216
1.126718702
1.126596805
1.126503497
1.126312519
1.126585555
1.135378711
1.233949709
1.378857919
1.429898629
1.446971652
1.445647798
1.442593067
1.4353113
1.429697277
1.423150109
1.123958976
1.124050536
1.124282081
1.124534871
1.124657353
1.124922375
1.125606571
1.126023147
1.125929524
1.1257249
1.125594216
1.125605577
1.125724938
1.12584238
1.126311574
1.127323841
1.128264159
1.128586007
1.128553938
1.128315875
1.127797104
1.127425616
1.127347813
1.127358736
1.127141032
1.127299495
1.134163264
1.21899873
1.375874627
1.43062618
1.446505947
1.444646579
1.439840715
1.432479029
1.427688954
1.424464531
1.125030516
1.125205652
1.125296016
1.125178036
1.125174222
1.125356285
1.125688796
1.126385351
1.126819214
1.126842188
1.126700508
1.126542378
1.126517711
1.126531388
1.126896704
1.127505453
1.12828785
1.128930853
1.129134574
1.128934845
1.128253463
1.12770171
1.127552854
1.127538972
1.127433653
1.127674782
1.133140115
1.20608872
1.37282588
1.431419144
1.445693156
1.442826797
1.436379059
1.430564131
1.426213167
1.426361835
1.125476384
1.126187523
1.12627575
1.126247332
1.126170512
1.126212051
1.126244534
1.126453382
1.127164484
1.127681685
1.127639074
1.127355636
1.127195393
1.12726272
1.127533965
1.127805699
1.128205723
1.128762024
1.129156294
1.129193333
1.128916306
1.12836245
1.128009062
1.127754116
1.127495201
1.127761061
1.132327224
1.19468455
1.36862912
1.432773644
1.444019749
1.440000994
1.433942121
1.428951849
1.425730103
1.427262798
1.125524736
1.126363533
1.127133005
1.127522557
1.127543134
1.127375269
1.127195833
1.127201694
1.127421733
1.127950651
1.128217623
1.128111342
1.127953395
1.128068921
1.12840966
1.128528062
1.128684348
1.129002489
1.129347875
1.129672748
1.129746017
1.129313959
1.128675108
1.128170831
1.127757238
1.127940202
1.131808693
1.183956115
1.362783553
1.434876514
1.441317341
1.437488578
1.432176501
1.427528422
1.426209284
1.427103198
1.126272073
1.126659429
1.127307763
1.128093562
1.1286134
1.128665913
1.12868604
1.12840329
1.128248581
1.128391737
1.12864642
1.128703134
1.128814987
1.129265004
1.129690861
1.129715565
1.129686055
1.129823272
1.129963814
1.130149793
1.130136782
1.129853953
1.129206883
1.128775272
1.128505747
1.128686545
1.131683173
1.174201087
1.355157952
1.436407402
1.438827046
1.435778215
1.430684359
1.42650234
1.425843787
1.425987253
1.127378103
1.127554307
1.127792215
1.128094025
1.128564354
1.12933177
1.12978841
1.129668235
1.129330985
1.129087364
1.129043481
1.12917121
1.12971996
1.130529351
1.130987171
1.131198113
1.131188296
1.131032206
1.130868122
1.13050685
1.130027917
1.129680272
1.129474222
1.129538733
1.129591359
1.129734037
1.131976119
1.166455207
1.34561497
1.436238467
1.438151194
1.434925306
1.429663341
1.425802512
1.424081635
1.424730871
1.128845812
1.128699738
1.128542111
1.128559508
1.128753497
1.129157552
1.129769837
1.130283784
1.130150952
1.129714184
1.129440893
1.129584054
1.130293714
1.131391478
1.132177076
1.132523703
1.132478305
1.132178558
1.131684736
1.130868682
1.130013678
1.129629295
1.12971544
1.130115131
1.130543254
1.130809362
1.132661731
1.160710709
1.33527732
1.435385091
1.438458737
1.435369917
1.429717032
1.424537838
1.422771965
1.424513397
1.130050303
1.129939429
1.129638365
1.12945622
1.129469667
1.129507813
1.129629723
1.130030153
1.130269321
1.13002499
1.129891268
1.130122971
1.13071215
1.131481001
1.132346077
1.133038053
1.133173858
1.132834318
1.132124825
1.131264421
1.130534362
1.13019171
1.130234479
1.130491843
1.130914919
1.131328957
1.133123679
1.155815458
1.325931841
1.434896565
1.438499355
1.435061693
1.428738712
1.422508415
1.42259158
1.425002021
1.130972385
1.13104478
1.130917895
1.13068715
1.130433144
1.130071733
1.129967399
1.130050362
1.13020888
1.130285633
1.130484861
1.130989023
1.131555965
1.13192544
1.132299029
1.132676758
1.133004795
1.132942821
1.132522318
1.132094159
1.131627243
1.131131259
1.130983302
1.131060045
1.131304883
1.131578025
1.133054584
1.151089248
1.316814037
1.435085805
1.437733321
1.434482268
1.426967689
1.42029187
1.423837641
1.424795796
1.131374832
1.131757976
1.131841046
1.131727669
1.131358299
1.1309032
1.130641015
1.130473194
1.130472646
1.130827493
1.131344405
1.132092189
1.132688701
1.132820258
1.132853541
1.132747299
1.132763937
1.132837424
1.132867242
1.13285875
1.132698142
1.132234644
1.131985595
1.132032908
1.132144859
1.132174543
1.133203109
1.147016499
1.305468162
1.435006444
1.437637606
1.433157219
1.425063882
1.418735823
1.424578106
1.423419401
1.131992471
1.132382507
1.132461831
1.132329105
1.132054711
1.131798263
1.131540727
1.131323972
1.131306303
1.131689746
1.132310873
1.133051895
1.133588785
1.133690923
1.133440932
1.133222019
1.133095326
1.13310196
1.133148529
1.133123173
1.133110763
1.13304655
1.133032873
1.133229677
1.133251012
1.133005019
1.133592075
1.144246706
1.290272344
1.432361334
1.437571531
1.431611154
1.423589638
1.41873231
1.423853153
1.421675192
1.132801036
1.133014236
1.132963692
1.13270993
1.132448351
1.13236783
1.132265882
1.132202049
1.132240975
1.132513923
1.133003806
1.133558379
1.134051177
1.13435114
1.134176159
1.133991067
1.133816593
1.133760619
1.133687022
1.133491263
1.133311291
1.13331257
1.133493541
1.13384674
1.133908087
1.133740772
1.134094389
1.142563313
1.271380285
1.425351353
1.437298569
1.429724729
1.42254364
1.419645262
1.423411496
1.420579417
1.133628293
1.133621978
1.133468324
1.133091133
1.13268963
1.132576652
1.132600751
1.13269738
1.13281894
1.133015727
1.133345138
1.133637594
1.13410701
1.134768361
1.135018974
1.134983352
1.134792869
1.13462053
1.134406263
1.134072994
1.133722032
1.133585293
1.133701186
1.133953488
1.134035354
1.134148551
1.134597456
1.141425227
1.252113198
1.417053254
1.436217429
1.428388306
1.42216425
1.421400352
1.424177529
1.420770679
1.134363678
1.134258173
1.134025123
1.133575408
1.13304007
1.13281652
1.132798298
1.132922904
1.133135955
1.133311094
1.133462553
1.133624735
1.134075948
1.13478681
1.135450435
1.135773063
1.135697978
1.135480753
1.135194451
1.134805554
1.134337086
1.134009683
1.133980746
1.134017669
1.134065735
1.134295676
1.134983568
1.140463205
1.236439144
1.411533027
1.434249834
1.428505388
1.422179554
1.424045259
1.424930008
1.42132457
1.133894789
1.134748342
1.134807964
1.134603027
1.134157987
1.133533876
1.133094443
1.132989761
1.133054387
1.13324639
1.133358704
1.133441959
1.133655888
1.134103418
1.134738549
1.13549415
1.136031863
1.136119986
1.135959739
1.135722914
1.135384624
1.134898642
1.134421174
1.134255994
1.134178463
1.134192399
1.134341936
1.135073511
1.139568057
1.224118998
1.407468329
1.43379942
1.428127247
1.422341668
1.426312807
1.424942808
1.420487769
1.133639678
1.134680916
1.135081769
1.134965124
1.1346029
1.133998937
1.133448617
1.133280716
1.133251605
1.133355344
1.133540812
1.133744935
1.134094661
1.13451658
1.134928737
1.135426668
1.135921009
1.136146039
1.136051224
1.135818196
1.135537158
1.135145493
1.134713378
1.134558153
1.134497208
1.134509103
1.134580728
1.135148496
1.138858477
1.212629333
1.403080029
1.433325642
1.42706781
1.424414087
1.427094749
1.424423736
1.419300732
1.133582404
1.134662021
1.135201002
1.135102696
1.134742613
1.134141312
1.133656144
1.133549615
1.133565802
1.133685139
1.133982664
1.134398047
1.134851802
1.135169165
1.135288894
1.135408297
1.135655868
1.135859806
1.135807011
1.135562517
1.135295545
1.135026343
1.134780155
1.134727907
1.134785319
1.13492098
1.135022414
1.135417746
1.138472843
1.200334575
1.396906757
1.431396685
1.427212972
1.426341636
1.426452448
1.423886204
1.419059444
1.13371374
1.134686601
1.135211425
1.135106002
1.134693683
1.133987632
1.13360027
1.133595443
1.133727648
1.134013298
1.134407985
1.134945454
1.135433215
1.13561063
1.135542379
1.135443962
1.135433819
1.135542138
1.135493723
1.135268316
1.134961886
1.134692307
1.134565651
1.134615041
1.134771202
1.135084766
1.135464428
1.135853555
1.138305692
1.188239316
1.385493095
1.428822506
1.4290604
1.427841804
1.426642149
1.423962127
1.419433358
1.13378569
1.134683353
1.135189932
1.135138253
1.134716018
1.133989715
1.133509917
1.133424111
1.133589857
1.134078555
1.134661991
1.135236945
1.135654304
1.135722303
1.135566811
1.1353583
1.135208522
1.135160306
1.135175808
1.135050052
1.134750001
1.134426417
1.134287483
1.134337477
1.13453616
1.135043863
1.135602114
1.136054765
1.137985744
1.178807636
1.366271473
1.425207451
1.431815843
1.430179173
1.428324896
1.424714005
1.419890863
1.13353154
1.134349157
1.134937705
1.135087574
1.134761693
1.134205236
1.133649737
1.133355071
1.133438402
1.133979835
1.134708229
1.135288404
1.135555674
1.135544779
1.135407335
1.135126329
1.134832225
1.134733821
1.134851001
1.134870455
1.134682249
1.134377426
1.134187063
1.134164358
1.134334521
1.134882526
1.135328511
1.135751841
1.137266849
1.171860575
1.346325102
1.423768893
1.435535216
1.433643021
1.431786509
1.425844175
1.419886703
1.13264905
1.133409111
1.13416559
1.134726008
1.134555445
1.134082368
1.133574816
1.13341794
1.133416841
1.133865858
1.134602674
1.135113723
1.135255361
1.135228186
1.13507575
1.134724114
1.134287163
1.134149327
1.134305763
1.134501421
1.134508129
1.134334699
1.134193276
1.134180127
1.134341413
1.1347606
1.134933644
1.135165727
1.136328574
1.165366343
1.33344948
1.425760906
1.438515291
1.436479042
1.433478367
1.426266632
1.419887254
1.131278556
1.132122551
1.133027573
1.133898258
1.134062381
1.133883777
1.133721047
1.133471709
1.133371455
1.133663937
1.134248307
1.134669297
1.13481457
1.134793097
1.134597694
1.13417775
1.133665621
1.133465911
1.133519659
1.133711849
1.133942242
1.134071042
1.134104697
1.134164008
1.134358167
1.134677911
1.134654033
1.134685622
1.135554434
1.158423739
1.323093551
1.429344836
1.442020055
1.438762971
1.434292052
1.426445987
1.419504198
1.130411075
1.131338827
1.132089424
1.132839036
1.133563244
1.133745946
1.133720959
1.133359664
1.133168765
1.133202204
1.133550185
1.133909191
1.134153202
1.134201084
1.134070916
1.133735211
1.133345072
1.132965094
1.132784983
1.132824195
1.133010196
1.133335596
1.133652421
1.13390104
1.134200169
1.134522391
1.134533066
1.134549959
1.135170335
1.152449136
1.310246895
1.430369881
1.445894944
1.440857394
1.434246642
1.425545332
1.419123317
1.13021234
1.131075974
1.131627394
1.132126482
1.132854799
1.133256348
1.133213063
1.132951176
1.132841268
1.132751149
1.132756251
1.132912009
1.133232664
1.133434033
1.133457846
1.133388594
1.133179841
1.132811633
1.13259722
1.132467289
1.132422724
1.13255011
1.132906511
1.133309158
1.133775252
1.134233213
1.13442809
1.134575258
1.135101362
1.148923812
1.292026938
1.427286059
1.447945999
1.441920547
1.433246067
1.424743085
1.419582733
1.130454298
1.131235028
1.131662967
1.131957933
1.132350165
1.132681418
1.1327303
1.132704795
1.132646664
1.132473155
1.132256485
1.132269285
1.132490644
1.132695819
1.132894021
1.133153895
1.133157194
1.132892275
1.132621457
1.132429081
1.132266316
1.132301828
1.132553984
1.132902383
1.133264306
1.133686633
1.134030246
1.134447957
1.135059271
1.146885172
1.268559289
1.41148581
1.446759311
1.441136806
1.433395603
1.425003892
1.420652486
1.131015199
1.131395852
1.131752175
1.132152146
1.132384031
1.132479036
1.132564115
1.132681797
1.132633443
1.132358589
1.132198386
1.132314674
1.132473247
1.1324897
1.132538339
1.13283582
1.13309455
1.1330607
1.132726971
1.13239717
1.132379172
1.132563419
1.132868552
1.133093468
1.133225348
1.133422461
1.133647526
1.134158518
1.135097608
1.145150933
1.248064031
1.392591529
1.446124375
1.442403716
1.434916236
1.425943021
1.422634221
1.130738462
1.131607503
1.131890578
1.132483351
1.132978594
1.133067383
1.133067462
1.1330412
1.132998308
1.132881028
1.132717718
1.132803825
1.132904359
1.132966645
1.132874426
1.132680339
1.132674691
1.132902516
1.133107281
1.132968389
1.132822362
1.132955426
1.133189046
1.133402778
1.133474178
1.133580928
1.133703056
1.133804253
1.134095864
1.135075012
1.143420949
1.235424426
1.387768632
1.449548368
1.445445265
1.437650533
1.428395909
1.425079193
1.13143462
1.132357916
1.133115715
1.133891123
1.134438698
1.134626628
1.134566764
1.134349853
1.13409836
1.133961867
1.134108515
1.134268516
1.134296078
1.134143736
1.133902612
1.133619673
1.133355679
1.133225219
1.133094715
1.133098523
1.133445548
1.1337619
1.133977767
1.134143758
1.13433351
1.134503682
1.134661054
1.134613128
1.134669831
1.135289495
1.142158435
1.226538713
1.386169757
1.454171458
1.449770007
1.440969155
1.430516061
1.426508044
1.134176704
1.134597524
1.135310052
1.135987361
1.136716308
1.137399832
1.137392231
1.137098179
1.136741568
1.136599753
1.136749754
1.136845175
1.136754912
1.136419158
1.13605537
1.135713668
1.135127423
1.134629851
1.134242075
1.134215417
1.134447403
1.134775313
1.135111801
1.135420448
1.135667668
1.135857758
1.136002221
1.136173985
1.136248447
1.136304694
1.141992144
1.217581944
1.383276153
1.45898736
1.453953351
1.442781702
1.431342123
1.427283441
1.14029988
1.140413885
1.140793397
1.141117346
1.141575848
1.142093872
1.142296832
1.142068029
1.141629972
1.141263321
1.141119147
1.141072693
1.140831725
1.140402971
1.139905154
1.139328947
1.138534561
1.137858679
1.137395531
1.137446199
1.137581747
1.137600971
1.137503287
1.137469468
1.137617803
1.13792388
1.138368381
1.138755908
1.138869896
1.138943082
1.143271624
1.207027993
1.378393955
1.462808627
1.457284905
1.443807997
1.431357589
1.426902467
1.150984288
1.150750511
1.150517921
1.150388245
1.150519577
1.150613551
1.150606849
1.150317053
1.149812027
1.149366224
1.148861609
1.148394856
1.147828288
1.147102415
1.146264249
1.145394023
1.144395536
1.143779551
1.143812937
1.143791364
1.143665078
1.143247521
1.142668391
1.142243945
1.142039752
1.142031914
1.142283185
1.142802315
1.143350896
1.143357756
1.146779962
1.197162646
1.370632121
1.463501989
1.458220844
1.443176485
1.43017466
1.426890633
1.165680454
1.165304277
1.164829703
1.164359438
1.16375223
1.163459835
1.163213826
1.162753175
1.162123345
1.161454178
1.160690602
1.159708827
1.158596666
1.157353428
1.155969379
1.154638126
1.153733304
1.153517148
1.153519108
1.153343186
1.152907809
1.152298832
1.151560015
1.150561608
1.14976517
1.14953981
1.149637634
1.149867842
1.150153648
1.150324584
1.1528877
1.193436136
1.355693808
1.456685796
1.453974662
1.441301093
1.430628045
1.429178937
1.18348954
1.182792607
1.18200573
1.181399103
1.18084985
1.180126486
1.179515539
1.178796905
1.178006288
1.177222724
1.176178247
1.174675828
1.172915759
1.171024441
1.169056903
1.1675348
1.166849172
1.166523952
1.166377096
1.166069262
1.165396758
1.164427525
1.163312291
1.162507565
1.161796177
1.161106765
1.16074082
1.160644686
1.16053422
1.160103254
1.161955218
1.196000801
1.340582844
1.446865662
1.447978818
1.441778865
1.434228305
1.432164082
1.202521938
1.201555861
1.200617345
1.199974725
1.199367604
1.198694829
1.197880683
1.196893777
1.195984779
1.194998429
1.193761048
1.191923025
1.189674874
1.187304311
1.185246128
1.183758966
1.182839074
1.182221473
1.181606332
1.180918326
1.179982494
1.178768088
1.177685766
1.176881825
1.176314451
1.17590097
1.175442095
1.174837875
1.174135985
1.173009118
1.174191401
1.203120075
1.338862591
1.447079796
1.448112006
1.44499006
1.438991735
1.435656655
1.220491235
1.21933019
1.218260763
1.217531521
1.216962184
1.216501898
1.215705131
1.214674193
1.213645616
1.212519655
1.211153851
1.209341845
1.207075052
1.204769836
1.202703225
1.201114192
1.199981878
1.199115474
1.198256687
1.197193976
1.195722036
1.194148883
1.192897103
1.192254327
1.192048994
1.191831958
1.191597355
1.191165027
1.190235885
1.188177936
1.188914762
1.212421113
1.343925722
1.450821282
1.450480114
1.448800521
1.443208
1.438959456
1.235065519
1.233820331
1.232698912
1.232003881
1.231528236
1.231055669
1.230455661
1.229573604
1.228598444
1.227453389
1.22612494
1.224587936
1.222697491
1.220619191
1.218821106
1.217413733
1.216505202
1.215593061
1.214309637
1.212694289
1.211033312
1.209434489
1.208116481
1.207262114
1.206977017
1.207114667
1.207256262
1.207028916
1.20625226
1.204165899
1.204456091
1.222260714
1.354093071
1.457572298
1.455246852
1.451577903
1.446548779
1.441994273
1.24541158
1.244241157
1.242997365
1.242170973
1.241629891
1.241279973
1.240886899
1.240276459
1.239501792
1.238516435
1.237338793
1.236012236
1.234477372
1.23284996
1.231516396
1.230501363
1.229834483
1.229075129
1.227772633
1.226209776
1.224491921
1.22267082
1.221201893
1.220408105
1.220107543
1.220065562
1.220211333
1.220394936
1.220027215
1.218354535
1.218414301
1.23269158
1.362694204
1.465749852
1.46082451
1.452293289
1.447350444
1.443549405
1.251105879
1.250069348
1.248890111
1.248052493
1.24763011
1.247416362
1.247152938
1.246779498
1.246167022
1.245284283
1.244220726
1.243101925
1.24207541
1.240983494
1.240072754
1.239407452
1.238659345
1.237703936
1.236512209
1.23532909
1.234194255
1.232919829
1.231550604
1.230410239
1.229826189
1.229729985
1.229938424
1.230182275
1.23005497
1.229088852
1.229217587
1.241629994
1.364840732
1.474520657
1.463400444
1.449798073
1.447573144
1.444557706
1.253911068
1.253337941
1.252344332
1.251253804
1.250468088
1.250247838
1.250214283
1.250137304
1.249943812
1.249471633
1.248720641
1.247846625
1.246969289
1.246176718
1.245405219
1.244706235
1.243904129
1.242831573
1.241589356
1.240654014
1.239948773
1.239368258
)
;

boundaryField
{
    inlet
    {
        type            fixedValue;
        value           nonuniform 0();
    }
    outlet
    {
        type            inletOutlet;
        inletValue      uniform 1;
        value           nonuniform List<scalar> 
61
(
1.411689163
1.411788632
1.411241431
1.411380461
1.41250336
1.414232503
1.41513787
1.415262568
1.414827258
1.415233406
1.416711398
1.41879118
1.419833676
1.41986635
1.419354279
1.419541955
1.419928677
1.420792524
1.421634462
1.422097061
1.422319525
1.422496837
1.423149151
1.424739518
1.426555754
1.427142633
1.426803239
1.425604451
1.424585843
1.4246558
1.4251597
1.424596542
1.423019604
1.421440136
1.420665002
1.421179701
1.421363027
1.42024051
1.419150678
1.419032019
1.419574254
1.419842335
1.419815903
1.419741737
1.419196156
1.419093987
1.419706472
1.420912023
1.423226116
1.425271356
1.426539148
1.426896987
1.426289125
1.426892507
1.429503601
1.432484245
1.436012464
1.439148073
1.441958408
1.443050355
1.444606241
)
;
    }
    bottom
    {
        type            slip;
    }
    top
    {
        type            slip;
    }
    obstacle
    {
        type            zeroGradient;
    }
    defaultFaces
    {
        type            empty;
    }
    procBoundary17to11
    {
        type            processor;
        value           nonuniform List<scalar> 
34
(
1.117670152
1.118388164
1.119223151
1.119896233
1.120309473
1.120517454
1.120562615
1.120767938
1.121179895
1.121547961
1.121665371
1.121409862
1.120980393
1.120704518
1.120450466
1.120095512
1.119679434
1.119616618
1.119690268
1.119885307
1.120305139
1.120991117
1.122260514
1.141183271
1.319262946
1.426320159
1.450535686
1.449645512
1.447452272
1.443645373
1.437875254
1.431330822
1.425665108
1.410699903
)
;
    }
    procBoundary17to16
    {
        type            processor;
        value           nonuniform List<scalar> 
66
(
1.117466095
1.11738207
1.117279142
1.117344234
1.117471409
1.117624205
1.117783688
1.117857913
1.117968055
1.117968055
1.117933341
1.118288011
1.118531752
1.118582863
1.118475137
1.118555175
1.118979907
1.119694807
1.120317119
1.120822474
1.121094981
1.121280284
1.121932337
1.122848977
1.122848977
1.12380706
1.124416888
1.124390044
1.124946043
1.126032922
1.127603997
1.128911394
1.129989686
1.130341686
1.130504144
1.131226377
1.132280548
1.133296693
1.133857798
1.133857798
1.132565628
1.132573044
1.132829667
1.133007307
1.132956856
1.132500788
1.131582634
1.130497182
1.129761983
1.12953099
1.129719334
1.130201066
1.130201066
1.129394404
1.130330158
1.133601045
1.140575459
1.151215449
1.16594502
1.184004439
1.203332888
1.221492996
1.236326016
1.246399912
1.251826545
1.251826545
)
;
    }
    procBoundary17to22
    {
        type            processor;
        value           uniform 1.254123288;
    }
    procBoundary17to23
    {
        type            processor;