/*--------------------------------*- C++ -*----------------------------------*\
  =========                 |
  \\      /  F ield         | OpenFOAM: The Open Source CFD Toolbox
   \\    /   O peration     | Website:  https://openfoam.org
    \\  /    A nd           | Version:  7
     \\/     M anipulation  |
\*---------------------------------------------------------------------------*/
FoamFile
{
    version     2.0;
    format      ascii;
    class       volVectorField;
    location    "3.7";
    object      U;
}
// * * * * * * * * * * * * * * * * * * * * * * * * * * * * * * * * * * * * * //

dimensions      [0 1 -1 0 0 0 0];

internalField   nonuniform List<vector> 
555
(
(3 8.513566448e-16 0)
(3 3.17563325e-15 0)
(3 3.1039128e-15 0)
(3 1.121060981e-15 0)
(3 2.641201449e-15 0)
(3 3.971461474e-15 0)
(3 2.401109293e-17 0)
(3 5.51701141e-16 0)
(3 1.232708568e-15 0)
(3 2.002543954e-15 0)
(3 2.421026196e-15 0)
(3 2.904633908e-15 0)
(3 3.618439443e-15 0)
(3 2.819952663e-15 0)
(3 1.930185257e-15 0)
(3 9.587518491e-16 0)
(3 -5.514625285e-16 0)
(3 -6.164587436e-16 0)
(3 2.35988103e-15 0)
(3 4.22391551e-15 0)
(3 4.66598676e-15 0)
(3 2.152612259e-15 0)
(3 2.346394495e-15 0)
(3 2.972886691e-15 0)
(3 4.668374842e-15 0)
(3 5.358527415e-15 0)
(3 6.26523117e-15 0)
(3 7.72209684e-15 0)
(3 5.485209408e-15 0)
(3 4.304611852e-15 0)
(3 4.878916616e-15 0)
(3 3.236757172e-15 0)
(3 3.360513416e-15 0)
(3 1.530148401e-15 0)
(3 1.098857343e-15 0)
(3 -2.726313345e-15 0)
(3 -1.423716097e-15 0)
(3 5.494917396e-15 0)
(3 1.085241089e-14 0)
(3 -5.696828001e-18 0)
(3 9.80694981e-17 0)
(3 2.346186308e-15 0)
(3 3.054608641e-15 0)
(3 2.96581072e-15 0)
(3 2.786143322e-15 0)
(3 3.177028971e-15 0)
(3 4.293261468e-15 0)
(3 2.16398751e-15 0)
(3 8.313625314e-16 0)
(3 -7.566316131e-16 0)
(3 -3.927324903e-15 0)
(3 -3.307536459e-15 0)
(3 -1.381266473e-15 0)
(3 2.482282409e-16 0)
(3 -1.791184029e-16 0)
(3 -5.64950597e-16 0)
(3 -1.123378968e-15 0)
(3 -1.405873468e-15 0)
(3 -2.634299933e-16 0)
(3 2.556965632e-15 0)
(3 7.271395884e-15 0)
(3 7.664527417e-15 0)
(3 7.055864327e-15 0)
(3 6.167401296e-15 0)
(3 4.361842815e-15 0)
(3 -9.168364633e-16 0)
(3 -3.47413454e-15 0)
(3 -3.672299637e-15 0)
(3 -5.926442377e-15 0)
(3 -4.664841124e-15 0)
(3 -1.459450157e-15 0)
(3 3.64323532e-15 0)
(3 -8.167265867e-17 0)
(3 -5.391618205e-16 0)
(3 -6.385960152e-16 0)
(3 2.916135132e-16 0)
(3 1.73228854e-15 0)
(3 3.441251971e-15 0)
(3 3.331487354e-15 0)
(3 1.809377798e-15 0)
(3 6.536635991e-16 0)
(3 7.059678253e-16 0)
(3 2.001187947e-15 0)
(3 2.1370971e-15 0)
(3 7.505387996e-16 0)
(3 -4.742548375e-16 0)
(3 1.913693034e-15 0)
(3 4.449216663e-15 0)
(3 3.102613044e-15 0)
(3 2.120269694e-15 0)
(3 1.33734325e-15 0)
(3 1.817527679e-15 0)
(3 1.956685801e-15 0)
(3 -5.533378958e-16 0)
(3 7.305125472e-16 0)
(3 -5.019245085e-16 0)
(3 -2.019458267e-15 0)
(3 -2.905598858e-15 0)
(3 -2.652134374e-15 0)
(3 -5.948121886e-15 0)
(3 -6.758456622e-15 0)
(3 -7.085072712e-15 0)
(3 -7.042805526e-15 0)
(3 -4.879267997e-15 0)
(3 -1.095138249e-15 0)
(3 -5.670033974e-16 0)
(3 1.749136102e-16 0)
(3 -2.729120068e-16 0)
(3 5.866557e-16 0)
(3 2.13025675e-15 0)
(3 4.787178989e-15 0)
(3 3.389938248e-15 0)
(3 9.840077423e-16 0)
(3 1.640573494e-16 0)
(3 7.49758174e-16 0)
(3 -7.833577577e-16 0)
(3 -6.409703066e-16 0)
(3 3.957347393e-16 0)
(3 5.271335573e-16 0)
(3 1.267799922e-15 0)
(3 3.390225103e-15 0)
(3 5.35470918e-15 0)
(3 7.938325914e-15 0)
(3 9.32998337e-15 0)
(3 9.75712343e-15 0)
(3 8.256644717e-15 0)
(3 7.548738755e-15 0)
(3 5.287963636e-15 0)
(3 5.27837129e-15 0)
(3 1.396760416e-15 0)
(3 -1.729626289e-15 0)
(3 -3.178143591e-15 0)
(3 -4.336582094e-15 0)
(3 -5.781704455e-15 0)
(3 -7.424779919e-15 0)
(3 -8.768159614e-15 0)
(3 -8.461050125e-15 0)
(3 -8.032415152e-15 0)
(3 -2.994807109e-17 0)
(3 -1.463310724e-16 0)
(3 -5.70595365e-16 0)
(3 5.637768734e-16 0)
(3 5.24401478e-16 0)
(3 9.331606339e-16 0)
(3 -5.412658828e-16 0)
(3 -3.060745921e-16 0)
(3 -1.423001896e-15 0)
(3 -2.912419668e-15 0)
(3 -5.839797903e-15 0)
(3 -8.210883558e-15 0)
(3 -8.017715474e-15 0)
(3 -8.420555108e-15 0)
(3 -7.721114791e-15 0)
(3 -6.451994299e-15 0)
(3 -1.855373343e-15 0)
(3 3.017819381e-15 0)
(3 1.067580033e-14 0)
(3 1.073299814e-14 0)
(3 8.579809426e-15 0)
(3 5.182023938e-15 0)
(3 2.374884755e-15 0)
(3 1.755080605e-15 0)
(3 1.14416149e-15 0)
(3 1.559199261e-15 0)
(3 -7.532802867e-16 0)
(3 6.048160084e-16 0)
(3 3.67677168e-16 0)
(3 -2.508745561e-15 0)
(3 -3.6199869e-15 0)
(3 -7.409043743e-15 0)
(3 -1.288976843e-14 0)
(3 -1.346666229e-16 0)
(3 -1.02012618e-15 0)
(3 -1.613821069e-15 0)
(3 -2.736170051e-15 0)
(3 -2.612679695e-15 0)
(3 -6.547764973e-15 0)
(3 -5.509395118e-15 0)
(3 -2.595709942e-15 0)
(3 -1.529413472e-15 0)
(3 -1.278317138e-15 0)
(3 -1.733095341e-15 0)
(3 -2.885047735e-15 0)
(3 -5.027498941e-15 0)
(3 -7.833352718e-15 0)
(3 -7.710201643e-15 0)
(3 -7.574164685e-15 0)
(3 -6.472310164e-15 0)
(3 -6.757558906e-15 0)
(3 -4.778974646e-15 0)
(3 -3.071621463e-15 0)
(3 -3.079158526e-15 0)
(3 -5.071193273e-15 0)
(3 -5.435610382e-15 0)
(3 -3.831399752e-15 0)
(3 -9.001988838e-16 0)
(3 3.89936809e-15 0)
(3 6.159103032e-15 0)
(3 6.891412975e-15 0)
(3 6.080674254e-15 0)
(3 4.127369376e-15 0)
(3 3.675165298e-15 0)
(3 1.504308696e-15 0)
(3 -2.866666888e-15 0)
(3 -1.709885039e-15 0)
(3 -1.93257765e-15 0)
(3 -7.363882078e-16 0)
(3 -1.832507736e-15 0)
(3 -2.485627051e-15 0)
(3 -3.440314382e-15 0)
(3 -2.69384299e-15 0)
(3 -2.210336875e-15 0)
(3 -8.633961977e-16 0)
(3 1.890200979e-15 0)
(3 1.809403427e-15 0)
(3 8.968141382e-16 0)
(3 1.439384605e-15 0)
(3 6.742466427e-16 0)
(3 -9.909895527e-16 0)
(3 -3.37785237e-15 0)
(3 -5.052339043e-15 0)
(3 -1.054385027e-14 0)
(3 -1.445630256e-14 0)
(3 -1.323157769e-14 0)
(3 -1.038823351e-14 0)
(3 -7.032886643e-15 0)
(3 -4.219554632e-15 0)
(3 -1.628981454e-15 0)
(3 -7.955401692e-16 0)
(3 7.738262672e-16 0)
(3 2.692404531e-15 0)
(3 2.756064282e-15 0)
(3 1.923191859e-15 0)
(3 9.051869795e-16 0)
(3 8.674585285e-16 0)
(3 1.862903532e-15 0)
(3 9.936509029e-16 0)
(3 -7.889151828e-17 0)
(3 -4.406860317e-16 0)
(3 -7.132469372e-16 0)
(3 2.591132318e-16 0)
(3 -3.157747869e-16 0)
(3 1.816583222e-15 0)
(3 1.068460498e-15 0)
(3 1.33478201e-16 0)
(3 1.382086513e-15 0)
(3 1.364672702e-15 0)
(3 1.188965122e-15 0)
(3 1.435829435e-15 0)
(3 1.885167003e-15 0)
(3 1.635871656e-15 0)
(3 2.783346678e-16 0)
(3 -2.610305091e-15 0)
(3 -7.49171201e-15 0)
(3 -1.052500814e-14 0)
(3 -1.271596522e-14 0)
(3 -1.218591372e-14 0)
(3 -9.61597546e-15 0)
(3 -4.706898298e-15 0)
(3 -3.982831322e-15 0)
(3 -4.692030557e-15 0)
(3 -6.801397873e-15 0)
(3 -8.804512306e-15 0)
(3 -8.01902248e-15 0)
(3 -7.55121214e-15 0)
(3 -6.810280352e-15 0)
(3 -5.570083392e-15 0)
(3 -3.35035642e-15 0)
(3 3.727426681e-16 0)
(3 2.122124706e-15 0)
(3 4.909795881e-16 0)
(3 -8.267329495e-16 0)
(3 -2.01277011e-15 0)
(3 -1.415271968e-15 0)
(3 -1.767795896e-16 0)
(3 9.908752231e-16 0)
(3 5.198348256e-16 0)
(3 -2.801313071e-16 0)
(3 1.172981677e-15 0)
(3 3.134654804e-16 0)
(3 1.096744557e-15 0)
(3 -5.435944542e-16 0)
(3 -2.254672526e-15 0)
(3 -1.715667044e-15 0)
(3 -1.453244766e-15 0)
(3 -3.058698883e-15 0)
(3 -3.550648301e-15 0)
(3 -5.327218405e-15 0)
(3 -6.996943946e-15 0)
(3 -1.066367215e-14 0)
(3 -1.625005856e-14 0)
(3 -1.721405458e-14 0)
(3 -2.23813388e-14 0)
(3 -2.287163252e-14 0)
(3 -2.075206919e-14 0)
(3 -2.114017496e-14 0)
(3 -1.856101646e-14 0)
(3 -1.445115955e-14 0)
(3 -8.03174302e-15 0)
(3 -3.189240944e-15 0)
(3 -6.909189219e-16 0)
(3 1.090942557e-15 0)
(3 4.089845853e-16 0)
(3 7.075405438e-16 0)
(3 8.45506055e-16 0)
(3 -2.53964633e-17 0)
(3 -3.187618406e-15 0)
(3 -4.181668503e-15 0)
(3 -5.337259263e-15 0)
(3 -3.35556459e-15 0)
(3 -2.250768699e-15 0)
(3 -3.328755445e-15 0)
(3 -3.518428559e-15 0)
(3 -2.124017959e-15 0)
(3 -2.308225124e-15 0)
(3 -1.836841994e-15 0)
(3 -8.230999854e-16 0)
(3 -5.645861461e-16 0)
(3 6.392341104e-18 0)
(3 -2.53748552e-15 0)
(3 -3.110657094e-15 0)
(3 -3.096230002e-15 0)
(3 -7.998437924e-15 0)
(3 -1.191348645e-14 0)
(3 -1.984370589e-14 0)
(3 -1.853351773e-14 0)
(3 -1.734009895e-14 0)
(3 -1.341236674e-14 0)
(3 -1.065673855e-14 0)
(3 -1.001415746e-14 0)
(3 -8.975743405e-15 0)
(3 -7.07882978e-15 0)
(3 -5.868314319e-15 0)
(3 -3.144016116e-15 0)
(3 -9.619251886e-16 0)
(3 -1.382016607e-16 0)
(3 1.882604883e-15 0)
(3 1.929258094e-15 0)
(3 1.11054291e-15 0)
(3 5.101319959e-17 0)
(3 -2.236655009e-15 0)
(3 -2.721858604e-15 0)
(3 -2.444082127e-15 0)
(3 -2.756180789e-15 0)
(3 -3.191324384e-15 0)
(3 -2.266829925e-15 0)
(3 -1.411464236e-15 0)
(3 2.373174313e-15 0)
(3 4.196161961e-15 0)
(3 3.334664582e-15 0)
(3 1.689739749e-15 0)
(3 9.910227947e-16 0)
(3 9.94125858e-16 0)
(3 6.647005639e-16 0)
(3 2.02059824e-15 0)
(3 1.431263549e-15 0)
(3 4.390134373e-16 0)
(3 -3.669176903e-15 0)
(3 -3.984098788e-15 0)
(3 4.170979621e-16 0)
(3 1.855941759e-15 0)
(3 6.073869757e-15 0)
(3 5.87818174e-15 0)
(3 2.362910139e-15 0)
(3 1.990317304e-16 0)
(3 -1.40980667e-15 0)
(3 -2.981649623e-15 0)
(3 -1.676802039e-15 0)
(3 1.684869913e-15 0)
(3 6.939654503e-16 0)
(3 -1.298469465e-15 0)
(3 -2.224058202e-15 0)
(3 -6.024993874e-16 0)
(3 -3.943304688e-17 0)
(3 -1.010370393e-16 0)
(3 -4.552606657e-16 0)
(3 9.176307196e-16 0)
(3 1.634876032e-15 0)
(3 7.918421364e-16 0)
(3 -1.153633527e-15 0)
(3 2.053309581e-15 0)
(3 1.045171905e-15 0)
(3 7.323238602e-16 0)
(3 1.422504637e-15 0)
(3 2.795714536e-15 0)
(3 7.539863469e-15 0)
(3 9.371029891e-15 0)
(3 1.193816611e-14 0)
(3 1.277143989e-14 0)
(3 1.084189291e-14 0)
(3 1.191196247e-14 0)
(3 1.188715638e-14 0)
(3 1.206150298e-14 0)
(3 1.199636819e-14 0)
(3 9.589619886e-15 0)
(3 1.038060007e-14 0)
(3 8.069408171e-15 0)
(3 5.858895674e-15 0)
(3 1.013270503e-15 0)
(3 1.350324344e-15 0)
(3 9.067622383e-16 0)
(3 1.839443984e-15 0)
(3 7.159248658e-17 0)
(3 -6.397297288e-16 0)
(3 -1.409554046e-15 0)
(3 -2.774481787e-15 0)
(3 -3.860474454e-16 0)
(3 -2.194229263e-15 0)
(3 -5.679988956e-16 0)
(3 -3.266842094e-16 0)
(3 -1.404989951e-15 0)
(3 -1.878229866e-15 0)
(3 -4.467074995e-15 0)
(3 -4.615838491e-15 0)
(3 -4.166797736e-15 0)
(3 -2.709187641e-15 0)
(3 6.155395792e-16 0)
(3 4.85364252e-15 0)
(3 5.406986434e-15 0)
(3 7.741963118e-15 0)
(3 7.694754873e-15 0)
(3 9.483252142e-15 0)
(3 9.870233718e-15 0)
(3 1.398267375e-14 0)
(3 1.633521818e-14 0)
(3 1.483525115e-14 0)
(3 1.035137522e-14 0)
(3 5.390046917e-15 0)
(3 5.41623302e-15 0)
(3 8.018587032e-15 0)
(3 1.265795104e-14 0)
(3 1.499161718e-14 0)
(3 1.448418042e-14 0)
(3 1.349871168e-14 0)
(3 1.270232452e-14 0)
(3 -3.281281159e-17 0)
(3 -7.693580348e-16 0)
(3 -1.287523886e-15 0)
(3 -2.187617034e-15 0)
(3 -2.170998573e-18 0)
(3 -4.108904255e-16 0)
(3 -1.828224904e-15 0)
(3 -6.448800731e-15 0)
(3 -7.532429402e-15 0)
(3 -5.596215672e-15 0)
(3 -6.543918176e-15 0)
(3 -1.061882189e-14 0)
(3 -9.549467424e-15 0)
(3 -1.136548754e-14 0)
(3 -9.140625739e-15 0)
(3 -5.566876314e-15 0)
(3 -7.009519238e-15 0)
(3 -6.49691869e-15 0)
(3 -8.096461326e-15 0)
(3 -4.580136923e-15 0)
(3 -5.120264481e-16 0)
(3 2.20875058e-16 0)
(3 4.553990737e-16 0)
(3 1.170352012e-15 0)
(3 1.361694772e-15 0)
(3 1.868206879e-15 0)
(3 2.356778782e-15 0)
(3 2.616080418e-15 0)
(3 2.405015979e-15 0)
(3 3.83339305e-15 0)
(3 1.498141668e-15 0)
(3 2.94008244e-15 0)
(3 5.414464345e-15 0)
(3 -8.783918129e-16 0)
(3 3.244430563e-16 0)
(3 3.653209109e-17 0)
(3 -3.600084815e-16 0)
(3 -2.460705406e-16 0)
(3 1.547389475e-15 0)
(3 1.370567184e-15 0)
(3 -4.158233968e-16 0)
(3 -3.633586839e-16 0)
(3 -1.411242011e-15 0)
(3 -1.854402808e-15 0)
(3 -4.050178414e-15 0)
(3 -7.641975909e-15 0)
(3 -1.153502011e-14 0)
(3 -1.613902815e-14 0)
(3 -1.587427935e-14 0)
(3 -1.749535735e-14 0)
(3 -1.752798887e-14 0)
(3 -1.727609807e-14 0)
(3 -1.212592166e-14 0)
(3 -7.807057602e-15 0)
(3 -6.773892082e-15 0)
(3 -6.472142278e-15 0)
(3 -4.500014033e-15 0)
(3 -1.924122457e-15 0)
(3 1.7626857e-15 0)
(3 2.044419382e-15 0)
(3 2.299767883e-15 0)
(3 -7.682690444e-16 0)
(3 -9.432523345e-16 0)
(3 -1.065888895e-15 0)
(3 -6.297119418e-16 0)
(3 -8.499479881e-16 0)
(3 1.347194433e-16 0)
(3 1.488427194e-15 0)
(3 3.313767097e-15 0)
(3 3.322036196e-15 0)
(3 1.047821138e-15 0)
(3 1.987984721e-15 0)
(3 3.073459179e-15 0)
(3 4.947175407e-15 0)
(3 6.328387642e-15 0)
(3 5.375274065e-15 0)
(3 5.183085665e-15 0)
(3 3.681584109e-15 0)
(3 3.436132995e-15 0)
(3 1.762758351e-15 0)
(3 -4.348932562e-15 0)
(3 -6.674681777e-15 0)
(3 -6.564152143e-15 0)
(3 -7.55576251e-15 0)
(3 -8.690660616e-15 0)
(3 -7.829854596e-15 0)
(3 -6.309178551e-15 0)
(3 -1.943010252e-15 0)
(3 -1.950250596e-15 0)
(3 -3.007187619e-15 0)
(3 -1.023089773e-15 0)
(3 -2.891812141e-15 0)
(3 -8.743894973e-16 0)
(3 2.616897372e-15 0)
(3 1.647029164e-15 0)
(3 7.93814089e-16 0)
(3 3.386321082e-15 0)
(3 1.943234312e-15 0)
(3 -4.920005259e-16 0)
(3 3.903918784e-16 0)
(3 1.763076385e-17 0)
(3 8.592692399e-16 0)
(3 1.823049496e-15 0)
(3 -1.218311723e-15 0)
(3 -4.132978248e-15 0)
(3 -3.997580897e-15 0)
(3 -1.965762604e-15 0)
(3 3.60707911e-16 0)
(3 3.701759029e-16 0)
(3 2.769284441e-16 0)
(3 1.042397725e-15 0)
(3 3.452173251e-15 0)
(3 4.118076061e-15 0)
(3 -1.484314248e-16 0)
(3 -2.781317938e-15 0)
(3 2.714550095e-16 0)
(3 1.98307449e-15 0)
(3 2.198782305e-15 0)
(3 9.647870574e-16 0)
(3 6.182413567e-16 0)
)
;

boundaryField
{
    inlet
    {
        type            fixedValue;
        value           uniform (3 0 0);
    }
    outlet
    {
        type            inletOutlet;
        inletValue      nonuniform 0();
        value           nonuniform 0();
    }
    bottom
    {
        type            slip;
    }
    top
    {
        type            slip;
    }
    obstacle
    {
        type            slip;
    }
    defaultFaces
    {
        type            empty;
    }
    procBoundary6to0
    {
        type            processor;
        value           nonuniform List<vector> 
34
(
(3 -7.133370142e-15 0)
(3 -4.215366646e-15 0)
(3 -1.947635685e-15 0)
(3 -3.691771645e-16 0)
(3 2.52301313e-15 0)
(3 3.322257306e-15 0)
(3 3.826261966e-16 0)
(3 2.114008955e-15 0)
(3 2.642028346e-15 0)
(3 2.757294964e-15 0)
(3 3.004837068e-15 0)
(3 1.7593069e-15 0)
(3 5.402441311e-16 0)
(3 -3.356114523e-15 0)
(3 -2.720795081e-15 0)
(3 -1.276703622e-15 0)
(3 1.514002974e-15 0)
(3 3.805520409e-15 0)
(3 3.909865946e-15 0)
(3 3.161960299e-15 0)
(3 2.139692398e-15 0)
(3 2.298048611e-15 0)
(3 3.160381241e-15 0)
(3 4.246545524e-15 0)
(3 5.284011338e-15 0)
(3 3.584102969e-15 0)
(3 1.543250795e-15 0)
(3 -1.117933284e-15 0)
(3 -3.577038834e-15 0)
(3 -5.249821664e-15 0)
(3 -4.382726717e-15 0)
(3 -1.36678012e-15 0)
(3 -8.674945169e-16 0)
(3 -8.674945169e-16 0)
)
;
    }
    procBoundary6to1
    {
        type            processor;
        value           uniform (3 6.602557868e-15 0);
    }
    procBoundary6to7
    {
        type            processor;
        value           nonuniform List<vector> 
16
(
(3 9.447296787e-15 0)
(3 4.31354662e-15 0)
(3 4.328070064e-15 0)
(3 -5.68222958e-15 0)
(3 -1.217703539e-14 0)
(3 -7.360078306e-15 0)
(3 -1.766556164e-15 0)
(3 5.137414305e-15 0)
(3 -2.294639367e-16 0)
(3 1.190374397e-15 0)
(3 5.544180514e-15 0)
(3 5.418876974e-15 0)
(3 1.007785202e-14 0)
(3 6.352586313e-15 0)
(3 1.687892998e-15 0)
(3 -1.8528887e-15 0)
)
;
    }
    procBoundary6to12
    {
        type            processor;
        value           nonuniform List<vector> 
34
(
(3 -2.170133226e-15 0)
(3 -6.385896588e-16 0)
(3 -1.757177658e-15 0)
(3 -3.056328934e-15 0)
(3 -3.222505546e-15 0)
(3 -2.498309137e-15 0)
(3 -1.681560623e-15 0)
(3 -1.901549706e-15 0)
(3 -2.838353024e-15 0)
(3 -6.457353224e-15 0)
(3 -9.362753539e-15 0)
(3 -1.097612317e-14 0)
(3 -1.562002789e-15 0)
(3 -4.622144952e-15 0)
(3 -3.855628378e-15 0)
(3 -2.71686862e-15 0)
(3 -5.703842803e-15 0)
(3 -6.392949142e-15 0)
(3 -5.236155493e-15 0)
(3 -4.426783045e-15 0)
(3 -7.313395587e-15 0)
(3 -7.611448593e-15 0)
(3 -6.749886185e-15 0)
(3 -4.72759672e-15 0)
(3 -2.905409905e-15 0)
(3 1.166261016e-16 0)
(3 1.267715268e-15 0)
(3 5.224327598e-15 0)
(3 6.496976812e-15 0)
(3 9.454487788e-15 0)
(3 1.020625517e-14 0)
(3 5.456189423e-15 0)
(3 -2.170133226e-15 0)
(3 2.800050258e-15 0)
)
;
    }
}


// ************************************************************************* //
