/*--------------------------------*- C++ -*----------------------------------*\
  =========                 |
  \\      /  F ield         | OpenFOAM: The Open Source CFD Toolbox
   \\    /   O peration     | Website:  https://openfoam.org
    \\  /    A nd           | Version:  7
     \\/     M anipulation  |
\*---------------------------------------------------------------------------*/
FoamFile
{
    version     2.0;
    format      ascii;
    class       volVectorField;
    location    "0.1";
    object      U;
}
// * * * * * * * * * * * * * * * * * * * * * * * * * * * * * * * * * * * * * //

dimensions      [0 1 -1 0 0 0 0];

internalField   nonuniform List<vector> 
800
(
(3 2.99335485e-17 0)
(3 3.250843329e-17 0)
(3 4.568610689e-17 0)
(3 -1.045789871e-16 0)
(3 -5.479928073e-17 0)
(3 5.382924099e-16 0)
(3 4.660216808e-16 0)
(3 3.762142432e-16 0)
(3 5.666104727e-16 0)
(3 -3.853378261e-17 0)
(3 3.963422196e-16 0)
(3 3.602549917e-16 0)
(3 -3.616131458e-17 0)
(3 -1.810248371e-18 0)
(3 2.68375862e-16 0)
(3 -4.296002988e-16 0)
(3 -1.055047355e-15 0)
(3 -5.589038693e-16 0)
(3 1.243970059e-16 0)
(3 5.560824027e-16 0)
(3 8.781782598e-17 0)
(3 6.852716694e-17 0)
(3 6.164928105e-16 0)
(3 1.119656418e-15 0)
(3 7.307539418e-16 0)
(3 -3.124838997e-16 0)
(3 -8.044397752e-16 0)
(3 -2.739235874e-16 0)
(3 4.045659228e-16 0)
(3 7.942487831e-16 0)
(3 4.423155331e-16 0)
(3 3.563453809e-16 0)
(3 7.632053854e-16 0)
(3 1.000806167e-15 0)
(3 7.484836465e-16 0)
(3 1.384024409e-15 0)
(3 1.022809813e-15 0)
(3 6.041832963e-17 0)
(3 3.12860455e-16 0)
(3 6.695480609e-17 0)
(3 2.618043405e-16 0)
(3 3.397084068e-16 0)
(3 -3.929621064e-16 0)
(3 -7.025750639e-16 0)
(3 -2.602539602e-16 0)
(3 2.281206152e-16 0)
(3 -2.068146745e-16 0)
(3 -5.964389828e-16 0)
(3 -2.710087625e-16 0)
(3 -3.238482327e-16 0)
(3 -9.742682976e-16 0)
(3 5.599008603e-17 0)
(3 2.348267215e-17 0)
(3 -6.241133256e-16 0)
(3 -5.395687558e-16 0)
(3 -1.533222698e-15 0)
(3 -4.68554304e-16 0)
(3 1.028090394e-16 0)
(3 9.404342381e-17 0)
(3 -7.396612796e-16 0)
(3 4.062406599e-16 0)
(3 1.366965164e-15 0)
(3 1.688977772e-15 0)
(3 1.151466744e-15 0)
(3 2.076026374e-16 0)
(3 -1.550145043e-16 0)
(3 -4.199760227e-16 0)
(3 1.103822974e-16 0)
(3 -3.721024849e-16 0)
(3 -1.302510318e-15 0)
(3 2.799984568e-16 0)
(3 -1.088328935e-16 0)
(3 -1.910267922e-16 0)
(3 8.279018667e-16 0)
(3 8.693436138e-16 0)
(3 1.363519622e-15 0)
(3 8.322626674e-16 0)
(3 -2.790141301e-17 0)
(3 -3.865590354e-17 0)
(3 2.420977831e-16 0)
(3 2.732410345e-17 0)
(3 -6.623087181e-16 0)
(3 -8.610964868e-16 0)
(3 -2.173030697e-16 0)
(3 5.368171177e-16 0)
(3 5.54488459e-16 0)
(3 1.301846968e-15 0)
(3 4.279376618e-16 0)
(3 6.837743305e-16 0)
(3 6.024004176e-16 0)
(3 -4.473610169e-16 0)
(3 -1.710968937e-16 0)
(3 -1.430926048e-16 0)
(3 -8.771426189e-16 0)
(3 -7.946504593e-16 0)
(3 -2.910921906e-16 0)
(3 9.832032469e-17 0)
(3 1.053394061e-16 0)
(3 9.670610948e-17 0)
(3 3.183740003e-16 0)
(3 -2.852734657e-16 0)
(3 4.696004453e-17 0)
(3 4.703096033e-17 0)
(3 1.31956245e-16 0)
(3 1.912079123e-16 0)
(3 6.544722756e-17 0)
(3 1.259175288e-16 0)
(3 1.841835704e-16 0)
(3 1.577873063e-15 0)
(3 -4.405728828e-14 0)
(3 2.494036761e-16 0)
(3 -1.349054676e-16 0)
(3 5.390683006e-16 0)
(3 4.594971862e-15 0)
(3 1.603683873e-14 0)
(3 2.960163816e-14 0)
(3 2.038057814e-13 0)
(3 3.06964741e-13 0)
(3 3.225003118e-13 0)
(3 -1.702695014e-13 0)
(3 1.141997687e-15 0)
(3 1.087238084e-15 0)
(3 2.016054593e-13 0)
(3 5.173149986e-13 0)
(3 1.921507316e-12 0)
(3 4.945298943e-12 0)
(3 1.319223001e-11 0)
(3 1.060526399e-11 0)
(3 5.656637495e-12 0)
(3 1.378227778e-10 0)
(3 6.264198978e-15 0)
(3 1.25164675e-12 0)
(3 9.230063795e-12 0)
(3 1.211633362e-11 0)
(3 3.667529206e-11 0)
(3 9.839045622e-11 0)
(3 8.367604911e-11 0)
(3 6.362458105e-11 0)
(3 1.626703405e-11 0)
(3.000000004 8.02770302e-09 0)
(3 9.760804326e-12 0)
(3 8.953141753e-11 0)
(3 6.762396617e-11 0)
(3 1.024134074e-10 0)
(3 1.618928722e-10 0)
(3 3.70290155e-10 0)
(3 -6.301016853e-10 0)
(2.999999999 7.50174057e-10 0)
(2.999999994 -2.276141836e-08 0)
(3.000000018 3.039987489e-08 0)
(3 4.630298618e-10 0)
(3 5.332962142e-10 0)
(3 -6.73538144e-11 0)
(3 -7.720159963e-10 0)
(2.999999988 -1.262382816e-08 0)
(2.999999865 -1.914471852e-07 0)
(2.999999285 -1.273558236e-06 0)
(2.999997802 -4.448080407e-06 0)
(2.999995103 -1.926481408e-05 0)
(2.999997528 -5.795843319e-06 0)
(3.000000002 2.596070496e-09 0)
(2.999999964 -4.178571519e-08 0)
(2.999999413 -9.056561308e-07 0)
(2.999995933 -7.038746569e-06 0)
(2.999981501 -3.416797138e-05 0)
(2.999936265 -0.0001268129714 0)
(2.999837035 -0.0003712979398 0)
(2.999689417 -0.0008465691968 0)
(2.999576814 -0.001863316493 0)
(2.999638284 -0.00197437217 0)
(2.999991418 -1.384139186e-05 0)
(2.99994469 -9.359012966e-05 0)
(2.999772536 -0.0004143167994 0)
(2.999349612 -0.0012882849 0)
(2.998528489 -0.003134029713 0)
(2.997124142 -0.006621768994 0)
(2.995498746 -0.01193483214 0)
(2.994416346 -0.01929741823 0)
(2.995322268 -0.02533576519 0)
(2.995989109 -0.03260500876 0)
(2.998566331 -0.002251101957 0)
(2.995365436 -0.007796617928 0)
(2.989856546 -0.01856715901 0)
(2.98212769 -0.03552815558 0)
(2.973477319 -0.05639342279 0)
(2.964389234 -0.08119544091 0)
(2.956880253 -0.109402351 0)
(2.954165499 -0.1373481644 0)
(2.955779826 -0.1590086018 0)
(2.964766873 -0.179524338 0)
(2.987346579 -0.002198812601 0)
(2.973638908 -0.0071180791 0)
(2.959725923 -0.01803121411 0)
(2.946355421 -0.03132176061 0)
(2.93446185 -0.04225016605 0)
(2.926146873 -0.05681885891 0)
(2.923497876 -0.07775084607 0)
(2.928741948 -0.09591207928 0)
(2.936125004 -0.1098854922 0)
(2.952059626 -0.1193658786 0)
(3 2.557840676e-13 0)
(3 3.030013246e-12 0)
(3 3.64840765e-12 0)
(3 8.134988463e-13 0)
(3 5.15191465e-14 0)
(3 -2.05054895e-15 0)
(3 -8.078426563e-15 0)
(3 -6.164898357e-15 0)
(3 -1.883125012e-15 0)
(3 1.054262534e-15 0)
(3 4.100318295e-11 0)
(3 8.821376803e-11 0)
(3 2.786039335e-11 0)
(3 2.22021973e-12 0)
(3 -7.943755615e-12 0)
(3 -1.977037772e-11 0)
(3 -1.4420741e-11 0)
(3 -2.093627316e-12 0)
(3 -3.57965528e-14 0)
(3 2.806222065e-15 0)
(3 8.582396234e-10 0)
(3 3.434812039e-10 0)
(3 -1.225529065e-10 0)
(2.999999999 -5.271063756e-09 0)
(2.999999998 -1.294715499e-08 0)
(3 -8.872625459e-09 0)
(3.000000001 -1.472639963e-09 0)
(3 -3.589026078e-11 0)
(3 -9.467886371e-14 0)
(3 -2.574229907e-15 0)
(3.000000001 4.122916537e-09 0)
(2.999999995 -1.835147944e-08 0)
(2.999999932 -3.30687394e-07 0)
(2.999999854 -1.703024833e-06 0)
(2.999999995 -1.4263988e-06 0)
(3.000000107 -3.053356089e-07 0)
(3.00000001 -1.128713045e-08 0)
(3 -6.319778959e-11 0)
(3 -4.293015506e-14 0)
(3 -1.890492117e-15 0)
(2.999999803 -5.929264465e-07 0)
(2.99999742 -1.040634732e-05 0)
(2.999995235 -4.511221401e-05 0)
(3.000007501 -5.341354387e-05 0)
(3.000005914 -1.539693783e-05 0)
(3.000000839 -9.964726865e-07 0)
(3.000000019 -1.250485855e-08 0)
(3 2.255020039e-12 0)
(3 6.54644249e-13 0)
(3 5.205430476e-14 0)
(2.999944541 -0.0001844130571 0)
(2.999906771 -0.0007044970729 0)
(3.000112686 -0.0008086684012 0)
(3.000098636 -0.0002477073392 0)
(3.000022987 -1.941029818e-05 0)
(3.0000012 3.161089854e-06 0)
(3.000000075 8.146353197e-07 0)
(2.999999985 3.474561666e-08 0)
(3 2.574191837e-10 0)
(3 2.578607321e-13 0)
(2.998989618 -0.007460440352 0)
(3.001128403 -0.007942442347 0)
(3.001139514 -0.002878843067 0)
(3.000438877 0.0003744372297 0)
(3.000082527 0.0009551685872 0)
(2.999986084 0.0005695204865 0)
(2.9999729 0.0001008136992 0)
(2.999998071 3.190960871e-06 0)
(2.999999989 1.157703716e-08 0)
(3 2.992355717e-12 0)
(3.008180136 -0.04303641411 0)
(3.009101859 -0.02102930799 0)
(3.00616174 0.007426335698 0)
(3.001547235 0.01989512578 0)
(3.000064257 0.01759266855 0)
(2.998260847 0.008080005494 0)
(2.999307149 0.001251803345 0)
(2.999959719 4.316929878e-05 0)
(2.999999731 2.089341489e-07 0)
(3 8.321950867e-11 0)
(3.002886138 -0.1343475284 0)
(3.037519289 -0.01523693662 0)
(3.013264327 0.07775219951 0)
(2.999201341 0.08365223619 0)
(2.988666644 0.05822876062 0)
(2.987794193 0.02096654158 0)
(2.996784236 0.003111056199 0)
(2.99981532 0.000128513988 0)
(2.999998467 8.895557725e-07 0)
(2.999999999 5.991787299e-10 0)
(3.02351992 -0.03027639349 0)
(3.121325633 0.186442107 0)
(3.022608787 0.2068753458 0)
(2.993913352 0.149176922 0)
(2.966968879 0.06740259615 0)
(2.97734873 0.01704438298 0)
(2.994801946 0.002335193497 0)
(2.999685023 0.000132718848 0)
(2.999996564 1.720373547e-06 0)
(2.999999996 3.676830985e-09 0)
(3.0521653 0.3348505947 0)
(3.119244165 0.2651262319 0)
(3.079766612 0.1728761114 0)
(2.995680813 0.07381988124 0)
(2.965150206 0.0160283551 0)
(2.976478213 0.002602529354 0)
(2.994926623 0.0008719242767 0)
(2.999718339 0.0002141928987 0)
(2.999996518 5.251858238e-06 0)
(2.999999993 2.113669496e-08 0)
(3.060573241 0.3496455257 0)
(3.102327238 0.2478528713 0)
(3.06250922 0.1260824255 0)
(2.984587377 0.05294552087 0)
(2.966197159 0.01033806808 0)
(2.981782029 0.002321510885 0)
(2.995722727 0.0006811925891 0)
(2.999739761 0.0001502357506 0)
(2.999996352 3.820892926e-06 0)
(2.999999993 5.22140398e-08 0)
(3.062499941 0.3295174992 0)
(3.086085974 0.2276905869 0)
(3.01708059 0.08532145026 0)
(2.96260782 0.04006078924 0)
(2.964590343 0.006804503004 0)
(2.9846206 0.00246368115 0)
(2.996699439 0.0007958538009 0)
(2.999778258 0.000126615114 0)
(2.999996422 3.048773927e-06 0)
(2.999999985 4.335344529e-08 0)
(3.050553945 0.3023066924 0)
(3.066788686 0.1904584707 0)
(3.000537713 0.06060302873 0)
(2.956393942 0.03517851523 0)
(2.966660122 0.004992722509 0)
(2.985889861 0.001961818489 0)
(2.997271119 0.0007306887974 0)
(2.999809634 9.487161972e-05 0)
(2.999996727 2.507886756e-06 0)
(2.999999989 3.888448795e-08 0)
(3.031399117 0.2730033942 0)
(3.056932241 0.1597310235 0)
(2.995297665 0.03584668769 0)
(2.95592362 0.02422413399 0)
(2.970561604 0.00469125574 0)
(2.987442727 0.001743876922 0)
(2.997574766 0.0006053779383 0)
(2.999830916 6.604090817e-05 0)
(2.999997097 2.25726051e-06 0)
(2.999999993 4.090209055e-08 0)
(2.99455245 0.2355227127 0)
(3.043599251 0.1348475889 0)
(2.98615056 0.01780729823 0)
(2.958926751 0.02023105279 0)
(2.974623937 0.003689671677 0)
(2.989341311 0.001162521514 0)
(2.997867296 0.0003874887294 0)
(2.999848889 4.202784212e-05 0)
(2.999997443 2.28775693e-06 0)
(3.000000008 4.824159219e-08 0)
(2.943765696 0.1914806638 0)
(3.011826804 0.1060980879 0)
(2.966148623 0.001054984734 0)
(2.959763524 0.01525583038 0)
(2.978068878 0.0016736802 0)
(2.9915739 0.0005339233891 0)
(2.998241367 0.0001846175473 0)
(2.999868465 2.599068526e-05 0)
(2.999997185 2.502034262e-06 0)
(2.999999986 6.762461255e-08 0)
(2.873111888 0.1402828968 0)
(2.953513604 0.07028823781 0)
(2.943693594 -0.00578209965 0)
(2.959451882 0.01015069183 0)
(2.980813437 -0.0004250968779 0)
(2.993505002 0.0004856658777 0)
(2.998578475 0.0001973652095 0)
(2.999886942 1.616794403e-05 0)
(2.999996554 2.490370346e-06 0)
(2.999999742 1.402956329e-07 0)
(2.793020846 0.08818326025 0)
(2.873052939 0.04307370347 0)
(2.923685653 -0.005152475978 0)
(2.959041553 0.00627347182 0)
(2.982427341 -0.001667758711 0)
(2.994571603 -5.922714043e-05 0)
(2.998756216 4.731794837e-05 0)
(2.999903248 2.875263022e-06 0)
(2.999994325 1.792335562e-06 0)
(2.999999116 1.330826772e-07 0)
(2.734435512 0.02928992975 0)
(2.825937675 0.02424062217 0)
(2.91399561 -0.000412584231 0)
(2.959793077 0.003840066856 0)
(2.982752618 -0.001607842725 0)
(2.994758674 0.0007080198216 0)
(2.998827374 0.0002096481414 0)
(2.999907257 5.025607105e-06 0)
(2.999992888 1.356935737e-06 0)
(2.999998623 6.493396552e-08 0)
(2.738240469 -0.03039929574 0)
(2.828643884 -0.03215077806 0)
(2.918829427 -0.0006333864849 0)
(2.961102184 -0.002046918959 0)
(2.982287892 0.001241549005 0)
(2.994337438 -0.0004207914727 0)
(2.998853668 -9.805035263e-05 0)
(2.999908513 -1.01528242e-05 0)
(2.999992801 -1.1156972e-06 0)
(2.999998599 -9.205498124e-08 0)
(2.7930811 -0.0900250175 0)
(2.869111364 -0.03043723693 0)
(2.923959616 0.004733765988 0)
(2.96001462 -0.006210790067 0)
(2.981960063 0.001548927391 0)
(2.994132458 -0.0004950567633 0)
(2.998751404 -0.000152251562 0)
(2.999900595 -1.874625441e-06 0)
(2.99999399 -1.622119191e-06 0)
(2.999999067 -7.423378796e-08 0)
(2.872882984 -0.1389676026 0)
(2.953398348 -0.06474442259 0)
(2.942039896 0.008910350811 0)
(2.958532591 -0.01062952554 0)
(2.980751891 0.0003787507619 0)
(2.993623751 -0.0008932953358 0)
(2.998566149 -0.0001764535678 0)
(2.999885808 -1.824679524e-05 0)
(2.999996073 -2.115039321e-06 0)
(2.999999714 -9.31087653e-08 0)
(2.942221498 -0.1906115502 0)
(3.00667413 -0.09935266338 0)
(2.964237043 -0.004113639094 0)
(2.95968715 -0.01645477357 0)
(2.978047003 -0.001660211331 0)
(2.991853298 -0.0005772003263 0)
(2.998250017 -0.0002293313936 0)
(2.999868906 -2.786153387e-05 0)
(2.999996944 -2.419868e-06 0)
(2.999999966 -8.668893079e-08 0)
(2.993151116 -0.2357219014 0)
(3.037731045 -0.1466487603 0)
(2.980809409 -0.02429913818 0)
(2.957920347 -0.01954367468 0)
(2.974650662 -0.003396291286 0)
(2.989527503 -0.001331159416 0)
(2.997890745 -0.0003787594783 0)
(2.99984982 -4.25864842e-05 0)
(2.999997388 -2.364549408e-06 0)
(3.000000026 -8.402904425e-08 0)
(3.03242054 -0.2732487782 0)
(3.057517976 -0.1748591604 0)
(2.995582575 -0.04752596607 0)
(2.95490188 -0.02319255438 0)
(2.970995221 -0.004493318877 0)
(2.987788389 -0.001720401093 0)
(2.997605598 -0.000572697696 0)
(2.999829391 -6.146592215e-05 0)
(2.99999699 -2.375552903e-06 0)
(2.999999989 -4.826271825e-08 0)
(3.050782471 -0.3024438555 0)
(3.067856839 -0.1858101794 0)
(3.004218123 -0.05237307175 0)
(2.955279784 -0.03293296238 0)
(2.967736819 -0.005224608618 0)
(2.986473055 -0.001938550248 0)
(2.997299906 -0.0006233196713 0)
(2.999804522 -8.297323887e-05 0)
(2.999996577 -2.652863628e-06 0)
(2.999999988 -5.269945089e-08 0)
(3.062498742 -0.3294413561 0)
(3.0875566 -0.22460617 0)
(3.019322173 -0.07177402288 0)
(2.960174799 -0.03624180065 0)
(2.966346994 -0.006943325239 0)
(2.985141611 -0.002245973266 0)
(2.996728076 -0.0006661375533 0)
(2.999772042 -0.0001110184466 0)
(2.999996258 -3.224754974e-06 0)
(2.999999987 -5.580605989e-08 0)
(3.060606512 -0.3494899202 0)
(3.101720423 -0.2444727836 0)
(3.057415032 -0.1122196646 0)
(2.987000009 -0.05406987582 0)
(2.966040243 -0.01066246008 0)
(2.981875088 -0.002162028812 0)
(2.995736298 -0.0005320291602 0)
(2.9997351 -0.0001364397307 0)
(2.999996227 -4.062470295e-06 0)
(2.999999984 -5.381814422e-08 0)
(3.052473623 -0.3346517522 0)
(3.119357949 -0.2658935384 0)
(3.082510747 -0.1564020833 0)
(2.997237917 -0.07733153912 0)
(2.964394438 -0.01686806471 0)
(2.976273942 -0.002528070492 0)
(2.994933699 -0.0007852051382 0)
(2.999717281 -0.0002127839727 0)
(2.999996456 -5.681380267e-06 0)
(2.999999995 -3.447467588e-08 0)
(3.023522209 0.03028738021 0)
(3.121347442 -0.1865759498 0)
(3.022802117 -0.2089435427 0)
(2.994006478 -0.1493580911 0)
(2.966777185 -0.06739413643 0)
(2.977262507 -0.01708357047 0)
(2.994781062 -0.00235550024 0)
(2.999682817 -0.0001355047509 0)
(2.999996521 -1.769436365e-06 0)
(2.999999995 -3.79089568e-09 0)
(3.002886781 0.1343470062 0)
(3.037512709 0.01527391019 0)
(3.01323703 -0.07732756278 0)
(2.999117034 -0.08359617287 0)
(2.988652495 -0.05821804716 0)
(2.987805294 -0.02099330901 0)
(2.99678236 -0.00312248664 0)
(2.99981484 -0.0001293185952 0)
(2.999998458 -8.971599937e-07 0)
(2.999999999 -5.967145499e-10 0)
(3.008179638 0.04303685971 0)
(3.009101535 0.02103026142 0)
(3.00616714 -0.00743140275 0)
(3.001542657 -0.01990586923 0)
(3.000074234 -0.01759265261 0)
(2.998271236 -0.008071200261 0)
(2.999309734 -0.001250362769 0)
(2.999959821 -4.315099857e-05 0)
(2.999999731 -2.091179918e-07 0)
(3 -8.342930966e-11 0)
(2.998989596 0.007460369884 0)
(3.001128371 0.007942623008 0)
(3.001139546 0.00287850491 0)
(3.000439134 -0.000374846521 0)
(3.000082762 -0.0009533817764 0)
(2.999986215 -0.0005673003819 0)
(2.999973065 -0.00010016475 0)
(2.999998088 -3.160476071e-06 0)
(2.999999989 -1.140744762e-08 0)
(3 -2.926130019e-12 0)
(2.999944542 0.0001844087387 0)
(2.999906769 0.0007045054284 0)
(3.000112689 0.0008086259993 0)
(3.000098639 0.0002477188121 0)
(3.00002299 1.944236552e-05 0)
(3.000001198 -3.131804817e-06 0)
(3.000000075 -8.04516173e-07 0)
(2.999999985 -3.419610191e-08 0)
(3 -2.529928639e-10 0)
(3 -2.545677036e-13 0)
(2.999999803 5.929074667e-07 0)
(2.99999742 1.040631076e-05 0)
(2.999995237 4.511221857e-05 0)
(3.000007496 5.34153169e-05 0)
(3.000005911 1.540055738e-05 0)
(3.000000839 9.965552018e-07 0)
(3.000000019 1.250971686e-08 0)
(3 -1.745941546e-12 0)
(3 -6.354192618e-13 0)
(3 -5.146023892e-14 0)
(3.000000001 -4.122917922e-09 0)
(2.999999995 1.835091019e-08 0)
(2.999999932 3.307406635e-07 0)
(2.999999854 1.702524011e-06 0)
(2.999999995 1.425142178e-06 0)
(3.000000107 3.050673969e-07 0)
(3.00000001 1.128292269e-08 0)
(3 6.323338137e-11 0)
(3 4.253220876e-14 0)
(3 4.809752624e-17 0)
(3 -8.58242719e-10 0)
(3 -3.4348841e-10 0)
(3 1.226559833e-10 0)
(2.999999999 5.265093962e-09 0)
(2.999999998 1.292019242e-08 0)
(3 8.859120413e-09 0)
(3.000000001 1.471964297e-09 0)
(3 3.591069364e-11 0)
(3 9.407360762e-14 0)
(3 1.474248668e-15 0)
(3 -4.10038539e-11 0)
(3 -8.82192432e-11 0)
(3 -2.78601413e-11 0)
(3 -2.218098565e-12 0)
(3 7.917170031e-12 0)
(3 1.97265275e-11 0)
(3 1.440762091e-11 0)
(3 2.089771086e-12 0)
(3 3.102670985e-14 0)
(3 -2.027439334e-15 0)
(3 -2.562470163e-13 0)
(3 -3.030818563e-12 0)
(3 -3.649332483e-12 0)
(3 -8.133322357e-13 0)
(3 -5.148759312e-14 0)
(3 8.651429851e-16 0)
(3 7.575955448e-15 0)
(3 4.767626731e-15 0)
(3 -1.019071139e-15 0)
(3 -2.98913024e-15 0)
(2.987346579 0.002198812601 0)
(2.973638908 0.0071180791 0)
(2.959725923 0.01803121411 0)
(2.946355421 0.03132176061 0)
(2.93446185 0.04225016603 0)
(2.926146873 0.05681885905 0)
(2.923497876 0.0777508455 0)
(2.928741948 0.09591208081 0)
(2.936125004 0.1098854902 0)
(2.952059626 0.1193658788 0)
(2.998566331 0.002251101957 0)
(2.995365436 0.007796617928 0)
(2.989856546 0.01856715901 0)
(2.98212769 0.03552815558 0)
(2.973477319 0.05639342282 0)
(2.964389234 0.08119544073 0)
(2.956880252 0.1094023517 0)
(2.9541655 0.1373481622 0)
(2.955779825 0.1590086053 0)
(2.964766874 0.1795243365 0)
(2.999991418 1.384139187e-05 0)
(2.99994469 9.359012964e-05 0)
(2.999772536 0.0004143167998 0)
(2.999349612 0.001288284894 0)
(2.998528489 0.003134029764 0)
(2.997124142 0.006621768671 0)
(2.995498745 0.01193483343 0)
(2.994416348 0.0192974151 0)
(2.995322261 0.02533577439 0)
(2.995989146 0.03260496854 0)
(3.000000002 -2.596073356e-09 0)
(2.999999964 4.178571875e-08 0)
(2.999999413 9.056561248e-07 0)
(2.999995933 7.038746549e-06 0)
(2.999981501 3.416797146e-05 0)
(2.999936265 0.0001268129718 0)
(2.999837035 0.0003712979195 0)
(2.999689417 0.0008465693887 0)
(2.999576814 0.001863314419 0)
(2.999638285 0.001974374906 0)
(3 -4.630302633e-10 0)
(3 -5.332983286e-10 0)
(3 6.735413685e-11 0)
(3 7.720354624e-10 0)
(2.999999988 1.262389029e-08 0)
(2.999999865 1.914471721e-07 0)
(2.999999285 1.273558103e-06 0)
(2.999997802 4.44808097e-06 0)
(2.999995103 1.92648045e-05 0)
(2.999997528 5.795943851e-06 0)
(3 -9.759763094e-12 0)
(3 -8.952941535e-11 0)
(3 -6.762157132e-11 0)
(3 -1.024077652e-10 0)
(3 -1.618802957e-10 0)
(3 -3.702588528e-10 0)
(3 6.300503872e-10 0)
(2.999999999 -7.502103915e-10 0)
(2.999999994 2.276144478e-08 0)
(3.000000018 -3.040032817e-08 0)
(3 -7.2151819e-15 0)
(3 -1.252017298e-12 0)
(3 -9.226852265e-12 0)
(3 -1.211418711e-11 0)
(3 -3.66717638e-11 0)
(3 -9.838126962e-11 0)
(3 -8.366369643e-11 0)
(3 -6.362545658e-11 0)
(3 -1.62718803e-11 0)
(3.000000004 -8.027752629e-09 0)
(3 -7.277236962e-17 0)
(3 -3.107635845e-16 0)
(3 -2.014946107e-13 0)
(3 -5.181484791e-13 0)
(3 -1.918856273e-12 0)
(3 -4.94056361e-12 0)
(3 -1.318850183e-11 0)
(3 -1.060508558e-11 0)
(3 -5.659063176e-12 0)
(3 -1.378246161e-10 0)
(3 3.740258575e-16 0)
(3 1.029513141e-16 0)
(3 -4.228866229e-16 0)
(3 -5.19507497e-15 0)
(3 -1.761939731e-14 0)
(3 -2.78348991e-14 0)
(3 -2.02925152e-13 0)
(3 -3.076521724e-13 0)
(3 -3.257420672e-13 0)
(3 1.677904314e-13 0)
(3 4.666840405e-17 0)
(3 -2.352027978e-16 0)
(3 -1.728268009e-16 0)
(3 -2.017504684e-16 0)
(3 -3.398358678e-16 0)
(3 -3.753664581e-16 0)
(3 -4.369615409e-16 0)
(3 -2.056181119e-16 0)
(3 -1.862802808e-15 0)
(3 4.349644405e-14 0)
(3 -9.845023151e-17 0)
(3 -1.132324289e-16 0)
(3 1.512957618e-16 0)
(3 -8.051154125e-16 0)
(3 -9.39951625e-16 0)
(3 -5.517027887e-16 0)
(3 2.934381104e-16 0)
(3 4.789657683e-16 0)
(3 -9.873560762e-17 0)
(3 -3.142848508e-16 0)
(3 5.901979093e-16 0)
(3 8.902959755e-16 0)
(3 8.144970505e-16 0)
(3 5.663076123e-16 0)
(3 -3.443864384e-16 0)
(3 -5.134140967e-17 0)
(3 -2.2274679e-16 0)
(3 4.807608448e-16 0)
(3 -1.461471842e-16 0)
(3 -1.096670209e-15 0)
(3 -4.82645711e-16 0)
(3 7.683301522e-17 0)
(3 1.92553926e-16 0)
(3 1.522713287e-16 0)
(3 -2.39669014e-16 0)
(3 -5.30641412e-16 0)
(3 -1.30397678e-15 0)
(3 -8.067507897e-16 0)
(3 -5.76670877e-17 0)
(3 3.995583935e-16 0)
(3 -3.877007546e-16 0)
(3 -1.536181174e-15 0)
(3 -1.605039842e-15 0)
(3 -1.112806937e-15 0)
(3 6.611363285e-17 0)
(3 3.037872289e-16 0)
(3 -3.523670316e-16 0)
(3 -3.170961793e-16 0)
(3 9.441701803e-16 0)
(3 8.383351242e-16 0)
(3 9.037368033e-17 0)
(3 -9.253528408e-16 0)
(3 -6.165383438e-16 0)
(3 -1.081990528e-16 0)
(3 6.041459581e-16 0)
(3 1.240412418e-15 0)
(3 6.695410272e-16 0)
(3 2.936613704e-16 0)
(3 8.616009718e-16 0)
(3 2.586093357e-16 0)
(3 1.055484666e-16 0)
(3 -6.018992076e-17 0)
(3 8.947395125e-16 0)
(3 6.662045553e-16 0)
(3 5.778810152e-16 0)
(3 -2.763244836e-16 0)
(3 4.196527657e-18 0)
(3 1.977886432e-16 0)
(3 -6.94426135e-16 0)
(3 1.675910186e-16 0)
(3 3.542706496e-16 0)
(3 6.422643598e-16 0)
(3 -1.507646385e-16 0)
(3 -3.068925599e-16 0)
(3 -2.760817331e-16 0)
(3 -1.022097436e-15 0)
(3 -4.156051269e-16 0)
(3 -8.578796637e-17 0)
(3 -1.432674266e-15 0)
(3 -5.811050315e-16 0)
(3 -3.921924622e-16 0)
(3 -9.781132378e-17 0)
(3 -8.354249333e-16 0)
(3 -9.670824025e-16 0)
(3 -9.210622994e-16 0)
(3 9.029167389e-17 0)
(3 6.396577671e-16 0)
(3 2.589072709e-16 0)
(3 -6.33376373e-17 0)
(3 -2.986913495e-16 0)
(3 -1.242416741e-16 0)
(3 -2.175133254e-16 0)
(3 8.635385047e-17 0)
(3 -2.486729707e-16 0)
(3 -3.528513984e-16 0)
(3 8.533982332e-16 0)
(3 2.923212874e-16 0)
(3 3.367045439e-16 0)
(3 1.207083712e-15 0)
(3 5.655398246e-16 0)
(3 2.525256815e-16 0)
(3 1.360944602e-16 0)
(3 8.214659784e-17 0)
(3 -1.143937114e-16 0)
(3 5.550039577e-17 0)
(3 1.717615584e-17 0)
(3 -7.30480155e-16 0)
(3 7.501937368e-17 0)
(3 1.074168577e-15 0)
(3 7.815371678e-16 0)
)
;

boundaryField
{
    inlet
    {
        type            fixedValue;
        value           uniform (3 0 0);
    }
    outlet
    {
        type            inletOutlet;
        inletValue      uniform (3 0 0);
        value           nonuniform List<vector> 
40
(
(2.999999995 -3.79089568e-09 0)
(2.999999999 -5.967145499e-10 0)
(3 -8.342930966e-11 0)
(3 -2.926130019e-12 0)
(3 -2.545677036e-13 0)
(3 -5.146023892e-14 0)
(3 4.809752624e-17 0)
(3 1.474248668e-15 0)
(3 -2.027439334e-15 0)
(3 -2.98913024e-15 0)
(2.999998599 -9.205498124e-08 0)
(2.999999067 -7.423378796e-08 0)
(2.999999714 -9.31087653e-08 0)
(2.999999966 -8.668893079e-08 0)
(3.000000026 -8.402904425e-08 0)
(2.999999989 -4.826271825e-08 0)
(2.999999988 -5.269945089e-08 0)
(2.999999987 -5.580605989e-08 0)
(2.999999984 -5.381814422e-08 0)
(2.999999995 -3.447467588e-08 0)
(2.999999993 2.113669496e-08 0)
(2.999999993 5.22140398e-08 0)
(2.999999985 4.335344529e-08 0)
(2.999999989 3.888448795e-08 0)
(2.999999993 4.090209055e-08 0)
(3.000000008 4.824159219e-08 0)
(2.999999986 6.762461255e-08 0)
(2.999999742 1.402956329e-07 0)
(2.999999116 1.330826772e-07 0)
(2.999998623 6.493396552e-08 0)
(3 1.054262534e-15 0)
(3 2.806222065e-15 0)
(3 -2.574229907e-15 0)
(3 -1.890492117e-15 0)
(3 5.205430476e-14 0)
(3 2.578607321e-13 0)
(3 2.992355717e-12 0)
(3 8.321950867e-11 0)
(2.999999999 5.991787299e-10 0)
(2.999999996 3.676830985e-09 0)
)
;
    }
    bottom
    {
        type            slip;
    }
    top
    {
        type            slip;
    }
    obstacle
    {
        type            slip;
    }
    defaultFaces
    {
        type            empty;
    }
}


// ************************************************************************* //
