/*--------------------------------*- C++ -*----------------------------------*\
  =========                 |
  \\      /  F ield         | OpenFOAM: The Open Source CFD Toolbox
   \\    /   O peration     | Website:  https://openfoam.org
    \\  /    A nd           | Version:  7
     \\/     M anipulation  |
\*---------------------------------------------------------------------------*/
FoamFile
{
    version     2.0;
    format      ascii;
    class       volScalarField;
    location    "5";
    object      rho;
}
// * * * * * * * * * * * * * * * * * * * * * * * * * * * * * * * * * * * * * //

dimensions      [1 -3 0 0 0 0 0];

internalField   nonuniform List<scalar> 
555
(
1.4079332
1.408252219
1.410031666
1.412953537
1.415202403
1.408682806
1.409714429
1.410129457
1.410689778
1.410822827
1.411137163
1.410755811
1.410753222
1.410588202
1.409953896
1.408905304
1.407908747
1.408076615
1.409347172
1.412304657
1.415159486
1.415336754
1.40686311
1.408135641
1.408543101
1.408052721
1.407632336
1.407740525
1.409707337
1.410113498
1.409454604
1.409010524
1.408244081
1.407928752
1.408964111
1.411049331
1.413280182
1.414271257
1.413899435
1.405441811
1.406556731
1.406612712
1.406083384
1.405541519
1.405516757
1.405741946
1.406516833
1.408018542
1.40851309
1.408236921
1.408341716
1.409286819
1.410586333
1.41163166
1.412046257
1.410226696
1.404799488
1.405385884
1.404397766
1.403069487
1.402372575
1.402528522
1.402935736
1.403933229
1.404893516
1.405180435
1.40496453
1.40474742
1.405375313
1.406556417
1.407327738
1.406646655
1.402220801
1.402983332
1.402845841
1.401950821
1.39952082
1.398839921
1.399171725
1.399945704
1.401205457
1.402003684
1.401913339
1.40130603
1.400404951
1.400474338
1.401049284
1.39997893
1.397458067
1.396403193
1.400352629
1.399736598
1.396597278
1.393783883
1.39349925
1.394163205
1.396077554
1.398564726
1.398593519
1.397727128
1.396066904
1.394127802
1.393345608
1.392700005
1.391565289
1.392060462
1.393557557
1.393368474
1.391900255
1.392350207
1.392234919
1.39290036
1.394987754
1.395823675
1.394489757
1.392269501
1.389103425
1.387832145
1.387590284
1.38787915
1.388595012
1.389731734
1.391321169
1.389325363
1.38982331
1.390694364
1.391201278
1.392016316
1.393052331
1.391260929
1.389062024
1.387690671
1.388104891
1.387312315
1.387227256
1.387020195
1.387238288
1.388324952
1.390659575
1.387474214
1.388310667
1.38957958
1.391505666
1.391584285
1.390490672
1.389088662
1.388884409
1.388421359
1.388083272
1.387754534
1.387532144
1.387396098
1.387735414
1.389234752
1.390590907
1.386701124
1.388676727
1.389845902
1.389518976
1.389287922
1.387619963
1.38669745
1.386903809
1.387333083
1.387356117
1.387423882
1.387425388
1.388333672
1.38975593
1.390881412
1.388978138
1.387141254
1.388459098
1.388666185
1.387820751
1.386408909
1.384715945
1.383932955
1.384301296
1.385454879
1.386829957
1.388040571
1.388932123
1.390578668
1.391403311
1.39056001
1.387885694
1.387485527
1.387273956
1.386474221
1.385042088
1.382908968
1.38209813
1.382024557
1.384047065
1.38719479
1.38917285
1.390510426
1.390490106
1.390449676
1.389966017
1.388704618
1.38557388
1.385744079
1.385283149
1.383605332
1.381243571
1.379822043
1.380314567
1.381261657
1.384745596
1.386860962
1.387147461
1.387855123
1.388475138
1.387795088
1.38694895
1.38480322
1.382272595
1.383004353
1.381809683
1.37969554
1.378729136
1.378536905
1.379114988
1.381929748
1.384823377
1.385282346
1.385264567
1.385277509
1.385224448
1.384467797
1.382021909
1.37987417
1.38022115
1.381311582
1.380064262
1.378864911
1.37860623
1.379145738
1.380929187
1.383839809
1.384753925
1.383578123
1.382524531
1.382116082
1.380500201
1.378648103
1.377314448
1.377370773
1.379043066
1.379524839
1.378272128
1.378262822
1.379003624
1.380573272
1.383665311
1.38524898
1.384189419
1.382693588
1.378667425
1.377103726
1.374874571
1.373682429
1.374624426
1.376151634
1.378938829
1.37873494
1.378089884
1.378780422
1.380558911
1.382724831
1.384203509
1.384523657
1.383285174
1.38105768
1.378748426
1.377172965
1.375083809
1.372679228
1.372886146
1.375581033
1.380640087
1.379845014
1.380228275
1.380757319
1.381411386
1.38195825
1.382609067
1.382555731
1.381053377
1.378202352
1.375820962
1.374614724
1.373621477
1.373583687
1.375384736
1.379502222
1.384344217
1.379606068
1.380070895
1.380143348
1.380123982
1.380074953
1.38005208
1.379346956
1.377784944
1.376941382
1.375742018
1.374744221
1.374904846
1.376862731
1.380953246
1.384328626
1.384517376
1.378819146
1.378957675
1.378807633
1.378432142
1.378376976
1.378645223
1.379109383
1.379804498
1.3803794
1.380562419
1.380124737
1.379674462
1.379388724
1.379068113
1.378573411
1.377786787
1.379042189
1.37938922
1.379368073
1.379116309
1.379308843
1.379742884
1.380002343
1.380213259
1.38042191
1.380448779
1.380218445
1.38009059
1.379991071
1.379830457
1.379524797
1.379068062
1.380161302
1.380588038
1.380556969
1.38065887
1.380691337
1.380866658
1.381056086
1.380982849
1.381235612
1.381361771
1.381270439
1.381225441
1.38121224
1.381133232
1.380900132
1.380478372
1.380763045
1.381627614
1.381882589
1.381761918
1.381971062
1.382650896
1.382962304
1.383288252
1.383722952
1.383666031
1.383446996
1.383199784
1.382995802
1.382774025
1.382680666
1.382229809
1.381073037
1.382091511
1.383037682
1.383129623
1.383538782
1.384200488
1.384724928
1.385300272
1.385707403
1.385651728
1.385473986
1.385313564
1.385205751
1.385098503
1.38486522
1.383993203
1.380439469
1.382179999
1.38374064
1.384243685
1.38507357
1.385633763
1.385948519
1.38636058
1.386523367
1.386527045
1.386568935
1.386768903
1.386826212
1.386695742
1.386181612
1.38514156
1.381618133
1.383177454
1.384844706
1.385530487
1.38572862
1.385846946
1.385879673
1.385980708
1.386357072
1.386868224
1.387261671
1.387541224
1.387524991
1.387336389
1.386765952
1.385903123
1.386504011
1.38726817
1.387106411
1.3861313
1.385261872
1.385447952
1.385671724
1.385784714
1.38659802
1.387412437
1.387720781
1.387665329
1.387488169
1.387254338
1.386746442
1.386398637
1.388599604
1.388706745
1.387718069
1.385417937
1.384803007
1.385293421
1.385851744
1.386910853
1.387777193
1.388093141
1.387957658
1.387408385
1.387105023
1.38697309
1.386663149
1.386609223
1.384283793
1.384841196
1.38554267
1.385024032
1.385664649
1.387038535
1.387898065
1.388268707
1.388365343
1.388275475
1.387805782
1.387271428
1.387075832
1.387057025
1.386892031
1.386876065
1.370111342
1.37988851
1.384303389
1.386105636
1.386665349
1.386673021
1.387084008
1.387265227
1.387739811
1.388039672
1.387687675
1.387809271
1.388099335
1.388150787
1.387955045
1.387416459
1.359593383
1.385225086
1.387202694
1.386061188
1.385414001
1.382914525
1.382465202
1.383601899
1.386176217
1.387517141
1.38823476
1.388478781
1.388690785
1.388681468
1.388445425
1.387811712
1.316290413
1.374740062
1.374964801
1.379406732
1.378036904
1.377430111
1.378995881
1.383293365
1.386929625
1.388657755
1.388453035
1.388358618
1.388078701
1.387892038
1.387742371
1.387937672
1.160239205
1.27020195
1.310586863
1.358568966
1.370857714
1.379405691
1.385537174
1.389531398
1.390234684
1.389229594
1.388213881
1.386600018
1.386151077
1.386449587
1.386943331
1.38819824
1.027354805
1.101210967
1.21591834
1.322246251
1.354937796
1.374293616
1.3892221
1.39011312
1.389342276
1.388020611
1.386657559
1.384996413
1.385449854
1.386246376
1.387508856
1.388590041
)
;

boundaryField
{
    inlet
    {
        type            calculated;
        value           nonuniform 0();
    }
    outlet
    {
        type            calculated;
        value           nonuniform List<scalar> 
35
(
1.377831714
1.379069915
1.380476899
1.382229302
1.383998145
1.385146412
1.385905314
1.386397659
1.38660705
1.386874149
1.387418914
1.387814939
1.387937886
1.38819569
1.388590087
1.415056256
1.415358581
1.414009729
1.410709173
1.402715489
1.396312679
1.393364697
1.391100952
1.390339908
1.390513938
1.389078026
1.388307882
1.385934315
1.382311509
1.380203587
1.378880322
1.378561052
1.380146252
1.384051132
1.384554632
)
;
    }
    bottom
    {
        type            calculated;
        value           nonuniform 0();
    }
    top
    {
        type            calculated;
        value           nonuniform 0();
    }
    obstacle
    {
        type            calculated;
        value           nonuniform 0();
    }
    defaultFaces
    {
        type            empty;
    }
    procBoundary29to23
    {
        type            processor;
        value           nonuniform List<scalar> 
18
(
1.408033988
1.408117832
1.408682276
1.410079502
1.412622585
1.410863286
1.411722358
1.411605898
1.411164762
1.41096403
1.411094113
1.411583164
1.411423208
1.410747216
1.409984591
1.408879122
1.408166335
1.408166335
)
;
    }
    procBoundary29to28
    {
        type            processor;
        value           nonuniform List<scalar> 
34
(
1.408176499
1.406129602
1.404127603
1.402551117
1.401776322
1.399825806
1.396189732
1.396189732
1.390375706
1.387273046
1.385903694
1.385018349
1.385055589
1.384643417
1.383106842
1.381929323
1.381425858
1.38117889
1.381064567
1.379528106
1.378639788
1.378888783
1.379444572
1.379968656
1.380448615
1.379533416
1.380433902
1.38466663
1.386473914
1.382937299
1.36527745
1.341322947
1.225497343
1.063919399
)
;
    }
    procBoundary29to34
    {
        type            processor;
        value           uniform 0.9909259938;
    }
    procBoundary29to35
    {
        type            processor;
        value           nonuniform List<scalar> 
16
(
0.9902792849
1.005004798
1.062931495
1.153074981
1.249370111
1.323567924
1.37887015
1.374996329
1.380337094
1.383423708
1.384334984
1.387237121
1.389665055
1.390130422
1.389199687
1.388703939
)
;
    }
}


// ************************************************************************* //
