/*--------------------------------*- C++ -*----------------------------------*\
  =========                 |
  \\      /  F ield         | OpenFOAM: The Open Source CFD Toolbox
   \\    /   O peration     | Website:  https://openfoam.org
    \\  /    A nd           | Version:  7
     \\/     M anipulation  |
\*---------------------------------------------------------------------------*/
FoamFile
{
    version     2.0;
    format      ascii;
    class       volVectorField;
    location    "3.8";
    object      U;
}
// * * * * * * * * * * * * * * * * * * * * * * * * * * * * * * * * * * * * * //

dimensions      [0 1 -1 0 0 0 0];

internalField   nonuniform List<vector> 
80000
(
(3 -8.711975662e-17 0)
(3 -2.446348781e-16 0)
(3 5.850834244e-17 0)
(3 4.725685188e-16 0)
(3 8.190252836e-16 0)
(3 2.266107887e-15 0)
(3 3.386110591e-15 0)
(3 3.392129309e-15 0)
(3 2.910129917e-15 0)
(3 1.09663581e-15 0)
(3 1.537216704e-15 0)
(3 1.332842219e-15 0)
(3 1.107927278e-15 0)
(3 1.15166095e-15 0)
(3 1.726904683e-15 0)
(3 2.159393461e-15 0)
(3 1.48968083e-15 0)
(3 1.876340263e-15 0)
(3 2.534005126e-15 0)
(3 1.672380975e-15 0)
(3 -4.912676811e-16 0)
(3 -1.898496401e-15 0)
(3 -1.823763251e-15 0)
(3 -1.308854222e-15 0)
(3 2.274301571e-16 0)
(3 1.80446496e-15 0)
(3 2.409413104e-15 0)
(3 2.966410595e-15 0)
(3 2.76436808e-15 0)
(3 2.393196655e-15 0)
(3 1.846219497e-15 0)
(3 3.568349063e-16 0)
(3 -1.665942955e-16 0)
(3 1.971301909e-16 0)
(3 5.79752672e-17 0)
(3 -6.797833384e-16 0)
(3 -2.776224776e-15 0)
(3 -1.953785018e-15 0)
(3 -3.469458848e-17 0)
(3 6.47968583e-16 0)
(3 1.196017429e-17 0)
(3 -1.04539694e-15 0)
(3 -1.869559107e-15 0)
(3 -1.951982037e-15 0)
(3 -1.807036696e-15 0)
(3 3.742763642e-16 0)
(3 2.726945485e-15 0)
(3 4.793521016e-15 0)
(3 4.895433657e-15 0)
(3 5.4595922e-15 0)
(3 3.353531285e-15 0)
(3 1.940889143e-15 0)
(3 3.055323961e-16 0)
(3 -7.729750266e-16 0)
(3 -2.543183328e-15 0)
(3 -2.160764456e-15 0)
(3 -2.543546976e-15 0)
(3 -1.94519616e-15 0)
(3 -2.027959822e-15 0)
(3 -1.374104935e-15 0)
(3 -1.353608565e-15 0)
(3 -1.85679364e-15 0)
(3 -1.929098343e-15 0)
(3 -1.524127094e-15 0)
(3 -1.062998622e-15 0)
(3 -1.512986578e-16 0)
(3 7.278865041e-16 0)
(3 1.344060565e-15 0)
(3 1.167532191e-15 0)
(3 1.150198938e-15 0)
(3 8.815228409e-16 0)
(3 4.867409944e-16 0)
(3 6.610955942e-16 0)
(3 9.751168146e-16 0)
(3 7.846579535e-16 0)
(3 -3.347771507e-16 0)
(3 -7.55776952e-17 0)
(3 -9.03326469e-16 0)
(3 -1.593975096e-15 0)
(3 -1.238680308e-15 0)
(3 2.130632981e-17 0)
(3 -1.188100922e-16 0)
(3 -1.595649499e-16 0)
(3 -6.494924069e-16 0)
(3 -4.539556344e-16 0)
(3 -1.425361983e-16 0)
(3 1.561070281e-16 0)
(3 -4.245324347e-16 0)
(3 -1.629642858e-15 0)
(3 -1.969262897e-15 0)
(3 -1.654126069e-15 0)
(3 -1.495584064e-15 0)
(3 3.726894722e-16 0)
(3 1.85356641e-15 0)
(3 1.194964921e-15 0)
(3 1.402415934e-15 0)
(3 2.133031627e-15 0)
(3 1.821905131e-15 0)
(3 1.02156997e-15 0)
(3 6.416238376e-16 0)
(3 1.174107844e-16 0)
(3 4.262571052e-16 0)
(3 1.414755671e-15 0)
(3 1.982557211e-15 0)
(3 2.446790161e-15 0)
(3 3.366007073e-15 0)
(3 2.98934539e-15 0)
(3 3.417975759e-15 0)
(3 2.05183675e-15 0)
(3 1.034079265e-15 0)
(3 1.520870228e-15 0)
(3 1.752886556e-15 0)
(3 1.987103983e-15 0)
(3 2.243155958e-15 0)
(3 3.047891717e-15 0)
(3 3.329315898e-15 0)
(3 2.0522409e-15 0)
(3 1.440803794e-15 0)
(3 1.323134517e-15 0)
(3 1.294842374e-15 0)
(3 -4.696789069e-16 0)
(3 -6.064309033e-16 0)
(3 -2.2988543e-16 0)
(3 3.442608337e-16 0)
(3 2.080222527e-15 0)
(3 4.786378503e-15 0)
(3 4.384858885e-15 0)
(3 3.928872446e-15 0)
(3 2.369835365e-15 0)
(3 3.16151163e-15 0)
(3 2.923014993e-15 0)
(3 1.68284051e-15 0)
(3 2.902523361e-15 0)
(3 3.769009822e-15 0)
(3 2.723515422e-15 0)
(3 1.342145974e-15 0)
(3 -1.703240501e-15 0)
(3 -2.805750765e-15 0)
(3 -1.617322969e-15 0)
(3 7.217770754e-17 0)
(3 -4.326209416e-16 0)
(3 -1.165336823e-15 0)
(3 -2.261015622e-15 0)
(3 -2.394235267e-15 0)
(3 -2.595788759e-15 0)
(3 1.106863668e-15 0)
(3 6.938441218e-15 0)
(3 8.6884816e-15 0)
(3 9.197060268e-15 0)
(3 8.254085635e-15 0)
(3 5.939719385e-15 0)
(3 2.864778542e-15 0)
(3 1.058389843e-15 0)
(3 -1.058731666e-15 0)
(3 -1.96490653e-15 0)
(3 -2.13685381e-15 0)
(3 -3.443700663e-15 0)
(3 -2.861206796e-15 0)
(3 -1.671319127e-15 0)
(3 -2.274206913e-15 0)
(3 -1.853629359e-15 0)
(3 -1.094375517e-15 0)
(3 -6.536034932e-16 0)
(3 -7.82362576e-17 0)
(3 5.153906835e-16 0)
(3 9.184478744e-16 0)
(3 1.345059152e-15 0)
(3 2.656730321e-15 0)
(3 1.655446061e-15 0)
(3 1.773015474e-17 0)
(3 3.661929421e-17 0)
(3 4.319289332e-16 0)
(3 1.307539949e-15 0)
(3 1.779436239e-15 0)
(3 9.599237117e-17 0)
(3 -2.728676523e-16 0)
(3 2.174969553e-16 0)
(3 1.279217077e-16 0)
(3 -9.895131949e-16 0)
(3 -2.496263359e-15 0)
(3 -9.284367565e-16 0)
(3 -1.330487961e-15 0)
(3 -1.897210631e-15 0)
(3 -1.716938917e-15 0)
(3 -1.64702229e-15 0)
(3 -3.402925921e-16 0)
(3 -6.261196301e-16 0)
(3 -1.418897593e-15 0)
(3 -3.119380717e-15 0)
(3 -3.929499985e-15 0)
(3 -3.258979792e-15 0)
(3 -2.659317296e-15 0)
(3 -1.128068307e-15 0)
(3 2.291824183e-15 0)
(3 3.479429445e-15 0)
(3 4.107829983e-15 0)
(3 2.864167352e-15 0)
(3 1.085165203e-15 0)
(3 1.326011851e-15 0)
(3 8.541734465e-16 0)
(3 1.507000199e-15 0)
(3 2.052222041e-15 0)
(3 2.085832561e-15 0)
(3 1.480575918e-15 0)
(3 1.265826342e-15 0)
(3 -4.088733748e-16 0)
(3 -1.486266751e-15 0)
(3 -1.905032303e-15 0)
(3 -2.500333173e-15 0)
(3 -2.624224128e-15 0)
(3 -2.759449768e-15 0)
(3 -2.734612733e-15 0)
(3 -1.928461295e-15 0)
(3 -4.429093688e-16 0)
(3 4.320390574e-16 0)
(3 2.326907951e-15 0)
(3 3.786358781e-15 0)
(3 3.310091056e-15 0)
(3 5.840751173e-16 0)
(3 2.86312007e-16 0)
(3 3.897222119e-16 0)
(3 2.036307983e-15 0)
(3 2.778356966e-15 0)
(3 2.520414201e-15 0)
(3 2.581612453e-15 0)
(3 2.031129481e-15 0)
(3 1.127876593e-15 0)
(3 -7.108145728e-16 0)
(3 -2.026403832e-15 0)
(3 -1.633646478e-15 0)
(3 -3.366393574e-16 0)
(3 1.925760402e-15 0)
(3 3.987706593e-15 0)
(3 3.999529221e-15 0)
(3 3.372147097e-15 0)
(3 1.690959882e-15 0)
(3 -2.248384226e-16 0)
(3 -3.174484199e-15 0)
(3 -4.137968913e-15 0)
(3 -4.428483962e-15 0)
(3 -3.251939098e-15 0)
(3 -2.942732299e-15 0)
(3 -2.956309568e-15 0)
(3 -7.717103495e-16 0)
(3 2.568918449e-15 0)
(3 5.124022938e-15 0)
(3 8.303137433e-15 0)
(3 9.172687287e-15 0)
(3 9.159390442e-15 0)
(3 8.18350074e-15 0)
(3 7.32537849e-15 0)
(3 5.639418425e-15 0)
(3 3.034572745e-15 0)
(3 1.23716856e-15 0)
(3 6.024407852e-16 0)
(3 -6.307369128e-17 0)
(3 -1.976679354e-15 0)
(3 -1.939177841e-15 0)
(3 -1.707930481e-15 0)
(3 -1.206191195e-15 0)
(3 -1.415852126e-15 0)
(3 -1.003662855e-15 0)
(3 8.31470174e-16 0)
(3 4.4994359e-16 0)
(3 -8.551588759e-16 0)
(3 -2.286945289e-15 0)
(3 -1.438088785e-15 0)
(3 -7.955137255e-16 0)
(3 -1.634150566e-15 0)
(3 -2.543117779e-15 0)
(3 -1.915428938e-15 0)
(3 1.635429483e-15 0)
(3 2.749248355e-15 0)
(3 3.539227693e-15 0)
(3 4.15065799e-15 0)
(3 4.42539941e-15 0)
(3 5.010322556e-15 0)
(3 4.678131684e-15 0)
(3 2.99327725e-15 0)
(3 -5.142519813e-16 0)
(3 -3.285754576e-15 0)
(3 -3.634338324e-15 0)
(3 -3.723509592e-15 0)
(3 -3.502798315e-15 0)
(3 -4.220141685e-15 0)
(3 -4.608378215e-15 0)
(3 -6.103135347e-15 0)
(3 -5.182724798e-15 0)
(3 -3.991886526e-15 0)
(3 -4.43140833e-15 0)
(3 -5.581038898e-15 0)
(3 -4.515819946e-15 0)
(3 -8.111045503e-16 0)
(3 3.023904728e-15 0)
(3 5.413936021e-15 0)
(3 6.276184145e-15 0)
(3 5.512161566e-15 0)
(3 5.82518913e-15 0)
(3 3.739227442e-15 0)
(3 2.763456022e-15 0)
(3 3.065174987e-16 0)
(3 2.923163073e-16 0)
(3 -7.39275967e-16 0)
(3 -8.607961721e-16 0)
(3 -1.648876276e-15 0)
(3 -3.34557929e-15 0)
(3 -4.695941889e-15 0)
(3 -5.152096667e-15 0)
(3 -4.797578757e-15 0)
(3 -5.027688106e-15 0)
(3 -6.002097423e-15 0)
(3 -6.783737095e-15 0)
(3 -7.465597258e-15 0)
(3 -4.722919023e-15 0)
(3 -2.56348118e-15 0)
(3 9.196218775e-16 0)
(3 2.909624983e-15 0)
(3 6.097813242e-15 0)
(3 5.215625913e-15 0)
(3 3.470236565e-15 0)
(3 3.549211824e-15 0)
(3 2.722432199e-15 0)
(3 1.958337732e-15 0)
(3 6.97750242e-16 0)
(3 -1.282690128e-15 0)
(3 -2.714037783e-15 0)
(3 -3.11033776e-15 0)
(3 -4.278274901e-15 0)
(3 -5.7809441e-15 0)
(3 -6.559046321e-15 0)
(3 -5.136927711e-15 0)
(3 -2.149774477e-15 0)
(3 7.981809257e-16 0)
(3 2.068569386e-15 0)
(3 1.462875656e-15 0)
(3 1.36811683e-15 0)
(3 -1.672500373e-16 0)
(3 -5.162523895e-16 0)
(3 -2.874345775e-15 0)
(3 -3.463235395e-15 0)
(3 -3.195935873e-15 0)
(3 -1.692557434e-15 0)
(3 5.012301048e-16 0)
(3 4.524213927e-15 0)
(3 7.73066987e-15 0)
(3 7.335626367e-15 0)
(3 7.689058457e-15 0)
(3 1.036628788e-14 0)
(3 1.19473225e-14 0)
(3 1.000479442e-14 0)
(3 7.765073512e-15 0)
(3 6.028033066e-15 0)
(3 2.89140254e-15 0)
(3 1.844943138e-15 0)
(3 9.397128568e-16 0)
(3 -6.174766704e-16 0)
(3 -1.469990265e-15 0)
(3 -2.665282972e-15 0)
(3 -3.205305536e-15 0)
(3 -1.80871333e-15 0)
(3 -1.018454699e-15 0)
(3 -9.3207631e-16 0)
(3 -1.672217129e-15 0)
(3 -2.357637571e-15 0)
(3 -3.776821889e-15 0)
(3 -4.876833575e-15 0)
(3 -5.612738276e-15 0)
(3 -6.445685693e-15 0)
(3 -5.042874164e-15 0)
(3 -3.223573028e-15 0)
(3 -1.727116386e-15 0)
(3 -1.266393398e-16 0)
(3 2.286870268e-15 0)
(3 4.841828031e-15 0)
(3 7.952031083e-15 0)
(3 9.597742168e-15 0)
(3 9.195905454e-15 0)
(3 6.933769371e-15 0)
(3 4.989302876e-15 0)
(3 2.009974607e-15 0)
(3 4.425215307e-16 0)
(3 -1.814836806e-15 0)
(3 -3.047173918e-15 0)
(3 -4.722431015e-15 0)
(3 -6.751910453e-15 0)
(3 -7.429961422e-15 0)
(3 -7.445729545e-15 0)
(3 -6.663993121e-15 0)
(3 -4.497334275e-15 0)
(3 -4.272650297e-15 0)
(3 -3.814122475e-15 0)
(3 -3.197951931e-15 0)
(3 3.216933971e-16 0)
(3 3.439299895e-15 0)
(3 5.319597339e-15 0)
(3 8.809385679e-15 0)
(3 1.048816099e-14 0)
(3 9.95874382e-15 0)
(3 7.267318202e-15 0)
(3 2.999611514e-15 0)
(3 -1.373662889e-15 0)
(3 -1.53404985e-15 0)
(3 -1.123396451e-15 0)
(3 -5.669046406e-16 0)
(3 -2.41430629e-16 0)
(3 -5.269420596e-17 0)
(3 -5.012762936e-16 0)
(3 -7.433036086e-16 0)
(3 -2.023570614e-15 0)
(3 -2.808271361e-15 0)
(3 -3.298785531e-15 0)
(3 -5.248117453e-15 0)
(3 -5.23258858e-15 0)
(3 -4.409524891e-15 0)
(3 -3.190011521e-15 0)
(3 -3.278871957e-16 0)
(3 2.146505705e-15 0)
(3 3.816574278e-15 0)
(3 7.50303262e-15 0)
(3 7.776035786e-15 0)
(3 7.614458439e-15 0)
(3 5.464875272e-15 0)
(3 3.525691898e-15 0)
(3 2.889242002e-15 0)
(3 -3.974000883e-16 0)
(3 -2.769360041e-15 0)
(3 -3.19514579e-15 0)
(3 -3.088173675e-15 0)
(3 -4.559119091e-15 0)
(3 -5.75841775e-15 0)
(3 -6.374010766e-15 0)
(3 -5.115008964e-15 0)
(3 -3.068250205e-15 0)
(3 -1.446921467e-15 0)
(3 -1.266101755e-15 0)
(3 -1.459221397e-15 0)
(3 -9.675203098e-16 0)
(3 -9.561176279e-16 0)
(3 -1.955133895e-15 0)
(3 -1.567809418e-15 0)
(3 -2.722723076e-16 0)
(3 2.433635351e-15 0)
(3 6.532069668e-15 0)
(3 7.755301289e-15 0)
(3 8.966783701e-15 0)
(3 6.103151271e-15 0)
(3 5.483966335e-15 0)
(3 6.392036218e-15 0)
(3 5.948170768e-15 0)
(3 5.72371153e-15 0)
(3 5.827582941e-15 0)
(3 6.688580123e-15 0)
(3 7.541391707e-15 0)
(3 5.645678047e-15 0)
(3 4.97693818e-15 0)
(3 3.222703549e-15 0)
(3 6.902559397e-16 0)
(3 -2.633291027e-15 0)
(3 -2.156780636e-15 0)
(3 -1.66259039e-15 0)
(3 2.339931781e-16 0)
(3 -1.859684808e-16 0)
(3 -2.754079604e-15 0)
(3 -3.636694241e-15 0)
(3 -5.244170608e-15 0)
(3 -5.101065945e-15 0)
(3 -5.496161404e-15 0)
(3 -5.790816846e-15 0)
(3 -5.084455956e-15 0)
(3 -4.277678723e-15 0)
(3 -2.117952215e-15 0)
(3 -1.848506308e-15 0)
(3 6.332233646e-16 0)
(3 3.983722363e-15 0)
(3 6.039680255e-15 0)
(3 7.527948528e-15 0)
(3 6.583024028e-15 0)
(3 5.151299639e-15 0)
(3 2.718970951e-15 0)
(3 3.195605177e-15 0)
(3 3.281020642e-15 0)
(3 1.228102244e-15 0)
(3 -2.35043132e-15 0)
(3 -4.501704661e-15 0)
(3 -5.02489366e-15 0)
(3 -5.088770187e-15 0)
(3 -4.534597491e-15 0)
(3 -4.462929897e-15 0)
(3 -3.835424297e-15 0)
(3 -2.168032846e-15 0)
(3 -4.480220041e-16 0)
(3 8.809562256e-16 0)
(3 5.664696313e-16 0)
(3 2.099935749e-15 0)
(3 9.084451443e-15 0)
(3 1.106242397e-14 0)
(3 1.260788066e-14 0)
(3 1.036748169e-14 0)
(3 7.187094466e-15 0)
(3 3.680545313e-15 0)
(3 1.871151662e-16 0)
(3 9.700527819e-17 0)
(3 1.899198821e-15 0)
(3 2.178200861e-15 0)
(3 1.954826301e-15 0)
(3 2.394492675e-15 0)
(3 3.536128399e-15 0)
(3 2.676602864e-15 0)
(3 7.772477306e-16 0)
(3 -1.250761947e-16 0)
(3 -4.537854536e-16 0)
(3 -4.820492411e-16 0)
(3 -4.81362708e-16 0)
(3 -6.75834058e-16 0)
(3 -1.292069684e-16 0)
(3 8.120904381e-16 0)
(3 1.612373761e-15 0)
(3 1.337991977e-15 0)
(3 4.726742182e-15 0)
(3 5.64808827e-15 0)
(3 4.484617975e-15 0)
(3 4.830627487e-15 0)
(3 4.943586233e-15 0)
(3 5.013443548e-15 0)
(3 4.830044431e-15 0)
(3 4.325354598e-15 0)
(3 4.37223925e-15 0)
(3 3.155475795e-15 0)
(3 2.101082137e-15 0)
(3 2.702657238e-16 0)
(3 -2.800119893e-15 0)
(3 -4.839452049e-15 0)
(3 -6.056561344e-15 0)
(3 -6.30891127e-15 0)
(3 -3.575458554e-15 0)
(3 -2.863469103e-15 0)
(3 -1.935002371e-15 0)
(3 -1.805885404e-15 0)
(3 -1.228935496e-15 0)
(3 1.269221164e-15 0)
(3 3.678949529e-15 0)
(3 6.754008284e-15 0)
(3 7.707344351e-15 0)
(3 7.336149148e-15 0)
(3 4.677014495e-15 0)
(3 2.521568249e-15 0)
(3 1.299199227e-15 0)
(3 -9.128925242e-16 0)
(3 -8.126568971e-16 0)
(3 1.89730642e-15 0)
(3 4.019740823e-15 0)
(3 4.873100869e-15 0)
(3 6.095396807e-15 0)
(3 5.603844066e-15 0)
(3 4.431315257e-15 0)
(3 4.355714884e-15 0)
(3 3.407205292e-15 0)
(3 3.15336979e-15 0)
(3 2.471760922e-15 0)
(3 2.113597031e-15 0)
(3 1.272761543e-15 0)
(3 7.859977158e-16 0)
(3 -5.810244285e-16 0)
(3 -1.904407418e-15 0)
(3 -3.501751803e-15 0)
(3 -4.328674855e-15 0)
(3 -4.052013382e-15 0)
(3 -4.488703653e-15 0)
(3 -6.515388824e-15 0)
(3 -7.356659218e-15 0)
(3 -7.649969594e-15 0)
(3 -6.0416904e-15 0)
(3 -3.023241714e-15 0)
(3 -5.35758907e-16 0)
(3 2.049364823e-15 0)
(3 3.542675445e-15 0)
(3 5.176524037e-15 0)
(3 5.501448344e-15 0)
(3 5.640776143e-15 0)
(3 6.309178431e-15 0)
(3 5.38491038e-15 0)
(3 4.55109857e-15 0)
(3 2.616352651e-15 0)
(3 1.103709024e-15 0)
(3 1.511369638e-17 0)
(3 -1.211342756e-15 0)
(3 -1.253227767e-15 0)
(3 -1.578676634e-15 0)
(3 -2.5583395e-15 0)
(3 -8.962883785e-16 0)
(3 -9.434911078e-16 0)
(3 2.678219807e-16 0)
(3 2.415060509e-15 0)
(3 5.983712706e-15 0)
(3 8.6482162e-15 0)
(3 8.940055919e-15 0)
(3 1.026678722e-14 0)
(3 1.091134658e-14 0)
(3 7.898568196e-15 0)
(3 5.478001467e-15 0)
(3 3.107635182e-16 0)
(3 8.957260379e-16 0)
(3 1.611956509e-15 0)
(3 1.612901393e-15 0)
(3 1.483077338e-15 0)
(3 2.242045122e-15 0)
(3 1.696649211e-15 0)
(3 1.610094495e-15 0)
(3 1.247762173e-15 0)
(3 1.225307751e-15 0)
(3 1.520650919e-15 0)
(3 2.953686213e-15 0)
(3 1.847131054e-15 0)
(3 6.045209767e-16 0)
(3 5.84139e-16 0)
(3 -3.997519835e-16 0)
(3 -1.02725446e-15 0)
(3 -2.037322249e-15 0)
(3 -1.466674358e-15 0)
(3 -1.540657811e-15 0)
(3 -1.742805933e-15 0)
(3 -1.545863776e-15 0)
(3 -4.35630922e-16 0)
(3 5.083027775e-16 0)
(3 2.765631273e-15 0)
(3 5.001832258e-15 0)
(3 6.449722232e-15 0)
(3 6.277905554e-15 0)
(3 5.837166351e-15 0)
(3 4.909852646e-15 0)
(3 1.465601119e-15 0)
(3 -2.311300104e-15 0)
(3 -5.143228738e-15 0)
(3 -6.332154782e-15 0)
(3 -5.509944686e-15 0)
(3 -3.739345153e-15 0)
(3 -2.099508616e-15 0)
(3 -9.116750268e-16 0)
(3 1.479793522e-15 0)
(3 3.199961704e-15 0)
(3 3.74432728e-15 0)
(3 4.444672799e-15 0)
(3 5.118934628e-15 0)
(3 5.797838485e-15 0)
(3 4.150174714e-15 0)
(3 2.895716848e-15 0)
(3 1.050879182e-15 0)
(3 -2.524916099e-15 0)
(3 -2.697866025e-15 0)
(3 -1.561887276e-15 0)
(3 6.686529731e-17 0)
(3 9.576239598e-16 0)
(3 1.482841722e-15 0)
(3 1.784651063e-15 0)
(3 1.449370143e-15 0)
(3 2.023141033e-15 0)
(3 3.844164084e-15 0)
(3 4.60678703e-15 0)
(3 2.105326478e-15 0)
(3 1.425138639e-15 0)
(3 1.450077512e-16 0)
(3 6.619574132e-16 0)
(3 4.906833982e-17 0)
(3 1.633787634e-16 0)
(3 -5.701229611e-16 0)
(3 -1.785844184e-15 0)
(3 -1.602308371e-15 0)
(3 -3.465124622e-15 0)
(3 -8.678763543e-15 0)
(3 -8.970645146e-15 0)
(3 -1.080367862e-14 0)
(3 -1.062953445e-14 0)
(3 -8.806593944e-15 0)
(3 -5.719269358e-15 0)
(3 -2.152723403e-15 0)
(3 5.885873345e-16 0)
(3 2.474613282e-15 0)
(3 5.187094277e-15 0)
(3 6.635695604e-15 0)
(3 6.944256006e-15 0)
(3 7.683474373e-15 0)
(3 8.363872782e-15 0)
(3 7.017521562e-15 0)
(3 5.734665852e-15 0)
(3 2.220097004e-15 0)
(3 3.349714075e-16 0)
(3 -1.245441198e-15 0)
(3 -2.146355964e-15 0)
(3 -1.081419701e-15 0)
(3 -8.541336193e-16 0)
(3 2.303469843e-16 0)
(3 2.2647442e-15 0)
(3 4.30558029e-15 0)
(3 6.565697492e-15 0)
(3 7.136652512e-15 0)
(3 7.389795477e-15 0)
(3 6.363514284e-15 0)
(3 5.639598042e-15 0)
(3 4.790743976e-15 0)
(3 4.793144978e-15 0)
(3 1.125826402e-16 0)
(3 1.911017545e-15 0)
(3 1.156284556e-15 0)
(3 7.283317386e-16 0)
(3 1.124335514e-15 0)
(3 1.471048606e-15 0)
(3 9.675040044e-17 0)
(3 5.186114065e-16 0)
(3 1.182787621e-15 0)
(3 1.607868948e-15 0)
(3 2.081227872e-15 0)
(3 1.479667182e-15 0)
(3 9.846241886e-16 0)
(3 9.674719347e-17 0)
(3 -3.624210169e-16 0)
(3 -1.810974516e-15 0)
(3 -3.978981145e-15 0)
(3 -3.848420983e-15 0)
(3 -5.262294734e-15 0)
(3 -4.943327007e-15 0)
(3 -5.106445707e-15 0)
(3 -5.116625671e-15 0)
(3 -4.739093194e-15 0)
(3 -4.116421844e-15 0)
(3 -1.729468861e-15 0)
(3 7.431334338e-16 0)
(3 3.406189958e-15 0)
(3 3.54911572e-15 0)
(3 2.886134907e-15 0)
(3 1.460868525e-15 0)
(3 4.509444855e-16 0)
(3 -4.207512174e-16 0)
(3 -1.485989282e-15 0)
(3 -2.993174415e-15 0)
(3 -4.757871395e-15 0)
(3 -4.32256109e-15 0)
(3 -3.360071631e-15 0)
(3 5.548911672e-16 0)
(3 9.063336119e-16 0)
(3 2.264112361e-15 0)
(3 1.491759786e-15 0)
(3 5.948480301e-16 0)
(3 2.226459554e-15 0)
(3 3.319928417e-15 0)
(3 3.191721489e-15 0)
(3 2.381564812e-15 0)
(3 1.48148776e-15 0)
(3 1.277355749e-15 0)
(3 -5.049264019e-16 0)
(3 -9.267081861e-16 0)
(3 -2.838701432e-16 0)
(3 5.039340064e-16 0)
(3 -1.063806888e-18 0)
(3 -8.360299183e-16 0)
(3 5.333487036e-17 0)
(3 2.10833479e-15 0)
(3 2.214249267e-15 0)
(3 2.429566305e-15 0)
(3 1.80166429e-15 0)
(3 3.656650681e-15 0)
(3 2.629507687e-15 0)
(3 2.49238211e-15 0)
(3 2.330170199e-15 0)
(3 2.050762234e-15 0)
(3 2.054927592e-15 0)
(3 9.029488587e-16 0)
(3 -3.730465243e-16 0)
(3 -3.772789611e-15 0)
(3 -5.085812976e-15 0)
(3 -8.392724516e-15 0)
(3 -8.813780255e-15 0)
(3 -8.181306862e-15 0)
(3 -5.417527587e-15 0)
(3 -4.148971884e-15 0)
(3 -2.748934428e-15 0)
(3 -1.624878373e-15 0)
(3 2.079435173e-16 0)
(3 3.278822094e-15 0)
(3 3.872811333e-15 0)
(3 5.898352278e-15 0)
(3 9.939151481e-15 0)
(3 1.178855679e-14 0)
(3 9.617251088e-15 0)
(3 6.979614393e-15 0)
(3 4.222404603e-15 0)
(3 1.941380035e-15 0)
(3 -1.352792447e-15 0)
(3 -3.263703827e-15 0)
(3 -1.163834324e-16 0)
(3 4.126546612e-15 0)
(3 5.259859698e-15 0)
(3 6.434248372e-15 0)
(3 7.120374811e-15 0)
(3 6.585442366e-15 0)
(3 5.965653989e-15 0)
(3 6.124750045e-15 0)
(3 4.377447883e-15 0)
(3 1.502039295e-15 0)
(3 -4.619493801e-17 0)
(3 3.493351853e-15 0)
(3 1.439605495e-16 0)
(3 7.897463835e-16 0)
(3 2.307347828e-16 0)
(3 2.103591508e-16 0)
(3 3.126986892e-16 0)
(3 -7.910859034e-17 0)
(3 -1.066847409e-15 0)
(3 -3.654833369e-16 0)
(3 4.282100222e-16 0)
(3 1.857377555e-16 0)
(3 8.648190015e-16 0)
(3 -1.075350368e-15 0)
(3 -8.823078101e-16 0)
(3 -8.068866936e-16 0)
(3 -1.535105384e-15 0)
(3 -1.159192673e-15 0)
(3 -1.233506184e-15 0)
(3 -9.778889308e-16 0)
(3 -3.150377325e-15 0)
(3 -4.250891643e-15 0)
(3 -4.286114823e-15 0)
(3 -3.63025425e-15 0)
(3 -3.08509953e-15 0)
(3 -2.678755369e-15 0)
(3 -8.92279888e-16 0)
(3 -6.732544108e-16 0)
(3 -3.346501718e-16 0)
(3 -1.578511794e-15 0)
(3 -7.812190369e-16 0)
(3 -9.927896863e-16 0)
(3 -1.445771127e-16 0)
(3 -6.360442569e-16 0)
(3 -6.324716645e-16 0)
(3 5.837909213e-16 0)
(3 -7.507227526e-17 0)
(3 -7.068126436e-16 0)
(3 -9.398715458e-16 0)
(3 -4.643343638e-16 0)
(3 -7.007078659e-16 0)
(3 -2.084616045e-15 0)
(3 -1.162241508e-15 0)
(3 -9.988677934e-16 0)
(3 -4.781415624e-16 0)
(3 3.162845691e-16 0)
(3 7.148673553e-16 0)
(3 1.7173422e-15 0)
(3 2.620390017e-15 0)
(3 4.406123216e-15 0)
(3 3.671022621e-15 0)
(3 1.809681475e-15 0)
(3 9.780726907e-16 0)
(3 7.371342483e-16 0)
(3 -2.177866035e-16 0)
(3 -1.752217045e-15 0)
(3 -1.897979582e-15 0)
(3 -1.15111335e-15 0)
(3 9.273611193e-16 0)
(3 1.623629618e-15 0)
(3 2.872451644e-15 0)
(3 4.30832962e-15 0)
(3 4.221301847e-15 0)
(3 4.267191787e-15 0)
(3 3.905613957e-15 0)
(3 3.099094407e-15 0)
(3 1.422329112e-15 0)
(3 8.793098932e-16 0)
(3 -1.746836197e-15 0)
(3 -1.700242366e-15 0)
(3 -1.294265956e-15 0)
(3 -3.077114095e-15 0)
(3 -3.74777386e-15 0)
(3 -3.202349237e-15 0)
(3 -2.881708854e-15 0)
(3 -2.97587199e-15 0)
(3 -4.171576558e-15 0)
(3 -4.622145253e-15 0)
(3 -2.167306062e-15 0)
(3 1.33882541e-15 0)
(3 3.234547042e-15 0)
(3 6.277100421e-15 0)
(3 8.687558247e-15 0)
(3 9.865045284e-15 0)
(3 1.078334527e-14 0)
(3 7.573299446e-15 0)
(3 5.730776336e-15 0)
(3 6.193292163e-15 0)
(3 4.605825294e-15 0)
(3 4.052229479e-15 0)
(3 5.381928155e-15 0)
(3 6.435256276e-15 0)
(3 8.626326493e-15 0)
(3 9.207489138e-15 0)
(3 8.429958581e-15 0)
(3 7.331545115e-15 0)
(3 6.55932471e-15 0)
(3 5.946714975e-15 0)
(3 2.112773948e-15 0)
(3 -4.15805985e-18 0)
(3 -9.150470548e-16 0)
(3 -6.127994416e-16 0)
(3 -1.916549875e-17 0)
(3 4.843440801e-17 0)
(3 -2.471714337e-16 0)
(3 -6.292195143e-16 0)
(3 -7.358553615e-16 0)
(3 -9.554446552e-16 0)
(3 1.268548938e-16 0)
(3 4.249356552e-16 0)
(3 3.168355987e-16 0)
(3 2.541512435e-16 0)
(3 6.368573894e-16 0)
(3 1.92518596e-16 0)
(3 1.642559875e-16 0)
(3 1.266990962e-17 0)
(3 -5.653703837e-16 0)
(3 -1.581102702e-16 0)
(3 3.045882148e-18 0)
(3 -6.663753289e-16 0)
(3 -1.074227851e-15 0)
(3 -2.091823753e-15 0)
(3 -2.805873378e-15 0)
(3 -3.852464606e-15 0)
(3 -5.001042131e-15 0)
(3 -5.48382193e-15 0)
(3 -5.441691096e-15 0)
(3 -4.222230496e-15 0)
(3 -3.372389354e-15 0)
(3 -1.904613808e-15 0)
(3 -7.182557244e-16 0)
(3 2.040394401e-15 0)
(3 2.008250364e-15 0)
(3 2.076887939e-16 0)
(3 9.655987515e-16 0)
(3 2.3626472e-15 0)
(3 2.950524545e-15 0)
(3 3.081035526e-15 0)
(3 1.232628287e-15 0)
(3 -1.572833419e-15 0)
(3 -2.449381825e-15 0)
(3 -3.426358817e-15 0)
(3 -2.719915609e-15 0)
(3 -9.309710903e-16 0)
(3 -1.311584493e-15 0)
(3 -1.036353009e-15 0)
(3 2.241371723e-16 0)
(3 1.740524905e-15 0)
(3 3.696120303e-15 0)
(3 4.649150852e-15 0)
(3 3.477057508e-15 0)
(3 1.239312376e-15 0)
(3 -3.492003897e-16 0)
(3 -1.220860693e-15 0)
(3 -1.467883124e-15 0)
(3 -2.186082972e-15 0)
(3 -2.657699618e-15 0)
(3 -2.823067401e-15 0)
(3 -3.356258075e-15 0)
(3 -7.497451866e-16 0)
(3 1.254147827e-15 0)
(3 2.454186772e-15 0)
(3 3.498026118e-15 0)
(3 3.906903418e-15 0)
(3 3.437615316e-15 0)
(3 3.067437795e-15 0)
(3 9.038473003e-16 0)
(3 -1.206656288e-15 0)
(3 -9.366064231e-16 0)
(3 6.79014709e-16 0)
(3 1.370032311e-15 0)
(3 3.497135223e-15 0)
(3 2.944083578e-15 0)
(3 2.170083739e-15 0)
(3 8.285304474e-16 0)
(3 -4.459746104e-16 0)
(3 -6.932331761e-16 0)
(3 5.463925781e-16 0)
(3 7.250742008e-16 0)
(3 1.901241826e-15 0)
(3 4.795934523e-15 0)
(3 6.788625386e-15 0)
(3 8.820085e-15 0)
(3 1.053729614e-14 0)
(3 1.187873723e-14 0)
(3 9.453831229e-15 0)
(3 8.451869421e-15 0)
(3 8.101525205e-15 0)
(3 7.520138263e-15 0)
(3 7.830365078e-15 0)
(3 6.867991783e-15 0)
(3 6.086879498e-15 0)
(3 6.405940294e-15 0)
(3 6.806834042e-15 0)
(3 6.198275282e-15 0)
(3 5.365234448e-15 0)
(3 4.37123447e-15 0)
(3 3.805272252e-15 0)
(3 1.916699745e-15 0)
(3 1.122195432e-15 0)
(3 9.108296534e-16 0)
(3 -1.519152034e-16 0)
(3 -7.350685891e-17 0)
(3 -5.19109523e-16 0)
(3 -6.796746701e-16 0)
(3 -9.631304215e-16 0)
(3 -8.245387457e-16 0)
(3 -3.388297374e-16 0)
(3 4.474361589e-16 0)
(3 6.739675929e-16 0)
(3 1.912629378e-15 0)
(3 2.600505399e-15 0)
(3 2.170774864e-15 0)
(3 2.216303825e-15 0)
(3 3.042514753e-15 0)
(3 3.166960033e-15 0)
(3 3.647809711e-15 0)
(3 3.072733542e-15 0)
(3 3.061597086e-15 0)
(3 8.150940618e-16 0)
(3 -3.609918559e-16 0)
(3 -1.410954125e-15 0)
(3 -2.490682218e-15 0)
(3 -2.975067363e-15 0)
(3 -3.606807877e-15 0)
(3 -3.169269554e-15 0)
(3 -3.520016796e-15 0)
(3 -2.494818681e-15 0)
(3 -1.948400197e-15 0)
(3 -5.936460764e-16 0)
(3 -1.115432508e-15 0)
(3 -8.65198438e-16 0)
(3 1.383507005e-15 0)
(3 3.063663073e-15 0)
(3 5.09960192e-15 0)
(3 4.704549071e-15 0)
(3 4.475797092e-15 0)
(3 1.864735691e-15 0)
(3 3.059965851e-16 0)
(3 -5.348210503e-16 0)
(3 -1.650796458e-15 0)
(3 -7.991562407e-16 0)
(3 -4.515870226e-16 0)
(3 -1.182757127e-15 0)
(3 -1.152602401e-15 0)
(3 -5.501177489e-16 0)
(3 1.967063592e-15 0)
(3 5.221568629e-15 0)
(3 6.023608271e-15 0)
(3 3.756324848e-15 0)
(3 2.353182294e-15 0)
(3 3.941171025e-15 0)
(3 4.257191953e-15 0)
(3 2.732671345e-15 0)
(3 1.31558912e-15 0)
(3 4.757564382e-16 0)
(3 -3.690682827e-16 0)
(3 -1.70586025e-15 0)
(3 -3.37214883e-15 0)
(3 -2.354160194e-15 0)
(3 -6.537110875e-16 0)
(3 1.126883955e-15 0)
(3 7.149092608e-16 0)
(3 1.45420078e-15 0)
(3 1.757154007e-15 0)
(3 1.796271797e-16 0)
(3 -1.819482636e-15 0)
(3 -2.488688513e-15 0)
(3 -2.303728522e-15 0)
(3 -7.686507347e-16 0)
(3 2.125083342e-15 0)
(3 2.803040574e-15 0)
(3 3.776385698e-15 0)
(3 4.294797589e-15 0)
(3 3.06124208e-15 0)
(3 5.551363104e-16 0)
(3 -1.891665221e-15 0)
(3 -1.550728047e-15 0)
(3 -2.997247356e-15 0)
(3 -2.751034923e-15 0)
(3 -1.532536604e-15 0)
(3 4.636534693e-15 0)
(3 8.601458708e-15 0)
(3 1.235542731e-14 0)
(3 1.178086115e-14 0)
(3 1.175689348e-14 0)
(3 9.931178351e-15 0)
(3 8.379406152e-15 0)
(3 8.14290826e-15 0)
(3 7.437652147e-15 0)
(3 6.175928414e-15 0)
(3 4.33118437e-15 0)
(3 2.374809315e-15 0)
(3 1.809378169e-15 0)
(3 2.43056795e-15 0)
(3 1.815652658e-15 0)
(3 8.619127971e-16 0)
(3 1.078112563e-15 0)
(3 -2.02080168e-16 0)
(3 -7.167869188e-16 0)
(3 -4.767837591e-16 0)
(3 4.665073704e-16 0)
(3 -5.976463738e-16 0)
(3 -2.457970564e-15 0)
(3 -1.871096339e-15 0)
(3 -1.667906711e-15 0)
(3 -1.13560351e-15 0)
(3 -1.387703377e-15 0)
(3 -1.459856932e-15 0)
(3 -1.054761552e-15 0)
(3 4.416689632e-16 0)
(3 1.548019953e-15 0)
(3 1.972559353e-15 0)
(3 2.034677444e-15 0)
(3 2.343397425e-15 0)
(3 2.570226377e-15 0)
(3 3.401393418e-15 0)
(3 3.151866437e-15 0)
(3 2.683176502e-15 0)
(3 7.467238685e-16 0)
(3 -5.714967681e-16 0)
(3 -2.008837669e-15 0)
(3 -1.867195291e-15 0)
(3 -1.06569639e-15 0)
(3 -8.397097298e-16 0)
(3 1.647963508e-16 0)
(3 4.963334697e-16 0)
(3 -2.243954171e-16 0)
(3 -2.452604975e-15 0)
(3 -3.846034594e-15 0)
(3 -3.48952967e-15 0)
(3 -3.232282048e-15 0)
(3 -2.618995827e-15 0)
(3 1.500481962e-15 0)
(3 2.382696535e-15 0)
(3 2.442590431e-15 0)
(3 2.307901221e-15 0)
(3 2.934136269e-16 0)
(3 -9.698767667e-16 0)
(3 -2.845715272e-15 0)
(3 -3.567449968e-15 0)
(3 -2.990508405e-15 0)
(3 -2.709576101e-15 0)
(3 -1.54477519e-15 0)
(3 -1.354561984e-15 0)
(3 -7.871411712e-16 0)
(3 9.521478191e-16 0)
(3 3.707422831e-15 0)
(3 5.42808073e-15 0)
(3 3.846214147e-15 0)
(3 2.628442723e-15 0)
(3 3.086490479e-15 0)
(3 2.971996455e-15 0)
(3 2.40376419e-15 0)
(3 1.009622244e-15 0)
(3 8.394878173e-16 0)
(3 -2.356942522e-15 0)
(3 -2.95058766e-15 0)
(3 -2.650739669e-15 0)
(3 -2.824645083e-15 0)
(3 -2.226996765e-15 0)
(3 -9.641509735e-16 0)
(3 -1.006191258e-15 0)
(3 -6.361228733e-16 0)
(3 -1.095080228e-15 0)
(3 -1.822471602e-15 0)
(3 -2.892082694e-15 0)
(3 -3.229260115e-15 0)
(3 -3.61206164e-15 0)
(3 -2.887558719e-15 0)
(3 -6.949433851e-16 0)
(3 1.204017728e-15 0)
(3 4.05103514e-15 0)
(3 6.509072254e-15 0)
(3 5.850674483e-15 0)
(3 3.568318903e-15 0)
(3 -2.820914329e-16 0)
(3 -1.469184371e-15 0)
(3 -1.963507639e-15 0)
(3 -1.23264034e-15 0)
(3 7.422588717e-16 0)
(3 1.709031007e-15 0)
(3 5.577121418e-15 0)
(3 7.619918775e-15 0)
(3 8.12588e-15 0)
(3 9.090916043e-15 0)
(3 9.326973636e-15 0)
(3 9.302157323e-15 0)
(3 1.034675838e-14 0)
(3 9.068611465e-15 0)
(3 6.440074802e-15 0)
(3 3.888050119e-15 0)
(3 1.228211177e-15 0)
(3 1.155487941e-16 0)
(3 -1.685159917e-15 0)
(3 -1.265036006e-15 0)
(3 -1.124040648e-15 0)
(3 -1.904217732e-15 0)
(3 -1.300022774e-15 0)
(3 -1.320693256e-15 0)
(3 -6.88338474e-16 0)
(3 1.339656673e-16 0)
(3 2.840386579e-16 0)
(3 -9.89408315e-17 0)
(3 -1.764969795e-16 0)
(3 2.598248117e-16 0)
(3 -8.162753421e-17 0)
(3 -3.904876538e-16 0)
(3 1.535701492e-17 0)
(3 4.132444323e-16 0)
(3 4.11933442e-16 0)
(3 1.651051796e-15 0)
(3 1.395590265e-15 0)
(3 1.577167956e-15 0)
(3 1.036323192e-15 0)
(3 1.31574831e-15 0)
(3 1.601083465e-16 0)
(3 -3.90813193e-16 0)
(3 -1.141281614e-15 0)
(3 -1.199792166e-15 0)
(3 -1.645238694e-15 0)
(3 -1.386209383e-15 0)
(3 -5.108895545e-16 0)
(3 2.751180576e-16 0)
(3 9.947501643e-16 0)
(3 1.259318554e-15 0)
(3 8.76399324e-16 0)
(3 -8.443573371e-16 0)
(3 -2.492860828e-15 0)
(3 -3.552513428e-15 0)
(3 -3.428972156e-15 0)
(3 -4.111233175e-15 0)
(3 -4.45600415e-15 0)
(3 -3.534060751e-15 0)
(3 -2.754624784e-15 0)
(3 -2.563553319e-16 0)
(3 -1.642222322e-16 0)
(3 1.042180863e-17 0)
(3 -1.657211383e-15 0)
(3 -3.839540645e-15 0)
(3 -2.936147084e-15 0)
(3 -4.078192635e-15 0)
(3 -4.658554075e-15 0)
(3 -3.377939934e-15 0)
(3 -1.654080015e-15 0)
(3 -2.561644181e-16 0)
(3 6.586777485e-16 0)
(3 1.755860372e-15 0)
(3 2.551901038e-15 0)
(3 2.800399746e-15 0)
(3 2.726253615e-15 0)
(3 1.783884677e-15 0)
(3 3.34732451e-16 0)
(3 -2.23946604e-15 0)
(3 -2.013340808e-15 0)
(3 -1.172680756e-15 0)
(3 -1.82645959e-15 0)
(3 -2.88504922e-15 0)
(3 -3.839150331e-15 0)
(3 -2.467646816e-15 0)
(3 -1.934554381e-15 0)
(3 1.274692746e-16 0)
(3 3.409174043e-16 0)
(3 -1.051018353e-15 0)
(3 -1.677429084e-15 0)
(3 -1.146120794e-15 0)
(3 -6.755046813e-16 0)
(3 -2.434169875e-15 0)
(3 -3.745814343e-15 0)
(3 -1.480980655e-15 0)
(3 4.075956601e-16 0)
(3 4.3353177e-15 0)
(3 6.910423118e-15 0)
(3 6.76983246e-15 0)
(3 6.361573319e-15 0)
(3 4.357828966e-15 0)
(3 2.732205158e-15 0)
(3 1.344318705e-15 0)
(3 1.529531651e-15 0)
(3 3.346384615e-15 0)
(3 6.55576261e-15 0)
(3 7.680513656e-15 0)
(3 7.69904701e-15 0)
(3 6.314557843e-15 0)
(3 8.152788803e-15 0)
(3 8.244135809e-15 0)
(3 9.613029596e-15 0)
(3 9.55703955e-15 0)
(3 9.452971439e-15 0)
(3 8.634408612e-15 0)
(3 7.254539049e-15 0)
(3 5.994102291e-15 0)
(3 4.481135725e-15 0)
(3 1.995223528e-15 0)
(3 -1.721565343e-15 0)
(3 -3.188466511e-15 0)
(3 -3.324414129e-15 0)
(3 -3.172253875e-15 0)
(3 -5.949235829e-16 0)
(3 7.350923882e-17 0)
(3 2.676839982e-16 0)
(3 -3.554946934e-16 0)
(3 5.13782129e-16 0)
(3 4.490384464e-16 0)
(3 2.084698811e-16 0)
(3 -3.072261933e-17 0)
(3 -1.309530748e-17 0)
(3 -2.134231273e-16 0)
(3 2.002713727e-16 0)
(3 1.763909876e-17 0)
(3 -6.03633652e-16 0)
(3 -3.332092825e-16 0)
(3 9.644973803e-16 0)
(3 1.74548132e-15 0)
(3 1.132378818e-15 0)