/*--------------------------------*- C++ -*----------------------------------*\
  =========                 |
  \\      /  F ield         | OpenFOAM: The Open Source CFD Toolbox
   \\    /   O peration     | Website:  https://openfoam.org
    \\  /    A nd           | Version:  7
     \\/     M anipulation  |
\*---------------------------------------------------------------------------*/
FoamFile
{
    version     2.0;
    format      ascii;
    class       volScalarField;
    location    "1";
    object      rho;
}
// * * * * * * * * * * * * * * * * * * * * * * * * * * * * * * * * * * * * * //

dimensions      [1 -3 0 0 0 0 0];

internalField   nonuniform List<scalar> 
22
(
1.044211249
1.210476579
1.025536029
1.027530421
1.151723575
1.559779534
1.206423435
1.142590779
1.1876211
1.664547611
1.52018479
1.294472941
1.19664022
1.62903311
1.61853733
1.518031119
1.360787405
1.490198589
1.577137025
1.572436691
1.522640139
1.413889194
)
;

boundaryField
{
    inlet
    {
        type            calculated;
        value           nonuniform 0();
    }
    outlet
    {
        type            calculated;
        value           nonuniform 0();
    }
    bottom
    {
        type            calculated;
        value           nonuniform 0();
    }
    top
    {
        type            calculated;
        value           nonuniform 0();
    }
    obstacle
    {
        type            calculated;
        value           uniform 1.025536029;
    }
    defaultFaces
    {
        type            empty;
    }
    procBoundary27to20
    {
        type            processor;
        value           nonuniform List<scalar> 2(1.930202089 1.665297524);
    }
    procBoundary27to21
    {
        type            processor;
        value           nonuniform List<scalar> 4(1.07122379 1.250930732 0.9961869454 0.9961869454);
    }
    procBoundary27to26
    {
        type            processor;
        value           nonuniform List<scalar> 3(1.479854155 1.406520162 1.400090689);
    }
    procBoundary27to28
    {
        type            processor;
        value           nonuniform List<scalar> 6(1.342189505 1.308477786 1.308477786 1.274512657 1.212757551 1.283796035);
    }
    procBoundary27to33
    {
        type            processor;
        value           nonuniform List<scalar> 5(1.493637502 1.56698763 1.562021047 1.493637502 1.400888103);
    }
    procBoundary27to34
    {
        type            processor;
        value           uniform 1.402382969;
    }
}


// ************************************************************************* //
