/*--------------------------------*- C++ -*----------------------------------*\
  =========                 |
  \\      /  F ield         | OpenFOAM: The Open Source CFD Toolbox
   \\    /   O peration     | Website:  https://openfoam.org
    \\  /    A nd           | Version:  7
     \\/     M anipulation  |
\*---------------------------------------------------------------------------*/
FoamFile
{
    version     2.0;
    format      ascii;
    class       volVectorField;
    location    "2.9";
    object      U;
}
// * * * * * * * * * * * * * * * * * * * * * * * * * * * * * * * * * * * * * //

dimensions      [0 1 -1 0 0 0 0];

internalField   nonuniform List<vector> 
80000
(
(3 6.27208901e-16 0)
(3 -1.514756024e-15 0)
(3 -3.487348725e-15 0)
(3 -2.895733141e-15 0)
(3 -1.233903701e-15 0)
(3 9.932092085e-16 0)
(3 3.850766377e-16 0)
(3 2.5291644e-15 0)
(3 5.131507069e-15 0)
(3 2.734970471e-15 0)
(3 1.307844815e-15 0)
(3 1.943409073e-15 0)
(3 1.051538696e-15 0)
(3 1.376947254e-15 0)
(3 2.150018302e-15 0)
(3 3.930912183e-16 0)
(3 3.796146234e-16 0)
(3 -3.056589139e-15 0)
(3 -4.876305458e-15 0)
(3 -4.797587966e-15 0)
(3 -2.532543143e-15 0)
(3 4.485875085e-16 0)
(3 1.351088535e-15 0)
(3 4.077924101e-15 0)
(3 5.656828106e-15 0)
(3 5.879714767e-15 0)
(3 4.933736451e-15 0)
(3 2.207050848e-15 0)
(3 -2.903203048e-16 0)
(3 -1.859524523e-15 0)
(3 -3.734998366e-15 0)
(3 -3.110663473e-15 0)
(3 -3.672814773e-15 0)
(3 -5.180624357e-15 0)
(3 -4.159374013e-15 0)
(3 -5.285983906e-15 0)
(3 -4.744616231e-15 0)
(3 -4.939538542e-15 0)
(3 -5.058607818e-15 0)
(3 -5.204357186e-15 0)
(3 -4.953678887e-15 0)
(3 -3.646242766e-15 0)
(3 -4.279904083e-15 0)
(3 -6.03860804e-15 0)
(3 -4.993442065e-15 0)
(3 -4.231263365e-15 0)
(3 -3.95027045e-15 0)
(3 3.74862578e-15 0)
(3 6.421458081e-15 0)
(3 2.601413224e-15 0)
(3 1.791066068e-15 0)
(3 -4.986439914e-16 0)
(3 -2.624436638e-15 0)
(3 1.61827018e-15 0)
(3 7.134290091e-15 0)
(3 7.735076457e-15 0)
(3 5.886996749e-15 0)
(3 5.391810597e-15 0)
(3 5.218315639e-15 0)
(3 4.897446202e-15 0)
(3 3.818302631e-15 0)
(3 5.132933371e-15 0)
(3 3.430204063e-15 0)
(3 6.607122204e-15 0)
(3 5.262870874e-15 0)
(3 2.749475492e-15 0)
(3 -2.219407923e-15 0)
(3 -4.280674409e-15 0)
(3 -7.961211276e-15 0)
(3 -9.127625436e-15 0)
(3 -1.129995544e-14 0)
(3 -1.279326146e-14 0)
(3 -8.452125351e-15 0)
(3 -3.529228245e-15 0)
(3 -2.428618136e-15 0)
(3 -1.584307913e-15 0)
(3 -9.689509109e-16 0)
(3 -4.515811089e-16 0)
(3 -4.558699977e-16 0)
(3 -4.570259507e-16 0)
(3 -1.116130693e-15 0)
(3 -2.177513271e-15 0)
(3 -2.218164953e-15 0)
(3 3.126104518e-15 0)
(3 3.938058983e-15 0)
(3 7.640500967e-15 0)
(3 8.505133103e-15 0)
(3 8.659391766e-15 0)
(3 9.843546749e-15 0)
(3 8.159956839e-15 0)
(3 4.973972216e-15 0)
(3 2.463163376e-15 0)
(3 1.204910864e-15 0)
(3 4.025192368e-16 0)
(3 -2.801512222e-15 0)
(3 -5.308552856e-15 0)
(3 1.379825269e-15 0)
(3 2.411231963e-15 0)
(3 2.519979381e-15 0)
(3 2.674782511e-15 0)
(3 -5.440156117e-16 0)
(3 -1.088038078e-15 0)
(3 -2.388945755e-15 0)
(3 -2.501650333e-15 0)
(3 -3.412349115e-15 0)
(3 -2.644458507e-15 0)
(3 -6.426797795e-16 0)
(3 2.571041285e-15 0)
(3 3.130051455e-15 0)
(3 1.265216488e-15 0)
(3 7.504512088e-16 0)
(3 1.366757254e-15 0)
(3 3.925942769e-15 0)
(3 5.079077784e-15 0)
(3 6.305528974e-15 0)
(3 4.69916298e-15 0)
(3 2.78167146e-15 0)
(3 -9.034940884e-16 0)
(3 -5.596517746e-15 0)
(3 -6.244195529e-15 0)
(3 -5.098021602e-15 0)
(3 -3.2103414e-15 0)
(3 -2.975286854e-16 0)
(3 6.486286373e-15 0)
(3 8.994810945e-15 0)
(3 9.660518966e-15 0)
(3 6.551892479e-15 0)
(3 4.640344974e-16 0)
(3 -4.556306478e-15 0)
(3 -5.28437966e-15 0)
(3 -5.45057343e-15 0)
(3 -5.699379132e-15 0)
(3 -4.05628006e-15 0)
(3 -6.132638549e-15 0)
(3 -8.72960316e-15 0)
(3 -1.008921504e-14 0)
(3 -9.176500143e-15 0)
(3 -5.879896962e-15 0)
(3 -3.398018947e-15 0)
(3 -5.398175503e-15 0)
(3 -1.597037579e-15 0)
(3 -2.776921194e-15 0)
(3 -8.378480083e-15 0)
(3 -7.595765241e-15 0)
(3 -8.044741846e-16 0)
(3 2.709903783e-15 0)
(3 3.71656681e-15 0)
(3 9.420209807e-15 0)
(3 1.253721904e-14 0)
(3 1.261722026e-14 0)
(3 9.30194901e-15 0)
(3 1.629673611e-15 0)
(3 -2.641386018e-17 0)
(3 5.89860146e-15 0)
(3 1.396046394e-14 0)
(3 1.495637982e-14 0)
(3 8.956517386e-15 0)
(3 5.655797223e-15 0)
(3 5.834867969e-15 0)
(3 9.213895398e-15 0)
(3 8.342129119e-15 0)
(3 1.13300308e-14 0)
(3 9.640335295e-15 0)
(3 1.001434317e-14 0)
(3 7.822640842e-15 0)
(3 4.978214727e-15 0)
(3 -5.79623046e-16 0)
(3 -6.364695279e-15 0)
(3 -9.382521147e-15 0)
(3 -9.987240934e-15 0)
(3 -1.120975618e-14 0)
(3 -1.34762821e-14 0)
(3 -1.312976269e-14 0)
(3 -1.000399298e-14 0)
(3 -7.471508084e-15 0)
(3 -5.961618585e-15 0)
(3 -4.491272378e-15 0)
(3 -2.746269591e-15 0)
(3 -1.581684807e-15 0)
(3 2.189747352e-16 0)
(3 -8.692265497e-16 0)
(3 -2.478982699e-15 0)
(3 -1.790068072e-15 0)
(3 5.344349175e-15 0)
(3 1.123180631e-14 0)
(3 1.87865383e-14 0)
(3 1.800306681e-14 0)
(3 1.823582103e-14 0)
(3 1.737563643e-14 0)
(3 1.591020857e-14 0)
(3 1.542624703e-14 0)
(3 1.016613395e-14 0)
(3 6.970413593e-15 0)
(3 2.809818805e-15 0)
(3 7.543540809e-16 0)
(3 -3.583482771e-15 0)
(3 -3.671251658e-15 0)
(3 9.169590369e-17 0)
(3 1.710360166e-15 0)
(3 5.169292078e-15 0)
(3 -2.684887129e-16 0)
(3 4.692141048e-16 0)
(3 2.521188638e-16 0)
(3 1.212147192e-15 0)
(3 6.347319431e-17 0)
(3 -1.838599833e-15 0)
(3 -1.491937988e-15 0)
(3 6.321195278e-16 0)
(3 1.556201315e-15 0)
(3 3.269853933e-15 0)
(3 4.275734566e-15 0)
(3 4.656900262e-15 0)
(3 4.993466654e-15 0)
(3 6.915784571e-15 0)
(3 9.687014476e-15 0)
(3 8.169487143e-15 0)
(3 6.484152873e-15 0)
(3 3.734743343e-15 0)
(3 1.836574015e-15 0)
(3 -1.099459124e-15 0)
(3 -4.099213788e-15 0)
(3 -5.029639578e-15 0)
(3 -4.48623841e-15 0)
(3 -1.482502045e-15 0)
(3 -3.003886733e-16 0)
(3 -1.241314444e-15 0)
(3 -3.366317814e-15 0)
(3 -6.916314083e-15 0)
(3 -6.44737427e-15 0)
(3 -5.079282026e-15 0)
(3 -2.070652341e-15 0)
(3 -3.484294204e-15 0)
(3 -3.716345173e-15 0)
(3 -2.863291257e-15 0)
(3 -4.096382767e-15 0)
(3 -5.944603041e-15 0)
(3 -5.884915313e-15 0)
(3 -6.503778485e-15 0)
(3 -7.687939403e-15 0)
(3 -1.18230169e-14 0)
(3 -1.119654176e-14 0)
(3 -1.468499926e-14 0)
(3 -1.622105354e-14 0)
(3 -1.622771772e-14 0)
(3 -9.250758852e-15 0)
(3 -4.686867417e-15 0)
(3 1.099074735e-15 0)
(3 5.42368863e-15 0)
(3 9.044607309e-15 0)
(3 8.384171301e-15 0)
(3 4.825049186e-15 0)
(3 2.024130199e-15 0)
(3 2.495731831e-15 0)
(3 5.240642659e-15 0)
(3 1.035151882e-14 0)
(3 1.445753912e-14 0)
(3 1.409002219e-14 0)
(3 1.25409031e-14 0)
(3 1.199385795e-14 0)
(3 1.436344169e-14 0)
(3 1.612106731e-14 0)
(3 1.64830505e-14 0)
(3 1.460341375e-14 0)
(3 1.322969505e-14 0)
(3 9.66530209e-15 0)
(3 4.386268492e-15 0)
(3 2.64918577e-15 0)
(3 3.917428784e-16 0)
(3 -1.756277685e-15 0)
(3 -5.790121969e-15 0)
(3 -8.948739792e-15 0)
(3 -1.528209777e-14 0)
(3 -1.613914425e-14 0)
(3 -1.470789125e-14 0)
(3 -1.182757975e-14 0)
(3 -3.496746047e-15 0)
(3 2.811343891e-15 0)
(3 2.130937966e-15 0)
(3 1.050189068e-15 0)
(3 -1.173108776e-15 0)
(3 -2.707833413e-15 0)
(3 -2.835683072e-15 0)
(3 -1.60466623e-15 0)
(3 2.833671179e-15 0)
(3 6.866765098e-15 0)
(3 1.052621666e-14 0)
(3 1.206431427e-14 0)
(3 1.415255739e-14 0)
(3 1.697548254e-14 0)
(3 1.985093356e-14 0)
(3 2.274523878e-14 0)
(3 2.089431891e-14 0)
(3 1.279284828e-14 0)
(3 6.172021198e-15 0)
(3 -1.522526323e-15 0)
(3 -1.026592304e-14 0)
(3 -1.559237909e-14 0)
(3 -1.289411755e-14 0)
(3 -5.351764308e-15 0)
(3 2.548017882e-15 0)
(3 1.110024947e-15 0)
(3 -3.726176717e-16 0)
(3 3.325426372e-16 0)
(3 1.117695207e-16 0)
(3 2.174099563e-15 0)
(3 3.407435742e-15 0)
(3 4.601733654e-15 0)
(3 4.077753977e-15 0)
(3 6.182951001e-15 0)
(3 7.693926601e-15 0)
(3 7.513500771e-15 0)
(3 7.6457963e-15 0)
(3 5.781655851e-15 0)
(3 4.130736682e-15 0)
(3 4.933051381e-15 0)
(3 6.225568826e-15 0)
(3 5.404266849e-15 0)
(3 5.331801976e-15 0)
(3 4.697967338e-15 0)
(3 4.196894556e-15 0)
(3 2.210930099e-15 0)
(3 4.151171929e-16 0)
(3 -1.588266348e-15 0)
(3 -1.937746279e-15 0)
(3 -5.608728281e-15 0)
(3 -1.028472682e-14 0)
(3 -1.03458351e-14 0)
(3 -9.873897983e-15 0)
(3 -7.62941037e-15 0)
(3 -4.848347297e-15 0)
(3 -4.481950698e-15 0)
(3 -3.28251025e-15 0)
(3 -5.204222564e-15 0)
(3 -6.05906097e-15 0)
(3 -5.637025284e-15 0)
(3 -7.057111327e-15 0)
(3 -8.660317959e-15 0)
(3 -1.384018048e-14 0)
(3 -1.801664911e-14 0)
(3 -1.94900057e-14 0)
(3 -2.497036001e-14 0)
(3 -2.7184049e-14 0)
(3 -2.530862965e-14 0)
(3 -2.375201784e-14 0)
(3 -1.682515697e-14 0)
(3 -1.554026014e-14 0)
(3 -8.520858326e-15 0)
(3 -3.041425195e-15 0)
(3 8.143258495e-17 0)
(3 2.287388348e-16 0)
(3 -2.886903132e-16 0)
(3 7.494448125e-16 0)
(3 4.491322123e-15 0)
(3 6.687211907e-15 0)
(3 8.002484908e-15 0)
(3 1.040079411e-14 0)
(3 1.238532849e-14 0)
(3 1.68734122e-14 0)
(3 1.851425897e-14 0)
(3 1.716146532e-14 0)
(3 1.763538939e-14 0)
(3 1.506963491e-14 0)
(3 9.408810689e-15 0)
(3 6.31734478e-15 0)
(3 1.963532694e-15 0)
(3 -3.023318833e-15 0)
(3 -5.559563214e-15 0)
(3 -7.820121008e-15 0)
(3 -8.00970084e-15 0)
(3 -9.60230278e-15 0)
(3 -1.185345471e-14 0)
(3 -1.446836661e-14 0)
(3 -1.445009736e-14 0)
(3 -1.143123858e-14 0)
(3 -5.07519842e-15 0)
(3 -4.110302825e-15 0)
(3 2.817737213e-15 0)
(3 2.298572737e-15 0)
(3 9.181165395e-16 0)
(3 -2.461357442e-15 0)
(3 -5.11493425e-15 0)
(3 -5.456300079e-15 0)
(3 -2.742865738e-15 0)
(3 5.831985225e-16 0)
(3 7.218663896e-16 0)
(3 2.298708315e-15 0)
(3 5.351523065e-15 0)
(3 9.035428727e-15 0)
(3 1.313081216e-14 0)
(3 2.127326391e-14 0)
(3 2.495579098e-14 0)
(3 2.394077147e-14 0)
(3 1.948180096e-14 0)
(3 8.883325049e-15 0)
(3 -4.162603388e-15 0)
(3 -1.305166779e-14 0)
(3 -1.32712664e-14 0)
(3 -1.13526372e-14 0)
(3 -1.066244674e-14 0)
(3 -8.281197769e-15 0)
(3 -5.187245138e-16 0)
(3 -1.477482847e-15 0)
(3 -1.368005323e-15 0)
(3 3.595865646e-17 0)
(3 2.655191255e-15 0)
(3 6.026090971e-15 0)
(3 1.027257691e-14 0)
(3 8.712195267e-15 0)
(3 6.932235861e-15 0)
(3 6.471121556e-15 0)
(3 5.779064379e-15 0)
(3 3.720943736e-15 0)
(3 1.289573842e-15 0)
(3 -1.25937584e-15 0)
(3 -3.617288263e-15 0)
(3 -2.936965222e-15 0)
(3 -3.1309927e-15 0)
(3 -2.63279254e-15 0)
(3 -3.229483556e-15 0)
(3 -2.403769056e-15 0)
(3 -1.456250334e-15 0)
(3 2.466819377e-15 0)
(3 2.421266114e-15 0)
(3 2.636778546e-15 0)
(3 -1.101036288e-16 0)
(3 -4.041490514e-15 0)
(3 -3.164184846e-15 0)
(3 -8.467583698e-16 0)
(3 -4.934693052e-16 0)
(3 -1.801330598e-15 0)
(3 -5.763433443e-15 0)
(3 -5.966750186e-15 0)
(3 -4.790557915e-15 0)
(3 -5.795015264e-15 0)
(3 -7.798811041e-15 0)
(3 -1.225157425e-14 0)
(3 -1.752869577e-14 0)
(3 -2.419200628e-14 0)
(3 -3.042444145e-14 0)
(3 -3.307544855e-14 0)
(3 -3.435942253e-14 0)
(3 -3.077008268e-14 0)
(3 -2.946908558e-14 0)
(3 -2.616494944e-14 0)
(3 -2.37469706e-14 0)
(3 -1.972178208e-14 0)
(3 -1.785207292e-14 0)
(3 -1.424964524e-14 0)
(3 -8.290704137e-15 0)
(3 -3.640877533e-15 0)
(3 -9.119249354e-16 0)
(3 1.022827899e-15 0)
(3 5.033888892e-15 0)
(3 9.677435388e-15 0)
(3 1.144630544e-14 0)
(3 9.122748543e-15 0)
(3 5.853532498e-15 0)
(3 8.288398882e-15 0)
(3 1.08641683e-14 0)
(3 1.113668897e-14 0)
(3 1.060983504e-14 0)
(3 7.103105357e-15 0)
(3 2.509866234e-15 0)
(3 -8.143566132e-16 0)
(3 -2.031426128e-15 0)
(3 -2.516782165e-15 0)
(3 -4.754400762e-15 0)
(3 -4.392556199e-15 0)
(3 -6.363479041e-15 0)
(3 -9.248903883e-15 0)
(3 -1.091259789e-14 0)
(3 -1.097824062e-14 0)
(3 -9.513411499e-15 0)
(3 -1.052150827e-14 0)
(3 -1.212135697e-14 0)
(3 -1.153554893e-14 0)
(3 -1.1477908e-14 0)
(3 -7.007602534e-15 0)
(3 -2.738652333e-15 0)
(3 -3.950532222e-15 0)
(3 -7.261835248e-15 0)
(3 -8.941205851e-15 0)
(3 -7.98619556e-15 0)
(3 -6.045251119e-15 0)
(3 -5.267285084e-15 0)
(3 -3.293300697e-15 0)
(3 1.437986857e-15 0)
(3 6.322595867e-15 0)
(3 1.147164472e-14 0)
(3 1.868212776e-14 0)
(3 2.036848206e-14 0)
(3 1.842538034e-14 0)
(3 1.287014627e-14 0)
(3 4.93521605e-15 0)
(3 -3.422124431e-15 0)
(3 -4.795724464e-15 0)
(3 -6.827878408e-15 0)
(3 -8.14243392e-15 0)
(3 -1.087533854e-14 0)
(3 -1.420281533e-14 0)
(3 -6.856985001e-16 0)
(3 -1.552995936e-15 0)
(3 -1.573373607e-16 0)
(3 1.728962605e-15 0)
(3 3.7934717e-15 0)
(3 4.957459636e-15 0)
(3 4.473104905e-15 0)
(3 2.346651467e-15 0)
(3 1.125137379e-15 0)
(3 -6.880967177e-16 0)
(3 -3.334002144e-15 0)
(3 -5.451157849e-15 0)
(3 -8.249899754e-15 0)
(3 -7.644401758e-15 0)
(3 -7.604468012e-15 0)
(3 -7.489894642e-15 0)
(3 -8.731070731e-15 0)
(3 -9.594552795e-15 0)
(3 -8.896699609e-15 0)
(3 -6.215915371e-15 0)
(3 -1.742652094e-15 0)
(3 1.520235102e-15 0)
(3 2.725897372e-15 0)
(3 2.332434884e-15 0)
(3 1.083696362e-15 0)
(3 -2.708900557e-16 0)
(3 1.440192401e-15 0)
(3 3.184715823e-15 0)
(3 4.532716182e-15 0)
(3 1.938933212e-15 0)
(3 1.259526336e-15 0)
(3 1.73271835e-16 0)
(3 -3.064426092e-15 0)
(3 -6.341050151e-15 0)
(3 -8.037077006e-15 0)
(3 -1.214970331e-14 0)
(3 -1.961002083e-14 0)
(3 -2.668391005e-14 0)
(3 -2.915398357e-14 0)
(3 -2.622433693e-14 0)
(3 -2.182769994e-14 0)
(3 -2.08486625e-14 0)
(3 -2.204709807e-14 0)
(3 -2.36587845e-14 0)
(3 -2.50738186e-14 0)
(3 -2.41092922e-14 0)
(3 -2.208327395e-14 0)
(3 -1.979052155e-14 0)
(3 -1.531958093e-14 0)
(3 -9.489880285e-15 0)
(3 -4.221393606e-15 0)
(3 4.886514526e-15 0)
(3 6.900046688e-15 0)
(3 6.188714127e-15 0)
(3 2.798278415e-15 0)
(3 -2.830670831e-15 0)
(3 -7.129393563e-15 0)
(3 -5.554668448e-15 0)
(3 -1.055443602e-15 0)
(3 1.052864766e-15 0)
(3 1.560793393e-15 0)
(3 2.951075496e-15 0)
(3 6.913370964e-15 0)
(3 5.344026479e-15 0)
(3 7.107371059e-15 0)
(3 7.869186233e-15 0)
(3 8.869601816e-15 0)
(3 4.911084946e-15 0)
(3 2.331303119e-15 0)
(3 -1.356854542e-15 0)
(3 -2.696061939e-15 0)
(3 -2.111721359e-15 0)
(3 -4.813670353e-15 0)
(3 -8.794537273e-15 0)
(3 -1.132025552e-14 0)
(3 -1.350663091e-14 0)
(3 -1.577875136e-14 0)
(3 -1.70040692e-14 0)
(3 -1.377184218e-14 0)
(3 -9.403731318e-15 0)
(3 -9.210382629e-15 0)
(3 -8.54589115e-15 0)
(3 -1.010787406e-14 0)
(3 -1.055036087e-14 0)
(3 -7.824742905e-15 0)
(3 -6.472356902e-15 0)
(3 9.586750713e-16 0)
(3 4.785782719e-15 0)
(3 9.930693659e-15 0)
(3 1.127198334e-14 0)
(3 9.660015229e-15 0)
(3 6.258079815e-15 0)
(3 5.095322815e-15 0)
(3 1.953451025e-15 0)
(3 4.994229941e-15 0)
(3 4.886941556e-15 0)
(3 1.220566289e-15 0)
(3 -4.026192974e-15 0)
(3 -6.35848331e-15 0)
(3 -1.070896207e-14 0)
(3 1.539919964e-15 0)
(3 2.688492708e-15 0)
(3 3.887540514e-15 0)
(3 2.881754572e-15 0)
(3 1.957667348e-15 0)
(3 1.581358879e-16 0)
(3 -1.256469203e-15 0)
(3 -3.284008305e-15 0)
(3 -4.630794628e-15 0)
(3 -4.779931497e-15 0)
(3 -6.281107419e-15 0)
(3 -4.794126121e-15 0)
(3 -4.922778066e-15 0)
(3 -3.340718041e-15 0)
(3 -4.449438689e-15 0)
(3 -4.306965303e-15 0)
(3 -3.816127565e-15 0)
(3 -4.943239951e-15 0)
(3 -3.664516111e-15 0)
(3 -2.276611035e-15 0)
(3 -1.0847625e-15 0)
(3 -7.558317266e-16 0)
(3 3.484124776e-15 0)
(3 3.268910881e-15 0)
(3 2.090994215e-15 0)
(3 1.243729892e-15 0)
(3 1.36442329e-15 0)
(3 1.97337305e-15 0)
(3 1.720472813e-15 0)
(3 3.421012483e-15 0)
(3 6.010549104e-15 0)
(3 4.3976986e-15 0)
(3 1.192010126e-16 0)
(3 -3.94691729e-15 0)
(3 -5.38978101e-15 0)
(3 -6.353825334e-15 0)
(3 -1.050738395e-14 0)
(3 -1.27715926e-14 0)
(3 -1.355918822e-14 0)
(3 -1.520587912e-14 0)
(3 -1.924716231e-14 0)
(3 -2.320823251e-14 0)
(3 -2.417300638e-14 0)
(3 -2.375992406e-14 0)
(3 -2.253387632e-14 0)
(3 -2.023395586e-14 0)
(3 -1.688254192e-14 0)
(3 -1.344040325e-14 0)
(3 -7.476575269e-15 0)
(3 -6.682642465e-16 0)
(3 4.481369506e-15 0)
(3 6.191802499e-15 0)
(3 4.964309659e-15 0)
(3 2.617100241e-15 0)
(3 -6.484661181e-15 0)
(3 -7.750258446e-15 0)
(3 -9.705722687e-15 0)
(3 -1.147798184e-14 0)
(3 -9.499119805e-15 0)
(3 -6.138618472e-15 0)
(3 -8.232074353e-16 0)
(3 6.03617372e-15 0)
(3 8.732256817e-15 0)
(3 1.068024058e-14 0)
(3 1.551320264e-14 0)
(3 2.016958299e-14 0)
(3 2.075712335e-14 0)
(3 1.708911131e-14 0)
(3 1.198504893e-14 0)
(3 9.198247444e-15 0)
(3 7.026054474e-15 0)
(3 3.211006794e-15 0)
(3 -2.89027733e-15 0)
(3 -9.410533724e-15 0)
(3 -1.037793878e-14 0)
(3 -1.539513795e-14 0)
(3 -1.801918185e-14 0)
(3 -1.885453955e-14 0)
(3 -1.948690077e-14 0)
(3 -1.795917282e-14 0)
(3 -1.182525959e-14 0)
(3 -1.029995859e-14 0)
(3 -6.395460243e-15 0)
(3 -6.472540756e-15 0)
(3 -4.697739433e-15 0)
(3 -2.379774001e-15 0)
(3 -1.950838668e-15 0)
(3 1.300920919e-16 0)
(3 2.718507831e-15 0)
(3 3.204953463e-15 0)
(3 3.083796063e-15 0)
(3 2.156507334e-15 0)
(3 3.531871753e-15 0)
(3 4.708843676e-15 0)
(3 6.349882485e-15 0)
(3 6.14400255e-15 0)
(3 3.08597179e-15 0)
(3 -3.552499836e-15 0)
(3 -1.115643284e-14 0)
(3 -1.407460518e-14 0)
(3 1.761840332e-15 0)
(3 2.145564262e-15 0)
(3 6.741140548e-16 0)
(3 -1.988323786e-16 0)
(3 -4.177200161e-15 0)
(3 -7.023224995e-15 0)
(3 -7.220381771e-15 0)
(3 -4.034219671e-15 0)
(3 -3.758515935e-15 0)
(3 -1.813274754e-15 0)
(3 1.232914207e-15 0)
(3 8.585542592e-16 0)
(3 2.251615067e-15 0)
(3 5.408429679e-15 0)
(3 3.724859038e-15 0)
(3 2.025825424e-15 0)
(3 3.5356972e-15 0)
(3 6.396496101e-15 0)
(3 8.186261742e-15 0)
(3 5.442115301e-15 0)
(3 1.605471405e-15 0)
(3 2.16461289e-16 0)
(3 2.175072285e-15 0)
(3 3.598388536e-15 0)
(3 2.980586719e-15 0)
(3 4.937636583e-15 0)
(3 5.941173037e-15 0)
(3 5.820840685e-15 0)
(3 5.699576517e-15 0)
(3 4.82070255e-15 0)
(3 5.010567501e-15 0)
(3 3.658452529e-15 0)
(3 2.312759121e-15 0)
(3 8.092948918e-16 0)
(3 -1.784256425e-15 0)
(3 -1.136348339e-15 0)
(3 -4.51474122e-16 0)
(3 -4.270255872e-15 0)
(3 -8.143740023e-15 0)
(3 -8.125080373e-15 0)
(3 -1.305762422e-14 0)
(3 -1.644268961e-14 0)
(3 -2.038365323e-14 0)
(3 -1.99860315e-14 0)
(3 -1.994387033e-14 0)
(3 -1.657023785e-14 0)
(3 -1.289221368e-14 0)
(3 -8.833308439e-15 0)
(3 -6.422209662e-16 0)
(3 5.78897312e-15 0)
(3 5.669970458e-15 0)
(3 1.242297851e-15 0)
(3 -2.167292432e-15 0)
(3 -5.740695107e-15 0)
(3 -1.027246018e-14 0)
(3 -1.154545134e-14 0)
(3 -1.051079448e-14 0)
(3 -9.390586076e-15 0)
(3 -8.887441055e-15 0)
(3 -6.098763334e-15 0)
(3 -1.887579338e-15 0)
(3 1.380639417e-15 0)
(3 5.032016686e-15 0)
(3 9.241989553e-15 0)
(3 1.038051705e-14 0)
(3 1.440836006e-14 0)
(3 1.751645458e-14 0)
(3 1.643294901e-14 0)
(3 1.422797537e-14 0)
(3 1.119920617e-14 0)
(3 5.194020488e-15 0)
(3 5.846592215e-18 0)
(3 -1.163293555e-15 0)
(3 -5.668605151e-15 0)
(3 -1.419102167e-14 0)
(3 -1.7258671e-14 0)
(3 -2.29329245e-14 0)
(3 -2.57059305e-14 0)
(3 -2.85280984e-14 0)
(3 -2.782721657e-14 0)
(3 -2.122525222e-14 0)
(3 -1.574984452e-14 0)
(3 -8.070196786e-15 0)
(3 -5.243816809e-15 0)
(3 -3.079037426e-17 0)
(3 2.682660663e-15 0)
(3 2.684314942e-15 0)
(3 1.927103383e-15 0)
(3 1.439590566e-15 0)
(3 -1.143513013e-15 0)
(3 -2.308752845e-15 0)
(3 -1.730481192e-15 0)
(3 1.234287896e-15 0)
(3 4.089546145e-15 0)
(3 6.410979983e-15 0)
(3 7.399852383e-15 0)
(3 5.780736412e-15 0)
(3 -1.406583451e-16 0)
(3 -4.349325545e-15 0)
(3 -6.07695097e-15 0)
(3 -7.03645544e-16 0)
(3 -7.64898556e-16 0)
(3 -3.824839261e-15 0)
(3 -7.038935137e-15 0)
(3 -1.19109077e-14 0)
(3 -1.248252125e-14 0)
(3 -1.06999588e-14 0)
(3 -6.891043942e-15 0)
(3 -4.325184485e-15 0)
(3 8.20263743e-16 0)
(3 7.956738193e-15 0)
(3 9.570295901e-15 0)
(3 1.136315757e-14 0)
(3 1.143360625e-14 0)
(3 1.407704416e-14 0)
(3 1.283068672e-14 0)
(3 1.663640709e-14 0)
(3 1.882410193e-14 0)
(3 1.701896152e-14 0)
(3 1.512034253e-14 0)
(3 1.202429014e-14 0)
(3 7.871313501e-15 0)
(3 2.298763335e-15 0)
(3 1.238467632e-15 0)
(3 5.692058955e-15 0)
(3 8.750493572e-15 0)
(3 1.045395573e-14 0)
(3 6.58842891e-15 0)
(3 4.931711705e-15 0)
(3 1.651532209e-15 0)
(3 -7.759143612e-17 0)
(3 -1.250152467e-16 0)
(3 -1.794157769e-15 0)
(3 -2.840595976e-15 0)
(3 -4.290356132e-15 0)
(3 -4.834230074e-15 0)
(3 -5.475366338e-15 0)
(3 -6.52820166e-15 0)
(3 -7.299728764e-15 0)
(3 -4.582729408e-15 0)
(3 -2.400449818e-15 0)
(3 -4.84594602e-15 0)
(3 -8.876526761e-15 0)
(3 -7.533113546e-15 0)
(3 -7.987511483e-15 0)
(3 -9.841228534e-15 0)
(3 -1.296716468e-14 0)
(3 -1.166961489e-14 0)
(3 -9.876179709e-15 0)
(3 -6.605989265e-15 0)
(3 -1.5351845e-15 0)
(3 -1.37359928e-16 0)
(3 -3.742446107e-15 0)
(3 -9.42519635e-15 0)
(3 -9.638938935e-15 0)
(3 -9.218575898e-15 0)
(3 -6.658033217e-15 0)
(3 3.423223466e-16 0)
(3 8.391832945e-16 0)
(3 -3.603094461e-16 0)
(3 7.671178961e-16 0)
(3 3.272239116e-15 0)
(3 5.740329159e-15 0)
(3 6.313515638e-15 0)
(3 6.860855638e-15 0)
(3 7.258026875e-15 0)
(3 7.871120472e-15 0)
(3 8.046878533e-15 0)
(3 6.260329277e-15 0)
(3 2.841305915e-15 0)
(3 -2.121940455e-15 0)
(3 -3.921692264e-15 0)
(3 -9.24384607e-15 0)
(3 -1.746825211e-14 0)
(3 -1.907967222e-14 0)
(3 -1.824003677e-14 0)
(3 -2.296203821e-14 0)
(3 -3.097956519e-14 0)
(3 -3.009252548e-14 0)
(3 -2.564702287e-14 0)
(3 -2.142132828e-14 0)
(3 -1.636997381e-14 0)
(3 -1.161038851e-14 0)
(3 -7.273443552e-15 0)
(3 1.808107959e-15 0)
(3 7.697468117e-15 0)
(3 9.076174793e-15 0)
(3 8.335259407e-15 0)
(3 5.274736109e-15 0)
(3 -4.665203745e-16 0)
(3 -5.070909904e-15 0)
(3 -2.652952323e-15 0)
(3 -1.518550691e-16 0)
(3 4.304931692e-15 0)
(3 5.207072958e-15 0)
(3 5.495570669e-15 0)
(3 5.357635809e-15 0)
(3 4.729028185e-15 0)
(3 6.805555108e-15 0)
(3 6.023746161e-15 0)
(3 1.327572148e-17 0)
(3 -7.97401208e-16 0)
(3 -7.658994783e-16 0)
(3 -2.633627961e-15 0)
(3 -5.187452643e-15 0)
(3 -5.118517654e-15 0)
(3 -5.690896046e-15 0)
(3 -3.927983338e-15 0)
(3 -2.336811697e-15 0)
(3 -9.994514124e-16 0)
(3 1.944236759e-15 0)
(3 7.987861599e-15 0)
(3 1.29412537e-14 0)
(3 1.149115978e-14 0)
(3 1.188645255e-14 0)
(3 1.396014925e-14 0)
(3 1.584649055e-14 0)
(3 1.786010132e-14 0)
(3 1.550115724e-14 0)
(3 1.270288658e-14 0)
(3 1.236263089e-14 0)
(3 1.054966913e-14 0)
(3 7.14843187e-15 0)
(3 2.800694233e-15 0)
(3 4.111615448e-15 0)
(3 5.320983033e-15 0)
(3 4.352598696e-15 0)
(3 3.613189893e-15 0)
(3 1.751211512e-16 0)
(3 -6.207944827e-16 0)
(3 -3.091791338e-15 0)
(3 -6.513266146e-15 0)
(3 -6.876091314e-15 0)
(3 -9.19597108e-15 0)
(3 -9.976622254e-15 0)
(3 -1.012634443e-14 0)
(3 -9.597737057e-15 0)
(3 -6.925482085e-15 0)
(3 -4.639851804e-15 0)
(3 -5.391723045e-15 0)
(3 -8.516763536e-16 0)
(3 3.635435397e-16 0)
(3 5.815237189e-16 0)
(3 9.734598217e-16 0)
(3 1.693712791e-15 0)
(3 2.210564496e-15 0)
(3 -3.898077122e-16 0)
(3 -3.576152586e-15 0)
(3 -7.723332955e-15 0)
(3 -8.037472816e-15 0)
(3 -5.911092035e-15 0)
(3 -5.851273388e-15 0)
(3 -6.552769733e-15 0)
(3 -6.03423041e-15 0)
(3 -6.907537617e-15 0)
(3 -5.409818804e-15 0)
(3 7.397701254e-16 0)
(3 3.612930992e-15 0)
(3 4.948358576e-15 0)
(3 4.030552052e-15 0)
(3 4.941117227e-15 0)
(3 6.482254101e-15 0)
(3 8.51723454e-15 0)
(3 9.226669099e-15 0)
(3 8.591453282e-15 0)
(3 6.275169688e-15 0)
(3 6.335558895e-15 0)
(3 9.964754627e-15 0)
(3 9.495526713e-15 0)
(3 7.683961294e-15 0)
(3 2.835366692e-15 0)
(3 -7.833485242e-15 0)
(3 -1.391928511e-14 0)
(3 -1.448240596e-14 0)
(3 -1.720995639e-14 0)
(3 -1.689378535e-14 0)
(3 -1.856283515e-14 0)
(3 -2.257276685e-14 0)
(3 -1.800009704e-14 0)
(3 -1.451777583e-14 0)
(3 -1.471886777e-14 0)
(3 -1.254182166e-14 0)
(3 -9.296331916e-15 0)
(3 -3.899186549e-15 0)
(3 1.488712087e-15 0)
(3 6.666864952e-15 0)
(3 9.454712911e-15 0)
(3 5.319259722e-15 0)
(3 2.718901832e-15 0)
(3 4.384455871e-16 0)
(3 1.048023791e-15 0)
(3 -1.630216558e-15 0)
(3 4.748338149e-16 0)
(3 2.92567956e-15 0)
(3 2.236415271e-15 0)
(3 2.443252825e-15 0)
(3 4.357087079e-15 0)
(3 9.734829301e-15 0)
(3 1.160728073e-14 0)
(3 1.313277286e-14 0)
(3 8.83370285e-16 0)
(3 1.559924713e-15 0)
(3 4.038428402e-15 0)
(3 5.05276731e-15 0)
(3 6.843440961e-15 0)
(3 6.138794244e-15 0)
(3 3.558898887e-15 0)
(3 2.448645639e-15 0)
(3 2.748626189e-16 0)
(3 -2.444068998e-15 0)
(3 -3.07156983e-15 0)
(3 -2.966640988e-15 0)
(3 -5.343542387e-16 0)
(3 4.336419693e-15 0)
(3 5.437925499e-15 0)
(3 6.236121824e-15 0)
(3 5.307284102e-15 0)
(3 4.862017373e-15 0)
(3 3.556701117e-15 0)
(3 3.246502407e-15 0)
(3 2.202775634e-15 0)
(3 1.830861026e-15 0)
(3 9.061617419e-16 0)
(3 -1.764593403e-15 0)
(3 -9.612767776e-16 0)
(3 -5.666949147e-16 0)
(3 -1.535746191e-15 0)
(3 -3.639010587e-15 0)
(3 -6.78017277e-15 0)
(3 -1.145098199e-14 0)
(3 -1.464412363e-14 0)
(3 -1.432389002e-14 0)
(3 -1.315832603e-14 0)
(3 -1.596874862e-14 0)
(3 -1.799216642e-14 0)
(3 -1.796765388e-14 0)
(3 -1.536754882e-14 0)
(3 -9.862257339e-15 0)
(3 -5.061437298e-15 0)
(3 -5.960927099e-15 0)
(3 -4.409965458e-15 0)
(3 1.353985414e-15 0)
(3 7.465045919e-15 0)
(3 1.027898785e-14 0)
(3 1.330752166e-14 0)
(3 1.647752151e-14 0)
(3 1.620381919e-14 0)
(3 1.226581494e-14 0)
(3 3.988579876e-15 0)
(3 -2.123435768e-15 0)
(3 -3.918994579e-15 0)
(3 -2.65926137e-15 0)
(3 6.947557992e-16 0)
(3 2.384606505e-15 0)
(3 2.02697384e-15 0)
(3 3.098210021e-15 0)
(3 5.398408826e-15 0)
(3 4.964489044e-15 0)
(3 7.880116969e-15 0)
(3 8.303472993e-15 0)
(3 7.567380377e-15 0)
(3 8.963150466e-15 0)
(3 1.197106177e-14 0)
(3 9.64601146e-15 0)
(3 6.747465142e-15 0)
(3 6.184316273e-15 0)
(3 9.784736263e-15 0)
(3 1.412905118e-14 0)
(3 1.255004063e-14 0)
(3 6.870163662e-15 0)
(3 -2.741113642e-15 0)
(3 -1.017160488e-14 0)
(3 -1.164220746e-14 0)
(3 -9.199874216e-15 0)
(3 -8.824153148e-15 0)
(3 -5.856375077e-15 0)
(3 -3.197815006e-15 0)
(3 -3.833933634e-15 0)
(3 -6.358862799e-15 0)
(3 -6.688207615e-15 0)
(3 -8.19274135e-15 0)
(3 -5.994804231e-15 0)
(3 -2.41764046e-15 0)
(3 2.457346731e-15 0)
(3 3.95193115e-15 0)
(3 5.002782335e-15 0)
(3 3.376459386e-15 0)
(3 1.30743012e-15 0)
(3 -5.481165512e-16 0)
(3 3.364662934e-16 0)
(3 4.608586628e-15 0)
(3 4.850974696e-15 0)
(3 8.303435688e-15 0)
(3 6.379283618e-15 0)
(3 -9.617026353e-16 0)
(3 -4.023133454e-15 0)
(3 -2.166935037e-15 0)
(3 5.827850815e-15 0)
(3 1.572451247e-14 0)
(3 1.977197536e-14 0)
(3 -6.345221782e-16 0)
(3 3.03819115e-16 0)
(3 1.492557792e-15 0)
(3 3.318351928e-15 0)
(3 7.487321138e-15 0)
(3 8.261470424e-15 0)
(3 5.952652334e-15 0)
(3 4.63113412e-15 0)
(3 3.177101199e-15 0)
(3 -6.130955357e-16 0)
(3 -3.898177709e-15 0)
(3 -6.754431914e-15 0)
(3 -5.483851927e-15 0)
(3 -1.403892759e-15 0)
(3 7.635013379e-16 0)
(3 -3.191041046e-15 0)
(3 -5.236172322e-15 0)
(3 -9.401462718e-15 0)
(3 -8.268802696e-15 0)
(3 -6.111562575e-15 0)
(3 -6.822536067e-15 0)
(3 -7.240383327e-15 0)
(3 -7.007893701e-15 0)
(3 -4.66224111e-15 0)
(3 -2.708426328e-15 0)
(3 -5.649557079e-15 0)
(3 -7.258279494e-15 0)
(3 -1.001293206e-14 0)
(3 -1.329030325e-14 0)
(3 -1.778134665e-14 0)
(3 -1.767372961e-14 0)
(3 -1.66204863e-14 0)
(3 -1.5114185e-14 0)
(3 -1.408822856e-14 0)
(3 -1.389627932e-14 0)
(3 -1.42432192e-14 0)
(3 -1.163016439e-14 0)
(3 -9.81295182e-15 0)
(3 -6.001042476e-15 0)
(3 -1.392555277e-15 0)
(3 4.523994465e-15 0)
(3 5.715680281e-15 0)
(3 1.09151859e-14 0)
(3 1.816852102e-14 0)
(3 2.418871031e-14 0)
(3 2.62801304e-14 0)
(3 2.701742789e-14 0)
(3 2.605972055e-14 0)
(3 2.242559479e-14 0)
(3 1.145186997e-14 0)
(3 3.347130574e-15 0)
(3 2.987895673e-15 0)
(3 2.888665125e-15 0)
(3 2.482864488e-15 0)
(3 7.042519877e-15 0)
(3 9.947661396e-15 0)
(3 9.767338382e-15 0)
(3 7.699370307e-15 0)
(3 7.233953267e-15 0)
(3 1.391141472e-14 0)
(3 1.38457965e-14 0)
(3 9.304785351e-15 0)
(3 4.333184264e-15 0)
(3 6.702323241e-15 0)
(3 7.12790136e-15 0)
(3 9.385030045e-15 0)
(3 1.092699218e-14 0)
(3 8.400873874e-15 0)
(3 3.404726487e-15 0)
(3 -6.178375435e-15 0)
(3 -8.082336587e-15 0)
(3 -6.18209301e-15 0)
(3 -3.350279659e-15 0)
(3 -1.81947647e-15 0)
(3 3.635441579e-15 0)
(3 5.460320394e-15 0)
(3 6.675333129e-15 0)
(3 8.426408272e-15 0)
(3 8.83760696e-15 0)
(3 5.439226035e-15 0)
(3 1.236561837e-15 0)
(3 3.479088727e-16 0)
(3 1.371148193e-15 0)
(3 4.074522848e-15 0)
(3 4.122160493e-15 0)
(3 -6.800741092e-16 0)
(3 -2.463800626e-15 0)
(3 -3.70714298e-15 0)
(3 -4.569938169e-15 0)
(3 -1.228401838e-15 0)
(3 4.783003386e-15 0)
(3 9.288403715e-15 0)
(3 9.354966364e-15 0)
(3 7.23795694e-15 0)
(3 6.038003314e-15 0)
(3 2.727361401e-15 0)
(3 3.636474195e-15 0)
(3 1.209898076e-14 0)
(3 1.487894912e-14 0)
(3 1.960798387e-14 0)
(3 4.396342918e-17 0)
(3 -4.296063688e-17 0)
(3 1.637589957e-16 0)
(3 1.937326456e-15 0)
(3 3.623404944e-15 0)
(3 5.797466843e-15 0)
(3 7.013102278e-15 0)
(3 7.082550145e-15 0)
(3 5.837957543e-15 0)
(3 4.144320164e-15 0)
(3 3.427749641e-16 0)
(3 -3.465137656e-15 0)
(3 -4.58242458e-15 0)
(3 -5.594402255e-15 0)
(3 -5.40819459e-15 0)
(3 -4.190313744e-15 0)
(3 -5.313608906e-15 0)
(3 -3.326167864e-15 0)
(3 -4.471766693e-15 0)
(3 -6.725576912e-15 0)
(3 -5.832429613e-15 0)
(3 -3.590489506e-15 0)
(3 -1.757203633e-15 0)
(3 -2.547319084e-16 0)
(3 -3.151613139e-16 0)
(3 -7.616681881e-15 0)
(3 -1.01696394e-14 0)
(3 -1.059319307e-14 0)
(3 -1.331206466e-14 0)
(3 -1.263467288e-14 0)
(3 -1.371315536e-14 0)
(3 -1.366454816e-14 0)
(3 -1.284894953e-14 0)
(3 -1.157819481e-14 0)
(3 -7.318729939e-15 0)
(3 -4.2940533e-15 0)
(3 -5.420464194e-15 0)
(3 -5.292012345e-15 0)
(3 -1.769112328e-15 0)
(3 2.905196736e-16 0)
(3 5.193991817e-15 0)
(3 7.907170322e-15 0)
(3 1.142187083e-14 0)
(3 1.377864997e-14 0)
(3 1.907117715e-14 0)
(3 2.220478489e-14 0)
(3 2.383168847e-14 0)
(3 2.538652696e-14 0)
(3 2.566198213e-14 0)
(3 2.307780166e-14 0)
(3 1.231028647e-14 0)
(3 5.812425507e-15 0)
(3 1.944688738e-15 0)
(3 3.34277551e-15 0)
(3 1.027680796e-14 0)
(3 1.065990034e-14 0)
(3 1.204783685e-14 0)
(3 1.204429674e-14 0)
(3 8.881952365e-15 0)
(3 9.330746268e-15 0)
(3 6.258704729e-15 0)
(3 8.717289235e-16 0)
(3 -2.447543635e-16 0)
(3 4.830714534e-15 0)
(3 4.973305603e-15 0)
(3 5.402985954e-15 0)
(3 3.199608414e-15 0)
(3 -1.411922994e-15 0)
(3 -6.185270426e-15 0)
(3 -6.907572337e-15 0)
(3 -4.089976052e-15 0)
(3 1.813238111e-15 0)
(3 6.356567794e-15 0)
(3 8.205289751e-15 0)
(3 1.142521537e-14 0)
(3 1.121411486e-14 0)
(3 1.200323084e-14 0)
(3 1.352237137e-14 0)
(3 1.667835847e-14 0)
(3 1.706113612e-14 0)
(3 1.580902721e-14 0)
(3 1.093521346e-14 0)
(3 6.413200147e-15 0)
(3 1.319479972e-15 0)
(3 -2.584953035e-15 0)
(3 -2.903902411e-15 0)
(3 -7.652953446e-16 0)
(3 -6.171740505e-16 0)
(3 -2.958111783e-16 0)
(3 -1.459323789e-15 0)
(3 3.144540212e-15 0)
(3 6.175962802e-15 0)
(3 5.114002187e-15 0)
(3 3.278773926e-15 0)
(3 5.127217898e-15 0)
(3 7.412158304e-15 0)
(3 8.785627965e-15 0)
(3 7.835889559e-15 0)
(3 5.707597364e-15 0)
(3 3.726973598e-15 0)
(3 2.75567551e-16 0)
(3 4.31298555e-16 0)
(3 2.023099904e-19 0)
(3 1.620281953e-15 0)
(3 4.467298497e-15 0)
(3 4.619758351e-15 0)
(3 5.396024678e-15 0)
(3 3.631368677e-15 0)
(3 2.411846482e-15 0)