/*--------------------------------*- C++ -*----------------------------------*\
  =========                 |
  \\      /  F ield         | OpenFOAM: The Open Source CFD Toolbox
   \\    /   O peration     | Website:  https://openfoam.org
    \\  /    A nd           | Version:  7
     \\/     M anipulation  |
\*---------------------------------------------------------------------------*/
FoamFile
{
    version     2.0;
    format      ascii;
    class       volScalarField;
    location    "3.2";
    object      T;
}
// * * * * * * * * * * * * * * * * * * * * * * * * * * * * * * * * * * * * * //

dimensions      [0 0 0 1 0 0 0];

internalField   nonuniform List<scalar> 
555
(
1.000155262
1.001270128
1.007380893
1.027621236
1.069786421
1.121507632
1.160015513
1.196876921
1.209300405
1.207718631
1.201303177
1.1932023
1.184078748
1.171276732
1.157297243
1.135958981
1.00125059
1.006603147
1.023240417
1.05229121
1.083946678
1.11249357
1.14384917
1.164431607
1.182917025
1.194310767
1.194453333
1.190593126
1.180779218
1.167702923
1.156135707
1.136468397
1.006823026
1.02234723
1.051212185
1.079224108
1.092990153
1.102845135
1.117945969
1.136401158
1.1607855
1.182580876
1.188085431
1.183776213
1.173282916
1.163885032
1.155497774
1.137450234
1.022993162
1.052308444
1.078599036
1.096719127
1.098156845
1.099047169
1.102716871
1.110938293
1.125165453
1.143323701
1.160583881
1.16680373
1.165769179
1.162762307
1.156817919
1.1407168
1.051730948
1.079150004
1.09323721
1.101063179
1.100998682
1.100321285
1.098197022
1.095948965
1.098049
1.107977719
1.12618534
1.144802575
1.157874482
1.15561014
1.146832797
1.131779124
1.08091074
1.097757603
1.09930327
1.100862531
1.101155013
1.098946287
1.093806011
1.086642445
1.080573444
1.081514196
1.089308111
1.105688953
1.127874989
1.13735816
1.136397889
1.130190182
1.095334485
1.102574032
1.102339792
1.101605292
1.099427805
1.094596829
1.087166498
1.079097775
1.070266916
1.064508412
1.065185853
1.07278917
1.090233563
1.109295247
1.126897882
1.123904198
1.099217778
1.102256132
1.102372668
1.100192047
1.095114944
1.088165641
1.079672307
1.071419811
1.06350035
1.055121885
1.049378575
1.05014274
1.056139076
1.072197609
1.09883107
1.107724089
1.102732578
1.102220408
1.100220477
1.095301672
1.088338497
1.079864218
1.071801159
1.06377839
1.056414157
1.048687957
1.040229712
1.035122647
1.03566812
1.042464159
1.057813254
1.084806388
1.103043474
1.100897778
1.095798705
1.088541146
1.08019703
1.071926333
1.063850628
1.056575228
1.04834851
1.041185392
1.034054435
1.025955506
1.021517176
1.021711526
1.026418623
1.053139061
1.10126063
1.096402288
1.089045539
1.080574895
1.071682553
1.064173116
1.056464464
1.048030465
1.040772918
1.033613275
1.027366829
1.019570846
1.011218598
1.006985314
1.007427342
1.022754832
1.096708542
1.089682107
1.080968827
1.072182661
1.064171104
1.056094797
1.047712075
1.039687936
1.033360343
1.026789592
1.018583681
1.012148947
1.005083483
0.9972121289
0.9945660609
0.9996817113
1.090002239
1.081211836
1.07230282
1.064401566
1.056454956
1.046991562
1.039014558
1.03289587
1.025716209
1.017877433
1.010334367
1.004121121
0.9992672948
0.9908381462
0.9850882026
0.9830305126
1.081664221
1.072285631
1.064389764
1.056040034
1.046587151
1.038396872
1.032087868
1.02551195
1.016510622
1.008676541
1.003635641
0.9971087163
0.9912676459
0.9841581537
0.9777110281
0.9712789565
1.072617312
1.064438409
1.056061427
1.046124926
1.037512975
1.0317015
1.024538536
1.015343838
1.007618003
1.001598122
0.9965893573
0.9890483341
0.9819336441
0.9767014696
0.9709609415
0.9629600013
1.064381345
1.055814872
1.045584368
1.036971863
1.030742562
1.023899957
1.014401848
1.005558986
1.00078791
0.9944496577
0.9873555133
0.9801530622
0.9735905235
0.9694012183
0.9642465763
0.9553317696
1.055697274
1.045365899
1.035942148
1.029965964
1.022786065
1.012704792
1.004522289
0.9985686835
0.9932865877
0.9855395562
0.9776187798
0.9720551467
0.9666661746
0.9618122896
0.956086778
0.9475294207
1.044885777
1.035348956
1.028843971
1.021668725
1.011770171
1.002027175
0.997316705
0.99129608
0.9835007661
0.976014453
0.9690755185
0.964555742
0.9595486869
0.953426523
0.9478713481
0.9404347109
1.034565285
1.027465953
1.020467414
1.010070571
1.000690773
0.9949868487
0.9897575216
0.9818160817
0.9731859436
0.9673360466
0.9617328036
0.9572791614
0.9515886299
0.9447900028
0.940360463
0.9335649941
1.026019406
1.018956245
1.009281176
0.9987036862
0.9930279659
0.9875254794
0.9796343836
0.9712344076
0.9645852668
0.9599162621
0.9550399074
0.9494557617
0.9424529634
0.9366442354
0.9330684385
0.9256791923
1.017334267
1.007846534
0.9977961015
0.990386768
0.985528438
0.9780627441
0.9684445894
0.9626080256
0.9571885612
0.9524365933
0.9468385627
0.9396361076
0.9336872522
0.9298541224
0.9261403905
0.917558168
1.007036613
0.9961146395
0.9881378593
0.9828715608
0.97585914
0.9670043451
0.9592538023
0.9548948611
0.9496931567
0.9438007115
0.937304618
0.9304510357
0.9261828568
0.9223137734
0.9167624098
0.9071554883
0.9949982371
0.9858214592
0.9801060802
0.9741595713
0.9644960951
0.9562752951
0.9517363907
0.9467243572
0.9407935223
0.9347570499
0.9282091575
0.9232281826
0.9189829998
0.913214025
0.9061318491
0.8998737051
0.9835046783
0.9769562495
0.9715229263
0.9628634179
0.9529049555
0.9487922303
0.9442407345
0.9377608448
0.9309647432
0.9249565156
0.9190354278
0.914149288
0.9089801002
0.9013047623
0.8947419863
0.8949687916
0.973797675
0.9686795518
0.9604533654
0.9501806163
0.9444904773
0.9409782235
0.9348622189
0.9274751629
0.9221779719
0.9158770757
0.9104077215
0.9054886664
0.8986903886
0.8946718443
0.8926046015
0.8946284353
0.9647194292
0.9583238451
0.9477337387
0.9407419477
0.9375134147
0.9313591824
0.9234590266
0.9173645531
0.9115499308
0.9055998848
0.8996367829
0.8941925843
0.8901192227
0.8909751676
0.8923845523
0.9109561071
0.9548211617
0.9453023519
0.9365405459
0.9333159953
0.928525222
0.9209171018
0.91363539
0.9081623566
0.9019931613
0.8962556756
0.8926946942
0.8896338289
0.8893463759
0.8928406779
0.9052207387
0.947171625
0.9436541623
0.9338254758
0.9283948493
0.9241367899
0.9165050812
0.908179889
0.9027806209
0.8963228085
0.8905000687
0.8872114431
0.8879162284
0.8892323978
0.8964585153
0.919704402
0.9471313426
0.9800936562
0.9304506723
0.9235222474
0.9202084343
0.9136015599
0.9047394234
0.8983687902
0.8931530176
0.8892285982
0.886390856
0.8862503564
0.8887520144
0.9043014743
0.9301105347
0.9602852212
0.9864764888
1.000661448
0.9183124269
0.9138169435
0.908504737
0.8999568957
0.8916052834
0.8871012835
0.8836941979
0.8843606138
0.8861790448
0.894492938
0.913663728
0.9487573636
0.9799093873
0.993775372
1.000006109
1.003957375
0.9094077291
0.904971672
0.8966482948
0.8879342629
0.884976435
0.8830063744
0.8826204289
0.8856952797
0.902810391
0.9313650936
0.9627499064
0.9787256607
0.993284062
0.9985727928
0.9997032868
1.002563286
0.8977983469
0.8908126269
0.8820973259
0.8787696299
0.8802584996
0.8822328998
0.8923208685
0.9143593993
0.9493795921
0.9789389683
0.9986418003
1.000566037
1.002046324
1.002130994
1.001103187
1.002541901
0.8868927959
0.880756617
0.8776586886
0.8781009451
0.8827432412
0.8983725382
0.9332470342
0.9683552055
0.9852228847
0.9925943065
1.003232492
1.004515283
1.004227232
1.004330922
1.004408645
1.004687126
0.8757166956
0.8757776361
0.8774945424
0.889154668
0.9165058451
0.9487893472
0.9711821303
0.9930537529
1.001056119
1.000623149
1.00294108
1.004140166
1.004532808
1.005053815
1.005452458
1.005957278
0.8743057657
0.879549863
0.8972664121
0.9326017062
0.9699569678
0.9943286708
0.9987670217
1.002722979
1.005653406
1.006060317
1.005719794
)
;

boundaryField
{
    inlet
    {
        type            fixedValue;
        value           nonuniform 0();
    }
    outlet
    {
        type            inletOutlet;
        inletValue      uniform 1;
        value           nonuniform List<scalar> 
34
(
1.135963306
1.136471651
1.137452505
1.140718425
1.131779448
1.130187031
1.123900576
1.107721903
1.084804719
1.053142539
1.022763228
0.9996823263
0.9830273178
0.971282619
0.962960481
0.9553189761
0.9475232793
0.9404455177
0.9335775871
0.9256845951
0.9175508226
0.907142258
0.8998737222
0.8949713266
0.8946321674
0.9109606902
0.9471662372
0.9800664976
1.000663456
1.003957972
1.00256115
1.002562784
1.004717371
1.005965191
)
;
    }
    bottom
    {
        type            slip;
    }
    top
    {
        type            slip;
    }
    obstacle
    {
        type            zeroGradient;
    }
    defaultFaces
    {
        type            empty;
    }
    procBoundary5to4
    {
        type            processor;
        value           nonuniform List<scalar> 
34
(
1.000012211
1.000150882
1.00122382
1.00694437
1.024815462
1.053676992
1.077943197
1.095906218
1.10316802
1.103184333
1.103084399
1.101915756
1.097523308
1.090621402
1.081855029
1.072536941
1.064425651
1.055604631
1.044804941
1.033902258
1.024370222
1.015283925
1.005169516
0.9935066722
0.981809026
0.9706904322
0.9605415625
0.9515568232
0.9404551957
0.927582505
0.915597985
0.9023715552
0.8924971052
0.8800167171
)
;
    }
    procBoundary5to10
    {
        type            processor;
        value           uniform 0.8751144383;
    }
    procBoundary5to11
    {
        type            processor;
        value           nonuniform List<scalar> 
17
(
1.005138741
1.004950757
1.005228351
1.005756614
1.006266749
0.8862435837
0.9175295414
0.9517725646
0.9791483574
0.9890126838
1.001462716
1.003318941
1.004802703
1.006100811
1.006904535
1.005138741
1.006631609
)
;
    }
}


// ************************************************************************* //
