/*--------------------------------*- C++ -*----------------------------------*\
  =========                 |
  \\      /  F ield         | OpenFOAM: The Open Source CFD Toolbox
   \\    /   O peration     | Website:  https://openfoam.org
    \\  /    A nd           | Version:  7
     \\/     M anipulation  |
\*---------------------------------------------------------------------------*/
FoamFile
{
    version     2.0;
    format      ascii;
    class       volScalarField;
    location    "0.3";
    object      rho;
}
// * * * * * * * * * * * * * * * * * * * * * * * * * * * * * * * * * * * * * //

dimensions      [1 -3 0 0 0 0 0];

internalField   nonuniform List<scalar> 
2222
(
1.411563395
1.412864917
1.41319034
1.410873688
1.410230076
1.411639923
1.409319241
1.40404241
1.399504475
1.397773402
1.397009775
1.396867365
1.3974964
1.39807773
1.398700175
1.398188331
1.396349744
1.414409112
1.406858341
1.405256761
1.373376939
1.336542645
1.302273209
1.27296976
1.270037235
1.282058844
1.291833517
1.316774256
1.346019044
1.359824122
1.36302269
1.36400653
1.365823543
1.370211332
1.377142614
1.386061616
1.401068497
1.409082949
1.410209917
1.411418272
1.412892427
1.41316984
1.41086935
1.410416033
1.412173893
1.409731535
1.403942577
1.399227121
1.397763251
1.397046336
1.396994761
1.397721599
1.398064922
1.398719548
1.398278342
1.396470179
1.408438491
1.405561643
1.381141535
1.34123839
1.307278148
1.274483094
1.270322817
1.280626978
1.289121387
1.310145613
1.341293807
1.359555369
1.36388624
1.364240483
1.365966954
1.368750502
1.375221517
1.384579355
1.400236154
1.409127536
1.410267273
1.411445576
1.412975438
1.413255967
1.410863073
1.410015499
1.411964486
1.409635162
1.403471923
1.398647648
1.397712951
1.397053481
1.397107024
1.397952515
1.398303126
1.39886252
1.398527842
1.396602809
1.410333814
1.406802069
1.387563028
1.346948142
1.312691115
1.276126237
1.269674803
1.278397869
1.286895785
1.304184505
1.336365301
1.358814087
1.364666901
1.364146301
1.365634684
1.367329192
1.372796447
1.38335754
1.399667841
1.409384836
1.410175071
1.411437193
1.413156647
1.413467285
1.411065272
1.409840266
1.411815778
1.409366002
1.402470755
1.398452129
1.397703561
1.397117387
1.397399796
1.398334741
1.398677246
1.399118699
1.398707409
1.396584306
1.413352366
1.411268143
1.392525247
1.35283789
1.319368585
1.280343531
1.269057678
1.276330475
1.283427408
1.298921126
1.331319019
1.355945031
1.364959643
1.364626988
1.366046396
1.367572217
1.372290276
1.382257626
1.398639692
1.409542754
1.410154223
1.411352524
1.413299101
1.413755143
1.41167272
1.410006717
1.411310728
1.408908781
1.401944879
1.398436837
1.397823049
1.397318766
1.397756072
1.398650549
1.398996508
1.399243314
1.398750294
1.396540242
1.41577889
1.413936778
1.396503366
1.357630837
1.326711667
1.286835506
1.2685866
1.274642968
1.280700041
1.293339294
1.325283143
1.352636858
1.363751996
1.365417149
1.367581631
1.368632222
1.372045748
1.381085488
1.396056929
1.409507802
1.410002804
1.411301676
1.413468215
1.414103534
1.412303804
1.409805562
1.410669902
1.408266793
1.401710755
1.398528074
1.397971776
1.397508606
1.397812747
1.398662723
1.39904543
1.399271652
1.398817767
1.396332785
1.417163408
1.415762731
1.400141254
1.366044654
1.334286847
1.295444521
1.268901558
1.271599379
1.278190868
1.287393442
1.317715184
1.348494565
1.361862508
1.365953751
1.369404324
1.370038401
1.372641486
1.380174917
1.392388229
1.409156486
1.40976554
1.41118626
1.413688223
1.414405369
1.412471394
1.409471094
1.409915881
1.408008097
1.402028554
1.398824766
1.398100174
1.397281573
1.397523383
1.398552573
1.39905926
1.39922374
1.398693878
1.396073032
1.417826872
1.417067077
1.403294323
1.372525728
1.341845622
1.30505796
1.270993698
1.271259891
1.275662889
1.281502975
1.309521524
1.343151475
1.359670904
1.365572517
1.370015336
1.370845424
1.373591827
1.379749791
1.390212742
1.408674836
1.409217031
1.410841412
1.413781084
1.414536362
1.412498351
1.409173249
1.4095608
1.408019502
1.402527375
1.399318324
1.398075202
1.397123481
1.397327809
1.398276875
1.398744108
1.399054097
1.398343979
1.395988119
1.417535556
1.417616675
1.405905578
1.377178895
1.349128877
1.313710579
1.274931745
1.270079304
1.272934881
1.276369691
1.301802137
1.337131633
1.358055313
1.364584778
1.369032508
1.370913998
1.373717548
1.37952061
1.389688437
1.408284344
1.408306227
1.409714371
1.413607578
1.414604634
1.412461089
1.409161466
1.409377882
1.407980081
1.403318738
1.399859137
1.398082433
1.396987675
1.397189634
1.397943445
1.398174544
1.398557195
1.39801783
1.396034096
1.416664772
1.417740125
1.408843346
1.383348648
1.356144453
1.322237765
1.280700657
1.269595463
1.269952838
1.27249692
1.295142217
1.330571326
1.355747993
1.364056691
1.367737722
1.370359057
1.372662401
1.379262517
1.389199662
1.407942567
1.407350108
1.408496774
1.412694596
1.414417405
1.412395053
1.408927763
1.409285732
1.408197347
1.404108515
1.400235545
1.398024772
1.396723579
1.396938194
1.397501766
1.397631781
1.398179326
1.3979557
1.396120642
1.415886597
1.417582226
1.412795942
1.38714792
1.361414303
1.331403167
1.287665957
1.269930605
1.267547941
1.269805039
1.289768122
1.323358021
1.351181742
1.363875927
1.367853105
1.369219542
1.371455882
1.379080102
1.388496321
1.407402617
1.406482264
1.4076347
1.411706761
1.413871725
1.412215241
1.408365428
1.409061297
1.408453251
1.404825978
1.400394741
1.397880964
1.396249203
1.396700699
1.397401554
1.397556547
1.398126924
1.39806083
1.396250255
1.415617073
1.41723717
1.414854124
1.389531044
1.369150661
1.339852236
1.29509979
1.270977747
1.266388435
1.268333505
1.283970366
1.314985518
1.34386858
1.361491916
1.367978802
1.368164396
1.370695261
1.378078128
1.387245734
1.406469584
1.405760584
1.40729086
1.411345747
1.413415635
1.411882769
1.407964347
1.408921463
1.408994034
1.405373711
1.400313165
1.397506405
1.396004584
1.396720605
1.397560568
1.397669138
1.398214592
1.398220741
1.39650345
1.415802161
1.41712035
1.415944068
1.392310456
1.374217959
1.347008848
1.303392544
1.272443627
1.265878032
1.267734032
1.277730939
1.305464533
1.335405506
1.355405435
1.365044233
1.36658261
1.369345992
1.375464513
1.38463307
1.405107797
1.404950563
1.407195615
1.411468437
1.413277997
1.411441488
1.4076425
1.409287336
1.409738805
1.405426607
1.400154802
1.396977083
1.396021257
1.396953245
1.397796527
1.397901809
1.398368414
1.398446695
1.396791982
1.416494341
1.417872885
1.416866399
1.395285674
1.377555393
1.353976448
1.312149001
1.275113675
1.265526891
1.265522053
1.270754865
1.295473784
1.326001765
1.348972611
1.359596207
1.363321982
1.366385628
1.371375249
1.380623226
1.402525889
1.404644888
1.407563894
1.411913791
1.413467112
1.411183479
1.407458428
1.409054333
1.409662592
1.405048188
1.399714726
1.39669223
1.396097614
1.397197564
1.398077476
1.398200627
1.39858625
1.398732355
1.396964502
1.419000348
1.417631082
1.398404624
1.382284978
1.36027797
1.321450803
1.280091982
1.265095527
1.262725948
1.264204026
1.285886438
1.315158261
1.340469656
1.354113991
1.358867535
1.361507573
1.364677531
1.373961162
1.397917436
1.404774739
1.408299816
1.412475623
1.413686163
1.411277571
1.407444775
1.408940543
1.40920222
1.404498873
1.399106276
1.396598676
1.39623978
1.397256542
1.398286966
1.398481963
1.398780489
1.39893415
1.397036274
1.420071534
1.41825495
1.401754118
1.385596956
1.366903526
1.330859804
1.287123008
1.265785919
1.260458714
1.258952039
1.276803021
1.303293464
1.327828292
1.345123902
1.352361043
1.354634119
1.356477697
1.366105994
1.392116372
1.4046192
1.409151822
1.412996773
1.414020328
1.41167977
1.407868727
1.408858633
1.408685636
1.403892498
1.398763888
1.396595374
1.396346989
1.39737555
1.398416297
1.398735751
1.399005058
1.399035768
1.397051558
1.42059823
1.418859446
1.404932501
1.388993918
1.373118285
1.33985744
1.295270387
1.268663231
1.258775545
1.254474718
1.268438063
1.29082991
1.313409767
1.33091304
1.340515666
1.344255191
1.34691763
1.357935401
1.385976686
1.40397867
1.409991342
1.413553187
1.414394356
1.412381817
1.408481656
1.408688027
1.408013463
1.403244879
1.398737669
1.396817902
1.396381904
1.397431247
1.398411259
1.398827516
1.399112414
1.399093651
1.397037258
1.420636956
1.419001298
1.407034271
1.391677736
1.378390803
1.347967907
1.30339093
1.271641187
1.256864944
1.250234662
1.261317839
1.27792982
1.297898107
1.314857763
1.325548624
1.331571584
1.33535802
1.348664641
1.378947495
1.403162787
1.410519101
1.413925257
1.414768909
1.413030598
1.408811652
1.408251138
1.407207861
1.402982309
1.398840654
1.39712323
1.396535045
1.397590844
1.398409711
1.398745162
1.399090979
1.399024261
1.396845317
1.420299478
1.418955355
1.408095762
1.394105491
1.382680223
1.355630314
1.312500005
1.275005217
1.255420944
1.246455409
1.254638172
1.266025328
1.281511999
1.296677951
1.308705609
1.315958292
1.321097096
1.337707313
1.371241545
1.40183346
1.410683585
1.413995361
1.414949865
1.413294725
1.408822189
1.407707688
1.406841163
1.402983959
1.399171937
1.397611707
1.396676281
1.397749814
1.398370981
1.398518174
1.398743841
1.398592232
1.396631033
1.419820939
1.418895779
1.408567975
1.396390317
1.386172353
1.362709959
1.321524109
1.278072867
1.254649211
1.243134167
1.248070699
1.255581069
1.265751169
1.277340295
1.289214811
1.298022867
1.305397779
1.325754407
1.363393565
1.399910556
1.410627648
1.413796539
1.414994913
1.4133477
1.408736542
1.407261461
1.406750579
1.403176622
1.399929142
1.397829537
1.396552632
1.397573344
1.397938354
1.397992978
1.398380156
1.398492318
1.39668954
1.419364027
1.418833339
1.408995313
1.398841147
1.389008295
1.36888707
1.330502187
1.285607205
1.254551906
1.239697916
1.241680436
1.246155493
1.251777592
1.25969471
1.270266909
1.279555546
1.289038472
1.31268589
1.354868033
1.397718093
1.41045758
1.413401615
1.414717369
1.413238893
1.408320157
1.406779811
1.406713191
1.403820937
1.400877088
1.397903777
1.396228664
1.397213405
1.397503619
1.397772768
1.398344588
1.398539629
1.396818723
1.418886522
1.418689088
1.40967381
1.400801531
1.3910157
1.374382098
1.338768975
1.293233916
1.255965553
1.236250233
1.234637249
1.236596886
1.239335567
1.244056401
1.252531034
1.261406219
1.272105938
1.299573136
1.346427437
1.395460554
1.410213748
1.413045565
1.414219981
1.412833687
1.407713652
1.406572607
1.406831141
1.405091538
1.401061151
1.397473267
1.396093952
1.397126046
1.397501929
1.397772483
1.398380363
1.39860397
1.397056525
1.419554074
1.419469771
1.411007735
1.401859685
1.393737887
1.379230103
1.347151833
1.301302995
1.259604485
1.233877366
1.226815724
1.226175564
1.227434242
1.22936344
1.23515826
1.24312082
1.25697482
1.288532948
1.338219185
1.392562207
1.409764933
1.412717838
1.413848924
1.412347202
1.40711858
1.4064978
1.407700679
1.405472792
1.400999261
1.396919241
1.396175045
1.397280636
1.397645066
1.397901599
1.398508715
1.398783236
1.397466044
1.419896104
1.420095148
1.413968822
1.402560097
1.395604471
1.383147663
1.354769892
1.309820366
1.264877786
1.232559524
1.21879814
1.216426012
1.21632258
1.216356209
1.220061433
1.22871749
1.244804461
1.277553428
1.327957611
1.388496161
1.409121489
1.412429726
1.413662519
1.412037497
1.406885352
1.405817701
1.407602391
1.405496457
1.400661324
1.396711095
1.396314246
1.397501955
1.397944668
1.398162407
1.398808715
1.399154233
1.397763152
1.420083857
1.420573795
1.417064387
1.403050736
1.396537429
1.389193023
1.361769136
1.319264602
1.270933632
1.235340925
1.213530825
1.209859079
1.208461098
1.207824932
1.210451737
1.218442121
1.233317205
1.264874901
1.318953923
1.385043582
1.408333779
1.41218126
1.413566532
1.412094119
1.407032011
1.405788909
1.407391052
1.405375161
1.400156246
1.396655312
1.396500208
1.397749198
1.398265099
1.398565854
1.399317055
1.399474834
1.397795936
1.420106386
1.420860619
1.418561734
1.403461899
1.398561596
1.393294804
1.367009698
1.328044622
1.278187345
1.238757909
1.211244987
1.20539712
1.202880925
1.201937992
1.203744936
1.209841163
1.22236735
1.255566877
1.313452581
1.381908736
1.407262993
1.411867625
1.413468336
1.412170284
1.407476457
1.405774942
1.407113502
1.404881914
1.399827364
1.396720385
1.396894174
1.398001455
1.398586142
1.399046811
1.399588394
1.399558792
1.397741742
1.421226037
1.419527193
1.404255685
1.400338499
1.395880866
1.375847042
1.336777532
1.286811623
1.243337954
1.210913789
1.202852846
1.198370329
1.197494589
1.198323042
1.202013271
1.215601172
1.250104403
1.308304542
1.377840482
1.405904915
1.41137815
1.413263924
1.412096881
1.407647361
1.405547499
1.406532494
1.404101941
1.399822221
1.396802819
1.397347338
1.398313892
1.39890322
1.399338176
1.399639996
1.399545865
1.397678473
1.421472825
1.420221278
1.405098199
1.401799041
1.398393992
1.381868047
1.344878077
1.29615799
1.248909038
1.211382615
1.200826492
1.195234001
1.193115722
1.193117562
1.197856012
1.212344878
1.245432179
1.301856705
1.373297069
1.404470378
1.410740722
1.412919781
1.411873231
1.407939557
1.405292499
1.405424062
1.403797235
1.399933423
1.397225647
1.397546732
1.398470565
1.39892815
1.399384749
1.399650776
1.39949234
1.397658501
1.421312967
1.420785481
1.405631627
1.402778198
1.400564449
1.387740094
1.351310236
1.305706664
1.255198224
1.212225532
1.199291327
1.192775374
1.190275111
1.191152958
1.196276009
1.209995275
1.240683198
1.296494681
1.370006884
1.403228835
1.410061947
1.412571809
1.411594695
1.408110452
1.405061319
1.4047525
1.40377841
1.40014102
1.397991445
1.397521218
1.398390935
1.398787191
1.399337486
1.399594345
1.399420931
1.397659235
1.421233182
1.421406947
1.406119461
1.403539101
1.402017975
1.39239423
1.361415157
1.314867714
1.262076867
1.214525516
1.19824669
1.19221045
1.189820345
1.190740914
1.195784453
1.207745592
1.237834636
1.294205865
1.367977988
1.402180098
1.409324915
1.412259605
1.41130601
1.408134097
1.404629933
1.404586566
1.403801101
1.400589919
1.398503637
1.397378885
1.398217934
1.398568166
1.399228253
1.399505582
1.399374119
1.397627176
1.421148703
1.421615797
1.407349156
1.404019498
1.402990583
1.394986144
1.369034664
1.322751502
1.2696273
1.2172595
1.198034842
1.192664671
1.190438505
1.190883319
1.195029334
1.206704284
1.236721963
1.293436169
1.365660943
1.401331667
1.408844947
1.411967604
1.411048795
1.407871494
1.404332178
1.404654208
1.404084082
1.401457515
1.398608711
1.397054285
1.398019216
1.398367022
1.399156114
1.399462031
1.39935911
1.397555759
1.420826425
1.421488902
1.408291792
1.404253936
1.4035043
1.397646765
1.374998476
1.334470976
1.277865586
1.224142997
1.199137717
1.193503935
1.190991726
1.190838533
1.193934543
1.206329829
1.236887755
1.292013481
1.363590556
1.400869521
1.408562123
1.411724419
1.41077531
1.407417562
1.404083967
1.404725366
1.404823599
1.4022802
1.398486195
1.39693256
1.397897305
1.398303629
1.399167866
1.399445727
1.399361744
1.397492063
1.420302446
1.421198341
1.408815711
1.404036644
1.403938277
1.400103499
1.379931903
1.343664746
1.287170391
1.232096937
1.201755469
1.194238478
1.191132847
1.190253189
1.193945647
1.206558791
1.236634047
1.290814902
1.362903723
1.400852909
1.408509194
1.411503004
1.410550798
1.40709596
1.403943218
1.404883071
1.405795629
1.402528575
1.39802337
1.396900311
1.397941258
1.398453033
1.399291116
1.399471988
1.399376474
1.397470467
1.420037466
1.420948842
1.409374452
1.404793029
1.4043119
1.401513503
1.384177676
1.351741797
1.29661944
1.241056349
1.205483746
1.194421974
1.190846239
1.190700197
1.19471936
1.207377009
1.236132978
1.290080277
1.362334133
1.401204715
1.408664435
1.411228238
1.410527923
1.406970042
1.403965985
1.405355744
1.406140039
1.402462546
1.397597039
1.396990331
1.398062105
1.398819757
1.399612362
1.399601638
1.399448242
1.397533269
1.419994634
1.420906442
1.410378352
1.405554692
1.404657329
1.402771235
1.389161296
1.358205821
1.311616196
1.25089631
1.208479119
1.194707237
1.191633175
1.192282515
1.196550072
1.20859548
1.235791182
1.289270724
1.361986494
1.401100575
1.408593721
1.410988022
1.410613824
1.40710883
1.404062254
1.405207524
1.406098381
1.402184203
1.397454057
1.39729596
1.398344734
1.399478207
1.400223434
1.399904417
1.399684466
1.397737108
1.420062699
1.421010073
1.411932606
1.406454412
1.40478837
1.404517558
1.394516175
1.366807238
1.324394147
1.261434427
1.213368016
1.197143461
1.194010828
1.194605794
1.199380636
1.210085172
1.236200601
1.289001569
1.362328967
1.401569075
1.408808115
1.410962956
1.410824047
1.407486832
1.404317758
1.405109705
1.405849952
1.401709527
1.397429196
1.397793916
1.398986715
1.400204244
1.400869626
1.400387221
1.399993945
1.397850182
1.420557016
1.421370562
1.413571348
1.407560172
1.405402954
1.406308863
1.398788736
1.373137236
1.335531648
1.270484629
1.220996886
1.202384884
1.198115983
1.198900472
1.202759979
1.21187234
1.237363646
1.28927108
1.362797169
1.402433785
1.409404429
1.411097156
1.411054503
1.407897147
1.404637367
1.404772792
1.405247422
1.401500314
1.39773641
1.398505338
1.399601025
1.400762961
1.401256985
1.40064576
1.400072574
1.397824201
1.421459323
1.421645856
1.414375501
1.408364806
1.406105236
1.407404374
1.400182393
1.378770298
1.34483956
1.284850584
1.230719354
1.209063636
1.203805968
1.204429209
1.206398612
1.214565896
1.239379772
1.290158139
1.3634661
1.402486284
1.409498904
1.411170226
1.411240093
1.408349189
1.405053504
1.40433202
1.404563465
1.401483631
1.398218618
1.399049679
1.399644486
1.400845897
1.401366738
1.400704596
1.400095777
1.397754947
1.422057834
1.421892015
1.414892071
1.408681095
1.406644017
1.408040992
1.400578803
1.383510343
1.351727999
1.297318816
1.241566482
1.217659367
1.210811672
1.21033036
1.211012118
1.218378124
1.24210501
1.291608556
1.363868259
1.402431485
1.409288802
1.411103604
1.41140145
1.408830351
1.405335233
1.404053137
1.404415997
1.401711762
1.398592804
1.3991094
1.399584856
1.400787368
1.401372696
1.400685708
1.400036557
1.397665252
1.422158886
1.422027511
1.415140721
1.408771161
1.407027535
1.408285392
1.401462029
1.387882565
1.359760825
1.310842233
1.254795029
1.228705422
1.21934709
1.217576557
1.217708553
1.22381988
1.245813671
1.293768516
1.363773096
1.40206875
1.409078174
1.411096163
1.411604378
1.409362901
1.40542736
1.404020447
1.404458889
1.402185533
1.398798568
1.399087514
1.399454785
1.400591072
1.40126289
1.400594003
1.399930747
1.397485772
1.421928249
1.415086621
1.408862894
1.406814976
1.40808016
1.403620415
1.392720048
1.36654767
1.3236795
1.271177663
1.24178982
1.22985957
1.22671481
1.226506219
1.231420608
1.251454959
1.296248155
1.363359948
1.401453754
1.408849826
1.411116993
1.411900956
1.40975088
1.405221527
1.404068865
1.404578824
1.40266309
1.398882164
1.399134996
1.399361288
1.400396146
1.401034445
1.400420112
1.399705446
1.39714444
1.421654555
1.415101905
1.408611116
1.406350176
1.40770739
1.406265179
1.396205474
1.372501606
1.335056352
1.288581548
1.256851546
1.242621065
1.238228976
1.237176068
1.241064947
1.258984944
1.299115595
1.363347783
1.400750192
1.408588349
1.411015505
1.412066657
1.409851511
1.404693526
1.404237532
1.404915147
1.403134491
1.398919786
1.399196953
1.399333561
1.400235301
1.400780327
1.400107467
1.399338983
1.397052552
1.421460888
1.415912416
1.409285141
1.406204413
1.407962812
1.407388388
1.39781491
1.378181033
1.346320722
1.305950459
1.27320813
1.257291002
1.251317386
1.249563197
1.252006092
1.267157986
1.30289687
1.363924065
1.399908626
1.408332213
1.410717472
1.412047641
1.409692616
1.404406119
1.404497723
1.405375035
1.403515614
1.398952271
1.399264316
1.399287209
1.400013617
1.400543075
1.399815734
1.39918063
1.397026574
1.421732119
1.417870667
1.409494606
1.406498624
1.408489493
1.40814931
1.398743226
1.385457192
1.359078374
1.323105742
1.289194801
1.272444588
1.264955856
1.262654307
1.264072478
1.276426824
1.307900832
1.365675274
1.399335359
1.408084628
1.410357645
1.411684386
1.409222322
1.404385705
1.40483748
1.405887445
1.403631399
1.398953184
1.399315243
1.399126819
1.399987089
1.400493405
1.399778217
1.399131795
1.397097454
1.422267449
1.419864122
1.410185229
1.407209453
1.40903121
1.409598508
1.401325927
1.393848953
1.368183801
1.336126577
1.303799905
1.286928205
1.278910119
1.276033989
1.277264054
1.287446445
1.313943021
1.367072933
1.39924193
1.407943638
1.410072128
1.411050644
1.408830443
1.404627239
1.405451655
1.406183519
1.40362103
1.398935676
1.399342467
1.399156229
1.400091927
1.400479541
1.399779212
1.399202609
1.397168497
1.422815068
1.421258794
1.411217889
1.408259196
1.409715142
1.411372822
1.40521428
1.39837113
1.373551256
1.344887172
1.316908784
1.300323353
1.292758699
1.289961152
1.291589875
1.299626917
1.321262604
1.36932409
1.399273217
1.407764723
1.409691489
1.410471544
1.408680979
1.404847666
1.405377909
1.40622027
1.403587634
1.398936521
1.399401925
1.399282018
1.400230865
1.400689664
1.399989938
1.399311512
1.397157033
1.423298951
1.422420202
1.412357355
1.40948852
1.410419314
1.412427932
1.407384625
1.399710417
1.377895292
1.35220261
1.329231396
1.313321409
1.30691461
1.305278542
1.307415215
1.312787903
1.329750539
1.372107469
1.399046321
1.407064078
1.409294638
1.410535467
1.408800858
1.405127946
1.405241695
1.40602094
1.403273029
1.399008304
1.399572016
1.399608171
1.400791275
1.401163183
1.400146465
1.399237533
1.397103611
1.423675991
1.422634313
1.4131971
1.410549645
1.410997208
1.41308431
1.408370731
1.401340268
1.383990967
1.360755298
1.342813661
1.327784293
1.323389985
1.323820601
1.324406501
1.325302187
1.337642185
1.375156138
1.39932541
1.406592325
1.409491442
1.410823259
1.409114315
1.405553607
1.404827426
1.405531832
1.4025841
1.399226349
1.400175802
1.400415372
1.401232548
1.401385161
1.400187673
1.399244004
1.397002776
1.42367172
1.422638738
1.413891418
1.411162523
1.411472509
1.413822375
1.409835417
1.403087283
1.391216123
1.371585648
1.358132887
1.345128142
1.341740877
1.339291831
1.33595282
1.334605265
1.344843609
1.378483387
1.400256868
1.40678552
1.409784438
1.411261507
1.409559705
1.405919791
1.404428052
1.404845796
1.402060372
1.400032828
1.400989342
1.400885506
1.401093383
1.401369693
1.400166212
1.399213184
1.396945655
1.423346063
1.42259352
1.414440468
1.411464324
1.411657364
1.414931475
1.412027206
1.403649991
1.394689477
1.377657285
1.367909912
1.35824226
1.352383614
1.347774402
1.34384058
1.34284461
1.352017309
1.382219759
1.401668472
1.407120828
1.409970557
1.411712825
1.410057353
1.406227118
1.404208405
1.40469433
1.402155828
1.400723429
1.401273213
1.400945618
1.40101265
1.401324325
1.40014038
1.399121706
1.396628664
1.423000631
1.42237054
1.41470566
1.411774881
1.41124824
1.416255968
1.413351778
1.403760513
1.394987149
1.380455935
1.372845046
1.365911934
1.35922206
1.354903194
1.352099591
1.351896097
1.359300212
1.386106938
1.403026159
1.407213386
1.409859926
1.411987234
1.410474552
1.406463748
1.404234743
1.40482942
1.402401165
1.401077875
1.401289797
1.400909975
1.400929788
1.401216702
1.400060682
1.398812166
1.396312721
1.42296414
1.42217929
1.414722262
1.412053085
1.411487134
1.417074696
1.413523321
1.402106167
1.395294898
1.383210222
1.377254167
1.372553143
1.366092907
1.362988916
1.361906599
1.360942547
1.366361421
1.389580735
1.403966245
1.406879537
1.40957092
1.412108597
1.410750174
1.406537578
1.404367128
1.405031997
1.403113327
1.401490619
1.401392091
1.400721356
1.400542507
1.400826439
1.399512284
1.398303358
1.396318804
1.422550272
1.422022023
1.414532757
1.412185151
1.411673635
1.417491227
1.413281216
1.402151057
1.397087111
1.387781195
1.383508773
1.380505283
1.374169248
1.370812116
1.368083434
1.366547302
1.372134511
1.392455111
1.404725842
1.406670608
1.409375924
1.412095069
1.410807256
1.406377983
1.404391011
1.405189361
1.403980528
1.40211359
1.401397732
1.400575709
1.399976752
1.400171263
1.399014287
1.398208947
1.396384574
1.422064898
1.42186514
1.41430759
1.412057595
1.411959824
1.417521901
1.412909351
1.403354383
1.400975001
1.392452829
1.387645131
1.386089676
1.378841805
1.374397095
1.371346023
1.370582497
1.376834975
1.394919993
1.405914535
1.406933296
1.409297741
1.411956321
1.410718321
1.405740395
1.404320114
1.405551782
1.404922722
1.402867692
1.401244571
1.39978032
1.399213133
1.399718949
1.3989002
1.398213178
1.396564961
1.421870888
1.41448792
1.412135135
1.412181507
1.417320585
1.413716646
1.406118168
1.403273402
1.394037982
1.388791496
1.387688259
1.380886703
1.375842026
1.373439846
1.374785899
1.38088389
1.396950352
1.407360396
1.40745357
1.409175853
1.41144465
1.410208383
1.404899991
1.40433312
1.406091895
1.405886008
1.403223292
1.400828535
1.398733931
1.398861173
1.399700999
1.398901213
1.398332903
1.396868678
1.422275135
1.415476125
1.412365355
1.41232469
1.417019586
1.415065357
1.407510214
1.403557831
1.394060472
1.389427956
1.387972025
1.381372062
1.377531062
1.376499485
1.379798778
1.383930232
1.398278526
1.408630876
1.40796512
1.408967386
1.410879941
1.409455874
1.404340031
1.404322616
1.406850354
1.406444777
1.403265551
1.399798604
1.398411858
1.398861808
1.399724355
1.39903572
1.398628242
1.397070864
1.422952209
1.416880991
1.412882426
1.41251386
1.416869074
1.415894776
1.407856609
1.403153086
1.393069056
1.388974053
1.3853996
1.381986951
1.380428258
1.382003045
1.382967071
1.38557195
1.398871618
1.409674612
1.408346214
1.408694259
1.410015706
1.40827487
1.404198187
1.404515786
1.407276261
1.40640212
1.403075613
1.398989551
1.398351891
1.398909883
1.399933134
1.399456166
1.399042024
1.397109979
1.423823824
1.418247697
1.41380036
1.412712945
1.416781337
1.41613221
1.407619649
1.402242179
1.393528722
1.386031901
1.385186092
1.383110752
1.384288699
1.385118878
1.384259398
1.386465649
1.398982308
1.410245809
1.408394993
1.408534786
1.409639034
1.407580426
1.404213335
1.404774108
1.40703216
1.406326303
1.402482222
1.398648071
1.398320749
1.398961091
1.400488988
1.400177507
1.399280319
1.39702692
1.424313602
1.419049727
1.414995558
1.412913348
1.417051266
1.41624377
1.405972358
1.400249749
1.393755212
1.38636736
1.385650882
1.385045997
1.386056926
1.385850768
1.384491978
1.386156218
1.399883971
1.410801689
1.40870298
1.408707916
1.409804528
1.407594605
1.404640366
1.404950661
1.40661361
1.405979121
1.401329517
1.398564006
1.398402791
1.399475248
1.401030914
1.400504597
1.399327891
1.396764356
1.424374397
1.419353775
1.415594653
1.413164355
1.417120479
1.415903441
1.405153145
1.399907994
1.39626666
1.38847012
1.388939564
1.388258409
1.387383249
1.386527952
1.385406255
1.387381062
1.401123353
1.411436143
1.409220835
1.409075338
1.410444781
1.407860219
1.40554142
1.404959395
1.406226188
1.405069051
1.400067759
1.398596444
1.398927218
1.40017354
1.401167615
1.400582584
1.399336288
1.396423071
1.424062248
1.419505889
1.415576264
1.413477269
1.417561203
1.414718853
1.405610871
1.400794838
1.401469428
1.394356925
1.395961842
1.392452291
1.389473029
1.387883622
1.386852584
1.389464175
1.402199917
1.411965749
1.409748247
1.40945032
1.410960051
1.408326405
1.406384293
1.404932093
1.405523482
1.403293755
1.399526673
1.39925855
1.399837612
1.400278898
1.401168765
1.400614944
1.399186639
1.396272201
1.42372658
1.419301734
1.415405932
1.413759989
1.417498658
1.415878624
1.407021011
1.403095075
1.406239579
1.398931027
1.399056808
1.394963212
1.390918423
1.388926152
1.388061728
1.390928682
1.402918235
1.412298163
1.410300393
1.409800532
1.411613777
1.409398924
1.407106579
1.404927715
1.404351284
1.401549352
1.39945722
1.400283189
1.400100363
1.400270795
1.423423778
1.419066117
1.415074254
1.41394038
)
;

boundaryField
{
    inlet
    {
        type            calculated;
        value           nonuniform 0();
    }
    outlet
    {
        type            calculated;
        value           nonuniform List<scalar> 
61
(
1.396483657
1.396633618
1.396619666
1.396593728
1.396407686
1.39612986
1.396023701
1.396067347
1.396146436
1.396268744
1.396515983
1.396808599
1.397004015
1.397084725
1.39710417
1.397102397
1.396927844
1.396675704
1.396737738
1.396857156
1.397071577
1.397479291
1.397809974
1.397852266
1.397793727
1.397727818
1.397705556
1.397702222
1.39766711
1.397596124
1.397527725
1.397499813
1.397546801
1.39774166
1.397876039
1.397856818
1.397789461
1.397706524
1.397545544
1.397192573
1.397080931
1.397042381
1.397105402
1.397191443
1.397181652
1.397128026
1.397036503
1.397003939
1.396704103
1.396349646
1.396344969
1.396399377
1.39655971
1.39685767
1.397093526
1.39714003
1.397073106
1.396833295
1.396478956
1.396299969
1.396370034
)
;
    }
    bottom
    {
        type            calculated;
        value           nonuniform 0();
    }
    top
    {
        type            calculated;
        value           nonuniform 0();
    }
    obstacle
    {
        type            calculated;
        value           nonuniform 0();
    }
    defaultFaces
    {
        type            empty;
    }
    procBoundary23to17
    {
        type            processor;
        value           nonuniform List<scalar> 
40
(
1.412045208
1.413181934
1.413445324
1.411024045
1.410322156
1.411497091
1.409086389
1.403941416
1.399680046
1.398257436
1.3970886
1.396870753
1.397514028
1.398207467
1.398768959
1.39825528
1.396363987
1.415211262
1.406205019
1.406140902
1.37513687
1.336620866
1.300521423
1.273676487
1.270769628
1.282482113
1.294442596
1.322907469
1.349921861
1.361070991
1.362496173
1.364002324
1.36510337
1.370233701
1.376730253
1.385993463
1.401034235
1.409663575
1.410382854
1.410382854
)
;
    }
    procBoundary23to22
    {
        type            processor;
        value           nonuniform List<scalar> 
65
(
1.419664109
1.415275075
1.415275075
1.415982809
1.417688999
1.418974898
1.419559708
1.419796623
1.419436063
1.418587294
1.418073251
1.41820362
1.419241738
1.42123838
1.417548873
1.417548873
1.418874067
1.420170142
1.420593595
1.420488607
1.42001954
1.419398188
1.419010151
1.419015942
1.41942333
1.420620618
1.421781755
1.420091408
1.420091408
1.419900065
1.419647808
1.419407414
1.419096041
1.418721589
1.418239672
1.418419411
1.419218493
1.419861841
1.420225385
1.420561173
1.420727511
1.421380995
1.422121096
1.422121096
1.422245694
1.422533621
1.422750202
1.422602409
1.42246049
1.422645188
1.422843872
1.422760301
1.422548869
1.422460269
1.422420906
1.422191296
1.422149213
1.422052147
1.422052147
1.422320783
1.422543044
1.423609924
1.424761225
1.424866735
1.424629603
)
;
    }
    procBoundary23to28
    {