/*--------------------------------*- C++ -*----------------------------------*\
  =========                 |
  \\      /  F ield         | OpenFOAM: The Open Source CFD Toolbox
   \\    /   O peration     | Website:  https://openfoam.org
    \\  /    A nd           | Version:  7
     \\/     M anipulation  |
\*---------------------------------------------------------------------------*/
FoamFile
{
    version     2.0;
    format      ascii;
    class       volScalarField;
    location    "4.1";
    object      T;
}
// * * * * * * * * * * * * * * * * * * * * * * * * * * * * * * * * * * * * * //

dimensions      [0 0 0 1 0 0 0];

internalField   nonuniform List<scalar> 
22
(
1.066328712
1.085209692
1.07251956
1.068072983
1.06605474
1.081279272
1.071867512
1.067274793
1.065909503
1.071018707
1.067488275
1.065962588
1.065349557
1.060015608
1.060318171
1.060537901
1.052082834
1.0529332
1.054385429
1.046367505
1.046483025
1.048232555
)
;

boundaryField
{
    inlet
    {
        type            fixedValue;
        value           nonuniform 0();
    }
    outlet
    {
        type            inletOutlet;
        inletValue      nonuniform 0();
        value           nonuniform 0();
    }
    bottom
    {
        type            slip;
    }
    top
    {
        type            slip;
    }
    obstacle
    {
        type            zeroGradient;
    }
    defaultFaces
    {
        type            empty;
    }
    procBoundary22to16
    {
        type            processor;
        value           nonuniform List<scalar> 5(1.067075716 1.084022759 1.072944003 1.067946677 1.067946677);
    }
    procBoundary22to17
    {
        type            processor;
        value           uniform 1.052369996;
    }
    procBoundary22to21
    {
        type            processor;
        value           nonuniform List<scalar> 7(1.090351395 1.060955627 1.029821558 1.058156305 1.058156305 1.043802363 1.030106279);
    }
    procBoundary22to23
    {
        type            processor;
        value           nonuniform List<scalar> 5(1.052313382 1.053109299 1.053130576 1.04984952 1.044943527);
    }
    procBoundary22to28
    {
        type            processor;
        value           nonuniform List<scalar> 3(1.040144282 1.042208534 1.043507466);
    }
    procBoundary22to29
    {
        type            processor;
        value           uniform 1.039547826;
    }
}


// ************************************************************************* //
