/*--------------------------------*- C++ -*----------------------------------*\
  =========                 |
  \\      /  F ield         | OpenFOAM: The Open Source CFD Toolbox
   \\    /   O peration     | Website:  https://openfoam.org
    \\  /    A nd           | Version:  7
     \\/     M anipulation  |
\*---------------------------------------------------------------------------*/
FoamFile
{
    version     2.0;
    format      ascii;
    class       volScalarField;
    location    "1.3";
    object      T;
}
// * * * * * * * * * * * * * * * * * * * * * * * * * * * * * * * * * * * * * //

dimensions      [0 0 0 1 0 0 0];

internalField   nonuniform List<scalar> 
2225
(
0.8304660659
0.8299635569
0.828001505
0.8242987599
0.8230676157
0.8234007507
0.8243818699
0.8315076245
0.855538029
0.9073056054
0.9616146128
0.9881173029
0.9971671428
1.007202466
1.011152825
1.01200266
0.8685473193
0.8674493692
0.8663995367
0.8632630781
0.8593544819
0.8580740609
0.8567930859
0.853557561
0.8500405312
0.8491878256
0.8482404434
0.8455546039
0.8422666926
0.841300245
0.8404996816
0.838281613
0.8351105267
0.8340161377
0.8333650701
0.8311220381
0.8276553565
0.8265151002
0.8257214174
0.8251159394
0.8263779349
0.8384331876
0.8688155843
0.9219518791
0.9725352197
0.9962235309
1.005844706
1.011246761
0.875660792
0.8721738664
0.8710943227
0.8692221246
0.8651593537
0.8622086067
0.8614129539
0.8598755501
0.8561461561
0.8532234145
0.8525331518
0.8512085895
0.8480627016
0.845508825
0.8448010364
0.8436273761
0.8407277955
0.8379683441
0.8374314362
0.8365702289
0.8337718903
0.8309195453
0.8298715611
0.8282656397
0.8264073922
0.8268955736
0.8299362497
0.8481412556
0.8857329591
0.9282737471
0.9662849473
1.000121347
0.8831182508
0.8786124073
0.8758677607
0.8746479853
0.8721390088
0.8677553472
0.8659479377
0.8652355732
0.8630685666
0.8590148063
0.8568895265
0.8560312691
0.8540352162
0.8504080596
0.8486654524
0.8480586365
0.8464912922
0.8432702262
0.8413260198
0.840806394
0.8395083018
0.8361779154
0.8343692485
0.8334923628
0.8313800302
0.8290379117
0.8288102674
0.8295235581
0.8340905807
0.8551037919
0.896363091
0.9653572024
0.8888507468
0.8854672679
0.8810682743
0.8793349146
0.8779412832
0.8746359101
0.8704635589
0.8690854124
0.867932949
0.8650619001
0.8613649295
0.8602248054
0.8593203295
0.8567007277
0.8529792585
0.851912531
0.8512130123
0.8490863994
0.8457170979
0.8445116483
0.8439071191
0.8420737298
0.8388663946
0.8377037162
0.8367478968
0.8338532244
0.8312865579
0.8303667329
0.8305284068
0.8316897356
0.8386875501
0.8940046745
0.8938750397
0.8918339451
0.8876192655
0.8838434026
0.8827944877
0.8812593697
0.8773667109
0.8736069072
0.8726082022
0.8711839827
0.8677218887
0.8646456391
0.8637569658
0.8623816985
0.8590498484
0.8558964358
0.8551265897
0.8541067131
0.8513587032
0.8484145943
0.8477148442
0.8468191233
0.8442812102
0.8417893373
0.8411123447
0.8398194079
0.8369055746
0.8348353423
0.833564872
0.8325892048
0.8323023166
0.8427847706
0.8987026464
0.8972063645
0.8945929079
0.8898895386
0.887075187
0.8860196871
0.8837375872
0.8793774615
0.8767232561
0.8757255966
0.8736526038
0.8695831022
0.867259425
0.8665793959
0.8649698564
0.8614583714
0.8591149667
0.858411135
0.8568920871
0.853521279
0.8513244762
0.8508241625
0.8495176558
0.8463941453
0.8447470077
0.8442071983
0.8423709412
0.8394840318
0.838010042
0.8362698696
0.8335927497
0.8343581016
0.904254591
0.9017504126
0.9003448264
0.897304836
0.892528208
0.8902128354
0.8888995411
0.8860983508
0.881851942
0.880171133
0.879168093
0.876462643
0.8722835766
0.8707054735
0.8698180882
0.8674996521
0.8638164464
0.8621926258
0.8613709183
0.8592725602
0.8557153573
0.8543623508
0.8537245965
0.8517028692
0.8486190154
0.8478166492
0.8470256557
0.8447676537
0.8426110346
0.8413857609
0.8393662892
0.8368883548
0.911446501
0.9067349743
0.9049263645
0.903178657
0.8993328453
0.8950814508
0.8934743075
0.8918288292
0.8881865049
0.884352586
0.8831203242
0.8816950648
0.8783082574
0.8746667678
0.8736039999
0.872450602
0.8694977942
0.8661024748
0.865228572
0.8643412021
0.8617190436
0.8584059963
0.8575271354
0.8565622088
0.8537851994
0.8512904268
0.8507653248
0.8494250727
0.8468558309
0.8455059376
0.8443486143
0.8411652755
0.9182219324
0.9137205041
0.909581195
0.9078987627
0.9056364576
0.901299825
0.8978916095
0.8966409988
0.8946308607
0.8903318575
0.8870278457
0.8861342352
0.8845205823
0.8807721167
0.8778701889
0.8769619165
0.8753189242
0.8716880935
0.8689433507
0.8682043202
0.8668075682
0.8635260111
0.8610464846
0.8604216089
0.8590014447
0.8558080488
0.8542589277
0.8535478075
0.8515371032
0.8492946973
0.8483976354
0.8460789024
0.9234724189
0.9205276812
0.9155963432
0.9124246994
0.9108288766
0.9079226655
0.9032578554
0.9007995496
0.8995607082
0.8968770075
0.8923757027
0.890037061
0.8889985752
0.8866286135
0.882490786
0.8804155106
0.8795179401
0.8774685156
0.8736982535
0.8717448994
0.8710202224
0.8691542197
0.8655800013
0.8640973284
0.863430038
0.861262898
0.8581872447
0.8571733296
0.8560008397
0.8535190552
0.8519907476
0.849979266
0.9281193701
0.9260676559
0.9225422523
0.9176651644
0.9153108406
0.9136465494
0.910177849
0.9054859378
0.9035456551
0.9021332424
0.8990360149
0.8948010206
0.8930835404
0.8918374437
0.8888598081
0.8848003649
0.8835363045
0.8825825942
0.8799032213
0.8761885352
0.8748313657
0.8738031729
0.8711121612
0.8677436513
0.8668517074
0.86586668
0.8631035098
0.8608633847
0.8600249711
0.8583821047
0.8562388247
0.853723523
0.9335065519
0.9309229765
0.9286174256
0.9243493336
0.9199161069
0.9181380732
0.9161384434
0.9119612453
0.9079157557
0.9064442233
0.9046491691
0.9008279869
0.8971802708
0.8959294769
0.8942975394
0.890629652
0.8871880679
0.8861579004
0.8847551548
0.8814253865
0.8782659147
0.8774953418
0.8763288504
0.8731090832
0.8704622322
0.8697547912
0.8681345518
0.8650511179
0.8636154235
0.8625715569
0.8608047269
0.85774188
0.9399524091
0.935617261
0.9334388383
0.9308562537
0.9262296825
0.9223625409
0.9207267359
0.918323353
0.9138656116
0.9105807497
0.9092196536
0.9069523556
0.9026295381
0.8996704801
0.8986485815
0.8967541734
0.8927166725
0.889936962
0.8891011796
0.8873270878
0.8835541036
0.8812295015
0.88044597
0.8785752332
0.8749376965
0.8732153724
0.8723522028
0.8700246693
0.8673451519
0.8661340693
0.8649008452
0.8620223112
0.9466172006
0.9417526746
0.9380777094
0.9360570234
0.932928824
0.9279909204
0.9249560416
0.9233132793
0.9202752733
0.9156321549
0.9132315776
0.9118425417
0.9089416491
0.9044977806
0.9023959626
0.9012832466
0.8986980953
0.8945047998
0.8925386781
0.8915091723
0.8890885133
0.8851945735
0.8836351572
0.8827744368
0.8803386861
0.8770106633
0.8760850274
0.8749253287
0.8722200495
0.8699464435
0.8686752974
0.8660293314
0.9517787556
0.9482384296
0.9434046212
0.940324146
0.9382026623
0.9346313557
0.9298985393
0.9275197012
0.9257123439
0.9221277976
0.9176094631
0.9157683528
0.9142306234
0.9109021734
0.9067022018
0.9050386537
0.9036677446
0.9005470658
0.8965765533
0.8953379741
0.8942446387
0.8912512998
0.8876931777
0.8866159941
0.8853547976
0.8821057726
0.8794907662
0.8786632157
0.8769287686
0.8741960591
0.872542314
0.869991119
0.9565474084
0.9540030357
0.9500393949
0.9453784869
0.9428237758
0.9404875945
0.9362928802
0.9319761046
0.9300841703
0.9279506285
0.9237151068
0.9197996515
0.9183437091
0.9164460487
0.912498591
0.9089384643
0.9076725532
0.905933186
0.9021591564
0.898868095
0.8978513596
0.8962419393
0.8925902279
0.8897809177
0.8889851928
0.8873089787
0.8837683141
0.8820157767
0.8809857485
0.878792732
0.8767337644
0.8740158165
0.961424846
0.9584645241
0.9556870844
0.9513862829
0.9471940531
0.9449513384
0.9423133859
0.9378138115
0.9340692365
0.9323599009
0.9298922093
0.9254360167
0.9221738873
0.9207709179
0.9184321951
0.9141367034
0.9112743462
0.9101511595
0.9080719819
0.9039381432
0.9012992963
0.9003928315
0.898397222
0.8945021323
0.8926192254
0.8917744477
0.8893836188
0.8860279419
0.8846886603
0.8831306017
0.8809156319
0.8778045181
0.9673922889
0.9631838895
0.9605275437
0.9575542231
0.9529834523
0.949348725
0.9472845225
0.944219586
0.9394490213
0.9364050503
0.9347108488
0.9316797396
0.9270585294
0.9245742112
0.9231269581
0.9201957565
0.9158011253
0.9137347201
0.912546202
0.9098289267
0.9056427702
0.903811385
0.902713281
0.899975332
0.8961885863
0.8949024303
0.8937127221
0.8907676966
0.888165603
0.8869604518
0.8853633976
0.8819944838
0.9729360303
0.9687146708
0.9648686995
0.9623004146
0.9589824823
0.9543679639
0.9512475863
0.9491156602
0.9456665965
0.9410702079
0.9385896812
0.9367365657
0.93325323
0.9288188078
0.926881991
0.9252888615
0.9219324364
0.9177457477
0.9160934772
0.9146680437
0.9114529606
0.9075952745
0.9063399716
0.9050473214
0.9017494274
0.8984715334
0.8975260566
0.8959472814
0.8927852166
0.8906877188
0.8894173922
0.8862776347
0.9775615437
0.9743506234
0.9700933245
0.9666306833
0.9641364019
0.9605353061
0.9560283816
0.953392715
0.9511616488
0.9472350394
0.9429388016
0.9409067146
0.9388013436
0.9347304065
0.9307739407
0.9292144573
0.9273104805
0.9233726506
0.919777862
0.9184829927
0.9167043849
0.9128780334
0.909730418
0.9087253284
0.9069308937
0.9031604631
0.9007380001
0.8996711776
0.8975312349
0.8944667594
0.8928253189
0.8901356425
0.9818931096
0.9789831893
0.9756408116
0.9714409665
0.9683026578
0.965691908
0.9617852486
0.9575847364
0.9552298665
0.9527210267
0.9485012216
0.9447036511
0.9428871897
0.9404900384
0.9361996435
0.9328134969
0.9313501613
0.9290749399
0.9248633153
0.921921042
0.9207421087
0.9185843655
0.9144492041
0.9119696323
0.9109513758
0.9087036429
0.9049678043
0.9032087745
0.9019718041
0.8994904509
0.8970633898
0.894015903
0.9864298077
0.9831528271
0.9803284299
0.9768880417
0.972835439
0.969972227
0.9672671567
0.9631453182
0.9593464715
0.9572235189
0.9544531733
0.9499706738
0.9467507074
0.9450309442
0.9422004712
0.9376853682
0.9349787002
0.9335101117
0.9307048016
0.9263400653
0.9241511247
0.9229239081
0.9201686381
0.9160335221
0.9142998686
0.9130822162
0.9102023757
0.9068496974
0.9053706469
0.9036611493
0.9012993738
0.8977696814
0.9904914057
0.987438624
0.9843680158
0.9815859632
0.9780604288
0.9742236323
0.9715386663
0.9686221118
0.964376988
0.9609947245
0.9588773603
0.9557557929
0.9513119045
0.9485989479
0.9467740837
0.9435569806
0.9391873124
0.9370219163
0.9354321606
0.9322222894
0.9280124556
0.9262831804
0.9248598241
0.9216564131
0.9179197556
0.9165642357
0.9150102089
0.9117835769
0.9089474271
0.9074229624
0.9057603819
0.9022316869
0.9936690031
0.9913363333
0.9884117861
0.985531107
0.982771188
0.9792103542
0.9756190421
0.9730587966
0.9699732538
0.965716783
0.9627502145
0.9606432561
0.9571961101
0.9528912829
0.950638402
0.9486855188
0.9449767807
0.9408976782
0.9391564963
0.937342941
0.9335818881
0.9298317267
0.9284457204
0.9266965914
0.9229676707
0.9199097615
0.9187280307
0.9167445905
0.9134334525
0.9109637159
0.9094181564
0.9061403417
0.9961701735
0.994353457
0.9921249995
0.9893471691
0.9866365905
0.9838834569
0.9803288585
0.9769902322
0.9744681102
0.9711713497
0.9670352157
0.9643806068
0.9620995801
0.9583382556
0.9543681897
0.9523825545
0.9501845602
0.9462127187
0.9425954129
0.941024796
0.9389153003
0.9349226614
0.9317576599
0.9304767124
0.9283509635
0.9244250719
0.9219398122
0.9206353978
0.9183801914
0.9152741369
0.9132229697
0.9100829741
0.9979861847
0.9966534694
0.9949804761
0.9928636551
0.9902424356
0.9876812721
0.9849351051
0.9814375704
0.9783337297
0.9758177526
0.9723634213
0.9684246375
0.9660380399
0.9636285941
0.9596180992
0.956058478
0.9542797146
0.9518193505
0.9475679931
0.9445031873
0.9430125808
0.9404931476
0.936276887
0.9337659519
0.9324586572
0.9298496193
0.9259836059
0.9239677924
0.9224598934
0.9198858654
0.9173296334
0.9138432064
0.9990803143
0.9982835081
0.997090239
0.9955542501
0.9935537895
0.9910959354
0.9886642219
0.9859290744
0.9825288235
0.9796339932
0.9770712644
0.9734773446
0.9698056773
0.9675552936
0.9649031187
0.960774535
0.9576413368
0.9558492189
0.9530554385
0.9488257948
0.9462706372
0.9446995059
0.9418319372
0.9377142175
0.9356580451
0.9341805312
0.9312925681
0.9277912887
0.9258931617
0.9240168443
0.9216919883
0.9178932309
0.9996446305
0.9992415947
0.9985453811
0.9974831993
0.9960764909
0.9941994499
0.9919038515
0.989588115
0.9868757361
0.9836050975
0.9808833021
0.978267751
0.9746029517
0.9712102149
0.9690583604
0.9662119586
0.962059505
0.9593448619
0.9575518093
0.9544238051
0.9502848034
0.9481712239
0.9464887064
0.9431930099
0.93933234
0.9375799328
0.9358709122
0.9326982148
0.9295994574
0.927662181
0.9257973752
0.9219989547
0.9998889739
0.9997175991
0.999378584
0.9987748572
0.9978342141
0.9965514883
0.9948002815
0.9926660031
0.9904539767
0.9877805244
0.9846588688
0.9820746602
0.9793865692
0.9757070644
0.9725939903
0.970429396
0.9673393324
0.9633033237
0.9609046021
0.9589505505
0.9555402691
0.951680381
0.9498089028
0.9479065911
0.9444401903
0.940994731
0.9393039123
0.9373161854
0.9341924563
0.9313331545
0.9295069242
0.9260328457
0.9999724917
0.999915295
0.999777267
0.9994942366
0.99897451
0.9981463798
0.9969813306
0.9953594877
0.9933788168
0.9912659886
0.9886488751
0.9856877822
0.9832064661
0.9804565658
0.9768264733
0.9739567539
0.9717701129
0.9684945238
0.9646438168
0.9625072401
0.9604441426
0.9567930243
0.9532704718
0.9515604871
0.9494492781
0.9458005958
0.9427412789
0.9410301343
0.9388115809
0.9356629079
0.9332895019
0.9298147174
0.9999947206
0.9999799656
0.9999359227
0.9998256809
0.9995911844
0.9991472082
0.9984219932
0.9973698217
0.9958764027
0.9940443873
0.992024447
0.9894841348
0.9866843912
0.9842801199
0.9814717759
0.9779381435
0.9752731291
0.9730001317
0.9695706124
0.9659657944
0.9639468581
0.9616666971
0.9579295767
0.9547630217
0.9530254488
0.9506759634
0.9471304856
0.9443537852
0.9425137615
0.9400964694
0.937489802
0.9336214602
0.9999992405
0.9999963452
0.999985543
0.9999519465
0.9998646369
0.9996719096
0.9992954639
0.9986642085
0.9977188115
0.9963535832
0.9946609266
0.9927351297
0.9902857497
0.9876451168
0.9852961779
0.9824564895
0.9790526464
0.9765394395
0.9741940537
0.9706828336
0.9673318069
0.965391757
0.962966925
0.9592022307
0.956348195
0.9545882843
0.9520629003
0.9486055021
0.9460240721
0.9439857384
0.9417553997
0.9376869632
0.9999999198
0.999999502
0.9999974952
0.9999896654
0.9999642793
0.9998957297
0.9997386027
0.999421932
0.9988755399
0.998031674
0.9967904393
0.99523179
0.9933985566
0.9910559832
0.9885625151
0.9862592025
0.9834113594
0.9801560254
0.9777435846
0.9753014168
0.9717770659
0.9686625486
0.9666909865
0.9640861594
0.9604289677
0.9577710942
0.9558743677
0.953234676
0.950035416
0.947458641
0.9454868196
0.941676518
0.9999999939
0.9999999504
0.999999677
0.9999983008
0.9999926828
0.9999736843
0.9999203337
0.9997933047
0.9995289533
0.9990590985
0.9983102159
0.9971896283
0.9957557923
0.9940208318
0.9917921183
0.9894361266
0.9871701689
0.9843481143
0.9812452167
0.9788914892
0.9763804393
0.9729005838
0.9699781093
0.9679774277
0.9652845253
0.9617594507
0.959228654
0.9572438352
0.9545896032
0.9514911653
0.9492239277
0.9455330156
0.9999999997
0.9999999965
0.9999999697
0.9999997928
0.9999988591
0.9999948695
0.9999807896
0.9999396397
0.9998378158
0.9996188893
0.9992174081
0.9985575156
0.9975511266
0.9962371264
0.9946006131
0.9924971603
0.9902610521
0.9880364242
0.9852636155
0.9823077621
0.9799813671
0.9774091439
0.9740236876
0.9712336843
0.9691425859
0.9663836854
0.9630501243
0.9605414384
0.9584034675
0.9556905042
0.9531139665
0.9492070366
1
0.9999999998
0.999999998
0.9999999817
0.9999998686
0.9999992421
0.9999964383
0.9999861076
0.9999546543
0.9998737592
0.9996938563
0.9993532143
0.9987755651
0.9978775783
0.9966758987
0.9951427886
0.9931651343
0.9910424725
0.9888581721
0.9861637376
0.9833365384
0.9810195872
0.9784245083
0.9751593726
0.972450082
0.9702895886
0.9675427078
0.9643774307
0.9618930213
0.9595900329
0.9572246656
0.9531435926
1
1
0.9999999999
0.9999999988
0.9999999891
0.9999999176
0.9999995019
0.9999975524
0.9999900489
0.9999662317
0.9999025295
0.9997559268
0.9994687946
0.9989671497
0.9981697299
0.9970762594
0.9956459539
0.9937980754
0.9917769784
0.989644109
0.9870407509
0.9843300679
0.9820057853
0.9794101204
0.976284873
0.9736169587
0.9713545211
0.9686302377
0.965657481
0.9630716681
0.9609160532
0.9569559337
1
1
1
0.9999999999
0.9999999994
0.9999999936
0.9999999489
0.9999996762
0.9999983353
0.9999929407
0.9999750776
0.9999253668
0.9998068854
0.9995666454
0.9991340047
0.9984306718
0.9974383556
0.9961146943
0.9943907829
0.9924707709
0.9903924566
0.9878961328
0.985284455
0.9829522035
0.9803799868
0.9773944364
0.9747522651
0.9724083451
0.969759121
0.9668635712
0.9645554569
0.9607058727
1
1
1
1
1
0.9999999996
0.9999999962
0.9999999687
0.9999997919
0.9999988797
0.999995041
0.9999817742
0.999943334
0.9998483944
0.9996488712
0.9992785958
0.9986616223
0.9977663501
0.9965464701
0.9949479665
0.9931201205
0.9911105426
0.9887206924
0.9862037484
0.9838613266
0.9813249146
0.9784734401
0.9758460008
0.9734389745
0.9707607029
0.9682945426
0.9643112467
1
1
1
1
1
0.9999999998
0.9999999978
0.9999999811
0.9999998677
0.9999992541
0.9999965512
0.9999867942
0.9999573516
0.9998819006
0.9997175683
0.999402819
0.9988653556
0.9980611044
0.9969447549
0.9954651326
0.9937335404
0.9917926198
0.9895165482
0.9870853374
0.9847437501
0.9822491161
0.979517021
0.9769281294
0.9744020944
0.9720621868
0.9680314466
1
1
1
1
1
1
0.9999999999
0.9999999988
0.9999999887
0.9999999169
0.9999995087
0.9999976258
0.9999905215
0.9999681852
0.9999087463
0.9997744519
0.9995090924
0.9990432761
0.998326315
0.9973079832
0.9959464377
0.9943078231
0.9924457502
0.990274354
0.9879332979
0.9856021572
0.9831457862
0.9805355077
0.9779060094
0.9756346186
0.9716673305
1
1
1
1
1
1
1
0.9999999999
0.9999999993
0.9999999933
0.9999999484
0.9999996799
0.9999983826
0.9999932621
0.9999764809
0.9999300709
0.9998212367
0.9995991735
0.9991983381
0.9985623302
0.9976404599
0.9963882503
0.9948497208
0.9930644614
0.990999377
0.9887430177
0.9864372506
0.9840371084
0.9814451052
0.979144217
0.9752198752
1
1
1
1
1
1
1
1
1
0.9999999996
0.9999999961
0.9999999683
0.9999997938
0.9999989096
0.9999952579
0.9999827703
0.9999468736
0.9998593893
0.9996750694
0.9993322818
0.9987723413
0.9979409059
0.996796278
0.995354132
0.9936554534
0.9916863789
0.9895157411
0.9872626676
0.984840294
0.9826015929
0.9787083573
1
1
1
1
1
1
1
1
1
1
0.9999999998
0.9999999977
0.9999999808
0.9999998687
0.9999992728
0.9999966961
0.9999874961
0.9999599799
0.9998903113
0.9997383744
0.9994476237
0.9989572509
0.9982130532
0.9971680086
0.9958270784
0.9942132576
0.9923385401
0.9902648111
0.9880011178
0.9858950537
0.982118062
1
1
1
1
1
1
1
1
1
1
1
0.9999999999
0.9999999987
0.9999999885
0.9999999173
0.9999995202
0.9999977217
0.9999910123
0.9999701162
0.9999151247
0.9997909407
0.9995458103
0.9991201247
0.9984562773
0.9975088179
0.9962641265
0.9947409049
0.9929667152
0.9909215505
0.9889701056
0.985378021
1
1
1
1
1
1
1
1
1
1
1
1
0.9999999999
0.9999999993
0.9999999932
0.9999999486
0.999999687
0.999998445
0.9999936033
0.999977881
0.9999348818
0.9998341663
0.9996291716
0.9992617158
0.9986744479
0.9978170103
0.9966689553
0.9952450715
0.99351218
0.9917789782
0.9884469823
1
1
1
1
1
1
1
1
1
1
1
1
1
1
0.9999999996
0.999999996
0.9999999684
0.9999997981
0.9999989499
0.9999954918
0.999983781
0.9999504489
0.9998695243
0.9996991631
0.999384791
0.9988674782
0.9980960989
0.9970477244
0.9956768416
0.9942298006
0.9912611686
1
1
1
1
1
1
1
1
1
1
1
1
1
1
1
0.9999999998
0.9999999977
0.9999999808
0.9999998712
0.9999992985
0.9999968548
0.999988217
0.9999626302
0.9998981196
0.9997577982
0.999490404
0.9990379204
0.9983517694
0.9973637878
0.9962442938
0.9937393069
1
1
1
1
1
1
1
1
1
1
1
1
1
1
1
1
0.9999999999
0.9999999987
0.9999999885
0.9999999188
0.9999995365
0.999997828
0.999991523
0.999972059
0.999921124
0.9998063717
0.9995805062
0.9991903936
0.9985589584
0.9977761762
0.9958075817
1
1
1
1
1
1
1
1
1
1
1
1
1
1
1
1
1
0.9999999999
0.9999999993
0.9999999932
0.9999999494
0.9999996972
0.999998516
0.9999939595
0.9999793025
0.9999394376
0.9998462315
0.9996586767
0.999309527
0.9988275063
0.9974150613
1
1
1
1
1
1
1
1
1
1
1
1
1
1
1
1
1
1
1
0.9999999996
0.999999996
0.9999999689
0.9999998044
0.9999989967
0.9999957387
0.9999848129
0.9999538211
0.999879645
0.9997170519
0.9994624357
0.9985555946
1
1
1
1
1
1
1
1
1
1
1
1
1
1
1
1
1
1
1
1
0.9999999998
0.9999999977
0.9999999811
0.9999998751
0.999999329
0.9999970259
0.9999889334
0.9999654182
0.9999033235
0.9997910482
0.9992797933
1
1
1
1
1
1
1
1
1
1
1
1
1
1
1
1
1
1
1
1
1
0.9999999999
0.9999999987
0.9999999886
0.9999999212
0.9999995566
0.999997938
0.999992114
0.9999731581
0.9999329107
0.9996836964
1
1
1
1
1
1
1
1
1
1
1
1
1
1
1
1
1
1
1
1
1
1
0.9999999999
0.9999999993
0.9999999933
0.9999999509
0.9999997087
0.9999986094
0.9999940982
0.9999826653
0.9998786074
1
1
1
1
1
1
1
1
1
1
1
1
1
1
1
1
1
1
1
1
1
1
1
1
0.9999999996
0.9999999961
0.9999999696
0.9999998151
0.9999989982
0.9999964862
0.9999592864
1
1
1
1
1
1
1
1
1
1
1
1
1
1
1
1
1
1
1
1
1
1
1
1
1
0.9999999998
0.9999999977
0.9999999819
0.9999998719
0.9999994546
0.9999879443
1
1
1
1
1
1
1
1
1
1
1
1
1
1
1
1
1
1
1
1
1
1
1
1
1
1
0.9999999999
0.9999999987
0.999999988
0.9999999366
0.9999967837
1
1
1
1
1
1
1
1
1
1
1
1
1
1
1
1
1
1
1
1
1
1
1
1
1
1
1
0.9999999999
0.9999999992
0.9999999946
0.9999992062
1
1
1
1
1
1
1
1
1
1
1
1
1
1
1
1
1
1
1
1
1
1
1
1
1
1
1
1
1
0.9999999997
0.999999814
1
1
1
1
1
1
1
1
1
1
1
1
1
1
1
1
1
1
1
1
1
1
1
1
1
1
1
1
1
1
0.9999999578
1
1
1
1
1
1
1
1
1
1
1
1
1
1
1
1
1
1
1
1
1
1
1
1
1
1
1
1
1
1
0.9999999906
1
1
1
1
1
1
1
1
1
1
1
1
1
1
1
1
1
1
1
1
1
1
1
1
1
1
1
1
1
1
0.9999999979
1
1
1
1
1
1
1
1
1
1
1
1
1
1
1
1
1
1
1
1
1
1
1
1
1
1
1
1
1
1
0.9999999995
1
1
1
1
1
1
1
1
1
1
1
1
1
1
1
1
1
1
1
1
1
1
1
1
1
1
1
1
1
1
0.9999999999
1
1
1
1
1
1
1
1
1
1
1
1
1
1
1
1
1
1
1
1
1
1
1
1
1
1
1
1
1
1
1
1
1
1
1
1
1
1
1
1
1
1
1
1
1
1
1
1
1
1
1
1
1
1
1
1
1
1
1
1
1
1
1
1
1
1
1
1
1
1
1
1
1
1
1
1
1
1
1
1
1
1
1
1
1
1
1
1
1
1
1
1
1
1
1
1
1
1
1
1
1
1
1
1
1
1
1
1
1
1
1
1
1
1
1
1
1
1
1
1
1
1
1
1
1
1
1
1
1
1
1
1
1
1
1
1
1
1
1
1
1
1
1
1
1
1
1
1
1
1
1
1
1
1
1
1
1
1
1
1
1
1
1
1
1
1
1
1
1
1
1
1
1
1
1
1
1
1
1
1
1
1
1
1
1
1
)
;

boundaryField
{
    inlet
    {
        type            fixedValue;
        value           nonuniform 0();
    }
    outlet
    {
        type            inletOutlet;
        inletValue      uniform 1;
        value           nonuniform List<scalar> 
71
(
1.011953437
1.011264266
1.000273178
0.9653365056
0.8940035694
0.842782768
0.834356554
0.8368821589
0.8411560132
0.8460801351
0.8499912615
0.8537283062
0.8577329909
0.8620161594
0.8660308884
0.8699954048
0.8740214004
0.8778056712
0.8819842688
0.8862718616
0.8901436009
0.8940233814
0.8977658654
0.9022242454
0.9061404654
0.9100895372
0.9138465184
0.9178886637
0.9219930012
0.9260351814
0.929821585
0.9336209183
0.9376807459
0.9416755939
0.9455377575
0.9492085942
0.9531400954
0.9569545826
0.9607082241
0.9643118953
0.9680300838
0.9716672157
0.9752204578
0.9787082635
0.9821179034
0.9853780972
0.988446993
0.9912611502
0.9937393096
0.9958075818
0.9974150606
0.9985555949
0.9992797935
0.9996836965
0.9998786074
0.9999592864
0.9999879443
0.9999967837
0.9999992062
0.999999814
0.9999999578
0.9999999906
0.9999999979
0.9999999995
0.9999999999
1
1
1
1
1
1
)
;
    }
    bottom
    {
        type            slip;
    }
    top
    {
        type            slip;
    }
    obstacle
    {
        type            zeroGradient;
    }
    defaultFaces
    {
        type            empty;
    }
    procBoundary35to29
    {
        type            processor;
        value           nonuniform List<scalar> 
33
(
0.8262655824
0.824633877
0.8214842048
0.8209939129
0.8217511002
0.8257898392
0.8475634962
0.8924264975
0.9405335427
0.969559393
0.9963845777
1.005738687
1.005457594
1.008455106
1.009859134
1.009694668
0.8636737576
0.8626314448
0.8600313922
0.8557883269
0.8540038297
0.8530959498
0.850706885
0.8468747374
0.8456260482
0.8450275719
0.8430087113
0.839348455
0.8376902022
0.8370613694
0.8354993683
0.8322011618
0.8322011618
)
;
    }
    procBoundary35to34
    {
        type            processor;
        value           nonuniform List<scalar> 
71
(
0.8731089799
0.8800759644
0.8855180892
0.8903633702
0.8956855793
0.9021081397
0.9093409324
0.9155639907
0.9205662557
0.9254047038
0.9313487919
0.9383598174
0.9444283204
0.9497878409
0.9543469888
0.9598421712
0.9659257929
0.9714686842
0.9760534859
0.9805983509
0.9853824653
0.989587073
0.9929260135
0.9956394874
0.9976506679
0.9988917013
0.9995561082
0.9998556834
0.999962571
0.9999924492
0.9999988539
0.9999998718
0.9999999897
0.9999999994
1
1
1
1
1
1
1
1
1
1
1
1
1
1
1
1
1
1
1
1
1
1
1
1
1
1
1
1
1
1
1
1
1
1
1
1
1
)
;
    }
}


// ************************************************************************* //
