/*--------------------------------*- C++ -*----------------------------------*\
  =========                 |
  \\      /  F ield         | OpenFOAM: The Open Source CFD Toolbox
   \\    /   O peration     | Website:  https://openfoam.org
    \\  /    A nd           | Version:  7
     \\/     M anipulation  |
\*---------------------------------------------------------------------------*/
FoamFile
{
    version     2.0;
    format      ascii;
    class       volScalarField;
    location    "2.5";
    object      rho;
}
// * * * * * * * * * * * * * * * * * * * * * * * * * * * * * * * * * * * * * //

dimensions      [1 -3 0 0 0 0 0];

internalField   nonuniform List<scalar> 
2222
(
1.40000504
1.40000504
1.40000504
1.40000504
1.40000504
1.40000504
1.40000504
1.40000504
1.40000504
1.40000504
1.40000504
1.40000504
1.40000504
1.40000504
1.40000504
1.40000504
1.40000504
1.40000504
1.40000504
1.40000504
1.40000504
1.40000504
1.40000504
1.40000504
1.40000504
1.40000504
1.40000504
1.40000504
1.40000504
1.40000504
1.40000504
1.40000504
1.40000504
1.40000504
1.40000504
1.40000504
1.40000504
1.40000504
1.40000504
1.40000504
1.40000504
1.40000504
1.40000504
1.40000504
1.40000504
1.40000504
1.40000504
1.40000504
1.40000504
1.40000504
1.40000504
1.40000504
1.40000504
1.40000504
1.40000504
1.40000504
1.40000504
1.40000504
1.40000504
1.40000504
1.40000504
1.40000504
1.40000504
1.40000504
1.40000504
1.40000504
1.40000504
1.40000504
1.40000504
1.40000504
1.40000504
1.40000504
1.40000504
1.40000504
1.40000504
1.40000504
1.40000504
1.40000504
1.40000504
1.40000504
1.40000504
1.40000504
1.40000504
1.40000504
1.40000504
1.40000504
1.40000504
1.40000504
1.40000504
1.40000504
1.40000504
1.40000504
1.40000504
1.40000504
1.40000504
1.40000504
1.40000504
1.40000504
1.40000504
1.40000504
1.40000504
1.40000504
1.40000504
1.40000504
1.40000504
1.40000504
1.40000504
1.40000504
1.40000504
1.40000504
1.40000504
1.40000504
1.40000504
1.40000504
1.40000504
1.40000504
1.40000504
1.40000504
1.40000504
1.40000504
1.40000504
1.40000504
1.40000504
1.40000504
1.40000504
1.40000504
1.40000504
1.40000504
1.40000504
1.40000504
1.40000504
1.40000504
1.40000504
1.40000504
1.40000504
1.40000504
1.40000504
1.40000504
1.40000504
1.40000504
1.40000504
1.40000504
1.40000504
1.40000504
1.40000504
1.40000504
1.40000504
1.40000504
1.40000504
1.40000504
1.40000504
1.40000504
1.40000504
1.40000504
1.40000504
1.40000504
1.40000504
1.40000504
1.40000504
1.40000504
1.40000504
1.40000504
1.40000504
1.40000504
1.40000504
1.40000504
1.40000504
1.40000504
1.40000504
1.40000504
1.40000504
1.40000504
1.40000504
1.40000504
1.40000504
1.40000504
1.40000504
1.40000504
1.40000504
1.40000504
1.40000504
1.40000504
1.40000504
1.40000504
1.40000504
1.40000504
1.40000504
1.40000504
1.40000504
1.40000504
1.40000504
1.40000504
1.40000504
1.40000504
1.40000504
1.40000504
1.40000504
1.40000504
1.40000504
1.40000504
1.40000504
1.40000504
1.40000504
1.40000504
1.40000504
1.40000504
1.40000504
1.40000504
1.40000504
1.40000504
1.40000504
1.40000504
1.40000504
1.40000504
1.40000504
1.40000504
1.40000504
1.40000504
1.40000504
1.40000504
1.40000504
1.40000504
1.40000504
1.40000504
1.40000504
1.40000504
1.40000504
1.40000504
1.40000504
1.40000504
1.40000504
1.40000504
1.40000504
1.40000504
1.40000504
1.40000504
1.40000504
1.40000504
1.40000504
1.40000504
1.40000504
1.40000504
1.40000504
1.40000504
1.40000504
1.40000504
1.40000504
1.40000504
1.40000504
1.40000504
1.40000504
1.40000504
1.40000504
1.40000504
1.40000504
1.40000504
1.40000504
1.40000504
1.40000504
1.40000504
1.40000504
1.40000504
1.40000504
1.40000504
1.40000504
1.40000504
1.40000504
1.40000504
1.40000504
1.40000504
1.40000504
1.40000504
1.40000504
1.40000504
1.40000504
1.40000504
1.40000504
1.40000504
1.40000504
1.40000504
1.40000504
1.40000504
1.40000504
1.40000504
1.40000504
1.40000504
1.40000504
1.40000504
1.400005046
1.40000504
1.40000504
1.40000504
1.40000504
1.40000504
1.40000504
1.40000504
1.40000504
1.40000504
1.40000504
1.40000504
1.40000504
1.40000504
1.40000504
1.40000504
1.40000504
1.40000504
1.40000504
1.40000504
1.40000504
1.40000504
1.40000504
1.40000504
1.40000504
1.40000504
1.40000504
1.40000504
1.40000504
1.40000504
1.40000504
1.40000504
1.40000504
1.40000504
1.40000504
1.400005041
1.400005155
1.40000504
1.40000504
1.40000504
1.40000504
1.40000504
1.40000504
1.40000504
1.40000504
1.40000504
1.40000504
1.40000504
1.40000504
1.40000504
1.40000504
1.40000504
1.40000504
1.40000504
1.40000504
1.40000504
1.40000504
1.40000504
1.40000504
1.40000504
1.40000504
1.40000504
1.40000504
1.40000504
1.40000504
1.40000504
1.40000504
1.40000504
1.40000504
1.40000504
1.40000504
1.400005052
1.400006563
1.40000504
1.40000504
1.40000504
1.40000504
1.40000504
1.40000504
1.40000504
1.40000504
1.40000504
1.40000504
1.40000504
1.40000504
1.40000504
1.40000504
1.40000504
1.40000504
1.40000504
1.40000504
1.40000504
1.40000504
1.40000504
1.40000504
1.40000504
1.40000504
1.40000504
1.40000504
1.40000504
1.40000504
1.40000504
1.40000504
1.40000504
1.40000504
1.40000504
1.400005041
1.400005171
1.400022826
1.40000504
1.40000504
1.40000504
1.40000504
1.40000504
1.40000504
1.40000504
1.40000504
1.40000504
1.40000504
1.40000504
1.40000504
1.40000504
1.40000504
1.40000504
1.40000504
1.40000504
1.40000504
1.40000504
1.40000504
1.40000504
1.40000504
1.40000504
1.40000504
1.40000504
1.40000504
1.40000504
1.40000504
1.40000504
1.40000504
1.40000504
1.40000504
1.40000504
1.400005052
1.400007285
1.400264896
1.40000504
1.40000504
1.40000504
1.40000504
1.40000504
1.40000504
1.40000504
1.40000504
1.40000504
1.40000504
1.40000504
1.40000504
1.40000504
1.40000504
1.40000504
1.40000504
1.40000504
1.40000504
1.40000504
1.40000504
1.40000504
1.40000504
1.40000504
1.40000504
1.40000504
1.40000504
1.40000504
1.40000504
1.40000504
1.40000504
1.40000504
1.40000504
1.400005042
1.400005484
1.400066966
1.404056185
1.40000504
1.40000504
1.40000504
1.40000504
1.40000504
1.40000504
1.40000504
1.40000504
1.40000504
1.40000504
1.40000504
1.40000504
1.40000504
1.40000504
1.40000504
1.40000504
1.40000504
1.40000504
1.40000504
1.40000504
1.40000504
1.40000504
1.40000504
1.40000504
1.40000504
1.40000504
1.40000504
1.40000504
1.40000504
1.40000504
1.40000504
1.400005041
1.400005158
1.400022566
1.401315918
1.44105403
1.40000504
1.40000504
1.40000504
1.40000504
1.40000504
1.40000504
1.40000504
1.40000504
1.40000504
1.40000504
1.40000504
1.40000504
1.40000504
1.40000504
1.40000504
1.40000504
1.40000504
1.40000504
1.40000504
1.40000504
1.40000504
1.40000504
1.40000504
1.40000504
1.40000504
1.40000504
1.40000504
1.40000504
1.40000504
1.40000504
1.40000504
1.400005065
1.400009028
1.400346931
1.414424602
1.620729812
1.40000504
1.40000504
1.40000504
1.40000504
1.40000504
1.40000504
1.40000504
1.40000504
1.40000504
1.40000504
1.40000504
1.40000504
1.40000504
1.40000504
1.40000504
1.40000504
1.40000504
1.40000504
1.40000504
1.40000504
1.40000504
1.40000504
1.40000504
1.40000504
1.40000504
1.40000504
1.40000504
1.40000504
1.40000504
1.40000504
1.400005045
1.400005682
1.40006986
1.403502023
1.489654192
1.980360607
1.40000504
1.40000504
1.40000504
1.40000504
1.40000504
1.40000504
1.40000504
1.40000504
1.40000504
1.40000504
1.40000504
1.40000504
1.40000504
1.40000504
1.40000504
1.40000504
1.40000504
1.40000504
1.40000504
1.40000504
1.40000504
1.40000504
1.40000504
1.40000504
1.40000504
1.40000504
1.40000504
1.40000504
1.40000504
1.400005041
1.400005124
1.400013948
1.400690857
1.422507158
1.735322077
2.319755358
1.40000504
1.40000504
1.40000504
1.40000504
1.40000504
1.40000504
1.40000504
1.40000504
1.40000504
1.40000504
1.40000504
1.40000504
1.40000504
1.40000504
1.40000504
1.40000504
1.40000504
1.40000504
1.40000504
1.40000504
1.40000504
1.40000504
1.40000504
1.40000504
1.40000504
1.40000504
1.40000504
1.40000504
1.40000504
1.400005047
1.400006048
1.400101479
1.405519088
1.511494683
2.124387552
2.531459305
1.40000504
1.40000504
1.40000504
1.40000504
1.40000504
1.40000504
1.40000504
1.40000504
1.40000504
1.40000504
1.40000504
1.40000504
1.40000504
1.40000504
1.40000504
1.40000504
1.40000504
1.40000504
1.40000504
1.40000504
1.40000504
1.40000504
1.40000504
1.40000504
1.40000504
1.40000504
1.40000504
1.40000504
1.400005041
1.400005118
1.400017929
1.401095967
1.435359566
1.785829356
2.4561701
2.628950738
1.40000504
1.40000504
1.40000504
1.40000504
1.40000504
1.40000504
1.40000504
1.40000504
1.40000504
1.40000504
1.40000504
1.40000504
1.40000504
1.40000504
1.40000504
1.40000504
1.40000504
1.40000504
1.40000504
1.40000504
1.40000504
1.40000504
1.40000504
1.40000504
1.40000504
1.40000504
1.40000504
1.40000504
1.400005048
1.400006949
1.400242907
1.411700071
1.568868488
2.228200963
2.62149401
2.656788632
1.40000504
1.40000504
1.40000504
1.40000504
1.40000504
1.40000504
1.40000504
1.40000504
1.40000504
1.40000504
1.40000504
1.40000504
1.40000504
1.40000504
1.40000504
1.40000504
1.40000504
1.40000504
1.40000504
1.40000504
1.40000504
1.40000504
1.40000504
1.40000504
1.40000504
1.40000504
1.40000504
1.400005042
1.400005479
1.40006869
1.404194926
1.488707087
1.896770743
2.583622547
2.692489124
2.673958346
1.40000504
1.40000504
1.40000504
1.40000504
1.40000504
1.40000504
1.40000504
1.40000504
1.40000504
1.40000504
1.40000504
1.40000504
1.40000504
1.40000504
1.40000504
1.40000504
1.40000504
1.40000504
1.40000504
1.40000504
1.40000504
1.40000504
1.40000504
1.40000504
1.40000504
1.40000504
1.400005041
1.400005153
1.400021046
1.401262013
1.442207382
1.756529207
2.331272933
2.712046671
2.715529613
2.691266866
1.40000504
1.40000504
1.40000504
1.40000504
1.40000504
1.40000504
1.40000504
1.40000504
1.40000504
1.40000504
1.40000504
1.40000504
1.40000504
1.40000504
1.40000504
1.40000504
1.40000504
1.40000504
1.40000504
1.40000504
1.40000504
1.40000504
1.40000504
1.40000504
1.40000504
1.40000504
1.400005062
1.400008241
1.400281726
1.412418546
1.622451
2.148557707
2.631763962
2.730701182
2.718737169
2.691774939
1.40000504
1.40000504
1.40000504
1.40000504
1.40000504
1.40000504
1.40000504
1.40000504
1.40000504
1.40000504
1.40000504
1.40000504
1.40000504
1.40000504
1.40000504
1.40000504
1.40000504
1.40000504
1.40000504
1.40000504
1.40000504
1.40000504
1.40000504
1.40000504
1.40000504
1.400005044
1.400005499
1.40005148
1.402694475
1.473411645
1.984462784
2.477044394
2.722386621
2.730328506
2.707117717
2.668373491
1.40000504
1.40000504
1.40000504
1.40000504
1.40000504
1.40000504
1.40000504
1.40000504
1.40000504
1.40000504
1.40000504
1.40000504
1.40000504
1.40000504
1.40000504
1.40000504
1.40000504
1.40000504
1.40000504
1.40000504
1.40000504
1.40000504
1.40000504
1.40000504
1.400005041
1.40000509
1.400010717
1.400488185
1.417412646
1.6891814
2.332925096
2.643536246
2.738746634
2.728379312
2.690412251
2.640258396
1.40000504
1.40000504
1.40000504
1.40000504
1.40000504
1.40000504
1.40000504
1.40000504
1.40000504
1.40000504
1.40000504
1.40000504
1.40000504
1.40000504
1.40000504
1.40000504
1.40000504
1.40000504
1.40000504
1.40000504
1.40000504
1.40000504
1.40000504
1.40000504
1.400005044
1.400005613
1.400066538
1.404180041
1.488918765
2.083584852
2.554148747
2.70243181
2.743961759
2.726218243
2.674121644
2.614457805
1.40000504
1.40000504
1.40000504
1.40000504
1.40000504
1.40000504
1.40000504
1.40000504
1.40000504
1.40000504
1.40000504
1.40000504
1.40000504
1.40000504
1.40000504
1.40000504
1.40000504
1.40000504
1.40000504
1.40000504
1.40000504
1.40000504
1.40000504
1.40000504
1.400005086
1.400013597
1.400816627
1.429762287
1.726843259
2.470639067
2.660801344
2.721680061
2.742353124
2.71977018
2.655210694
2.585800805
1.40000504
1.40000504
1.40000504
1.40000504
1.40000504
1.40000504
1.40000504
1.40000504
1.40000504
1.40000504
1.40000504
1.40000504
1.40000504
1.40000504
1.40000504
1.40000504
1.40000504
1.40000504
1.40000504
1.40000504
1.40000504
1.40000504
1.40000504
1.400005046
1.400006554
1.400198121
1.410509173
1.556150282
2.155948337
2.684857879
2.701292071
2.709387015
2.719356229
2.699119307
2.632122654
2.558104599
1.40000504
1.40000504
1.40000504
1.40000504
1.40000504
1.40000504
1.40000504
1.40000504
1.40000504
1.40000504
1.40000504
1.40000504
1.40000504
1.40000504
1.40000504
1.40000504
1.40000504
1.40000504
1.40000504
1.40000504
1.40000504
1.40000504
1.400005041
1.400005378
1.400058676
1.403565673
1.487734311
1.882375188
2.562158482
2.743209923
2.729140744
2.707017377
2.692964787
2.667597726
2.604662028
2.531903577
1.40000504
1.40000504
1.40000504
1.40000504
1.40000504
1.40000504
1.40000504
1.40000504
1.40000504
1.40000504
1.40000504
1.40000504
1.40000504
1.40000504
1.40000504
1.40000504
1.40000504
1.40000504
1.40000504
1.40000504
1.40000504
1.400005041
1.40000511
1.400016616
1.400989394
1.435089488
1.765000736
2.302783507
2.73647897
2.759791218
2.747237721
2.703186682
2.663485659
2.632397046
2.576802931
2.506393815
1.40000504
1.40000504
1.40000504
1.40000504
1.40000504
1.40000504
1.40000504
1.40000504
1.40000504
1.40000504
1.40000504
1.40000504
1.40000504
1.40000504
1.40000504
1.40000504
1.40000504
1.40000504
1.40000504
1.40000504
1.40000504
1.400005053
1.400006982
1.400193838
1.409183854
1.588015039
2.162502579
2.617687415
2.761598851
2.75195642
2.729319856
2.687722517
2.637512569
2.600998963
2.548735345
2.481334037
1.40000504
1.40000504
1.40000504
1.40000504
1.40000504
1.40000504
1.40000504
1.40000504
1.40000504
1.40000504
1.40000504
1.40000504
1.40000504
1.40000504
1.40000504
1.40000504
1.40000504
1.40000504
1.40000504
1.40000504
1.400005042
1.400005313
1.400033293
1.401875134
1.453070865
1.944335284
2.466519047
2.728537673
2.763394372
2.748131986
2.717611606
2.666601276
2.610786058
2.571753766
2.521070553
2.456759197
1.40000504
1.40000504
1.40000504
1.40000504
1.40000504
1.40000504
1.40000504
1.40000504
1.40000504
1.40000504
1.40000504
1.40000504
1.40000504
1.40000504
1.40000504
1.40000504
1.40000504
1.40000504
1.40000504
1.40000504
1.400005065
1.400008589
1.400308579
1.413112715
1.624354166
2.332215659
2.636563029
2.755053731
2.758974933
2.731681003
2.692172354
2.64031531
2.584929808
2.543734454
2.491928769
2.42929054
1.40000504
1.40000504
1.40000504
1.40000504
1.40000504
1.40000504
1.40000504
1.40000504
1.40000504
1.40000504
1.40000504
1.40000504
1.40000504
1.40000504
1.40000504
1.40000504
1.40000504
1.40000504
1.40000504
1.400005042
1.400005339
1.400046343
1.40292977
1.471720142
2.007747059
2.577059976
2.713734533
2.769506353
2.761822615
2.721833964
2.669963102
2.61118202
2.555269586
2.512528244
2.460117517
2.400269992
1.40000504
1.40000504
1.40000504
1.40000504
1.40000504
1.40000504
1.40000504
1.40000504
1.40000504
1.40000504
1.40000504
1.40000504
1.40000504
1.40000504
1.40000504
1.40000504
1.40000504
1.40000504
1.40000504
1.400005068
1.400010087
1.400587427
1.423972713
1.678835929
2.453292284
2.689513907
2.735555869
2.759088205
2.75583994
2.712274429
2.648282727
2.580844841
2.525631484
2.482947594
2.429666435
2.371496131
1.40000504
1.40000504
1.40000504
1.40000504
1.40000504
1.40000504
1.40000504
1.40000504
1.40000504
1.40000504
1.40000504
1.40000504
1.40000504
1.40000504
1.40000504
1.40000504
1.40000504
1.40000504
1.400005043
1.40000587
1.400131457
1.408022634
1.5406798
2.077043977
2.711186248
2.745749978
2.744122534
2.746262706
2.744913499
2.698527343
2.626902437
2.552218621
2.493874271
2.450261887
2.39720248
2.341420687
1.40000504
1.40000504
1.40000504
1.40000504
1.40000504
1.40000504
1.40000504
1.40000504
1.40000504
1.40000504
1.40000504
1.40000504
1.40000504
1.40000504
1.40000504
1.40000504
1.40000504
1.400005041
1.400005205
1.400035075
1.40247052
1.471560894
1.859893355
2.510443962
2.776647239
2.769986364
2.75059179
2.732828637
2.719831426
2.673002804
2.600678891
2.520788039
2.460626063
2.417503882
2.365062587
2.31021223
1.40000504
1.40000504
1.40000504
1.40000504
1.40000504
1.40000504
1.40000504
1.40000504
1.40000504
1.40000504
1.40000504
1.40000504
1.40000504
1.40000504
1.40000504
1.40000504
1.40000504
1.400005071
1.400011709
1.400614808
1.425523664
1.728194076
2.270658246
2.738982218
2.784724657
2.775520298
2.749633731
2.713346278
2.68852871
2.644047295
2.574400656
2.49344006
2.432089705
2.388108448
2.334556355
2.27880652
1.40000504
1.40000504
1.40000504
1.40000504
1.40000504
1.40000504
1.40000504
1.40000504
1.40000504
1.40000504
1.40000504
1.40000504
1.40000504
1.40000504
1.40000504
1.40000504
1.400005048
1.400006073
1.400129563
1.406321875
1.546504783
2.138789873
2.583378058
2.789458114
2.789597361
2.77687321
2.744602065
2.694146041
2.656609332
2.613379897
2.549114566
2.469271223
2.40471197
2.358225627
2.303914465
2.246843471
1.40000504
1.40000504
1.40000504
1.40000504
1.40000504
1.40000504
1.40000504
1.40000504
1.40000504
1.40000504
1.40000504
1.40000504
1.40000504
1.40000504
1.40000504
1.400005041
1.400005213
1.400021678
1.401324933
1.438864041
1.873212575
2.456893667
2.727779373
2.792373171
2.774584874
2.752199596
2.71985442
2.670529769
2.626307093
2.583138749
2.521883042
2.442272817
2.375607086
2.327929152
2.274246055
2.215305644
1.40000504
1.40000504
1.40000504
1.40000504
1.40000504
1.40000504
1.40000504
1.40000504
1.40000504
1.40000504
1.40000504
1.40000504
1.40000504
1.40000504
1.40000504
1.400005056
1.400007444
1.400186934
1.409558944
1.571714549
2.276869688
2.648005611
2.781903976
2.787117738
2.763629373
2.728777187
2.693031638
2.643923054
2.594017181
2.549868905
2.489988024
2.41171175
2.346354876
2.29888901
2.24626367
2.184643344
1.40000504
1.40000504
1.40000504
1.40000504
1.40000504
1.40000504
1.40000504
1.40000504
1.40000504
1.40000504
1.40000504
1.40000504
1.40000504
1.40000504
1.400005042
1.400005225
1.400033406
1.401844932
1.454649894
1.906366676
2.565022628
2.725056311
2.796094165
2.791007964
2.759550854
2.71190645
2.668395637
2.617536324
2.559947442
2.513068951
2.455665638
2.382104265
2.319796748
2.271744143
2.218811625
2.154569621
1.40000504
1.40000504
1.40000504
1.40000504
1.40000504
1.40000504
1.40000504
1.40000504
1.40000504
1.40000504
1.40000504
1.40000504
1.40000504
1.40000504
1.400005059
1.400007695
1.400384161
1.416850221
1.63304695
2.358405368
2.700399457
2.750092172
2.776380468
2.788697803
2.761157037
2.70269173
2.648640026
2.590334636
2.52420506
2.475344028
2.421939299
2.353379458
2.292909699
2.243363736
2.189645206
2.12414707
1.40000504
1.40000504
1.40000504
1.40000504
1.40000504
1.40000504
1.40000504
1.40000504
1.40000504
1.40000504
1.40000504
1.40000504
1.40000504
1.400005041
1.400005453
1.40006666
1.405051722
1.510491519
2.015256794
2.668162075
2.764158595
2.777649184
2.7803589
2.785416968
2.755007139
2.685216154
2.621256815
2.558073886
2.487680281
2.438489798
2.387753657
2.320080687
2.260549823
2.211123758
2.15805254
2.093979135
1.40000504
1.40000504
1.40000504
1.40000504
1.40000504
1.40000504
1.40000504
1.40000504
1.40000504
1.40000504
1.40000504
1.40000504
1.40000504
1.400005111
1.400020149
1.401369041
1.447435969
1.800189972
2.469534518
2.775233255
2.766144923
2.772407427
2.77811733
2.777266283
2.737684803
2.661000941
2.590778145
2.525583635
2.454311138
2.403426366
2.351975473
2.282418969
2.22406822
2.17664935
2.125622469
2.06450535
1.40000504
1.40000504
1.40000504
1.40000504
1.40000504
1.40000504
1.40000504
1.40000504
1.40000504
1.40000504
1.40000504
1.40000504
1.40000506
1.400008602
1.400358922
1.4165961
1.651763449
2.216239043
2.735618715
2.796682127
2.771632683
2.764421963
2.756374264
2.75321692
2.716127202
2.638979539
2.564967413
2.496757272
2.423082554
2.367893451
2.315237935
2.244901419
2.187439548
2.14230091
2.093023095
2.034045182
1.40000504
1.40000504
1.40000504
1.40000504
1.40000504
1.40000504
1.40000504
1.40000504
1.40000504
1.40000504
1.40000504
1.400005044
1.400005719
1.400081934
1.404230447
1.509073401
2.057810698
2.552081596
2.807186564
2.814521317
2.797183653
2.769325931
2.737717075
2.720651229
2.685156598
2.615198405
2.541984896
2.467940541
2.388874624
2.330891438
2.279440627
2.209649909
2.150992168
2.106905077
2.058614692
2.001611901
1.40000504
1.40000504
1.40000504
1.40000504
1.40000504
1.40000504
1.40000504
1.40000504
1.40000504
1.40000504
1.400005041
1.400005135
1.400016032
1.400883942
1.428819347
1.796095564
2.426256765
2.726993184
2.816958448
2.806178923
2.793658988
2.77401779
2.726595895
2.691936671
2.650787419
2.584568205
2.512614118
2.433671957
2.352796395
2.294992022
2.244731564
2.174739274
2.113364089
2.069584885
2.022511747
1.96788535
1.40000504
1.40000504
1.40000504
1.40000504
1.40000504
1.40000504
1.40000504
1.40000504
1.40000504
1.40000504
1.40000505
1.400006352
1.400123046
1.40653452
1.536953677
2.198272022
2.656349512
2.802512195
2.807786039
2.7938138
2.771325695
2.748316554
2.707576734
2.667809642
2.616920943
2.547156334
2.47552491
2.39569418
2.317645893
2.26045717
2.209817205
2.139331436
2.074504255
2.030857638
1.985793838
1.934125152
1.40000504
1.40000504
1.40000504
1.40000504
1.40000504
1.40000504
1.40000504
1.40000504
1.40000504
1.400005041
1.400005149
1.400019575
1.401146533
1.438340914
1.831349432
2.513032913
2.742957531
2.824110914
2.821967286
2.796466754
2.762095499
2.728178807
2.684698065
2.640936574
2.580273391
2.505784386
2.43594357
2.358262519
2.28206967
2.223249607
2.170744162
2.100988114
2.03490091
1.99219602
1.949928888
1.901004053
1.40000504
1.40000504
1.40000504
1.40000504
1.40000504
1.40000504
1.40000504
1.40000504
1.40000504
1.400005048
1.400006542
1.400199619
1.41038541
1.578346231
2.267700709
2.675439748
2.763434641
2.822414683
2.827791067
2.802853228
2.761103169
2.711440126
2.658023444
2.60836513
2.540086143
2.464138179
2.397510578
2.320774347
2.243596568
2.184355653
2.132120994
2.065852396
1.999650628
1.956894078
1.916083111
1.867778591
1.40000504
1.40000504
1.40000504
1.40000504
1.40000504
1.40000504
1.40000504
1.40000504
1.400005041
1.400005251
1.400042667
1.403080206
1.475377413
1.920251762
2.638656889
2.750762097
2.781268207
2.801909835
2.81738393
2.802754384
2.756154288
2.693137657
2.627487356
2.571376865
2.498688822
2.422614648
2.358300219
2.281299888
2.202412677
2.144255436
2.092998255
2.029712774
1.965314434
1.922264912
1.881982957
1.833964017
1.40000504
1.40000504
1.40000504
1.40000504
1.40000504
1.40000504
1.40000504
1.40000504
1.400005085
1.400014325
1.400914774
1.434312681
1.723918534
2.375044721
2.790648374
2.775960066
2.78266461
2.791585202
2.802324413
2.790791797
2.738523892
2.663856264
2.591741787
2.532834881
2.458427509
2.380914177
2.315909006
2.239187684
2.160817135
2.105243362
2.055370105
1.99556907
1.933112666
1.889403758
1.849507364
1.802100118
1.40000504
1.40000504
1.40000504
1.40000504
1.40000504
1.40000504
1.40000504
1.40000505
1.400007012
1.400228539
1.411640969
1.606011273
2.138844938
2.703413481
2.817098593
2.791105895
2.782425597
2.783731083
2.782001879
2.767283245
2.712895033
2.630003821
2.554544126
2.49334375
2.416334369
2.336875548
2.271517003
2.198274714
2.122087528
2.068504593
2.019260837
1.959780526
1.898261589
1.854964811
1.816251118
1.770461633
1.40000504
1.40000504
1.40000504
1.40000504
1.40000504
1.40000504
1.400005042
1.400005367
1.400045039
1.402700305
1.479315067
1.987177985
2.522739101
2.814547655
2.82071082
2.806225593
2.797380958
2.781512654
2.760871315
2.735831824
2.680396681
2.594398055
2.517702816
2.453876294
2.37474551
2.295199754
2.229811228
2.15940942
2.083272881
2.029921978
1.981229339
1.923263112
1.863432938
1.821445663
1.784670042
1.741175146
1.40000504
1.40000504
1.40000504
1.40000504
1.40000504
1.40000504
1.40000508
1.400010582
1.400487055
1.418986563
1.716378128
2.362334124
2.729115087
2.831822933
2.825476404
2.808704685
2.803177044
2.781810847
2.737869303
2.699441444
2.642926933
2.55663501
2.477878005
2.41032769
2.330444737
2.253446423
2.189138626
2.121689891
2.045489573
1.992521619
1.945211208
1.889177075
1.831070551
1.790156607
1.754267272
1.711817018
1.40000504
1.40000504
1.40000504
1.40000504
1.40000504
1.400005043
1.400005601
1.400070376
1.404167202
1.496825616
2.117716427
2.602750519
2.798990037
2.840473778
2.830057925
2.81111114
2.792542704
2.762684653
2.712635578
2.665348786
2.604208718
2.513686169
2.433487044
2.365588567
2.288293728
2.215250696
2.151452286
2.08502021
2.008393813
1.955366697
1.909025727
1.855422951
1.798875184
1.758307311
1.7230601
1.682248667
1.640375041
1.40000504
1.40000504
1.40000504
1.40000504
1.40000504
1.40000508
1.400012309
1.400731522
1.427315132
1.752835697
2.483659413
2.719051932
2.815270222
2.845829326
2.833150954
2.800610995
2.77075303
2.735994707
2.684555941
2.631612728
2.565225966
2.471377256
2.390829107
2.323442166
2.247807145
2.175475878
2.111091519
2.046212378
1.971359435
1.918890864
1.874134204
1.823234119
1.768246578
1.72792471
1.692844716
1.652903202
1.611705981
1.40000504
1.40000504
1.40000504
1.40000504
1.400005043
1.400005914
1.400126516
1.407642786
1.535881102
2.19861924
2.692029169
2.761862447
2.804202264
2.837094013
2.827726791
2.793227912
2.757106415
2.717083504
2.658434229
2.597025913
2.525041787
2.428283604
2.347208823
2.280462781
2.205972032
2.134859856
2.071165335
2.008311965
1.936086838
1.884014112
1.839810385
1.790774201
1.735912018
1.695216375
1.660552175
1.62256402
1.583367376
1.40000504
1.40000504
1.40000504
1.400005041
1.400005186
1.400032921
1.402204443
1.461294969
1.835756565
2.605825067
2.781595734
2.78232848
2.799377597
2.816178009
2.815801054
2.786944496
2.743646819
2.692185706
2.626089676
2.558879372
2.483003361
2.385770214
2.305337832
2.239534486
2.165970197
2.094639196
2.031258274
1.970195735
1.900698375
1.848679736
1.804824669
1.757228491
1.703234375
1.663325398
1.629764202
1.593400943
1.554820396
1.40000504
1.40000504
1.40000504
1.400005059
1.400010525
1.400621543
1.425618638
1.683678261
2.286582298
2.791363003
2.806457552
2.78875029
2.787006541
2.797875721
2.803282654
2.777995094
2.728014197
2.666271787
2.592713079
2.520541165
2.442318647
2.345202613
2.263714366
2.1974588
2.124425548
2.053649299
1.991349166
1.931839799
1.864571805
1.812907658
1.769279889
1.723200131
1.67005189
1.630556054
1.597986705
1.563347111
1.526251635
1.40000504
1.40000504
1.400005042
1.40000569
1.400115678
1.407185628
1.561431969
2.081221264
2.654951097
2.819984731
2.807836763
2.79483996
2.784327865
2.784809085
2.788691478
2.764876829
2.710110106
2.638963137
2.556637113
2.479644416
)
;

boundaryField
{
    inlet
    {
        type            calculated;
        value           nonuniform 0();
    }
    outlet
    {
        type            calculated;
        value           nonuniform 0();
    }
    bottom
    {
        type            calculated;
        value           nonuniform List<scalar> 
37
(
1.40000504
1.40000504
1.40000504
1.40000504
1.40000504
1.40000504
1.40000504
1.40000504
1.40000504
1.40000504
1.40000504
1.40000504
1.40000504
1.40000504
1.40000504
1.40000504
1.40000504
1.40000504
1.40000504
1.40000504
1.40000504
1.40000504
1.40000504
1.40000504
1.40000504
1.40000504
1.40000504
1.40000504
1.40000504
1.40000504
1.40000504
1.40000504
1.40000504
1.40000504
1.40000504
1.40000504
1.40000504
)
;
    }
    top
    {
        type            calculated;
        value           nonuniform 0();
    }
    obstacle
    {
        type            calculated;
        value           nonuniform 0();
    }
    defaultFaces
    {
        type            empty;
    }
    procBoundary3to2
    {
        type            processor;
        value           nonuniform List<scalar> 
36
(
1.40000504
1.40000504
1.40000504
1.40000504
1.40000504
1.40000504
1.40000504
1.40000504
1.40000504
1.40000504
1.40000504
1.40000504
1.40000504
1.40000504
1.40000504
1.40000504
1.40000504
1.40000504
1.40000504
1.40000504
1.40000504
1.40000504
1.40000504
1.40000504
1.40000504
1.40000504
1.40000504
1.40000504
1.40000504
1.40000504
1.40000504
1.40000504
1.40000504
1.40000504
1.40000504
1.40000504
)
;
    }
    procBoundary3to4
    {
        type            processor;
        value           nonuniform List<scalar> 
62
(
1.40000504
1.40000504
1.40000504
1.40000504
1.40000504
1.400005041
1.400005063
1.400005759
1.400016433
1.4001317
1.401309894
1.411943232
1.481440222
1.724899724
2.111470562
2.458016399
2.63229322
2.681169931
2.694005499
2.681275523
2.666272788
2.651061865
2.638711417
2.616800818
2.591160311
2.566053843
2.536943119
2.50779998
2.479911738
2.451735995
2.425634355
2.400613154
2.37341525
2.345700075
2.318154712
2.29011891
2.260333898
2.229975608
2.199120031
2.167836434
2.136182809
2.104645162
2.073682753
2.043675556
2.014155953
1.983171671
1.951736382
1.91968719
1.887780128
1.855685747
1.822658933
1.789743083
1.758570333
1.727629699
1.698645165
1.669163941
1.669163941
1.604981378
1.577408792
1.550165675
1.521975292
1.494005731
)
;
    }
    procBoundary3to8
    {
        type            processor;
        value           nonuniform List<scalar> 
27
(
1.40000504
1.40000504
1.40000504
1.40000504
1.40000504
1.40000504
1.40000504
1.40000504
1.40000504
1.40000504
1.40000504
1.40000504
1.40000504
1.40000504
1.40000504
1.40000504
1.40000504
1.40000504
1.40000504
1.40000504
1.40000504
1.40000504
1.40000504
1.40000504
1.40000504
1.40000504
1.40000504
)
;
    }
    procBoundary3to9
    {
        type            processor;
        value           nonuniform List<scalar> 
38
(
2.399427573
2.303272337
2.221301004
2.154697344
2.083508292
2.01362418
1.952463417
1.894247355
1.82842589
1.776286736
1.733142608
1.688629539
1.637491413
1.598998477
1.567231477
1.533477635
1.496260184
1.40000504
1.40000504
1.400005094
1.400018709
1.401342577
1.44920978
1.908237395
2.44683988
2.791426967
2.826184331
2.818816874
2.808579551
2.790607622
2.776610708
2.773118432
2.745218596
2.684632198
2.605867132
2.517086734
2.399427573
2.436751287
)
;
    }
}


// ************************************************************************* //
