/*--------------------------------*- C++ -*----------------------------------*\
  =========                 |
  \\      /  F ield         | OpenFOAM: The Open Source CFD Toolbox
   \\    /   O peration     | Website:  https://openfoam.org
    \\  /    A nd           | Version:  7
     \\/     M anipulation  |
\*---------------------------------------------------------------------------*/
FoamFile
{
    version     2.0;
    format      ascii;
    class       volScalarField;
    location    "0.4";
    object      T;
}
// * * * * * * * * * * * * * * * * * * * * * * * * * * * * * * * * * * * * * //

dimensions      [0 0 0 1 0 0 0];

internalField   nonuniform List<scalar> 
2222
(
1.447264227
1.442905324
1.436295519
1.428660108
1.422799488
1.418613185
1.414278935
1.411309874
1.409465659
1.406408019
1.401180676
1.395316154
1.390563429
1.381583502
1.360360968
1.316498036
1.248022651
1.148893114
1.025867254
1.182516051
1.298464518
1.364538476
1.392933225
1.417990037
1.435375793
1.441435431
1.448297494
1.455743543
1.459564913
1.459047445
1.457703443
1.457786463
1.457331738
1.454233454
1.448320514
1.440656313
1.433256679
1.42684507
1.42062932
1.414791336
1.412012189
1.408431724
1.401601291
1.391342012
1.37665994
1.35050499
1.29956938
1.226701266
1.168848677
1.128284924
1.049433543
1.113382899
1.184572226
1.251806557
1.308933205
1.358716548
1.391162538
1.416921134
1.435219717
1.445485933
1.45382745
1.457273087
1.457751585
1.458030253
1.457044158
1.454076559
1.448516593
1.4420907
1.436752892
1.430828989
1.423945823
1.416025177
1.408897944
1.400635654
1.385044406
1.358020804
1.317422003
1.262657827
1.203123217
1.163529336
1.149361262
1.130764716
1.094661046
1.098333003
1.10970486
1.134748786
1.17599827
1.232431685
1.289132602
1.340633585
1.382482668
1.41189548
1.431052826
1.443341636
1.450577042
1.455259703
1.455596844
1.453548572
1.44829651
1.440450154
1.432067709
1.422736081
1.411473651
1.396711005
1.377755519
1.353309264
1.316622171
1.265846918
1.214192792
1.17996424
1.165286535
1.156652717
1.150210905
1.13507335
1.103568182
1.102130403
1.102581267
1.106306045
1.115470309
1.132954878
1.164026491
1.208263662
1.258689694
1.304705702
1.343455488
1.374923938
1.397360312
1.41204793
1.415888559
1.414401137
1.409061729
1.399268374
1.385993612
1.369375043
1.347184381
1.318327583
1.283712561
1.246593086
1.210679668
1.18210068
1.169071379
1.165855615
1.163826941
1.158218798
1.152590999
1.138617868
1.102207492
1.103873829
1.10471496
1.106713921
1.111410939
1.120006414
1.132458516
1.147546128
1.166337403
1.187703653
1.212199998
1.240967006
1.26942367
1.291580721
1.300485337
1.29981264
1.295088571
1.285477103
1.271321979
1.253753531
1.23244019
1.210974267
1.19346851
1.181601489
1.174502086
1.168760089
1.166204679
1.166335603
1.165454286
1.160649592
1.155193346
1.141966343
1.105070745
1.106012472
1.106721408
1.108567597
1.113672127
1.123013533
1.134181315
1.146753878
1.157525124
1.165393191
1.172187984
1.179494305
1.188321615
1.197694902
1.204724778
1.205244411
1.20363221
1.201204862
1.197664026
1.192670728
1.186153997
1.181028376
1.178296196
1.176530545
1.174021433
1.169281509
1.166919858
1.16758293
1.167095057
1.162812182
1.157661291
1.14521773
1.107684825
1.108600816
1.10901457
1.11073397
1.116228435
1.126410497
1.138176056
1.150471427
1.160079808
1.166889681
1.172558339
1.17767578
1.182574885
1.188241419
1.193651704
1.194330048
1.193650655
1.192942177
1.192033476
1.18954728
1.185088963
1.181244749
1.179457971
1.178282071
1.176019723
1.171029293
1.168224716
1.168906158
1.16850054
1.164481751
1.159757158
1.148253659
1.109930763
1.111096502
1.111499782
1.113325812
1.119176868
1.130239768
1.142518786
1.154586579
1.164043157
1.170429533
1.175734665
1.180669963
1.185249394
1.190530252
1.195601089
1.196487171
1.195971662
1.195451535
1.194754726
1.192339941
1.187765313
1.183740271
1.182099897
1.181038384
1.178617762
1.17326285
1.170018492
1.170540078
1.169995503
1.165950891
1.161641608
1.151072512
1.111989672
1.113530367
1.114126938
1.116416088
1.122579491
1.134033833
1.146608507
1.158516079
1.168030392
1.17462705
1.179813235
1.18477288
1.18923625
1.193988681
1.198504204
1.199596037
1.199207124
1.198857419
1.198353047
1.195961954
1.19121056
1.186734571
1.18501401
1.184050151
1.1814063
1.175868312
1.17243346
1.172556785
1.17153049
1.167232169
1.163222456
1.153603286
1.113824065
1.11573373
1.116847027
1.119545601
1.126216149
1.138033543
1.150567267
1.161969285
1.171369361
1.178600981
1.184210442
1.189232234
1.193771344
1.197989767
1.201684183
1.202689963
1.202358456
1.202217201
1.201958634
1.199663868
1.194896625
1.190016844
1.188168239
1.187377208
1.184357146
1.178830673
1.175506698
1.174824415
1.172946441
1.168391238
1.164740801
1.156083909
1.114221052
1.116509035
1.118803338
1.122418809
1.129670171
1.141888879
1.15426904
1.165344781
1.174691164
1.182438692
1.188623016
1.193916323
1.198750613
1.202583923
1.205326455
1.205894325
1.205557005
1.205679072
1.205620309
1.203452741
1.198796466
1.193691531
1.19191162
1.191220329
1.187588319
1.182233399
1.179104322
1.177530008
1.174707998
1.1698503
1.166461284
1.158510767
1.114814905
1.117451379
1.120486866
1.124852385
1.133504563
1.145987161
1.158099533
1.169008939
1.178223533
1.186323308
1.193008831
1.198643024
1.203927624
1.207535871
1.20923398
1.209228469
1.208872174
1.209174545
1.209165969
1.207146734
1.202788521
1.197941194
1.196567311
1.195602217
1.191331329
1.186211517
1.183248714
1.180880391
1.176977792
1.171629666
1.168472871
1.160945088
1.11644552
1.119374164
1.123046522
1.128062428
1.137523185
1.150047784
1.161904923
1.172672175
1.182083573
1.190557875
1.197552272
1.203803832
1.209679285
1.213167673
1.213821059
1.213301348
1.212572593
1.212783921
1.212609085
1.210630367
1.206676685
1.202895344
1.20204911
1.200698829
1.196072349
1.190819802
1.187989911
1.184968613
1.179868807
1.173929337
1.170847536
1.163343277
1.119858817
1.122903456
1.126412556
1.131733217
1.141768002
1.15440157
1.166265159
1.176778624
1.186424392
1.195392394
1.202725162
1.209704526
1.216440539
1.220203595
1.22021189
1.218995521
1.21755162
1.217311837
1.216697046
1.214414185
1.210667335
1.208235043
1.207908222
1.206542234
1.201753344
1.196074059
1.193249421
1.189542201
1.183164653
1.176617633
1.173474699
1.165681503
1.123833675
1.127124607
1.13064592
1.136332334
1.146968608
1.159685229
1.171583105
1.181849812
1.191681371
1.201252711
1.209274513
1.217030472
1.224699296
1.228756371
1.228513369
1.226514216
1.22447201
1.223495018
1.222151534
1.219321957
1.215592473
1.21364463
1.213762282
1.212753224
1.208411868
1.201991226
1.198875083
1.194482072
1.186955078
1.179752301
1.176414661
1.168244855
1.128007103
1.131885286
1.135656189
1.142104648
1.153415203
1.166146196
1.17778331
1.188345885
1.19903922
1.209416215
1.217928215
1.226193104
1.234331749
1.238230034
1.237685792
1.235227256
1.232808638
1.231175407
1.229004188
1.225504645
1.221712395
1.219281315
1.21955473
1.218954173
1.215604157
1.208543095
1.204705109
1.19974679
1.191404975
1.18349321
1.179897332
1.171347439
1.131982417
1.136391735
1.140851127
1.148555353
1.160639067
1.173319035
1.185605824
1.197164197
1.208672541
1.219527953
1.228264423
1.236694986
1.24432858
1.24740062
1.246483869
1.243843429
1.241211466
1.239175385
1.236238425
1.232005894
1.228192906
1.225079044
1.225002801
1.224849642
1.222577176
1.215523881
1.210795736
1.205472423
1.196687248
1.18785963
1.183963456
1.175080383
1.136680178
1.141468745
1.14690651
1.156136798
1.169119505
1.182670194
1.195740635
1.207770844
1.219486465
1.230334676
1.238893052
1.246867643
1.252940007
1.254872385
1.253567942
1.250733905
1.248072903
1.246043748
1.242646488
1.237810067
1.23396496
1.230674698
1.229686141
1.230020631
1.228762008
1.222495602
1.216841075
1.211579193
1.202782232
1.192961936
1.18856616
1.179283848
1.143103566
1.148300559
1.155056498
1.165953388
1.179999736
1.194280441
1.207255665
1.219058341
1.230128801
1.24026495
1.248253844
1.254639046
1.258617615
1.259741919
1.25811371
1.254767423
1.252165454
1.25054746
1.247073155
1.241879765
1.238116675
1.235149915
1.233508782
1.23409045
1.233632149
1.228750264
1.22228866
1.217590038
1.20932848
1.198612242
1.193457211
1.183603348
1.151731346
1.157280989
1.165094852
1.177035454
1.19178941
1.205460535
1.21753819
1.228504193
1.238448326
1.247320427
1.25444312
1.25897593
1.261427691
1.262134105
1.260218635
1.256066309
1.253362025
1.252137737
1.24880449
1.243585842
1.240335807
1.238011392
1.236242976
1.236805363
1.236945893
1.233431458
1.226622082
1.222586069
1.215526654
1.20459922
1.1986128
1.188178377
1.16201286
1.167755965
1.17613067
1.188414128
1.202779875
1.215007784
1.225489479
1.234924669
1.243264763
1.250730658
1.2567943
1.260162575
1.262057764
1.262646294
1.2606096
1.255784406
1.252778508
1.251693673
1.248495568
1.243424236
1.240860085
1.239104694
1.237761177
1.238311084
1.23881431
1.23585273
1.229443897
1.226143289
1.220898562
1.210759762
1.204028227
1.193111898
1.172388021
1.178033042
1.186406381
1.198369193
1.211643748
1.222124934
1.230574784
1.238287859
1.245235003
1.251702872
1.257029726
1.259880474
1.261447242
1.262141758
1.260132659
1.25536378
1.252264713
1.251139877
1.247773781
1.242962153
1.240424613
1.238636487
1.238038617
1.238813532
1.239417143
1.236528607
1.230640714
1.228355375
1.225043458
1.216620662
1.209325657
1.19831395
1.18111223
1.186400299
1.194678684
1.206080322
1.217229273
1.225586299
1.232794956
1.239734039
1.246059372
1.251753732
1.256685022
1.259459212
1.261091679
1.261960642
1.259980103
1.255741089
1.253031401
1.251947411
1.248191919
1.243769308
1.24025289
1.237487788
1.237361385
1.238589993
1.239262056
1.23634278
1.230871977
1.229860927
1.228294616
1.222382612
1.214986286
1.20420897
1.187321626
1.192103047
1.199644505
1.210591317
1.219539598
1.226490002
1.233112153
1.240138673
1.246934805
1.253065294
1.257827152
1.260823135
1.263302862
1.264008641
1.261858058
1.2586958
1.25659014
1.254623395
1.250520153
1.246235803
1.240883762
1.237167002
1.236653344
1.238003669
1.238425068
1.235531686
1.230740286
1.230781652
1.230537034
1.227216216
1.220406335
1.209949359
1.190555669
1.194726039
1.203617701
1.213244841
1.220493947
1.227165816
1.234576093
1.242213318
1.249575734
1.256034845
1.260262849
1.263633354
1.266768419
1.266949367
1.264081395
1.26200858
1.260515208
1.258129303
1.254635519
1.250476173
1.243746643
1.238045641
1.236487398
1.237613546
1.23749929
1.234463866
1.230739969
1.231320081
1.232092678
1.230575339
1.225022287
1.214998529
1.191673585
1.197348576
1.206187087
1.214810393
1.221573717
1.228621176
1.236738506
1.245061254
1.253036754
1.259919703
1.264414461
1.267564163
1.270150144
1.269432366
1.265459748
1.263733438
1.262606213
1.26031375
1.25876233
1.255449482
1.24750047
1.240288821
1.237299011
1.237689357
1.236767754
1.233215757
1.230434259
1.23121258
1.232901135
1.232255763
1.228191405
1.219412463
1.194205972
1.199952879
1.208254349
1.216261237
1.223292108
1.231178121
1.240318603
1.249486667
1.257864309
1.26468599
1.269204283
1.273076899
1.276781089
1.277485133
1.275284335
1.272158391
1.270351901
1.266562243
1.262291374
1.259437256
1.251149943
1.242764431
1.239353586
1.238462369
1.236310558
1.231989543
1.229632095
1.230419642
1.232609484
1.232370742
1.229064115
1.221653553
1.196675531
1.202628925
1.210844651
1.218976117
1.227052612
1.23566418
1.245116583
1.254886254
1.263823957
1.271614577
1.277999412
1.283980194
1.290165154
1.295167069
1.296412263
1.295578023
1.293759337
1.289000524
1.28060806
1.273331335
1.262808608
1.248795279
1.244098322
1.24143805
1.237251763
1.231445875
1.228829604
1.22955707
1.232097175
1.232049525
1.228905633
1.222649877
1.200075452
1.206274189
1.21401118
1.224041739
1.234209269
1.244754035
1.256426918
1.267996871
1.278180095
1.286980332
1.294698411
1.302044952
1.310625357
1.320268247
1.328639105
1.332943783
1.332134382
1.327367383
1.315779103
1.301626432
1.287185583
1.266431313
1.254609175
1.248598238
1.241050882
1.231714687
1.228227767
1.229129115
1.231996733
1.232105223
1.229295957
1.224075695
1.204293763
1.210328583
1.219358527
1.230863449
1.244494847
1.259368104
1.274498631
1.287019449
1.297102519
1.30621796
1.316054249
1.327077586
1.340997195
1.356743783
1.370712201
1.38034991
1.381975407
1.37863049
1.367530361
1.347982611
1.322583859
1.29333563
1.267541656
1.258535817
1.248240731
1.234218561
1.227898514
1.228698936
1.231454762
1.231485477
1.228888549
1.224671476
1.207383528
1.213958458
1.224383907
1.237461828
1.252943477
1.269777749
1.287101665
1.30207594
1.31289109
1.32245881
1.334256878
1.349082935
1.365933042
1.382780512
1.394920078
1.40398135
1.409841612
1.410843843
1.404868068
1.385136602
1.354637987
1.315452158
1.278647095
1.265399013
1.252751762
1.235977024
1.228543649
1.229332235
1.231593305
1.231363646
1.228354442
1.224241494
1.208004531
1.214767528
1.225729199
1.23943857
1.255212838
1.271717433
1.288193128
1.303527987
1.316289827
1.327907131
1.342345689
1.35972239
1.375987261
1.390239325
1.398666264
1.407011957
1.413763844
1.416766816
1.413407112
1.398460412
1.371207484
1.329386565
1.286434571
1.269253048
1.255183268
1.236121153
1.229427659
1.230191368
1.231965466
1.2316323
1.228433822
1.22439258
1.210572146
1.217849457
1.228852741
1.242979292
1.258980228
1.275329735
1.290822776
1.304639441
1.317527595
1.332461836
1.351177588
1.37103879
1.384303763
1.3934829
1.398485731
1.404779754
1.413091702
1.418917468
1.417687194
1.407472644
1.384811343
1.344987459
1.29677505
1.273896236
1.258627432
1.238413676
1.230086327
1.231182813
1.232393856
1.231904415
1.228561441
1.224670267
1.214104155
1.221811893
1.233031071
1.247634909
1.263906224
1.280514753
1.296014121
1.309385924
1.322877789
1.340556019
1.362554735
1.382165632
1.39003813
1.394494587
1.396060874
1.400236502
1.409075778
1.417610692
1.418421396
1.411113772
1.393109374
1.357020108
1.308526817
1.278638782
1.261662619
1.241993269
1.230977114
1.231948928
1.232584124
1.23203716
1.22882181
1.224980193
1.21782002
1.22606071
1.237571738
1.252534768
1.269234783
1.286605129
1.302847645
1.316565176
1.331118391
1.350608624
1.373599367
1.390809356
1.395783843
1.39422386
1.392154367
1.394198693
1.401930834
1.412506011
1.417030959
1.411645716
1.397368835
1.365167324
1.319003897
1.282682282
1.264018352
1.245434653
1.23242836
1.232884518
1.232818055
1.232025552
1.229005833
1.225202036
1.220230982
1.229317112
1.241641145
1.257255355
1.274512698
1.292466597
1.309778992
1.324454053
1.340058616
1.360720224
1.382372463
1.395748711
1.398931973
1.395568542
1.387711056
1.386150779
1.391808178
1.403075213
1.412748811
1.410531041
1.399183747
1.371058175
1.327239869
1.286193107
1.265985755
1.247689551
1.233682805
1.233601358
1.233202312
1.231993631
1.229041001
1.225454145
1.219464354
1.229862676
1.243550673
1.25956993
1.277108005
1.295207743
1.312875871
1.329672733
1.347832384
1.369089725
1.387880439
1.396969544
1.398328625
1.394939805
1.383395461
1.37761055
1.380955989
1.3909814
1.404453586
1.407895292
1.399758259
1.375831949
1.33423183
1.291104916
1.26802353
1.247852348
1.234350784
1.234296938
1.233922373
1.232224851
1.228927521
1.225590228
1.2196965
1.230181169
1.244508288
1.261011822
1.278809297
1.297279024
1.314292436
1.33257263
1.354028907
1.375770102
1.391150872
1.395951328
1.395081252
1.388202672
1.370417191
1.359419867
1.361658912
1.372627134
1.391395797
1.404332279
1.399207129
1.380119433
1.341823177
1.298200175
1.270773196
1.246502607
1.23429027
1.234684323
1.234584243
1.23253313
1.228720564
1.225501006
1.222442429
1.233218015
1.247719417
1.264629619
1.282738679
1.301645003
1.318804663
1.33722739
1.35959701
1.380649533
1.392533162
1.393616998
1.389645478
1.375299067
1.349025897
1.331610728
1.333314348
1.344878214
1.371368966
1.397252327
1.397793773
1.38373767
1.350532789
1.306821819
1.27531927
1.246837178
1.233614337
1.234609973
1.235177066
1.233188992
1.228749814
1.225189587
1.226845446
1.237888438
1.252552202
1.269634689
1.287834433
1.307155109
1.325575481
1.344395351
1.366496254
1.384063124
1.39227947
1.391081475
1.382558412
1.359812362
1.323891515
1.299696517
1.30070896
1.31184376
1.343782018
1.383804257
1.394399752
1.385993456
1.358796047
1.315916505
1.28154896
1.248942234
1.232837663
1.234103345
1.235570576
1.233810385
1.228851222
1.224823398
1.232265453
1.243616873
1.258118626
1.274927453
1.29299614
1.313111017
1.333189961
1.35482309
1.372936837
1.385948343
1.391878989
1.390609312
1.377734147
1.345254112
1.296825576
1.266404557
1.266504443
1.276842676
1.311614688
1.364262326
1.38906238
1.386407934
1.365511107
1.324995291
1.288698533
1.252634778
1.233115909
1.233670421
1.235521197
1.233891344
1.229175825
1.224862003
1.236879969
1.248471643
1.262684149
1.278607743
1.296725937
1.317558736
1.340098105
1.363518619
1.381108208
1.387636157
1.390042779
1.387061603
1.368912564
1.3247218
1.265096822
1.230674938
1.230337878
1.240414398
1.277121299
1.33965915
1.380605978
1.385131678
1.370455441
1.333803146
1.295006632
1.257504992
1.234291794
1.233884731
1.235519587
1.233793974
1.22942228
1.224810791
1.238420177
1.250353353
1.264813128
1.280505432
1.298710236
1.319723888
1.345175326
1.370598332
1.386631914
1.389897442
1.386523729
1.377864926
1.350881434
1.296814252
1.230714205
1.195590764
1.195149085
1.204798573
1.241524183
1.310972199
1.368287062
1.382640663
1.372544139
1.341281224
1.299581256
1.262478632
1.236420159
1.235193437
1.236069127
1.23364181
1.229122564
1.224713287
1.239023121
1.25151474
1.266931087
1.283880687
1.303581102
1.325499677
1.351732348
1.374888402
1.388380777
1.390304808
1.382852166
1.364623995
1.326908403
1.264734055
1.196760215
1.163650917
1.163203186
1.172109623
1.207359335
1.279741807
1.353724153
1.37861735
1.372289883
1.346073961
1.303355221
1.267268861
1.239203668
1.237077155
1.236490615
1.233498548
1.228939807
1.224821519
1.241782632
1.254818392
1.271081347
1.289845588
1.311446141
1.334804582
1.360004079
1.379040732
1.387450634
1.388370138
1.37882456
1.351666601
1.301671768
1.231436039
1.164700311
1.135525894
1.135180967
1.143178572
1.176224639
1.248071987
1.336662556
1.373255785
1.370647842
1.348588854
1.308298613
1.270716898
1.241810953
1.238454758
1.237371828
1.234199153
1.229109169
1.224837686
1.246190294
1.259804247
1.276900847
1.297690949
1.322075026
1.347957541
1.369054915
1.382059334
1.385696924
1.38444841
1.371405671
1.33578865
1.273722061
1.197706653
1.135596828
1.11161033
1.111442907
1.118669661
1.149144255
1.217957528
1.314550212
1.366549383
1.368524156
1.350579071
1.314425259
1.273051449
1.24418285
1.239967582
1.238919466
1.235220291
1.229316279
1.224774921
1.242949845
1.251523063
1.265566643
1.283405207
1.306066135
1.332395408
1.359783558
1.379960984
1.386383997
1.384216048
1.378584141
1.359016621
1.31340442
1.241969011
1.164837977
1.11017816
1.091931393
1.09202651
1.098755959
1.126417026
1.190468662
1.288759815
1.357394762
1.3672116
1.353297572
1.321343111
1.276465812
1.2468607
1.241671742
1.240485352
1.236384233
1.229770568
1.224781257
1.244525781
1.255314741
1.270152229
1.289214487
1.313232929
1.341296085
1.369316371
1.387848498
1.392126902
1.386561282
1.373309892
1.343585185
1.287080213
1.209041468
1.134836324
1.089188944
1.076432705
1.076883434
1.083248994
1.107845986
1.165864268
1.261523669
1.345892331
1.36696577
1.355802379
1.327687554
1.281974698
1.249292587
1.243327823
1.241832844
1.237537873
1.230314759
1.224738171
1.244451682
1.257022035
1.272849843
1.29357249
1.319231738
1.34796907
1.374545794
1.390181101
1.393613849
1.388276579
1.369318762
1.327119706
1.259069466
1.176957231
1.108895054
1.072824328
1.064673086
1.065471352
1.071335995
1.092704592
1.144143024
1.234769995
1.330557482
1.365598363
1.35798873
1.332676535
1.288625778
1.25061476
1.244359886
1.242892927
1.238393128
1.230699552
1.224748908
1.247307912
1.26029858
1.276789144
1.299085882
1.326685987
1.355575869
1.378283538
1.389643265
1.391297023
1.384798564
1.359705856
1.307129258
1.229771374
1.147016333
1.088035748
1.060868822
1.055964701
1.05696359
1.062202867
1.080387624
1.125293112
1.209487409
1.31194678
1.362084437
1.359287121
1.336690248
1.295508098
1.252252993
1.244061011
1.243629699
1.239174732
1.231186884
1.224909203
1.252092953
1.265433744
1.282908709
1.306692771
1.335534119
1.362828912
1.380460422
1.387258749
1.386204068
1.375398333
1.342579117
1.281549975
1.199364328
1.120362358
1.072270937
1.052393508
1.049524497
1.050557827
1.05512967
1.070463965
1.109473354
1.186248974
1.2915171
1.355735717
1.359449349
1.34016681
1.302234729
1.255939466
1.243446416
1.243696693
1.239692629
1.231934617
1.225313414
1.257705407
1.271506729
1.291848004
1.317358612
1.345643568
1.369618998
1.381608157
1.383674202
1.379474633
1.361358333
1.319730138
1.251416083
1.168798337
1.098014574
1.06105903
1.046509093
1.044997495
1.045738691
1.049509765
1.062546564
1.096529829
1.165559597
1.270201611
1.346069824
1.358769356
1.342709873
1.308289101
1.261091656
1.243313664
1.243615488
1.240064156
1.232775939
1.225790609
1.262972249
1.278232741
1.300455343
1.329145624
1.356476423
1.376616253
1.384179346
1.382590427
1.373384146
1.346750337
1.293621229
1.218814355
1.139709609
1.080472538
1.052921727
1.042601923
1.041617091
1.042040299
1.045046584
1.0562232
1.086030665
1.147668371
1.248470071
1.334898815
1.356733295
1.343829996
1.313140015
1.267007039
1.243975711
1.243625323
1.240195893
1.233387313
1.22613435
1.266901172
1.284727986
1.308646001
1.337852631
1.363469127
1.379208594
1.384302417
1.381603095
1.365918414
1.326911932
1.262946791
1.185152288
1.113659052
1.067294374
1.047778633
1.040178339
1.039198792
1.039418938
1.041801757
1.051401472
1.077520213
1.13232693
1.227031251
1.323034829
1.354257822
1.343912821
1.316738731
1.273273819
1.245570231
1.24390377
1.240123637
1.233603349
1.226358376
1.269479636
1.288524631
1.315194837
1.345134195
1.367044123
1.378484121
1.379940126
1.373509229
1.348368224
1.29817077
1.227599179
1.152353513
1.091945715
1.057882865
1.044468215
1.03878477
1.03746695
1.037596283
1.039539181
1.047908169
1.070543901
1.118885423
1.206619778
1.308422832
1.35258427
1.344388963
1.319826016
1.279297872
1.248455931
1.244490564
1.2399419
1.233371606
1.226393371
1.274399185
1.293309214
1.320057063
1.349820861
1.368252612
1.374759546
1.372132993
1.358644624
1.323054065
1.263448617
1.190412585
1.122859674
1.074858871
1.051367218
1.042143237
1.037891217
1.036233356
1.036013423
1.037489879
1.044433787
1.0639199
1.106598094
1.187462269
1.291805876
1.3499687
1.344897644
1.322572819
1.284438899
1.251802647
1.245007638
1.239718441
1.233174285
1.226398877
1.281612738
1.300433354
1.326082948
1.352851931
1.368497963
1.370410743
1.363018608
1.340345811
1.293825472
1.226296471
1.154980939
1.098319527
1.062476568
1.047103795
1.040515996
1.037129949
1.035367737
1.034773614
1.035500618
1.040903712
1.057387921
1.09508076
1.169609919
1.274602654
1.34567743
1.345236929
1.324453305
1.28821816
1.254965686
1.245405666
1.239768431
1.233188683
1.226430738
1.291428058
1.308941518
1.332139511
1.354642461
1.367502904
1.368188172
1.355521145
1.320880148
1.261481341
1.188837552
1.123431746
1.079195839
1.053975122
1.044501339
1.039394864
1.036391185
1.034435929
1.03366123
1.034045013
1.037885459
1.051514249
1.084821497
1.153164934
1.257214161
1.339812034
1.345037908
1.325835221
1.291383979
1.258089017
1.246062902
1.240023413
1.233362616
1.226554828
1.299969464
1.319631682
1.338410724
1.355188166
1.36421911
1.361962378
1.342143586
1.294803971
1.22534645
1.153243504
1.097079122
1.065478468
1.048599159
1.042674956
1.038662324
1.0357515
1.033513488
1.032571633
1.032915559
1.035760313
1.046970169
1.076242554
1.138415673
1.239466201
1.331497339
1.344956082
1.327922417
1.294573769
1.261242431
1.247044644
1.240417686
1.233626795
1.226691398
1.306941263
1.327973663
1.346799896
1.356235041
1.357635795
1.349489845
1.319974155
1.26217336
1.18857165
1.121536947
1.077206446
1.056475853
1.045555653
1.041484333
1.038205885
1.035305691
1.032840597
1.031575548
1.031875874
1.034184814
1.04355073
1.069335376
1.125517185
1.221821964
1.320590435
1.344803814
1.329851683
1.298379426
1.264802077
1.248154752
1.240825044
1.233911296
1.226885626
1.311497464
1.332566831
1.351904758
1.357496287
1.350155627
1.332041629
1.292428018
1.227511464
1.153969809
1.095656492
1.06360664
1.050577921
1.043990894
1.040852856
1.037992275
1.035127898
1.032575133
1.031002408
1.030865435
1.032796989
1.040890899
1.063833778
1.114362142
1.204979149
1.307996253
1.343840125
1.332083462
1.302789242
1.268960821
1.249316737
1.241219833
1.234270019
1.227104799
1.315716148
1.333822797
1.352249256
1.354682161
1.34270556
1.313923914
1.263459951
1.193237792
1.123209393
1.076469866
1.054478194
1.046894044
1.043357597
1.040631296
1.037892953
1.035115411
1.032271682
1.029956114
1.029737041
1.031671436
1.03903749
1.059469404
1.104688711
1.189277127
1.294216149
1.341823481
1.334459538
1.307722292
1.273558027
1.25082811
1.241743019
1.234704692
1.227301956
1.307410078
1.318408023
1.33405636
1.348727341
1.348213982
1.332250546
1.293565475
1.232323784
1.159628602
1.098364396
1.062904503
1.048903636
1.044938266
1.043208174
1.040937956
1.038052173
1.0349306
1.031635082
1.029109862
1.028985994
1.031016882
1.038188427
1.056037747
1.096102413
1.174478237
1.279684842
1.339257916
1.336141316
1.312330773
1.278012988
1.252486758
1.242402951
1.235134411
1.227490473
1.312985974
1.322625698
1.333731792
1.34233814
1.338205359
1.314951849
1.266349751
1.198421581
1.129220368
1.07904114
1.053461846
1.046526193
1.044294616
1.043184806
1.040816152
1.037621078
1.034403735
1.031160751
1.028532722
1.028640812
1.030941874
1.036869396
1.052245059
1.087905392
1.160167248
1.264387299
1.335249547
1.336453742
1.315787463
1.282309459
1.254299036
1.243244584
1.235617504
1.227661631
1.314303359
1.326148801
1.335501745
1.336951209
1.325248202
1.291250662
1.233920052
1.164508442
1.103686961
1.064391766
1.048276173
1.046257573
1.04470558
1.042579079
1.039887165
1.036807477
1.033746813
1.030854636
1.028338901
1.028520868
1.03001847
1.034599428
1.04766884
1.079517849
1.145835213
1.248548703
1.329269475
1.335748809
1.317651538
1.286510513
1.256255961
1.244164673
1.236154714
1.227885598
1.311415284
1.325280935
1.335157353
1.330743107
1.308098421
1.262959423
1.199842389
1.134029775
1.082628875
1.05546468
1.046639212
1.046464687
1.044365766
1.041507553
1.038855233
1.035965104
1.033235492
1.030631363
1.02839683
1.028091124
1.028985166
1.032325785
1.043313372
1.071154707
1.13161143
1.232049158
1.321485029
1.334471081
1.318718438
1.290697871
1.258630141
1.245233139
1.236724111
1.228161553
1.30667891
1.319742658
1.326343484
1.316239566
1.283728403
1.230458768
1.166611094
1.107876924
1.067825907
1.051861896
1.046715595
1.045326803
1.043102125
1.04042839
1.037841871
1.03533261
1.033027232
1.030751615
1.028364089
1.027580635
1.027969602
1.030240458
1.039102796
1.063316916
1.118122745
1.214793687
1.31183747
1.333340083
1.319774484
1.29479633
1.261702961
1.246392154
1.237259628
1.22840004
1.301858134
1.310111481
1.309960373
1.293099924
1.251957081
1.194734349
1.135413002
1.087159233
1.060122494
1.049948906
1.045792328
1.044011413
1.041849428
1.039313759
1.036971948
1.034867041
1.033088505
1.030608758
1.028058844
1.027104282
1.027075107
1.028537362
1.035951751
1.05708576
1.106113506
1.197626322
1.300404408
1.332360554
1.321035654
1.298618497
1.265474083
1.247503571
1.237676568
1.228480989
)
;

boundaryField
{
    inlet
    {
        type            fixedValue;
        value           nonuniform 0();
    }
    outlet
    {
        type            inletOutlet;
        inletValue      uniform 1;
        value           nonuniform List<scalar> 
69
(
1.224186833
1.22431969
1.224616804
1.224914208
1.225114134
1.225373638
1.225539521
1.225498266
1.225196649
1.224811337
1.224804619
1.224721387
1.224671858
1.224813524
1.224803578
1.224721209
1.224707282
1.224634068
1.224643977
1.224817607
1.225215464
1.225670595
1.226002943
1.226250337
1.226321769
1.226336572
1.226359855
1.226465538
1.226580897
1.226765115
1.226979046
1.22717304
1.227361873
1.227541286
1.22778088
1.228067545
1.22831275
1.228400455
1.145672436
1.127653604
1.130511221
1.134829601
1.138367926
1.141726807
1.144991319
1.148043297
1.150879867
1.153434307
1.15593954
1.158381017
1.160818984
1.163207758
1.165532021
1.168090029
1.171193283
1.174928836
1.179128524
1.183439231
1.188006055
1.192933389
1.198141181
1.20404344
1.209783461
1.214833475
1.219264814
1.221521182
1.22254941
1.224001373
1.224630674
)
;
    }
    bottom
    {
        type            slip;
    }
    top
    {
        type            slip;
    }
    obstacle
    {
        type            zeroGradient;
    }
    defaultFaces
    {
        type            empty;
    }
    procBoundary11to5
    {
        type            processor;
        value           nonuniform List<scalar> 
33
(
1.435949989
1.432034281
1.426698775
1.421169365
1.41620676
1.41098766
1.404619944
1.400291983
1.398753841
1.397573495
1.397085672
1.396506481
1.393990977
1.387517321
1.375876066
1.356026721
1.320574501
1.219783377
1.003817383
1.196773012
1.318733267
1.390076363
1.432993735
1.44146555
1.444367493
1.449511489
1.454844696
1.458091432
1.459464971
1.457030515
1.451515545
1.449349044
1.449349044
)
;
    }
    procBoundary11to10
    {
        type            processor;
        value           nonuniform List<scalar> 
70
(
0.8671601095
0.9623022447
1.070922684
1.090776593
1.097268125
1.102569619
1.104951655
1.106893964
1.108717084
1.110344666
1.11104202
1.111945371
1.114400954
1.11785756
1.121596885
1.125364872
1.129042928
1.133112411
1.138796192
1.146655497
1.156612419
1.167156195
1.176676227
1.183747708
1.187833466
1.188611053
1.190737907
1.193029793
1.196152788
1.200759166
1.203729039
1.2045663
1.206826706
1.209942188
1.212682814
1.213859619
1.212986496
1.214246425
1.217010108
1.221189454
1.22546825
1.228836339
1.228935302
1.230073823
1.233252713
1.237995101
1.237995101
1.234968554
1.234909903
1.235289313
1.238175725
1.242880393
1.24843562
1.252210159
1.252742514
1.254374625
1.259580239
1.266741361
1.274590523
1.282325518
1.288305499
1.294623506
1.300972595
1.300972595
1.295367122
1.300288507
1.299895399
1.29838524
1.297482953
1.295510747
)
;
    }
    procBoundary11to17
    {
        type            processor;