/*--------------------------------*- C++ -*----------------------------------*\
  =========                 |
  \\      /  F ield         | OpenFOAM: The Open Source CFD Toolbox
   \\    /   O peration     | Website:  https://openfoam.org
    \\  /    A nd           | Version:  7
     \\/     M anipulation  |
\*---------------------------------------------------------------------------*/
FoamFile
{
    version     2.0;
    format      ascii;
    class       volVectorField;
    location    "2.2";
    object      U;
}
// * * * * * * * * * * * * * * * * * * * * * * * * * * * * * * * * * * * * * //

dimensions      [0 1 -1 0 0 0 0];

internalField   nonuniform List<vector> 
2222
(
(3 -8.89682744e-15 0)
(3 -6.839356184e-15 0)
(3 -4.819511613e-15 0)
(3 -1.202967618e-14 0)
(3 -1.373728316e-14 0)
(3 -1.39441812e-14 0)
(3 -1.323926159e-14 0)
(3 -1.191904757e-14 0)
(3 -1.117232343e-14 0)
(3 -1.027006001e-14 0)
(3 -7.713870331e-15 0)
(3 -5.406896981e-15 0)
(3 -4.962356033e-15 0)
(3 -5.277676179e-15 0)
(3 -6.192726917e-15 0)
(3 -6.729505356e-15 0)
(3 -6.300412409e-15 0)
(3 -5.829847246e-15 0)
(3 -8.522044785e-15 0)
(3 -1.236283665e-14 0)
(3 -1.300580093e-14 0)
(3 -1.281029045e-14 0)
(3 -1.246775332e-14 0)
(3 -1.192356701e-14 0)
(3 -1.074058053e-14 0)
(3 -9.647566026e-15 0)
(3 -7.072048426e-15 0)
(3 -2.665367796e-15 0)
(3 -1.368160873e-15 0)
(3 -1.20478606e-15 0)
(3 -1.106294498e-15 0)
(3 -4.51449513e-16 0)
(3 -1.325981651e-14 0)
(3 -1.475749171e-14 0)
(3 -1.466010898e-14 0)
(3 -1.451790721e-14 0)
(3 -1.476588799e-14 0)
(3 -1.58089767e-14 0)
(3 -1.72980199e-14 0)
(3 -1.761600505e-14 0)
(3 -2.069489372e-14 0)
(3 -2.273386239e-14 0)
(3 -2.337234268e-14 0)
(3 -2.238405769e-14 0)
(3 -1.916718031e-14 0)
(3 -1.78705599e-14 0)
(3 -1.74903777e-14 0)
(3 -1.655132929e-14 0)
(3 -1.551596522e-14 0)
(3 -1.365401457e-14 0)
(3 -1.070142139e-14 0)
(3 -7.23694288e-15 0)
(3 -7.507952602e-15 0)
(3 -6.469056178e-15 0)
(3 -5.78194111e-15 0)
(3 -5.296057962e-15 0)
(3 -4.202768869e-15 0)
(3 -4.612145353e-15 0)
(3 -5.853417788e-15 0)
(3 -7.77304532e-15 0)
(3 -8.857308754e-15 0)
(3 -8.070138247e-15 0)
(3 -7.782632888e-15 0)
(3 -8.158518424e-15 0)
(3 -8.608070721e-15 0)
(3 -1.001862434e-14 0)
(3 -1.044669488e-14 0)
(3 -1.005480713e-14 0)
(3 -9.26053329e-15 0)
(3 -9.349995835e-15 0)
(3 -1.007715887e-14 0)
(3 -1.133909159e-14 0)
(3 -1.21482541e-14 0)
(3 -1.403094128e-14 0)
(3 -1.442812074e-14 0)
(3 -1.461850673e-14 0)
(3 -1.585362096e-14 0)
(3 -1.823419059e-14 0)
(3 -1.991100511e-14 0)
(3 -2.00287764e-14 0)
(3 -1.568282514e-14 0)
(3 -1.326845292e-14 0)
(3 -1.020820942e-14 0)
(3 -8.144221702e-15 0)
(3 -5.976444302e-15 0)
(3 -4.693317233e-15 0)
(3 -9.702615996e-16 0)
(3 1.515525317e-15 0)
(3 2.185162303e-15 0)
(3 1.104168357e-15 0)
(3 -1.493911047e-15 0)
(3 -4.225728184e-15 0)
(3 -5.686868673e-15 0)
(3 -8.170422309e-15 0)
(3 -1.033725503e-14 0)
(3 -1.278884135e-14 0)
(3 -1.473139131e-14 0)
(3 -1.521461346e-14 0)
(3 -1.499604815e-14 0)
(3 -1.527572343e-14 0)
(3 -1.613988198e-14 0)
(3 -1.627545493e-14 0)
(3 -1.637374479e-14 0)
(3 -1.968937157e-14 0)
(3 -2.172290605e-14 0)
(3 -2.238598827e-14 0)
(3 -2.203315423e-14 0)
(3 -1.998912021e-14 0)
(3 -2.021941177e-14 0)
(3 -1.916375143e-14 0)
(3 -1.771754703e-14 0)
(3 -1.694114077e-14 0)
(3 -1.585407056e-14 0)
(3 -1.462528024e-14 0)
(3 -1.307132196e-14 0)
(3 -1.046990311e-14 0)
(3 -7.852011303e-15 0)
(3 -7.211727689e-15 0)
(3 -7.422248287e-15 0)
(3 -8.445750606e-15 0)
(3 -9.981716396e-15 0)
(3 -9.22458771e-15 0)
(3 -7.515785688e-15 0)
(3 -6.254412793e-15 0)
(3 -4.89762044e-15 0)
(3 -4.21265414e-15 0)
(3 -3.754663253e-15 0)
(3 -3.83125343e-15 0)
(3 -4.249296704e-15 0)
(3 -4.895067325e-15 0)
(3 -5.949988889e-15 0)
(3 -6.693289707e-15 0)
(3 -7.580444086e-15 0)
(3 -9.063966954e-15 0)
(3 -1.223170046e-14 0)
(3 -1.334562538e-14 0)
(3 -1.420496333e-14 0)
(3 -1.397110552e-14 0)
(3 -1.449808911e-14 0)
(3 -1.565260072e-14 0)
(3 -1.558585242e-14 0)
(3 -1.377484959e-14 0)
(3 -1.26451158e-14 0)
(3 -1.26344592e-14 0)
(3 -1.332202751e-14 0)
(3 -1.446250856e-14 0)
(3 -1.478269085e-14 0)
(3 -1.350264888e-14 0)
(3 -1.053339564e-14 0)
(3 -6.768226115e-15 0)
(3 -6.365684753e-15 0)
(3 -6.263497868e-15 0)
(3 -3.54731546e-15 0)
(3 -3.899910148e-16 0)
(3 4.541683546e-15 0)
(3 5.534860294e-15 0)
(3 2.79648911e-15 0)
(3 1.428078327e-16 0)
(3 -5.540439426e-16 0)
(3 -4.03360897e-15 0)
(3 -1.269484933e-14 0)
(3 -1.518253093e-14 0)
(3 -1.60134062e-14 0)
(3 -1.626317344e-14 0)
(3 -1.617001647e-14 0)
(3 -1.685673902e-14 0)
(3 -1.885417844e-14 0)
(3 -2.206774084e-14 0)
(3 -2.289496626e-14 0)
(3 -2.353419388e-14 0)
(3 -2.433095727e-14 0)
(3 -2.469830497e-14 0)
(3 -2.366703324e-14 0)
(3 -2.013134592e-14 0)
(3 -1.681104025e-14 0)
(3 -1.483299056e-14 0)
(3 -1.481566516e-14 0)
(3 -1.555074181e-14 0)
(3 -1.602681515e-14 0)
(3 -1.578824312e-14 0)
(3 -1.262008412e-14 0)
(3 -1.066661925e-14 0)
(3 -8.150102422e-15 0)
(3 -8.159232941e-15 0)
(3 -7.697788864e-15 0)
(3 -6.880918518e-15 0)
(3 -6.737205004e-15 0)
(3 -5.847033825e-15 0)
(3 -5.664456347e-15 0)
(3 -4.170156673e-15 0)
(3 -1.469732542e-15 0)
(3 8.160898698e-16 0)
(3 6.875295069e-16 0)
(3 -2.817066869e-17 0)
(3 -7.662386475e-16 0)
(3 -1.033456158e-15 0)
(3 -1.988780164e-15 0)
(3 -2.775079829e-15 0)
(3 -3.73989942e-15 0)
(3 -5.540634887e-15 0)
(3 -1.083848887e-14 0)
(3 -1.205188696e-14 0)
(3 -1.334103834e-14 0)
(3 -1.436403902e-14 0)
(3 -1.554277048e-14 0)
(3 -1.608184853e-14 0)
(3 -1.636365381e-14 0)
(3 -1.491858877e-14 0)
(3 -1.309765946e-14 0)
(3 -1.252852099e-14 0)
(3 -1.294596848e-14 0)
(3 -1.242167508e-14 0)
(3 -1.248444382e-14 0)
(3 -1.035250143e-14 0)
(3 -9.272084251e-15 0)
(3 -7.510976318e-15 0)
(3 -7.334593703e-15 0)
(3 -5.942565518e-15 0)
(3 -1.760467114e-15 0)
(3 1.730316469e-16 0)
(3 3.181492047e-15 0)
(3 -6.315184399e-15 0)
(3 -6.564341462e-15 0)
(3 -5.415764345e-15 0)
(3 -7.875427248e-15 0)
(3 -1.305415133e-14 0)
(3 -1.565276938e-14 0)
(3 -1.689904823e-14 0)
(3 -1.831619106e-14 0)
(3 -1.841308775e-14 0)
(3 -1.823319552e-14 0)
(3 -1.896605584e-14 0)
(3 -1.961077717e-14 0)
(3 -2.037473476e-14 0)
(3 -2.102389623e-14 0)
(3 -1.951521673e-14 0)
(3 -1.907991839e-14 0)
(3 -1.893748727e-14 0)
(3 -1.774627527e-14 0)
(3 -1.512475591e-14 0)
(3 -1.29961012e-14 0)
(3 -1.128957465e-14 0)
(3 -9.500697282e-15 0)
(3 -8.97499322e-15 0)
(3 -8.792867601e-15 0)
(3 -8.790399947e-15 0)
(3 -5.635859623e-15 0)
(3 -4.139872595e-15 0)
(3 -3.764958647e-15 0)
(3 -2.975696487e-15 0)
(3 -4.190570906e-16 0)
(3 1.630565225e-15 0)
(3 2.08173484e-15 0)
(3 1.873358795e-15 0)
(3 1.109065693e-15 0)
(3 1.666130487e-15 0)
(3 2.634227913e-15 0)
(3 2.959724151e-15 0)
(3 2.98241305e-15 0)
(3 1.926045591e-15 0)
(3 1.678467526e-15 0)
(3 -1.184368709e-17 0)
(3 -2.981378604e-15 0)
(3 -4.926954898e-15 0)
(3 -6.841012598e-15 0)
(3 -8.440009476e-15 0)
(3 -9.867454226e-15 0)
(3 -1.042920783e-14 0)
(3 -1.093996866e-14 0)
(3 -1.060578008e-14 0)
(3 -9.833925466e-15 0)
(3 -8.4388384e-15 0)
(3 -9.645883015e-15 0)
(3 -1.04970425e-14 0)
(3 -1.168197085e-14 0)
(3 -1.099535712e-14 0)
(3 -9.589771924e-15 0)
(3 -7.327080349e-15 0)
(3 -5.783363635e-15 0)
(3 -5.064906757e-15 0)
(3 -4.319791215e-15 0)
(3 -3.205642631e-15 0)
(3 -2.462769191e-15 0)
(3 -9.750096849e-16 0)
(3 -4.975570642e-16 0)
(3 -1.004083832e-15 0)
(3 -3.76029e-16 0)
(3 -1.334011376e-14 0)
(3 -1.235194119e-14 0)
(3 -1.04144026e-14 0)
(3 -1.022040487e-14 0)
(3 -1.05185792e-14 0)
(3 -9.408280525e-15 0)
(3 -9.110916593e-15 0)
(3 -9.340913434e-15 0)
(3 -9.164347783e-15 0)
(3 -8.719186038e-15 0)
(3 -8.164151482e-15 0)
(3 -8.030990944e-15 0)
(3 -8.785830406e-15 0)
(3 -1.011391623e-14 0)
(3 -1.212288061e-14 0)
(3 -1.333142029e-14 0)
(3 -1.294941427e-14 0)
(3 -1.220929781e-14 0)
(3 -1.054692562e-14 0)
(3 -9.285215181e-15 0)
(3 -7.54089729e-15 0)
(3 -5.107480852e-15 0)
(3 -3.132344565e-15 0)
(3 -2.365672884e-15 0)
(3 -2.337909642e-15 0)
(3 -2.864049702e-15 0)
(3 -2.631287992e-15 0)
(3 -1.555767293e-15 0)
(3 -4.289240261e-16 0)
(3 3.073224668e-15 0)
(3 6.751510948e-15 0)
(3 8.168863749e-15 0)
(3 8.361326414e-15 0)
(3 8.381729263e-15 0)
(3 8.311389495e-15 0)
(3 8.269573336e-15 0)
(3 7.9713685e-15 0)
(3 7.29022225e-15 0)
(3 6.475738072e-15 0)
(3 2.72053952e-15 0)
(3 -3.585454591e-15 0)
(3 -3.83104182e-15 0)
(3 -3.262773823e-15 0)
(3 -3.592012886e-15 0)
(3 -4.024945269e-15 0)
(3 -4.003298155e-15 0)
(3 -5.069402633e-15 0)
(3 -5.387647361e-15 0)
(3 -4.001092305e-15 0)
(3 -2.641472267e-15 0)
(3 -2.367390643e-15 0)
(3 -3.37873503e-15 0)
(3 -4.699877908e-15 0)
(3 -5.400252674e-15 0)
(3 -4.20429904e-15 0)
(3 -4.639335147e-16 0)
(3 1.791696864e-15 0)
(3 2.879161364e-15 0)
(3 2.570956349e-15 0)
(3 2.056652416e-15 0)
(3 2.06339383e-15 0)
(3 2.67183949e-15 0)
(3 2.671068769e-15 0)
(3 1.969364099e-15 0)
(3 2.171305999e-15 0)
(3 1.817248205e-15 0)
(3 -1.014602345e-14 0)
(3 -9.730786747e-15 0)
(3 -8.018557634e-15 0)
(3 -6.73313277e-15 0)
(3 -4.551311978e-15 0)
(3 -2.085625476e-15 0)
(3 1.358935224e-15 0)
(3 4.185384564e-15 0)
(3 3.942750257e-15 0)
(3 2.733282949e-15 0)
(3 2.565126045e-15 0)
(3 2.822476437e-15 0)
(3 1.619189337e-15 0)
(3 -4.278531228e-16 0)
(3 -1.568624435e-15 0)
(3 -3.142683877e-15 0)
(3 -5.932511406e-15 0)
(3 -7.96123991e-15 0)
(3 -8.143139571e-15 0)
(3 -7.344446753e-15 0)
(3 -7.473583641e-15 0)
(3 -8.1595842e-15 0)
(3 -7.389781053e-15 0)
(3 -5.687232189e-15 0)
(3 -4.49415324e-15 0)
(3 -4.098075522e-15 0)
(3 -3.549751942e-15 0)
(3 -2.204873781e-15 0)
(3 -2.169817967e-16 0)
(3 6.964024588e-16 0)
(3 2.850067804e-15 0)
(3 4.22199201e-15 0)
(3 6.066562818e-15 0)
(3 7.013217551e-15 0)
(3 6.501544482e-15 0)
(3 3.576026624e-15 0)
(3 2.865091456e-15 0)
(3 1.929405752e-15 0)
(3 7.439784912e-16 0)
(3 5.17266188e-16 0)
(3 2.150440515e-15 0)
(3 1.48329411e-15 0)
(3 7.798521152e-16 0)
(3 1.36544377e-16 0)
(3 3.161673795e-16 0)
(3 9.708089043e-16 0)
(3 1.160822836e-15 0)
(3 4.934043762e-16 0)
(3 1.793050006e-15 0)
(3 2.307338601e-15 0)
(3 1.658187478e-15 0)
(3 1.459744198e-15 0)
(3 1.33622034e-15 0)
(3 5.191290102e-17 0)
(3 1.226593807e-16 0)
(3 1.108420176e-15 0)
(3 2.170876836e-15 0)
(3 3.239732516e-15 0)
(3 3.073037271e-15 0)
(3 3.121063316e-15 0)
(3 2.851695534e-15 0)
(3 5.053981568e-15 0)
(3 5.65674263e-15 0)
(3 4.346653132e-15 0)
(3 3.785632762e-15 0)
(3 -6.192504469e-17 0)
(3 -9.769299758e-15 0)
(3 -9.255845572e-15 0)
(3 -8.357385535e-15 0)
(3 -7.781421601e-15 0)
(3 -7.438450823e-15 0)
(3 -6.289229234e-15 0)
(3 -5.727548819e-15 0)
(3 -3.59937916e-15 0)
(3 -7.618829722e-16 0)
(3 1.193014596e-15 0)
(3 2.780291211e-15 0)
(3 5.538022525e-15 0)
(3 8.227425432e-15 0)
(3 8.746382778e-15 0)
(3 6.805185372e-15 0)
(3 4.906500184e-15 0)
(3 3.034974826e-15 0)
(3 5.264225002e-16 0)
(3 -1.671166303e-15 0)
(3 -5.225797239e-15 0)
(3 -6.607282903e-15 0)
(3 -7.966980294e-15 0)
(3 -8.365651571e-15 0)
(3 -7.366493052e-15 0)
(3 -5.498002601e-15 0)
(3 -4.312243985e-15 0)
(3 -3.634396311e-15 0)
(3 -3.320864427e-15 0)
(3 -1.794989495e-15 0)
(3 -1.390489591e-15 0)
(3 -2.807796534e-15 0)
(3 -3.377355147e-15 0)
(3 -1.825869696e-15 0)
(3 -1.26199713e-15 0)
(3 -9.720489564e-16 0)
(3 -1.018189493e-15 0)
(3 -1.054577233e-15 0)
(3 -9.32654261e-16 0)
(3 -2.61562051e-16 0)
(3 2.817956712e-15 0)
(3 6.357217526e-15 0)
(3 5.312292609e-15 0)
(3 4.31361869e-15 0)
(3 4.856326181e-15 0)
(3 5.084304503e-15 0)
(3 5.634101175e-15 0)
(3 6.118556691e-15 0)
(3 6.402070676e-15 0)
(3 6.880365173e-15 0)
(3 6.810171195e-15 0)
(3 8.053378306e-15 0)
(3 8.06841492e-15 0)
(3 7.17307541e-15 0)
(3 5.841767557e-15 0)
(3 5.44519263e-15 0)
(3 3.352427069e-15 0)
(3 2.099499056e-15 0)
(3 2.783711116e-15 0)
(3 4.235632294e-15 0)
(3 6.4570373e-15 0)
(3 7.57579538e-15 0)
(3 7.183584267e-15 0)
(3 6.707456198e-15 0)
(3 4.836314094e-15 0)
(3 2.341637774e-15 0)
(3 -8.007967963e-16 0)
(3 -2.523581255e-15 0)
(3 -2.330879509e-15 0)
(3 -2.888529034e-15 0)
(3 -4.179269716e-15 0)
(3 -5.049180806e-15 0)
(3 -6.501069729e-15 0)
(3 -7.06892646e-15 0)
(3 -6.614404339e-15 0)
(3 -5.430931402e-15 0)
(3 -1.201637672e-15 0)
(3 1.258901334e-15 0)
(3 4.293209633e-15 0)
(3 6.537107108e-15 0)
(3 7.453104891e-15 0)
(3 7.327655895e-15 0)
(3 7.764273452e-15 0)
(3 5.936390314e-15 0)
(3 4.158549911e-15 0)
(3 2.971423385e-15 0)
(3 5.512863976e-16 0)
(3 -1.21890339e-15 0)
(3 -2.044750864e-15 0)
(3 -3.828459716e-15 0)
(3 -5.417123748e-15 0)
(3 -6.132079075e-15 0)
(3 -6.382764831e-15 0)
(3 -6.348796739e-15 0)
(3 -5.908346078e-15 0)
(3 -6.04881292e-15 0)
(3 -5.919743431e-15 0)
(3 -6.879823828e-15 0)
(3 -9.065299471e-15 0)
(3 -1.043611598e-14 0)
(3 -1.160522586e-14 0)
(3 -1.04852569e-14 0)
(3 -1.002126823e-14 0)
(3 -8.280784234e-15 0)
(3 -6.889035617e-15 0)
(3 -4.309613855e-15 0)
(3 -1.444531055e-16 0)
(3 3.57681946e-15 0)
(3 6.099926389e-15 0)
(3 7.249716676e-15 0)
(3 6.161455123e-15 0)
(3 5.28032765e-15 0)
(3 5.755215771e-15 0)
(3 6.806757823e-15 0)
(3 6.928138407e-15 0)
(3 7.569094927e-15 0)
(3 9.258123792e-15 0)
(3 1.026359708e-14 0)
(3 1.119888504e-14 0)
(3 1.284089045e-14 0)
(3 1.585568007e-14 0)
(3 1.701304404e-14 0)
(3 1.620020598e-14 0)
(3 1.541409353e-14 0)
(3 1.354880721e-14 0)
(3 9.882718764e-15 0)
(3 8.374771317e-15 0)
(3 5.612977243e-15 0)
(3 3.926761298e-15 0)
(3 1.860023276e-15 0)
(3 1.635422682e-15 0)
(3 1.465338099e-15 0)
(3 -3.694716195e-16 0)
(3 1.506837921e-15 0)
(3 1.644924539e-15 0)
(3 1.25598554e-15 0)
(3 3.957413135e-16 0)
(3 -7.677061037e-16 0)
(3 -2.521420387e-15 0)
(3 -3.950970945e-15 0)
(3 -4.195038469e-15 0)
(3 -2.794071412e-15 0)
(3 -9.41154076e-17 0)
(3 2.972941362e-15 0)
(3 6.081827319e-15 0)
(3 7.123745241e-15 0)
(3 8.444516569e-15 0)
(3 1.069277165e-14 0)
(3 1.241071592e-14 0)
(3 1.228494241e-14 0)
(3 1.024800009e-14 0)
(3 8.168326108e-15 0)
(3 5.204022953e-15 0)
(3 2.817868039e-15 0)
(3 1.167850412e-15 0)
(3 -3.347940803e-16 0)
(3 -1.820767903e-15 0)
(3 -1.796130788e-15 0)
(3 -2.186330069e-15 0)
(3 -3.857508845e-15 0)
(3 -6.090044945e-15 0)
(3 -7.451648186e-15 0)
(3 -9.926499513e-15 0)
(3 -1.249023993e-14 0)
(3 -1.214412786e-14 0)
(3 -1.2325627e-14 0)
(3 -1.247121603e-14 0)
(3 -1.158197171e-14 0)
(3 -1.079179265e-14 0)
(3 -1.004191844e-14 0)
(3 -8.538381331e-15 0)
(3 -4.454964679e-15 0)
(3 -3.107070143e-15 0)
(3 -3.06868763e-15 0)
(3 -1.930683129e-15 0)
(3 -1.993939617e-15 0)
(3 -7.932119152e-16 0)
(3 4.426730457e-16 0)
(3 3.104394856e-15 0)
(3 5.069166827e-15 0)
(3 7.290659378e-15 0)
(3 9.636226308e-15 0)
(3 1.443192459e-14 0)
(3 1.823076945e-14 0)
(3 2.119806496e-14 0)
(3 2.160399153e-14 0)
(3 2.002456202e-14 0)
(3 1.98350458e-14 0)
(3 2.176651023e-14 0)
(3 2.167654688e-14 0)
(3 1.738380397e-14 0)
(3 1.519239188e-14 0)
(3 1.553059845e-14 0)
(3 1.497153897e-14 0)
(3 1.028642205e-14 0)
(3 9.452231639e-15 0)
(3 8.481256031e-15 0)
(3 7.044384195e-15 0)
(3 3.878516314e-15 0)
(3 2.595937871e-15 0)
(3 2.031334291e-15 0)
(3 2.744059517e-15 0)
(3 3.181946618e-15 0)
(3 3.614089261e-15 0)
(3 3.884918239e-15 0)
(3 3.926139321e-15 0)
(3 3.343504818e-15 0)
(3 3.063905697e-15 0)
(3 4.008379672e-15 0)
(3 5.558950252e-15 0)
(3 6.37208807e-15 0)
(3 6.545651313e-15 0)
(3 9.462599032e-15 0)
(3 9.500139073e-15 0)
(3 1.020202462e-14 0)
(3 1.236466623e-14 0)
(3 1.354537868e-14 0)
(3 1.369777282e-14 0)
(3 1.287624901e-14 0)
(3 1.180381093e-14 0)
(3 1.090535431e-14 0)
(3 7.127456343e-15 0)
(3 5.145269676e-15 0)
(3 4.270428647e-15 0)
(3 3.002509659e-15 0)
(3 -3.033596227e-16 0)
(3 -6.771449549e-15 0)
(3 -1.046664609e-14 0)
(3 -1.078800531e-14 0)
(3 -1.160809872e-14 0)
(3 -1.255401454e-14 0)
(3 -1.408997247e-14 0)
(3 -1.559179281e-14 0)
(3 -1.567094026e-14 0)
(3 -1.654950898e-14 0)
(3 -1.686673033e-14 0)
(3 -1.749238447e-14 0)
(3 -1.517922607e-14 0)
(3 -1.237210587e-14 0)
(3 -8.316411885e-15 0)
(3 -6.000322522e-15 0)
(3 -4.439118438e-15 0)
(3 -3.287218452e-15 0)
(3 -2.727927622e-15 0)
(3 -1.104700005e-16 0)
(3 5.696366692e-15 0)
(3 8.267837226e-15 0)
(3 1.2732262e-14 0)
(3 1.77879676e-14 0)
(3 2.038998983e-14 0)
(3 2.118901799e-14 0)
(3 2.138660104e-14 0)
(3 2.250623434e-14 0)
(3 2.337673649e-14 0)
(3 2.375974404e-14 0)
(3 1.904166527e-14 0)
(3 1.600085734e-14 0)
(3 1.586517264e-14 0)
(3 1.60493343e-14 0)
(3 1.32318993e-14 0)
(3 1.196171693e-14 0)
(3 1.096476178e-14 0)
(3 9.106545466e-15 0)
(3 7.230967748e-15 0)
(3 3.611827036e-15 0)
(3 7.192839935e-15 0)
(3 7.110827639e-15 0)
(3 7.532911842e-15 0)
(3 7.577491623e-15 0)
(3 7.652577921e-15 0)
(3 8.384968201e-15 0)
(3 8.536144843e-15 0)
(3 8.79004381e-15 0)
(3 7.365404129e-15 0)
(3 6.393250787e-15 0)
(3 3.906481916e-15 0)
(3 3.052061492e-15 0)
(3 4.020468622e-15 0)
(3 5.601449282e-15 0)
(3 5.773208929e-15 0)
(3 6.424771398e-15 0)
(3 8.259747552e-15 0)
(3 8.970422122e-15 0)
(3 1.216920814e-14 0)
(3 1.368529155e-14 0)
(3 1.505920457e-14 0)
(3 1.325273083e-14 0)
(3 9.50394362e-15 0)
(3 7.606894905e-15 0)
(3 3.47412154e-15 0)
(3 -3.070519594e-15 0)
(3 -6.856330037e-15 0)
(3 -9.57503721e-15 0)
(3 -1.190130046e-14 0)
(3 -1.341083121e-14 0)
(3 -1.3919365e-14 0)
(3 -1.367062974e-14 0)
(3 -1.360989931e-14 0)
(3 -1.472196671e-14 0)
(3 -1.560241365e-14 0)
(3 -1.724752702e-14 0)
(3 -2.02143625e-14 0)
(3 -2.170787063e-14 0)
(3 -2.151308804e-14 0)
(3 -1.790124731e-14 0)
(3 -1.333344401e-14 0)
(3 -1.164225145e-14 0)
(3 -8.650058528e-15 0)
(3 -3.201984238e-15 0)
(3 -1.65848744e-15 0)
(3 -5.844739711e-18 0)
(3 3.714059799e-15 0)
(3 7.441533025e-15 0)
(3 8.720348502e-15 0)
(3 1.155558667e-14 0)
(3 1.394412615e-14 0)
(3 1.346170346e-14 0)
(3 1.392374582e-14 0)
(3 1.448842349e-14 0)
(3 1.483181984e-14 0)
(3 1.37671869e-14 0)
(3 1.073656246e-14 0)
(3 9.107006515e-15 0)
(3 8.817072197e-15 0)
(3 8.068717381e-15 0)
(3 7.816963631e-15 0)
(3 7.999721709e-15 0)
(3 7.873067131e-15 0)
(3 7.239363866e-15 0)
(3 7.302853413e-15 0)
(3 6.228169388e-15 0)
(3 1.19425635e-14 0)
(3 7.781991199e-15 0)
(3 6.223755509e-15 0)
(3 6.378834565e-15 0)
(3 7.306359388e-15 0)
(3 7.577389543e-15 0)
(3 7.197826543e-15 0)
(3 6.667642415e-15 0)
(3 5.675696039e-15 0)
(3 3.437204785e-15 0)
(3 1.472633376e-15 0)
(3 -2.514445577e-15 0)
(3 -5.059519898e-15 0)
(3 -3.953987234e-15 0)
(3 -9.847736473e-16 0)
(3 3.758267492e-15 0)
(3 5.968503209e-15 0)
(3 6.54329286e-15 0)
(3 8.102517712e-15 0)
(3 9.381143507e-15 0)
(3 7.796327942e-15 0)
(3 5.827182679e-15 0)
(3 3.937131322e-15 0)
(3 4.038673347e-16 0)
(3 -1.961682381e-15 0)
(3 -5.69769951e-15 0)
(3 -7.734946182e-15 0)
(3 -9.716285777e-15 0)
(3 -1.126501289e-14 0)
(3 -1.281667712e-14 0)
(3 -1.351031243e-14 0)
(3 -1.349224494e-14 0)
(3 -1.411241713e-14 0)
(3 -1.432676587e-14 0)
(3 -1.506700601e-14 0)
(3 -1.74729475e-14 0)
(3 -1.935298405e-14 0)
(3 -1.990998556e-14 0)
(3 -2.079746681e-14 0)
(3 -2.170736073e-14 0)
(3 -1.903564011e-14 0)
(3 -1.4672417e-14 0)
(3 -1.079733713e-14 0)
(3 -6.032857015e-15 0)
(3 -2.240918517e-15 0)
(3 1.070433245e-15 0)
(3 3.249692299e-15 0)
(3 3.740440364e-15 0)
(3 1.983256759e-15 0)
(3 3.553401739e-15 0)
(3 4.926646922e-15 0)
(3 4.092292334e-15 0)
(3 4.106568372e-15 0)
(3 4.952454978e-15 0)
(3 6.050446525e-15 0)
(3 5.088171826e-15 0)
(3 5.298472936e-15 0)
(3 5.03705553e-15 0)
(3 3.602349536e-15 0)
(3 2.101185264e-15 0)
(3 3.079148835e-15 0)
(3 4.255445209e-15 0)
(3 4.079189976e-15 0)
(3 4.173262182e-15 0)
(3 4.195770593e-15 0)
(3 7.077951972e-15 0)
(3 1.008999401e-14 0)
(3 7.709900111e-15 0)
(3 7.164660861e-15 0)
(3 6.686034939e-15 0)
(3 6.650052471e-15 0)
(3 6.49140175e-15 0)
(3 3.723983611e-15 0)
(3 2.748279864e-15 0)
(3 3.738886292e-15 0)
(3 3.716550128e-15 0)
(3 2.58148303e-15 0)
(3 2.291086092e-16 0)
(3 -1.835181485e-15 0)
(3 -1.84977597e-15 0)
(3 -1.2657409e-15 0)
(3 -1.101842638e-15 0)
(3 -2.765969567e-16 0)
(3 4.862958011e-16 0)
(3 2.135325716e-16 0)
(3 4.413374991e-16 0)
(3 7.528177573e-16 0)
(3 2.32695089e-15 0)
(3 2.96159745e-15 0)
(3 1.636568448e-15 0)
(3 -1.01831387e-15 0)
(3 -5.369912382e-15 0)
(3 -7.466150969e-15 0)
(3 -8.301537127e-15 0)
(3 -8.763945539e-15 0)
(3 -8.893232898e-15 0)
(3 -9.44549626e-15 0)
(3 -1.152753425e-14 0)
(3 -1.342303057e-14 0)
(3 -1.534831227e-14 0)
(3 -1.676367927e-14 0)
(3 -1.764445579e-14 0)
(3 -1.902150238e-14 0)
(3 -1.947092551e-14 0)
(3 -2.057618532e-14 0)
(3 -2.138662432e-14 0)
(3 -2.034382759e-14 0)
(3 -1.842627188e-14 0)
(3 -1.529456547e-14 0)
(3 -1.137009988e-14 0)
(3 -7.943345289e-15 0)
(3 -5.054516131e-15 0)
(3 -4.047324696e-15 0)
(3 -3.414550665e-15 0)
(3 -2.370541054e-15 0)
(3 -2.196713917e-15 0)
(3 -2.142921841e-15 0)
(3 -1.718130761e-15 0)
(3 -2.755527221e-15 0)
(3 -3.234271265e-15 0)
(3 -4.344336383e-15 0)
(3 -5.324379249e-15 0)
(3 -5.144837141e-15 0)
(3 -3.169299365e-15 0)
(3 -2.491244992e-15 0)
(3 -2.640034128e-15 0)
(3 -1.386351359e-15 0)
(3 1.346491113e-15 0)
(3 3.53345941e-15 0)
(3 5.419431165e-15 0)
(3 5.400559324e-15 0)
(3 5.375496696e-15 0)
(3 1.436558871e-14 0)
(3 1.426304288e-14 0)
(3 1.417867944e-14 0)
(3 1.200877688e-14 0)
(3 8.901041055e-15 0)
(3 6.380606203e-15 0)
(3 3.412220426e-15 0)
(3 2.092808274e-15 0)
(3 -2.497855393e-16 0)
(3 -1.75351173e-15 0)
(3 -3.023424371e-15 0)
(3 -3.053887646e-15 0)
(3 -3.148024072e-15 0)
(3 -3.538284011e-15 0)
(3 -3.415322034e-15 0)
(3 -3.493642423e-15 0)
(3 -3.803580135e-15 0)
(3 -5.432148735e-15 0)
(3 -6.214289211e-15 0)
(3 -6.903594032e-15 0)
(3 -8.572512739e-15 0)
(3 -9.118001549e-15 0)
(3 -8.56593579e-15 0)
(3 -7.93250637e-15 0)
(3 -8.311314078e-15 0)
(3 -7.846202171e-15 0)
(3 -6.941540434e-15 0)
(3 -6.626011836e-15 0)
(3 -7.228249013e-15 0)
(3 -8.16015408e-15 0)
(3 -9.991346305e-15 0)
(3 -1.194073848e-14 0)
(3 -1.654659308e-14 0)
(3 -1.869377335e-14 0)
(3 -1.879768844e-14 0)
(3 -1.8904899e-14 0)
(3 -1.982720197e-14 0)
(3 -1.993141441e-14 0)
(3 -2.025714829e-14 0)
(3 -2.020132385e-14 0)
(3 -1.974153139e-14 0)
(3 -1.842639021e-14 0)
(3 -1.54639349e-14 0)
(3 -1.481940182e-14 0)
(3 -1.371884933e-14 0)
(3 -1.234172723e-14 0)
(3 -1.145409162e-14 0)
(3 -1.133039764e-14 0)
(3 -1.120663827e-14 0)
(3 -1.083911646e-14 0)
(3 -1.155951425e-14 0)
(3 -1.229092121e-14 0)
(3 -1.336846801e-14 0)
(3 -1.57424048e-14 0)
(3 -1.607206694e-14 0)
(3 -1.581685404e-14 0)
(3 -1.451266374e-14 0)
(3 -1.181355147e-14 0)
(3 -5.893070975e-15 0)
(3 -3.096013465e-15 0)
(3 -2.024815682e-15 0)
(3 -1.585332857e-15 0)
(3 -6.459556833e-17 0)
(3 1.002372133e-15 0)
(3 3.851314016e-15 0)
(3 4.647554856e-15 0)
(3 1.691309855e-14 0)
(3 1.464509058e-14 0)
(3 1.17377254e-14 0)
(3 5.455770085e-15 0)
(3 2.491894016e-15 0)
(3 2.479407949e-16 0)
(3 -4.747555766e-16 0)
(3 -1.108138764e-15 0)
(3 -2.5756376e-15 0)
(3 -5.982658738e-15 0)
(3 -7.709851479e-15 0)
(3 -8.653194719e-15 0)
(3 -8.723189145e-15 0)
(3 -9.453771112e-15 0)
(3 -9.561042585e-15 0)
(3 -9.305536112e-15 0)
(3 -9.423020794e-15 0)
(3 -1.022572216e-14 0)
(3 -1.060782706e-14 0)
(3 -1.206288888e-14 0)
(3 -1.412028308e-14 0)
(3 -1.736994037e-14 0)
(3 -1.862343881e-14 0)
(3 -1.952755245e-14 0)
(3 -1.831504867e-14 0)
(3 -1.661144279e-14 0)
(3 -1.442827415e-14 0)
(3 -1.265795807e-14 0)
(3 -1.360906211e-14 0)
(3 -1.488751995e-14 0)
(3 -1.650576868e-14 0)
(3 -1.891674871e-14 0)
(3 -2.21175389e-14 0)
(3 -2.289133246e-14 0)
(3 -2.220656297e-14 0)
(3 -2.125887908e-14 0)
(3 -2.173998582e-14 0)
(3 -2.035099961e-14 0)
(3 -1.942693575e-14 0)
(3 -1.762274304e-14 0)
(3 -1.589442339e-14 0)
(3 -1.471839886e-14 0)
(3 -1.346853059e-14 0)
(3 -1.424090676e-14 0)
(3 -1.513703955e-14 0)
(3 -1.545725416e-14 0)
(3 -1.556591461e-14 0)
(3 -1.528567557e-14 0)
(3 -1.556019418e-14 0)
(3 -1.567129764e-14 0)
(3 -1.663580459e-14 0)
(3 -1.73605753e-14 0)
(3 -1.961813484e-14 0)
(3 -2.201614281e-14 0)
(3 -2.054212968e-14 0)
(3 -1.896434015e-14 0)
(3 -1.103933808e-14 0)
(3 -3.781776192e-15 0)
(3 -3.010309762e-16 0)
(3 2.468465173e-15 0)
(3 4.276756939e-15 0)
(3 5.051515513e-15 0)
(3 4.402901431e-15 0)
(3 5.584401063e-15 0)
(3 6.780736204e-15 0)
(3 6.144988758e-15 0)
(3 1.446840988e-14 0)
(3 1.074792358e-14 0)
(3 5.535200808e-15 0)
(3 2.422248362e-15 0)
(3 -2.992212934e-16 0)
(3 -2.228156682e-15 0)
(3 -2.212477839e-15 0)
(3 -1.061659298e-15 0)
(3 -1.152396034e-15 0)
(3 -2.207314671e-15 0)
(3 -6.105274102e-15 0)
(3 -9.227117095e-15 0)
(3 -1.022010355e-14 0)
(3 -1.275134101e-14 0)
(3 -1.616188774e-14 0)
(3 -1.623865114e-14 0)
(3 -1.724925934e-14 0)
(3 -1.730581551e-14 0)
(3 -1.626954528e-14 0)
(3 -1.698727491e-14 0)
(3 -1.737477447e-14 0)
(3 -1.851245083e-14 0)
(3 -1.974265075e-14 0)
(3 -2.167961852e-14 0)
(3 -2.222917129e-14 0)
(3 -2.237420087e-14 0)
(3 -2.189535899e-14 0)
(3 -2.17207949e-14 0)
(3 -2.289058923e-14 0)
(3 -2.479912932e-14 0)
(3 -2.565467392e-14 0)
(3 -2.485835267e-14 0)
(3 -2.400463029e-14 0)
(3 -2.359216498e-14 0)
(3 -2.410132026e-14 0)
(3 -2.448896635e-14 0)
(3 -2.477029334e-14 0)
(3 -2.425743047e-14 0)
(3 -2.29283902e-14 0)
(3 -1.911706731e-14 0)
(3 -1.556917137e-14 0)
(3 -1.528080651e-14 0)
(3 -1.597161375e-14 0)
(3 -1.662085629e-14 0)
(3 -1.699938145e-14 0)
(3 -1.728623748e-14 0)
(3 -1.77792349e-14 0)
(3 -1.708207461e-14 0)
(3 -1.589813387e-14 0)
(3 -1.609915152e-14 0)
(3 -1.750387243e-14 0)
(3 -1.855144327e-14 0)
(3 -1.762037195e-14 0)
(3 -1.576171885e-14 0)
(3 -1.363956321e-14 0)
(3 -5.756549328e-15 0)
(3 2.438825299e-15 0)
(3 4.689070574e-15 0)
(3 6.191343829e-15 0)
(3 7.540098981e-15 0)
(3 8.733492797e-15 0)
(3 8.627841122e-15 0)
(3 8.221353605e-15 0)
(3 8.22992562e-15 0)
(3 7.035979504e-15 0)
(3 6.61887676e-15 0)
(3 6.524136007e-15 0)
(3 5.015420772e-15 0)
(3 3.886670802e-15 0)
(3 3.049142224e-15 0)
(3 2.836624352e-15 0)
(3 1.060047237e-15 0)
(3 -6.502958136e-16 0)
(3 -1.464629391e-15 0)
(3 -1.49893567e-15 0)
(3 -1.177296389e-15 0)
(3 -4.501184999e-15 0)
(3 -7.696721376e-15 0)
(3 -1.004569434e-14 0)
(3 -9.985197417e-15 0)
(3 -1.216072629e-14 0)
(3 -1.333780984e-14 0)
(3 -1.40752117e-14 0)
(3 -1.511597107e-14 0)
(3 -1.630998243e-14 0)
(3 -1.584617847e-14 0)
(3 -1.680450588e-14 0)
(3 -1.726629528e-14 0)
(3 -1.721464283e-14 0)
(3 -1.768103738e-14 0)
(3 -1.841335622e-14 0)
(3 -2.026834659e-14 0)
(3 -2.319415368e-14 0)
(3 -2.657954707e-14 0)
(3 -2.6988501e-14 0)
(3 -2.685271829e-14 0)
(3 -2.756347815e-14 0)
(3 -2.747998325e-14 0)
(3 -2.540475094e-14 0)
(3 -2.603581936e-14 0)
(3 -2.677398902e-14 0)
(3 -2.724601035e-14 0)
(3 -2.693160005e-14 0)
(3 -2.539803607e-14 0)
(3 -2.325252666e-14 0)
(3 -2.141213893e-14 0)
(3 -1.944372891e-14 0)
(3 -2.053790135e-14 0)
(3 -2.165729625e-14 0)
(3 -2.16566617e-14 0)
(3 -2.18951993e-14 0)
(3 -2.088080496e-14 0)
(3 -2.071144156e-14 0)
(3 -1.812823575e-14 0)
(3 -1.578927275e-14 0)
(3 -1.342113904e-14 0)
(3 -1.289869864e-14 0)
(3 -1.119164306e-14 0)
(3 -4.968768464e-15 0)
(3 -8.518590608e-16 0)
(3 3.37375025e-15 0)
(3 4.168611706e-15 0)
(3 4.052550832e-15 0)
(3 4.756043596e-15 0)
(3 7.272764901e-15 0)
(3 8.61883513e-15 0)
(3 6.950557498e-15 0)
(3 6.272102005e-15 0)
(3 5.908600571e-15 0)
(3 4.318047719e-15 0)
(3 4.478307272e-15 0)
(3 5.572996954e-15 0)
(3 2.360313313e-15 0)
(3 2.212237036e-15 0)
(3 2.883938875e-15 0)
(3 5.772593004e-15 0)
(3 7.743695637e-15 0)
(3 6.325514276e-15 0)
(3 3.12741142e-15 0)
(3 1.863782166e-15 0)
(3 -1.439834359e-16 0)
(3 -1.736422483e-15 0)
(3 -4.152709045e-15 0)
(3 -5.277667509e-15 0)
(3 -7.028739259e-15 0)
(3 -9.043682549e-15 0)
(3 -1.189904698e-14 0)
(3 -1.514686171e-14 0)
(3 -1.618550647e-14 0)
(3 -1.731670022e-14 0)
(3 -1.988339868e-14 0)
(3 -2.055210053e-14 0)
(3 -2.277741957e-14 0)
(3 -2.333733423e-14 0)
(3 -2.37489797e-14 0)
(3 -2.475018845e-14 0)
(3 -2.628993891e-14 0)
(3 -2.680679674e-14 0)
(3 -2.609147833e-14 0)
(3 -2.314329385e-14 0)
(3 -2.110179483e-14 0)
(3 -2.097817558e-14 0)
(3 -2.181530319e-14 0)
(3 -2.381906207e-14 0)
(3 -2.556296162e-14 0)
(3 -2.424119832e-14 0)
(3 -2.201080311e-14 0)
(3 -2.009359477e-14 0)
(3 -1.912749441e-14 0)
(3 -1.755025252e-14 0)
(3 -1.731629935e-14 0)
(3 -1.903101845e-14 0)
(3 -2.412983983e-14 0)
(3 -2.481908831e-14 0)
(3 -2.364534648e-14 0)
(3 -2.195348547e-14 0)
(3 -1.860463121e-14 0)
(3 -1.756396847e-14 0)
(3 -1.651528433e-14 0)
(3 -1.632822082e-14 0)
(3 -1.599914015e-14 0)
(3 -1.473673219e-14 0)
(3 -9.404730864e-15 0)
(3 -2.230536188e-15 0)
(3 5.753534246e-15 0)
(3 9.942800859e-15 0)
(3 1.04733229e-14 0)
(3 8.988457425e-15 0)
(3 8.87069884e-15 0)
(3 9.108568902e-15 0)
(3 8.700075431e-15 0)
(3 5.964110237e-15 0)
(3 4.35044965e-15 0)
(3 3.364856463e-15 0)
(3 4.274437236e-15 0)
(3 2.638591555e-15 0)
(3 1.962618006e-15 0)
(3 1.90545458e-15 0)
(3 -1.623841809e-15 0)
(3 -1.749266568e-16 0)
(3 3.264100196e-15 0)
(3 6.301640416e-15 0)
(3 5.502283315e-15 0)
(3 2.878132652e-15 0)
(3 2.469639871e-15 0)
(3 1.625383099e-15 0)
(3 -1.066371718e-15 0)
(3 -2.03314652e-15 0)
(3 -2.131616024e-15 0)
(3 -2.732487072e-15 0)
(3 -4.593918785e-15 0)
(3 -7.888761101e-15 0)
(3 -1.182203729e-14 0)
(3 -1.727708716e-14 0)
(3 -2.027349915e-14 0)
(3 -1.985842215e-14 0)
(3 -1.875669609e-14 0)
(3 -1.925069987e-14 0)
(3 -1.937244506e-14 0)
(3 -1.810423464e-14 0)
(3 -1.87662261e-14 0)
(3 -1.88747159e-14 0)
(3 -2.095608709e-14 0)
(3 -2.186514715e-14 0)
(3 -2.19140448e-14 0)
(3 -2.288070627e-14 0)
(3 -2.343075401e-14 0)
(3 -2.261424464e-14 0)
(3 -2.180947932e-14 0)
(3 -2.669655696e-14 0)
(3 -3.039766528e-14 0)
(3 -2.954451306e-14 0)
(3 -2.793338716e-14 0)
(3 -2.754897429e-14 0)
(3 -2.556902618e-14 0)
(3 -2.405194113e-14 0)
(3 -2.38192804e-14 0)
(3 -2.40089725e-14 0)
(3 -2.22843955e-14 0)
(3 -2.107440168e-14 0)
(3 -1.793252267e-14 0)
(3 -1.639618176e-14 0)
(3 -1.661282067e-14 0)
(3 -1.828721406e-14 0)
(3 -1.789891483e-14 0)
(3 -1.673197898e-14 0)
(3 -1.337498434e-14 0)
(3 -7.759732888e-15 0)
(3 -4.787091284e-15 0)
(3 1.216255046e-15 0)
(3 7.265984548e-15 0)
(3 8.704326452e-15 0)
(3 7.868922112e-15 0)
(3 7.722036691e-15 0)
(3 6.845383979e-15 0)
(3 4.207371825e-15 0)
(3 2.08438518e-15 0)
(3 4.994473632e-16 0)
(3 2.475785274e-16 0)
(3 -6.170156068e-16 0)
(3 -1.498912971e-15 0)
(3 -2.328821255e-15 0)
(3 -3.143150521e-15 0)
(3 -3.556118809e-15 0)
(3 -7.384114629e-15 0)
(3 -3.62497109e-15 0)
(3 1.150026918e-15 0)
(3 4.972630635e-15 0)
(3 5.09543195e-15 0)
(3 5.166902141e-15 0)
(3 4.858440525e-15 0)
(3 3.61292228e-15 0)
(3 2.211843178e-16 0)
(3 -1.931895728e-15 0)
(3 -3.344841932e-15 0)
(3 -4.346673904e-15 0)
(3 -5.55176102e-15 0)
(3 -7.040105004e-15 0)
(3 -1.058946855e-14 0)
(3 -1.281569897e-14 0)
(3 -1.681273482e-14 0)
(3 -1.731188204e-14 0)
(3 -1.504218067e-14 0)
(3 -1.282292759e-14 0)
(3 -1.237167045e-14 0)
(3 -1.269854661e-14 0)
(3 -1.304570278e-14 0)