/*--------------------------------*- C++ -*----------------------------------*\
  =========                 |
  \\      /  F ield         | OpenFOAM: The Open Source CFD Toolbox
   \\    /   O peration     | Website:  https://openfoam.org
    \\  /    A nd           | Version:  7
     \\/     M anipulation  |
\*---------------------------------------------------------------------------*/
FoamFile
{
    version     2.0;
    format      ascii;
    class       volScalarField;
    location    "1.5";
    object      T;
}
// * * * * * * * * * * * * * * * * * * * * * * * * * * * * * * * * * * * * * //

dimensions      [0 0 0 1 0 0 0];

internalField   nonuniform List<scalar> 
22
(
0.9346285796
0.9812847901
0.9316935797
0.9280866018
0.9588377172
1.070403233
0.9710962513
0.9517122305
0.9690481693
1.074142769
1.044091931
0.9900221768
0.9603569103
1.066520209
1.064182206
1.040256024
0.9993399948
1.027317583
1.052230694
1.051197526
1.038797919
1.00412245
)
;

boundaryField
{
    inlet
    {
        type            fixedValue;
        value           nonuniform 0();
    }
    outlet
    {
        type            inletOutlet;
        inletValue      nonuniform 0();
        value           nonuniform 0();
    }
    bottom
    {
        type            slip;
    }
    top
    {
        type            slip;
    }
    obstacle
    {
        type            zeroGradient;
    }
    defaultFaces
    {
        type            empty;
    }
    procBoundary27to20
    {
        type            processor;
        value           nonuniform List<scalar> 2(1.141911057 1.072189979);
    }
    procBoundary27to21
    {
        type            processor;
        value           nonuniform List<scalar> 4(0.9444899409 0.9979554501 0.92225081 0.92225081);
    }
    procBoundary27to26
    {
        type            processor;
        value           nonuniform List<scalar> 3(1.023100072 1.001913241 1.000024358);
    }
    procBoundary27to28
    {
        type            processor;
        value           nonuniform List<scalar> 6(1.027303897 1.016110273 1.016110273 0.9979970108 0.965429772 0.9774782822);
    }
    procBoundary27to33
    {
        type            processor;
        value           nonuniform List<scalar> 5(1.027603173 1.048711105 1.047420181 1.027603173 1.000252449);
    }
    procBoundary27to34
    {
        type            processor;
        value           uniform 1.006774003;
    }
}


// ************************************************************************* //
