/*--------------------------------*- C++ -*----------------------------------*\
  =========                 |
  \\      /  F ield         | OpenFOAM: The Open Source CFD Toolbox
   \\    /   O peration     | Website:  https://openfoam.org
    \\  /    A nd           | Version:  7
     \\/     M anipulation  |
\*---------------------------------------------------------------------------*/
FoamFile
{
    version     2.0;
    format      ascii;
    class       volScalarField;
    location    "0.5";
    object      T;
}
// * * * * * * * * * * * * * * * * * * * * * * * * * * * * * * * * * * * * * //

dimensions      [0 0 0 1 0 0 0];

internalField   nonuniform List<scalar> 
555
(
1.108227168
1.107401944
1.106582659
1.104748596
1.10281527
1.101075735
1.115392539
1.112733545
1.111325563
1.11210683
1.113491322
1.113305751
1.113028376
1.114055088
1.113829109
1.11302847
1.111433979
1.110142701
1.109195689
1.108255283
1.107431652
1.106643763
1.104849111
1.102833641
1.100997655
1.115587387
1.112715869
1.110930797
1.111334516
1.112783277
1.112804799
1.112527428
1.113394813
1.113217844
1.112505316
1.111322908
1.110184112
1.109223925
1.108298168
1.107615562
1.106926413
1.10519238
1.103166316
1.10130722
1.113811322
1.11115367
1.108953012
1.109378617
1.110701301
1.111064618
1.110929408
1.111666377
1.111625623
1.111116594
1.110181369
1.10913004
1.108194623
1.107468834
1.107024328
1.106346183
1.104840879
1.10302873
1.101349138
1.109308095
1.10735024
1.105213162
1.105548888
1.107012115
1.10767999
1.107637757
1.108381085
1.108675222
1.108402192
1.107572051
1.10657033
1.105746517
1.105258768
1.10501199
1.104545772
1.103424733
1.101769048
1.1000966
1.102586108
1.101294654
1.099707564
1.100050441
1.101571634
1.102552131
1.102727851
1.103481138
1.104111989
1.103932024
1.103283122
1.102445011
1.101853015
1.101542641
1.101382354
1.101215894
1.100461324
1.098964973
1.097357873
1.094600251
1.093750856
1.092443899
1.092964536
1.094447375
1.095642974
1.096060714
1.096950846
1.097845837
1.097840803
1.097378681
1.096830241
1.096518861
1.096276263
1.096158934
1.0960583
1.095449151
1.0941211
1.092677105
1.085678777
1.084491333
1.085004698
1.086311942
1.087551229
1.088250489
1.089374075
1.090465956
1.090652697
1.090361407
1.0900902
1.08987083
1.089590988
1.089304017
1.089032148
1.088440847
1.087152314
1.085807024
1.078124002
1.076908688
1.076859629
1.077932759
1.079051453
1.080039832
1.081351788
1.082519594
1.082849353
1.082652299
1.082407239
1.082079327
1.081662493
1.081285018
1.080861523
1.080289033
1.079070227
1.077784055
1.070878433
1.069378179
1.069036318
1.069850569
1.070759693
1.071793586
1.073124274
1.074208123
1.074552792
1.074360004
1.074084401
1.073646701
1.073175597
1.072728978
1.072213739
1.071554275
1.070339025
1.069145552
1.067793258
1.06342352
1.061669749
1.061198514
1.061875176
1.062786988
1.063650681
1.064783255
1.065758264
1.066052292
1.065857325
1.065634477
1.065190796
1.064727641
1.064329942
1.063907251
1.063274853
1.06215337
1.060582423
1.059243404
1.056021572
1.054147122
1.053560622
1.054164604
1.055088457
1.055738634
1.056597177
1.057479691
1.057717517
1.057524684
1.057307554
1.057000089
1.056617097
1.05635312
1.056128637
1.055517873
1.054356972
1.05276411
1.051175303
1.048641468
1.046655859
1.045942248
1.046614624
1.047521758
1.047961556
1.048365588
1.049303775
1.049503133
1.049376789
1.049214871
1.049066815
1.048852841
1.048769058
1.048540795
1.047932545
1.046716623
1.044992328
1.04330964
1.03948111
1.038615647
1.039338112
1.040183247
1.040284088
1.040590585
1.041503724
1.041614745
1.041555008
1.041398249
1.041343863
1.041250204
1.041187086
1.040954307
1.040402311
1.039183402
1.037465935
1.035985288
1.032704005
1.03151321
1.032187398
1.032988708
1.032810524
1.033184371
1.034047516
1.034112099
1.034021622
1.033855466
1.033854591
1.033825751
1.033727836
1.033544344
1.033080761
1.031917353
1.030385101
1.029229746
1.026005172
1.024901543
1.025511616
1.025715124
1.025566661
1.026085955
1.026790717
1.026905594
1.026810756
1.02671517
1.02676227
1.026611219
1.026610441
1.026412887
1.025978687
1.02500236
1.023687964
1.02222863
1.019188578
1.018053122
1.01842839
1.018615082
1.018524721
1.019075601
1.019633495
1.01977806
1.019575098
1.019635942
1.019568261
1.019667391
1.019080287
1.018560723
1.018072602
1.017211767
1.016046658
1.014617579
1.012440751
1.011155565
1.011351229
1.011674812
1.011607822
1.012133455
1.012532134
1.012774932
1.012698367
1.012767707
1.012745233
1.012451486
1.012016963
1.011477827
1.011022536
1.010270194
1.009111477
1.007644223
1.005711174
1.004345999
1.004551213
1.005119658
1.004988275
1.005358229
1.005702904
1.006040903
1.006146932
1.006231576
1.006286814
1.005879743
1.005530976
1.005097081
1.004704733
1.00403945
1.002893096
1.001366856
0.9995246232
0.9981637607
0.9985291302
0.999267212
0.9989789929
0.9991775879
0.9994415794
0.9998669967
1.000081806
1.000230972
1.000276457
1.000007878
0.9997513324
0.9994346896
0.9991202933
0.9985163888
0.9973911548
0.9957316668
0.9929123843
0.9933716447
0.9942184485
0.9937844656
0.9938130162
0.9941497347
0.9946261955
0.9947657217
0.9949127088
0.9949607372
0.9948000286
0.9946043578
0.9944788499
0.9943579143
0.993853626
0.9927833589
0.991000393
0.9887351037
0.9891808417
0.9901665242
0.9896492472
0.9895899985
0.9901070621
0.9904609332
0.9904334657
0.9904596364
0.990495898
0.9903379639
0.990174702
0.9903005513
0.9904989533
0.9901756303
0.9892371904
0.987585867
0.98558107
0.9859344572
0.9871173937
0.9866045873
0.986520852
0.9870851913
0.9873483124
0.9871634964
0.9870596989
0.9870683085
0.9869817057
0.9870690571
0.9874350984
0.9878616966
0.9876862938
0.9868870013
0.9854847736
0.983103979
0.9832372176
0.9847368735
0.9843619595
0.9843404956
0.9848903225
0.9854771112
0.9854809915
0.9854778013
0.9855264943
0.9857538452
0.98591918
0.9863100746
0.9865150187
0.9863123873
0.9855037012
0.9841306308
0.9829370673
0.9815865549
0.9816636545
0.9835536274
0.9832991178
0.9834207634
0.9839487169
0.9846348505
0.9848506305
0.9849863563
0.9851986818
0.9853902876
0.9855086416
0.9858575714
0.9858927954
0.9856291077
0.9847907775
0.9833593354
0.982107658
0.9812803449
0.9813892303
0.9835046193
0.9832573174
0.9832511642
0.9836532398
0.9841718902
0.9844572725
0.9847259985
0.9850866522
0.9852153336
0.9854727617
0.9856559203
0.9855059287
0.9851847844
0.9843721024
0.983142515
0.9817577381
0.9813635093
0.981478739
0.9836771794
0.9833777347
0.9830896831
0.9834570232
0.9838337989
0.984111208
0.9844052265
0.9848731844
0.9852811017
0.98563527
0.9856591918
0.9853278551
0.9850159688
0.9842194989
0.9830430094
0.9816350498
0.9814338134
0.9837375399
0.9833342788
0.9828520891
0.9833846966
0.9837477216
0.9840252612
0.9842860428
0.9846903827
0.985179325
0.9854866036
0.9854059756
0.9851502427
0.9849287067
0.984134444
0.9830723901
0.9817730946
0.9811844406
0.9836031658
0.9831596127
0.9829779899
0.9836764865
0.9842810163
0.9845369396
0.9846516522
0.9848884411
0.9851008491
0.9852545148
0.9851338792
0.9849473557
0.9847773008
0.9843485761
0.983516312
0.9822067178
0.9812143772
0.9839140777
0.9836692874
0.9837682832
0.9845702319
0.9852434272
0.9853692289
0.9853890234
0.9854856353
0.9855499584
0.985671122
0.9855723668
0.9854174464
0.9851703886
0.9848860139
0.9842406692
0.9826422667
0.9823699595
0.9852816081
0.9851086518
0.9851348637
0.9858442584
0.9863548669
0.9863880899
0.9864302148
0.9865235304
0.986610468
0.9867538623
0.9866750118
0.9864856204
0.986222458
0.9858683936
0.9851179243
0.9827951922
0.9842670031
0.9872918745
0.9871574319
0.9869728864
0.9874503688
0.9877900403
)
;

boundaryField
{
    inlet
    {
        type            fixedValue;
        value           nonuniform 0();
    }
    outlet
    {
        type            inletOutlet;
        inletValue      nonuniform 0();
        value           nonuniform 0();
    }
    bottom
    {
        type            slip;
    }
    top
    {
        type            slip;
    }
    obstacle
    {
        type            zeroGradient;
    }
    defaultFaces
    {
        type            empty;
    }
    procBoundary22to16
    {
        type            processor;
        value           nonuniform List<scalar> 
20
(
1.10806213
1.107250496
1.10644561
1.104866463
1.103116297
1.101598624
1.115253824
1.112758241
1.111299086
1.112330635
1.113373358
1.113219016
1.112927527
1.113941866
1.113800972
1.113030839
1.1115514
1.110220247
1.109276848
1.109276848
)
;
    }
    procBoundary22to17
    {
        type            processor;
        value           uniform 1.099489852;
    }
    procBoundary22to21
    {
        type            processor;
        value           nonuniform List<scalar> 
35
(
1.116226173
1.116296356
1.114045947
1.108751699
1.101289921
1.092995479
1.086162813
1.086162813
1.077937343
1.070742104
1.063917223
1.056780578
1.049592305
1.04109724
1.04109724
1.033762686
1.026752506
1.020193074
1.013678137
1.007225657
1.00084763
0.9942557769
0.9942557769
0.9900784875
0.9868809871
0.9845853199
0.9833796832
0.983232554
0.9834544874
0.9814158393
0.9814158393
0.9813967623
0.9815179771
0.9827374982
0.9849373062
)
;
    }
    procBoundary22to23
    {
        type            processor;
        value           nonuniform List<scalar> 
32
(
1.09943065
1.099772616
1.099856952
1.098672684
1.096015403
1.091156541
1.084427543
1.076485622
1.076485622
1.066319323
1.057784431
1.049692095
1.042088153
1.035166404
1.0281684
1.020626464
1.012991434
1.005943188
0.9994209743
0.9936078509
0.9891468178
0.9861614462
0.9842892483
0.9842892483
0.9821876329
0.981130846
0.9802151053
0.9798280441
0.9800159318
0.9801855333
0.9799830252
0.9800842549
)
;
    }
    procBoundary22to28
    {
        type            processor;
        value           nonuniform List<scalar> 
18
(
0.9877929208
0.9878450403
0.9879479804
0.9881220611
0.9882653594
0.9881952688
0.9879618235
0.9877088658
0.9872897257
0.9859549095
0.9828010317
0.9864939556
0.9899281326
0.9897197912
0.9890798222
0.9894123536
0.9877929208
0.9895063158
)
;
    }
}


// ************************************************************************* //
