/*--------------------------------*- C++ -*----------------------------------*\
  =========                 |
  \\      /  F ield         | OpenFOAM: The Open Source CFD Toolbox
   \\    /   O peration     | Website:  https://openfoam.org
    \\  /    A nd           | Version:  7
     \\/     M anipulation  |
\*---------------------------------------------------------------------------*/
FoamFile
{
    version     2.0;
    format      ascii;
    class       volScalarField;
    location    "0.6";
    object      rho;
}
// * * * * * * * * * * * * * * * * * * * * * * * * * * * * * * * * * * * * * //

dimensions      [1 -3 0 0 0 0 0];

internalField   nonuniform List<scalar> 
555
(
1.230161941
1.236656639
1.241842914
1.240396805
1.235462578
1.233475579
1.238125209
1.248282617
1.25426971
0.9414863949
1.195822544
1.216345693
1.233259241
1.243240445
1.248785186
1.24432792
1.236546357
1.2345689
1.239049829
1.2480391
1.252983976
0.9638378172
1.198570258
1.21623979
1.247427494
1.254693865
1.253551226
1.245810015
1.240401976
1.239035104
1.244335935
1.248732426
1.253382116
0.9554815337
1.184766199
1.221586335
1.26322785
1.268162972
1.259352873
1.251637221
1.248345857
1.2485981
1.250769424
1.251283009
1.256482442
0.9407387844
1.142567109
1.222910851
1.267696753
1.280246064
1.270845458
1.263548238
1.262425228
1.258510114
1.257442702
1.257233078
1.264213642
0.920511679
1.069461721
1.196289486
1.266388624
1.283836667
1.280817557
1.28012941
1.275458424
1.266582406
1.263998801
1.265066568
1.274925847
0.9045537046
1.011308913
1.136416138
1.239916326
1.282394124
1.290594467
1.293417839
1.284532941
1.274033274
1.271432773
1.276262303
1.284573128
1.28819626
0.8969986691
0.9816769208
1.103775459
1.219481712
1.28159088
1.298847442
1.300779768
1.291427964
1.282661108
1.281391715
1.287368261
1.292767635
1.296489012
0.8889846624
0.9543121589
1.081537284
1.210350641
1.280011457
1.305817967
1.306690967
1.296290491
1.291613124
1.292803276
1.296288225
1.29833027
1.304068112
0.8806611075
0.9278203899
1.031904555
1.182448775
1.278034029
1.31134839
1.308364141
1.303845403
1.302023173
1.30228927
1.302563711
1.303143162
1.311168161
0.8768639736
0.9101885556
0.9849559641
1.129234629
1.263189439
1.311048905
1.313692087
1.317473539
1.31222522
1.309065714
1.306400418
1.30978109
1.318277362
0.8692740603
0.8999950619
0.9623489896
1.085878349
1.228017197
1.305067863
1.324111681
1.330392139
1.320446485
1.314211977
1.313144325
1.318758012
1.325800066
0.8584625572
0.8900783848
0.9417960385
1.057277364
1.20291659
1.300215202
1.337417877
1.341077393
1.328851417
1.322477466
1.32236176
1.329256324
1.33457848
1.338482512
0.8543224054
0.8824108985
0.9188653532
1.020283431
1.179631305
1.295756684
1.347063054
1.351266301
1.337453205
1.333151014
1.335086425
1.340184167
1.343859273
1.347321649
0.8523477696
0.8775067104
0.9064615055
0.9782760138
1.134820534
1.287793394
1.352809694
1.35664041
1.348967957
1.346641908
1.347226098
1.34943334
1.351989707
1.35650058
0.8476008646
0.8719836485
0.9004765488
0.9590637096
1.088862835
1.259361268
1.347035375
1.36467082
1.361981314
1.359620295
1.357730083
1.355361452
1.36094125
1.366259541
0.842504836
0.8668505811
0.892953174
0.9493514823
1.063957386
1.226015401
1.33764171
1.374570551
1.375054828
1.370753908
1.363973443
1.362493086
1.370496283
1.375909718
0.8386493701
0.8632621724
0.8851522716
0.9295745068
1.036319163
1.202452042
1.331677626
1.385518038
1.384961839
1.377335281
1.37021414
1.371466508
1.379629073
1.384171413
0.8339566715
0.8598561373
0.8818772833
0.9153546553
0.9949054388
1.155396955
1.314303581
1.388061075
1.392442839
1.381011716
1.378535427
1.381701904
1.387732002
1.391090594
0.827432835
0.8545166917
0.8800674827
0.9097773153
0.9696130939
1.096230434
1.269650174
1.377183238
1.394242261
1.387612473
1.38865197
1.39207689
1.394477236
1.39779869
1.396273798
0.8217667887
0.8492484445
0.8748074909
0.9046150741
0.960548451
1.065332121
1.224418766
1.356431656
1.394984329
1.395489199
1.398266255
1.400160588
1.399979948
1.40387002
1.402760881
0.8173143201
0.8454458805
0.8712616414
0.8980348048
0.9472244639
1.048700587
1.205227463
1.351453743
1.400254892
1.405263221
1.405643121
1.402277028
1.404047709
1.408477842
1.407344276
0.8138431365
0.8420965969
0.8705585486
0.893324233
0.9295514937
1.015176908
1.181645193
1.352600639
1.408050355
1.411620731
1.406037516
1.402034333
1.407396184
1.411739841
1.410124538
0.8107403074
0.8378917998
0.8688182563
0.8905218437
0.9214961576
0.9820438279
1.1189841
1.309154474
1.405738366
1.413210997
1.405115878
1.403837648
1.411448651
1.41440915
1.412485379
0.8077124252
0.8333901246
0.868309708
0.8888986487
0.9165997992
0.9673366117
1.066296283
1.236768013
1.375245018
1.408299289
1.406907376
1.407099748
1.41433126
1.416292129
1.414429949
0.8050272815
0.8292345138
0.8672705514
0.8867887143
0.9114020933
0.9588009558
1.043689346
1.192971522
1.338599979
1.400722159
1.409252386
1.410484599
1.415443337
1.416827281
1.415238557
0.8026477475
0.8252562386
0.8660161703
0.8840907273
0.9073018585
0.943188864
1.02236452
1.171853711
1.325093866
1.399806064
1.410847129
1.411862026
1.415020819
1.416287879
1.415734204
1.409751104
0.801169903
0.8215886624
0.8649275976
0.8842340146
0.9043364461
0.9325717037
0.9900464326
1.133015635
1.310813066
1.403416195
1.413947249
1.411349445
1.413238396
1.41537366
1.415557716
1.409840798
0.8004773407
0.8178337426
0.8628748643
0.8833327637
0.9027449079
0.9296244425
0.9708581048
1.074560138
1.260239852
1.38935332
1.412441232
1.407775119
1.410637022
1.415576473
1.415879069
1.408880341
0.800144408
0.8143396676
0.8603184428
0.8878008536
0.9012081568
0.9262684404
0.9621668423
1.037637082
1.190718367
1.340916219
1.399731802
1.400985666
1.408687812
1.414923313
1.414978795
1.406714728
0.8004430272
0.8115244043
0.8568317619
0.8903525182
0.8991887903
0.9209905752
0.9514129954
1.019635467
1.148504007
1.294561776
1.380274377
1.397035132
1.406706728
1.411690705
1.412190284
1.403350874
0.8011009251
0.8088580921
0.8531551783
0.8920956253
0.8992575506
0.9178655008
0.9400487454
0.9969238066
1.123770642
1.271200911
1.367331085
1.395011624
1.403375189
1.407049939
1.408152256
1.398759154
0.8013682615
0.8063896323
0.8499204314
0.8927066612
0.8999950477
0.9168734152
0.9351642094
0.973571914
1.078041589
1.250101601
1.367202488
1.393815027
1.39925995
1.401931844
1.403966232
1.394440102
0.8015648495
0.8039132639
0.8467221324
0.8930098133
0.9016756261
0.9166671778
0.9317488876
0.9588784923
1.035247995
1.200743679
1.350771766
1.389431305
1.394119235
1.397913858
1.401998623
1.392199475
0.8016128722
0.801710297
0.8438727433
0.8930397391
0.903735237
0.9152580027
0.9276933267
0.9480063472
1.008789178
1.145189062
1.307718228
1.378033457
1.387867874
1.396869709
1.400170567
1.389739145
1.385552366
0.8024412072
0.7994546452
0.8409281398
0.8925120635
0.9055720457
0.9149172302
0.9255480693
0.9400980422
0.9865040363
1.107209468
1.26640784
1.355318567
1.383115425
1.394950578
1.398533181
1.388012847
1.382229231
0.8031186998
0.7974755732
0.8380129316
0.8916158812
0.9082062776
0.9152568333
0.924732769
0.9355452396
0.9647447907
1.066003864
1.230546976
1.336308444
1.379243061
1.392716195
1.396661862
1.387013323
1.378501114
0.8049782309
0.7957508151
0.8355511185
0.8909161995
0.9101746378
0.9145735289
0.9230576742
0.9317411092
0.9501565684
1.020601112
1.181842727
1.323526254
1.378304872
1.385682232
1.394147746
1.385579824
1.374358025
0.8064267202
0.794122168
0.8333816044
0.890546333
0.9145215242
0.9163106773
0.9212372371
0.9259490079
0.9426169187
)
;

boundaryField
{
    inlet
    {
        type            calculated;
        value           nonuniform 0();
    }
    outlet
    {
        type            calculated;
        value           nonuniform 0();
    }
    bottom
    {
        type            calculated;
        value           nonuniform 0();
    }
    top
    {
        type            calculated;
        value           nonuniform 0();
    }
    obstacle
    {
        type            calculated;
        value           nonuniform List<scalar> 
38
(
0.9414863949
0.9638378172
0.9554815337
0.9407387844
0.920511679
0.9045537046
0.8969986691
0.8889846624
0.8806611075
0.8768639736
0.8692740603
0.8584625572
0.8543224054
0.8523477696
0.8476008646
0.842504836
0.8386493701
0.8339566715
0.827432835
0.8217667887
0.8173143201
0.8138431365
0.8107403074
0.8077124252
0.8050272815
0.8026477475
0.801169903
0.8004773407
0.800144408
0.8004430272
0.8011009251
0.8013682615
0.8015648495
0.8016128722
0.8024412072
0.8031186998
0.8049782309
0.8064267202
)
;
    }
    defaultFaces
    {
        type            empty;
    }
    procBoundary21to15
    {
        type            processor;
        value           nonuniform List<scalar> 
13
(
1.242461098
1.240385614
1.234991552
1.233756357
1.234781097
1.235525771
1.240205929
1.245089172
1.252492614
0.9609845748
1.249552084
1.216352844
1.216352844
)
;
    }
    procBoundary21to22
    {
        type            processor;
        value           nonuniform List<scalar> 
35
(
1.254249015
1.255692816
1.257494674
1.261208596
1.26920272
1.278917348
1.278917348
1.286597341
1.296545878
1.305786721
1.314076863
1.322100172
1.330059291
1.330059291
1.336007437
1.345052109
1.35498232
1.364892956
1.373735273
1.38129567
1.388814686
1.388814686
1.39502379
1.400919915
1.404024212
1.404956314
1.406054964
1.408036763
1.409315691
1.409315691
1.410668998
1.410362401
1.408413488
1.404112051
1.398636114
)
;
    }
    procBoundary21to27
    {
        type            processor;
        value           nonuniform List<scalar> 
18
(
0.9923747313
1.127622281
1.29867944
1.372522686
1.382081036
1.392585572
1.384836248
1.369777554
0.8080756166
0.7926330692
0.8312691574
0.8893987879
0.9178396648
0.9179279853
0.9201101787
0.9223900612
0.9923747313
0.9341952503
)
;
    }
    procBoundary21to28
    {
        type            processor;
        value           nonuniform List<scalar> 8(1.394940151 1.391852571 1.38932426 1.38932426 1.398089001 1.396036689 1.392976298 1.389107892);
    }
}


// ************************************************************************* //
