/*--------------------------------*- C++ -*----------------------------------*\
  =========                 |
  \\      /  F ield         | OpenFOAM: The Open Source CFD Toolbox
   \\    /   O peration     | Website:  https://openfoam.org
    \\  /    A nd           | Version:  7
     \\/     M anipulation  |
\*---------------------------------------------------------------------------*/
FoamFile
{
    version     2.0;
    format      ascii;
    class       volScalarField;
    location    "1";
    object      p;
}
// * * * * * * * * * * * * * * * * * * * * * * * * * * * * * * * * * * * * * //

dimensions      [1 -1 -2 0 0 0 0];

internalField   nonuniform List<scalar> 
5000
(
1
1
1
1
1
1
1
1
1
1
1
1
1
1
1
1
1
1
1
1
1
1
1
1
1
1
1
1
1
1
1
1
1
1
1
1
1
1
1
1
1
1
1
1
1
1
1
1
1
1
1
1
1
1
1
1
1
1
1
1
1
1
1
1
1
1
1
1
1
1
1
1
1
1
1
1
1
1
1
1
1
1
1
1
1
1
1
1
1
1
1
1
1
1
1
1
1
1
1
1
1
1
1
1
1
1
1
1
1
1
1
1
1
1
1
1
1
1
1
1
1
1
1
1
1
1
1
1
1
1
1
1
1
1
1
1
1
1
1
1
1
1
1
1
1
1
1
1
1
1
1
1
1
1
1
1
1
1
1
1
1
1
1
1
1
1
1
1
1
1
1
1
1
1
1
1
1
1
1
1
1
1
1
1
1
1
1
1
1
1
1
1
1
1
1
1
1
1
1
1
1
1
1
1
1
1
1
1
1
1
1
1
1
1
1
1
1
1
1
1
1
1
1
1
1
1
1
1
1
1
1
1
1
1
1
1
1
1
1
1
1
1
1
1
1
1
1
1
1
1
1
1
1
1
1
1
1
1
1
1
1
1
1
1
1
1
1
1
1
1
1
1
1
1
1
1
1
1
1
1
1
1
1
1
1
1
1
1
1
1
1
1
1
1
1
1
1
1
1
1
1
1
1
1
1
1
1
1
1
1
1
1
1
1
1
1
1
1
1
1
1
1
1
1
1
1
1
1
1
1
1
1
1
1
1
1
1
1
1
1
1
1
1
1
1
1
1
1
1
1
1
1
1
1
1
1
1
1
1
1
1
1
1
1
1
1
1
1
1
1
1
1
1
1
1
1
1
1
1
1
1
1
1
1
1
1
1
1
1
1
1
1
1
1
1
1
1
1
1
1
1
1
1
1
1
1
1
1
1
1
1
1
1
1
1
1
1
1
1
1
1
1
1
1
1
1
1
1
1
1
1
1
1
1
1
1
1
1
1
1
1
1
1
1
1
1
1
1
1
1
1
1
1
1
1
1
1
1
1
1
1
1
1
1
1
1
1
1
1
1
1
1
1
1
1
1
1
1
1
1
1
1
1
1
1
1
1
1
1
1
1
1
1
1
1
1
1
1
1
1
1
1
1
1
1
1
1
1
1
1
1
1
1
1
1
1
1
1
1
1
1
1
1
1
1
1
1
1
1
1
1
1
1
1
1
1
1
1
1
1
1
1
1
1
1
1
1
1
1
1
1
1
1
1
1
1
1
1
1
1
1
1
1
1
1
1
1
1
1
1
1
1
1
1
1
1
1
1
1
1
1
1
1
1
1
1
1
1
1
1
1
1
1
1
1
1
1
1
1
1
1
1
1
1
1
1
1
1
1
1
1
1
1
1
1
1
1
1
1
1
1
1
1
1
1
1
1
1
1
1
1
1
1
1
1
1
1
1
1
1
1
1
1
1
1
1
1
1
1
1
1
1
1
1
1
1
1
1
1
1
1
1
1
1
1
1
1
1
1
1
1
1
1
1
1
1
1
1
1
1
1
1
1
1
1
1
1
1
1
1
1
1
1
1
1
1
1
1
1
1
1
1
1
1
1
1
1
1
1
1
1
1
1
1
1
1
1
1
1
1
1
1
1
1
1
1
1
1
1
1
1
1
1
1
1
1
1
1
1
1
1
1
1
1
1
1
1
1
1
1
1
1
1
1
1
1
1
1
1
1
1
1
1
1
1
1
1
1
1
1
1
1
1
1
1
1
1
1
1
1
1
1
1
1
1
1
1
1
1
1
1
1
1
1
1
1
1
1
1
1
1
1
1
1
1
1
1
1
1
1
1
1
1
1
1
1
1
1
1
1
1
1
1
1
1
1
1
1
1
1
1
1
1
1
1
1
1
1
1
1
1
1
1
1
1
1
1
1
1
1
1
1
1
1
1
1
1
1
1
1
1
1
1
1
1
1
1
1
1
1
1
1
1
1
1
1
1
1
1
1
1
1
1
1
1
1
1
1
1
1
1
1
1
1
1
1
1
1
1
1
1
1
1
1
1
1
1
1
1
1
1
1
1
1
1
1
1
1
1
1
1
1
1
1
1
1
1
1
1
1
1
1
1
1
1
1
1
1
1
1
1
1
1
1
1
1
1
1
1
1
1
1
1
1
1
1
1
1
1
1
1
1
1
1
1
1
1
1
1
1
1
1
1
1
0.9999999999
1
1
1
1
1
1
1
1
1
1
1
1
1
1
1
1
1
1
1
1
1
1
1
1
0.9999999946
1
1
1
1
1
1
1
1
1
1
1
1
1
1
1
1
1
1
1
1
1
1
0.9999999999
1.000000009
0.9999998599
1
1
1
1
1
1
1
1
1
1
1
1
1
1
1
1
1
1
0.9999999999
1
1.000000002
1.000000026
1.000000113
1.000003779
0.9999991629
1
1
1
1
1
1
1
1
1
1
1
1
1
0.9999999999
1
1.000000001
1.000000007
1.000000049
1.000000252
1.000001288
1.000005225
1.000022015
1.00006748
1.000398673
1.00037986
1
1
1
1
1
1
1
1
0.9999999999
1
1
1.000000002
1.000000018
1.000000118
1.000000575
1.00000255
1.000009518
1.000033601
1.000105654
1.000316159
1.000846384
1.002150732
1.004762922
1.010681439
1.016963477
1
1
0.9999999999
0.9999999999
0.9999999999
0.9999999999
1
1.000000004
1.000000036
1.000000235
1.000001181
1.00000509
1.000018775
1.000061835
1.000182978
1.000482657
1.001210168
1.002787711
1.006122167
1.012104166
1.023212846
1.03974006
1.06454635
1.09766728
1.135075643
1
1
0.9999999998
1.000000002
1.000000039
1.000000333
1.000001943
1.000008819
1.000033906
1.000108969
1.000317853
1.000806674
1.001944294
1.004129368
1.008448353
1.015384264
1.027918498
1.046163864
1.073887168
1.107437594
1.15132067
1.197533252
1.2498304
1.299793777
1.342861224
1.00000001
1.000000162
1.000001691
1.000010575
1.000048626
1.000171126
1.000515612
1.001318454
1.003100243
1.00634037
1.012276269
1.021430706
1.036237323
1.056304426
1.084545776
1.118706777
1.163434918
1.213843529
1.258861787
1.303627075
1.345519585
1.386074919
1.411828635
1.433699193
1.44766097
1.000027826
1.000149584
1.000634841
1.001913742
1.004772088
1.009837997
1.018700631
1.031547173
1.050518756
1.074817216
1.106348583
1.142010595
1.185069405
1.231793883
1.280165846
1.332505059
1.381604106
1.417261952
1.435354243
1.459362429
1.476342917
1.483819001
1.487590922
1.492914022
1.493241194
1.003632435
1.011007011
1.025853177
1.045626353
1.072891074
1.10249877
1.137459438
1.172510707
1.212510438
1.250501404
1.28376129
1.319228955
1.353646952
1.381247361
1.402129117
1.42038197
1.437839756
1.454053999
1.471833651
1.48491971
1.495962433
1.494042412
1.490586281
1.488198936
1.487959987
1.05532115
1.121520486
1.191459189
1.261190386
1.323062781
1.383786953
1.435727141
1.484020567
1.521103308
1.553310666
1.578816887
1.600803724
1.610590516
1.607517406
1.598276826
1.587356829
1.573083318
1.556596672
1.537981507
1.51948745
1.499947746
1.484177052
1.475230307
1.469690145
1.466773174
1
1
1
1
1
1
1
1
1
1
1
1.000000019
1.000000681
1.000014822
1.000220238
1.002169878
1.014741613
1.061865723
1.180769049
1.362463864
1.517721853
1.658445575
1.719352409
1.691420985
1.593331139
1
1
1
1
1
1
1
1
1
1
1.000000019
1.000000598
1.000014502
1.0002071
1.002082105
1.013129541
1.054172807
1.140778097
1.242942079
1.338751107
1.449658083
1.523902628
1.604617962
1.59891934
1.547592918
1
1
1
1
1
1
1
1
1
1.000000012
1.000000543
1.000012663
1.000192807
1.002027064
1.012497999
1.054705883
1.135460907
1.233185012
1.296514427
1.32290425
1.361779634
1.412948425
1.472372022
1.520807415
1.485921157
1
1
1
1
1
1
1
1
1.000000013
1.000000421
1.000011391
1.000183635
1.001839702
1.013198674
1.051447829
1.143423048
1.241869002
1.293153873
1.310000268
1.311987762
1.30853011
1.306502648
1.309678071
1.349703872
1.33973659
1
1
1
1
1
1
1
1.000000006
1.000000394
1.000010048
1.000164765
1.001882727
1.011917743
1.055339287
1.142101973
1.237016124
1.310088072
1.321278119
1.318554497
1.302578898
1.267810178
1.214692612
1.180002691
1.181311163
1.203363343
1
1
1
1
1
1
1.000000007
1.000000248
1.000008687
1.000155855
1.001671046
1.012673878
1.051914609
1.144464009
1.262388774
1.297130867
1.317678486
1.322355184
1.308033836
1.265166409
1.209448074
1.146209176
1.07969352
1.05154737
1.065214529
1
1
1
1
1
1.000000003
1.000000244
1.000006831
1.000130547
1.00166058
1.011280597
1.054916158
1.147104867
1.243230389
1.324533671
1.330993631
1.326896717
1.308832986
1.266171008
1.206474899
1.132756355
1.07921828
1.012028742
0.9705430207
0.9500074875
1
1
1
1
1.000000003
1.000000119
1.000005989
1.000118684
1.001396762
1.011493221
1.050716157
1.146687695
1.274040866
1.307106425
1.328877219
1.332328894
1.314180196
1.267260692
1.199674077
1.135618207
1.063959695
1.009179749
0.9549850369
0.9039533491
0.863068139
1
1
1
1.000000001
1.000000114
1.000003565
1.000097551
1.001374862
1.00995321
1.0519602
1.147657714
1.251175724
1.337944545
1.341942153
1.337343813
1.316817616
1.265643922
1.200005784
1.121361265
1.056803681
0.993675724
0.9406674836
0.8977243952
0.8462326872
0.7966925574
1
1
1.000000001
1.000000037
1.000003344
1.000071687
1.001102427
1.0101201
1.047775277
1.145313348
1.279601014
1.315625594
1.340376822
1.343810416
1.32073904
1.26813999
1.191243102
1.118575758
1.046195821
0.9836930481
0.9292140634
0.871908321
0.8325085772
0.7934714974
0.7649237791
1
1
1.000000031
1.000001323
1.000065533
1.000950682
1.00839952
1.048593769
1.145543966
1.259101696
1.353899607
1.354784813
1.349167506
1.323675158
1.26426454
1.187563869
1.106763238
1.033448575
0.966426725
0.9068996602
0.8634122238
0.8155768634
0.7790335491
0.7467467493
0.745394269
1
1.000000003
1.000001171
1.000032276
1.000851798
1.008013756
1.043212489
1.141621095
1.287944266
1.330648022
1.357619534
1.357195761
1.327929816
1.266136393
1.179831275
1.098232642
1.018239771
0.9553474808
0.8976235384
0.8401951217
0.7955215817
0.7585722115
0.7410035747
0.7332251535
0.7429278487
1
1.000000156
1.000029286
1.000512537
1.00736235
1.042043174
1.138422526
1.271207086
1.370452723
1.369833376
1.362245815
1.330288791
1.260096097
1.173934092
1.083443866
1.005726852
0.934009699
0.8685570133
0.8204715006
0.7766637157
0.7504779305
0.7322911837
0.7321958164
0.7345993877
0.7863930437
1.000000003
1.000006
1.000476703
1.005243442
1.039839981
1.138130246
1.282203515
1.342513664
1.373415469
1.372149898
1.33333906
1.260084719
1.163627259
1.069814393
0.9892102005
0.9162189793
0.8625479242
0.8010894836
0.7564477468
0.7280905764
0.7217731458
0.7234275196
0.7369919908
0.774868372
0.8716211279
1.000000478
1.000149665
1.004987358
1.033165517
1.133532351
1.27915631
1.384386885
1.385565434
1.378117906
1.337291578
1.255274653
1.151543731
1.054716877
0.969217283
0.8941449624
0.8215670783
0.7711515006
0.7333522287
0.7227694444
0.7192145718
0.7217960178
0.7421476797
0.7977260796
0.8788348198
0.9601395609
1.000032753
1.002346658
1.032019388
1.127944513
1.273547335
1.369069409
1.401611429
1.392677151
1.342681156
1.24810884
1.141673203
1.036756186
0.9454966521
0.8736819056
0.8147073958
0.7555307408
0.7216275776
0.704229507
0.7072932417
0.7177307819
0.7643390544
0.8330021032
0.9037577939
0.9465826854
0.9775510719
1.001036279
1.021443919
1.121984279
1.291960822
1.387268413
1.407839672
1.400037669
1.347711692
1.245072745
1.127954753
1.012843881
0.9244434406
0.8395654598
0.7665935645
0.7224732865
0.7031020433
0.7041632117
0.7053564976
0.7293754818
0.7860276132
0.8723167267
0.9429026712
0.9843422883
0.9916995435
0.9897427604
1.014391159
1.111347705
1.26972641
1.408884843
1.415080452
1.405619376
1.347786352
1.239439842
1.107821571
0.9970695495
0.8935164257
0.816176682
0.7587266789
0.7111082175
0.6847056757
0.6869655137
0.6994077897
0.7420912811
0.8297816884
0.9200789051
0.9549935812
0.9726616481
0.9952254352
0.9992934764
0.9967624095
1.091378347
1.288869488
1.405931579
1.44008305
1.427166356
1.353871822
1.225933475
1.094218435
0.9568829234
0.8576399844
0.7757625125
0.7032594739
0.682449875
0.6850809229
0.6868073374
0.711158945
0.7799630043
0.8755463975
0.9218170639
0.9679365605
0.9853509489
0.9869588169
0.992771105
0.9971130491
0.9968108637
1.270194618
1.423001188
1.437470748
1.433345099
1.359054313
1.226226279
1.060075701
0.9386510065
0.8340762112
0.7386216423
0.6968765171
0.6552416543
0.6575258155
0.6756110367
0.7278868124
0.8225197796
0.9112928367
0.978267437
0.9847701233
0.9915179995
0.9957058041
0.9970906809
0.9969488342
0.9961182037
0.9960521809
1.43991739
1.471412291
1.454448651
1.362632187
1.19734091
1.036529236
0.8890573088
0.7574397798
0.6992170272
0.6493948703
0.653192563
0.6574484631
0.6839249984
0.7709197397
0.8734670126
0.9490425543
0.9710098088
0.9922867371
0.996887568
0.9962737216
0.9958730734
0.9958831613
0.9959971613
0.9955677523
0.9965938209
1.469865456
1.465483579
1.373038338
1.195273026
1.00115763
0.8485168325
0.7500842062
0.665589495
0.6138946965
0.6164798844
0.6343178074
0.7141685968
0.8283317009
0.9055057889
0.967580589
0.9894830241
0.9906646655
0.9949295119
0.9959728608
0.9945208922
0.9926915021
0.993452432
0.9957116821
0.9974612777
0.999427069
1.485662785
1.383895598
1.164274299
0.945632627
0.7769725083
0.6547686555
0.6124669943
0.6135065689
0.6156858091
0.654337915
0.7498455111
0.8677501148
0.9591742917
0.9766465183
0.9903038286
1.000005797
0.9947865059
0.991330261
0.9907859533
0.9905580504
0.9915464969
0.9940021798
0.9973322505
1.000365236
1.000541162
1.405274378
1.152049741
0.9128390129
0.7311180568
0.6421342082
0.5700753111
0.5671386724
0.5884910067
0.6754543608
0.827774429
0.9383247253
0.9622491137
0.9947190431
0.9999448415
0.9937621122
0.9915024007
0.9905288238
0.990411171
0.9912915242
0.9928296437
0.995104557
0.9974598536
0.999019236
0.9993262487
0.9992193846
1.091100419
0.6517256073
0.5868452653
0.5732094157
0.5753565352
0.570495557
0.6077071856
0.7488974075
0.9094795916
0.95569734
0.9961203958
0.9908529843
0.989805186
0.9894881377
0.9914403005
0.9915137932
0.9923028406
0.9939444317
0.9959132849
0.9967713358
0.9982240282
1.000042883
1.00155664
1.001842471
1.001032241
0.5756568565
0.5121617537
0.4927714309
0.5361099216
0.5669738377
0.5999160157
0.7336496884
0.9362829086
1.007146107
0.9904026439
0.9989047405
0.9899456101
0.9820530149
0.9802412714
0.9857121193
0.9887012168
0.9903026005
0.9922243967
0.9955565828
0.9978473266
0.9971362551
0.9972783528
0.9992514444
1.002500657
1.004092518
0.5516455869
0.5104772515
0.5028960403
0.5402998395
0.5707683531
0.6252153001
0.7918306765
0.9682665144
1.016520566
0.996122506
1.0057527
0.9979367948
0.9874494323
0.9791097429
0.984034014
0.9878846147
0.9902104378
0.9916856206
0.995455884
1.000813495
1.001933823
0.998625971
0.9976575934
1.000096428
1.005203456
0.5490985583
0.5075062885
0.5035024349
0.5378561259
0.5743018474
0.6565823036
0.8330531385
0.9803269829
1.018595231
0.990968447
1.004246384
0.9978978761
0.9912819454
0.9852039376
0.9883297301
0.991390855
0.9951141724
0.996328736
0.9983224386
1.001051473
1.004155751
1.004475088
0.9989553945
0.9990841412
1.001902645
0.5443806538
0.5046278425
0.5084474068
0.5372873669
0.5848705632
0.6870066949
0.8695371608
0.9854103375
1.012110202
0.9855139935
0.9990151909
0.9924816494
0.988863204
0.9884745056
0.9936602473
0.995209405
0.9978324282
0.9998632977
1.00019546
0.9991961071
1.002238642
1.00550427
1.005439297
0.999772331
0.9990850271
0.5400354739
0.5013366339
0.5142734566
0.5397946807
0.5972277988
0.7162194005
0.9037536748
0.9820874665
1.002344769
0.9844929503
0.994106916
0.983936375
0.983457248
0.9880089058
0.9945141052
0.9952524462
0.9966431355
0.9998502543
0.9999756083
0.9953918382
0.9966775343
1.003258288
1.00763956
1.004174029
0.9968613348
0.5349644047
0.5015053197
0.5174619631
0.5457688741
0.6135772017
0.7675332091
0.9444103487
0.9953170972
0.9955102758
0.9857850967
0.99173526
0.9798109028
0.9788752845
0.9838033938
0.9905082615
0.9909862085
0.9919977105
0.9960868884
0.9979903127
0.993575192
0.9938366214
0.9990436289
1.006306603
1.006971936
1.00007607
0.5294025767
0.5017833257
0.5212553094
0.5545512615
0.6429119908
0.8284310331
0.9786992283
1.011702792
1.006615334
0.9943566664
0.9967978875
0.985000454
0.978656769
0.9790917217
0.9853872423
0.9866589444
0.9878818153
0.9913293968
0.9968769169
0.998105799
0.9961258747
0.9965292512
1.002167132
1.005209011
1.003894224
0.5269969987
0.5050037227
0.5254060855
0.5688793213
0.6839112867
0.8830757159
0.9991087662
1.018470068
1.013773386
0.9973424069
1.001054294
0.9907005845
0.9842914973
0.9825055694
0.9884292969
0.9916315842
0.992665682
0.9937487505
0.9989439539
1.003126585
1.003285812
1.000131947
0.9981244599
1.001541457
1.004952488
0.5243100373
0.5072959814
0.5310273552
0.5851328762
0.7237080468
0.9178424028
0.9999569187
1.014586496
1.009972254
0.9920081189
0.9981354413
0.9896530875
0.9869027683
0.9873993629
0.9935660638
0.9963587478
0.9975366472
0.9974896644
0.9986485445
1.002077506
1.00556105
1.004895658
1.000023921
0.9992433815
1.003038128
0.5219197095
0.5108948064
0.5386545842
0.6105716843
0.7734044162
0.9321425649
0.9921651488
1.00541883
1.000896704
0.9859332136
0.994779906
0.9876539087
0.9867724495
0.9874363106
0.9929640561
0.9949125472
0.9968394819
0.9972468536
0.9969011894
0.9986065322
1.003039698
1.005147696
1.003310042
1.00025208
1.000132857
0.5195359335
0.514892047
0.5492869387
0.6375223977
0.8215694845
0.9519274848
0.9867977758
0.9963754331
0.995966551
0.9870300315
0.9959219852
0.987144434
0.9846237882
0.9861271888
0.9907409079
0.9920786504
0.9946934208
0.9965650964
0.9963755403
0.9961951249
0.9994594828
1.003962602
1.005755953
1.002934892
0.999411677
0.5209722834
0.5189489768
0.5620401224
0.6677846935
0.8788215849
0.9885517381
0.990834227
0.9933487627
0.99395214
0.9917555569
0.9951891534
0.9836501634
0.9816938568
0.9855355169
0.9902321073
0.9912772395
0.9936403241
0.9969886384
0.9973362918
0.9953582331
0.9976908227
1.002862792
1.006503927
1.004787175
0.9990091691
0.523458573
0.5267177701
0.5778436612
0.7248220306
0.9676400029
1.017576114
1.007682817
1.000625521
0.9958339491
0.9934861918
0.9898955176
0.9818654345
0.9819581222
0.9867659108
0.9910641405
0.9912895014
0.9938772053
0.9978729745
0.9994629908
0.9978753675
0.9984887158
1.002465242
1.005914974
1.005334125
0.9998655422
0.5252919686
0.5376475567
0.5984484464
0.7845124222
1.010371491
1.024754212
1.019695635
1.008345053
0.9968567245
0.9912902596
0.9865131065
0.9802749121
0.9837559675
0.988442197
0.9931423488
0.99322063
0.9945190164
0.9984283305
1.000996814
1.002067586
1.002095975
1.002050256
1.003792481
1.003322054
1.001128414
0.5301855181
0.5454355409
0.6301673966
0.8500517108
1.02233609
1.022798625
1.018762926
1.01258059
1.001980593
0.989685809
0.9884400881
0.9839249906
0.9868055002
0.9894339929
0.9946783047
0.9956954668
0.9957692413
0.9980192441
1.00077452
1.00313966
1.004211456
1.002799496
1.001139509
1.001697689
1.002910367
0.5382592238
0.5547999278
0.6682133636
0.9054820738
1.018744963
1.007731848
0.9951877573
0.9971052901
0.9984009261
0.9915385204
0.9942990311
0.9878151298
0.9880093171
0.9905742936
0.9959984139
0.9970924322
0.9966670424
0.9978119205
1.000476008
1.003609299
1.004790527
1.003029513
1.000254302
1.00180786
1.004598397
0.5431925855
0.5716888344
0.7119893517
0.9515339291
1.024236858
0.9928846938
0.976633205
0.9866499258
0.9977447334
0.9937311148
0.9974952031
0.9905120031
0.990177333
0.9891149743
0.9931833339
0.9974012771
0.9982942298
0.9966073307
0.9968672437
0.9996649035
1.003933325
1.004239168
1.002015189
1.000917353
1.002458666
0.5506536743
0.5945140354
0.7742888786
1.016075007
1.036140607
0.9951931301
0.9759804612
0.9869321217
0.9999224928
0.9973377296
0.9939590908
0.985807522
0.9866268548
0.9866549307
0.9896194506
0.9936166307
0.9968777727
0.9964739644
0.9952091367
0.9957408946
1.000046117
1.004344619
1.004917385
1.002696134
1.000802773
0.5588844315
0.622993476
0.8517686185
1.072722785
1.052222761
1.005402552
0.9867411466
0.9938303587
0.9988810352
0.9929637393
0.9847095502
0.980699651
0.9857450637
0.9877412331
0.989802081
0.9923115715
0.9962592987
0.9970380757
0.995691118
0.9957377878
0.9989009446
1.004209832
1.006174755
1.003896652
1.000123434
0.5697742612
0.6615421409
0.9249896204
1.095258302
1.064790642
1.018086465
1.000941785
0.9999752118
0.9930475
0.9876235624
0.983388992
0.9817110531
0.9887727494
0.9912083147
0.992416224
0.9933347724
0.9976110689
0.9995143011
0.9988739211
0.9987743093
1.000159457
1.004251909
1.006699874
1.004320725
1.000490524
0.5795673619
0.7003325711
0.9808307629
1.109493891
1.066056745
1.010247838
0.9987326621
0.9968433275
0.9883585148
0.9832176763
0.9848027006
0.9857665163
0.9922499536
0.9936984211
0.9943482248
0.9939591268
0.9970596683
1.000475303
1.000809856
1.001243649
1.002844351
1.005253504
1.006673398
1.003855116
0.9996025315
0.5899866872
0.7554930578
1.027420374
1.097243324
1.040398422
0.9853259045
0.9932362819
1.00022359
0.9947460428
0.9847090511
0.9875337216
0.9867784829
0.9920858772
0.9910155096
0.9933693969
0.9930750558
0.9942470939
0.9976578337
1.000206533
1.002671598
1.005143973
1.004389064
1.002175835
0.9998909818
1.00071896
0.6055629241
0.829024726
1.065706104
1.067976676
1.003081286
0.9649366333
0.9848910417
1.00631852
1.007058911
0.9943060886
0.9919182251
0.9849256122
0.9888523642
0.9874605355
0.9939874759
0.9964350457
0.9964358225
0.9979259747
1.000559938
1.003580274
1.004170359
1.000658749
0.99881877
1.000769098
1.003355026
0.6017399449
0.9106013312
1.084130924
1.076809004
0.9961442371
0.9621757591
0.9749441318
1.004216853
1.013642086
0.9990293503
0.9922737223
0.9862915854
0.9899506744
0.9885987613
0.9954441852
0.9995286477
0.9989116571
0.9986945341
0.9995201719
1.001454522
1.001769039
1.001576247
1.001145434
1.002898782
1.00446518
0.6308878732
1.01149799
1.105423771
1.078908017
0.996822521
0.9693091779
0.9870754121
1.001442912
1.00257915
0.9907377684
0.9876412806
0.9878347101
0.9924853146
0.9910216956
0.9958640269
0.9988189457
0.9986185979
0.9983757385
0.9978210013
0.9985297688
1.001446719
1.003339342
1.00400477
1.00518717
1.003779248
0.6281741398
0.9804456301
1.127288997
1.083444527
1.005596097
0.9927907791
1.000050682
0.9998482858
0.9884554847
0.980236069
0.9818929868
0.9860552017
0.992857528
0.9916358594
0.9939276829
0.9947153856
0.9952268416
0.9955001568
0.9953429624
0.9978250287
1.001386285
1.004725191
1.006502554
1.005636502
1.000432779
0.5996426507
0.8947327102
1.120118013
1.10772681
1.029949576
1.001109671
1.000901431
0.9951447832
0.9853978147
0.977839785
0.9801649967
0.985883916
0.9915369538
0.9902389463
0.9901543199
0.9921487538
0.9961558159
0.9966027007
0.9960929062
0.9971392341
1.001758948
1.005927129
1.006837791
1.002731702
0.9990293003
0.604645777
0.8347442233
1.087742566
1.108599577
1.036357263
0.9923381955
0.9896471183
0.9945619775
0.9900815756
0.985612018
0.9856101843
0.9873039212
0.9930550581
0.9921836575
0.9916236777
0.9926192765
0.9982492139
0.9992732145
0.9999984067
1.001670894
1.004771132
1.006645481
1.005992379
1.001670715
0.9991953618
0.5893759305
0.777969628
1.038236334
1.085911786
1.026741156
0.9767612895
0.9767349326
0.9976474471
1.003816025
0.9946866224
0.9895554917
0.9862612851
0.9908987455
0.9903129475
0.9930135592
0.9952673581
0.9974745437
0.999249734
1.00096483
1.004248378
1.006331696
1.005590425
1.002497225
0.9992083872
0.9978927021
0.5779711821
0.709510626
0.9733998162
1.066946631
1.021985527
0.9715679593
0.9743626303
0.9974891628
1.007961789
0.9971554568
0.9921885323
0.9854549912
0.9887525008
0.9875000729
0.991006292
0.9960464298
0.9976403634
0.9988605843
1.000586307
1.002738132
1.003092569
1.002284548
1.000249778
0.9993228342
0.9999191218
0.5690710358
0.6537520031
0.9039675699
1.061349775
1.038007633
0.9837954184
0.9792559314
0.9945821389
1.003478542
0.9952460683
0.9946520747
0.9881539058
0.9902789789
0.9881313239
0.9920395139
0.9968214134
0.9983330387
1.000138865
1.001315802
1.001844264
1.000734312
0.9996612728
0.9997401436
1.001121398
1.00299489
0.5617374854
0.6177630025
0.8420944691
1.056695886
1.051835342
1.011515612
0.9936137471
0.9981865866
0.9975529528
0.9894017005
0.9898786628
0.9861041708
0.9895454665
0.9901683797
0.9946380356
0.9972435874
0.9978313445
0.9988226026
0.9993369566
0.9996717878
1.000144775
1.000461913
1.002137887
1.005027773
1.004929312
0.5518554497
0.5929302581
0.7746316843
1.041290157
1.061262467
1.035316752
1.011929481
1.005347634
0.9972748499
0.9869227278
0.9842365294
0.9815564974
0.9868204259
0.9899385661
0.9945539765
0.9954418461
0.996365215
0.9964979096
0.9963153292
0.9968144641
0.9997059157
1.003824455
1.007483841
1.007692284
1.002967104
0.5435909167
0.5739166719
0.714847628
0.9963613609
1.058385492
1.031536219
1.008752514
1.002584382
0.997362678
0.9920067537
0.9848941052
0.9800260555
0.9852421577
0.9878417029
0.9922245261
0.9917193194
0.9935111514
0.9950259475
0.9956278927
0.9974170973
1.00359626
1.008944781
1.008844004
1.004967369
1.00010885
0.5362728126
0.5590560234
0.6661065337
0.9100032087
1.044287967
1.020954523
0.9950385074
0.9935261953
0.9950742663
0.9958381128
0.9920741797
0.9835006984
0.9864175324
0.987849447
0.9902994217
0.9895101672
0.9925227721
0.9961614008
0.9982034336
1.001470546
1.006223396
1.007853035
1.006682413
1.002192011
0.997059249
0.5298186212
0.5431031861
0.6303648028
0.8418417221
1.008621785
0.9936133557
0.9826900045
0.9866657032
0.9946300255
0.9956062072
0.996851854
0.9896645493
0.9899524773
0.9901131937
0.9906710156
0.9902811271
0.9940455315
1.000419785
1.002205386
1.00367719
1.005206399
1.005166458
1.003157606
0.9986413791
0.9969217225
0.5269697498
0.534568831
0.6018229627
0.7762040255
0.9610744074
0.9840849369
0.9843188213
0.9917966791
0.9980411632
0.9931851918
0.9977144736
0.9896085222
0.9880720144
0.9890661788
0.9933859222
0.9946965485
0.9975047242
0.9993579901
1.001466897
1.003283297
1.002929047
1.000930077
0.9988183963
0.9985490936
1.000886754
0.5225217885
0.529270658
0.577776116
0.7202866903
0.9361000748
0.988846931
1.001135058
1.004971886
1.004542197
0.9889927843
0.9941434601
0.986995542
0.9863552734
0.9875544718
0.9931418159
0.9958179403
0.9971303939
0.9976715821
0.9989176233
1.000396746
1.000016072
0.9986053007
0.9987947147
1.000751166
1.002991366
0.5209904305
0.5203901791
0.5616129916
0.6774343883
0.9035439061
1.004809934
1.016593163
1.019303147
1.003993715
0.9895166497
0.9912352103
0.9839304116
0.9839178807
0.9860180428
0.9934965547
0.9960032042
0.996813131
0.9964477528
0.9965376779
0.9972170824
0.998580153
1.000150873
1.002019756
1.004633622
1.005402807
0.5191490725
0.5138260105
0.5481793769
0.634541082
0.8328590844
1.004249274
1.020486871
1.015726771
1.002244363
0.9929991103
0.9930085626
0.983665047
0.9819848903
0.9848106794
0.9929345957
0.9942196639
0.9944648395
0.994566309
0.9949669759
0.9966695154
0.9998701036
1.003281103
1.006181696
1.007207554
1.004694427
0.5217293796
0.5104222275
0.5381996686
0.6065415142
0.774936489
0.9582837201
1.008604478
1.006610541
0.9990220557
0.9940192217
0.9959427462
0.9855559868
0.9833921036
0.985403214
0.991293483
0.9912848129
0.9911974152
0.9928334052
0.9949969314
0.9980041468
1.002322535
1.006511982
1.008759318
1.007350366
0.9996544777
0.5241604087
0.5071879521
0.5309801618
0.5873981337
0.7280569539
0.9007436155
0.9871750881
0.9954936885
0.9938136951
0.9874254312
0.9937122475
0.985080637
0.9846986429
0.9874367127
0.9922467507
0.9904249431
0.9909217559
0.9948084424
0.9988447025
1.000652768
1.003243194
1.006783232
1.006835724
1.000432408
0.9934279516
0.5262482036
0.5045885186
0.5252904299
0.5681640624
0.6791574096
0.8605603156
0.966289338
0.9912512443
0.9959508051
0.9842878991
0.9929364611
0.9845173192
0.9850194536
0.9883477897
0.9938215672
0.9933879912
0.9952868219
0.9990445717
1.002209433
1.002464802
1.00160038
1.000922619
0.9979555584
0.9943605891
0.9955399074
0.5310341324
0.5021167483
0.5211592007
0.5553633068
0.6424055134
0.8222291604
0.9523136064
1.001521288
1.008855122
0.9898456407
0.9993600911
0.9892339826
0.9858511058
0.9855986076
0.9912850145
0.9945727771
0.9985129891
1.001056066
1.001311329
1.000516144
1.000172517
0.9980706169
0.9963900935
0.9973125174
1.002318003
0.5356334701
0.501985311
0.517624061
0.5460197513
0.6174265044
0.7683557581
0.9433288892
1.012126869
1.020299468
0.9954437773
1.003777908
0.9932767183
0.9863566523
0.9816619418
0.9869924687
0.9915948393
0.9959863289
0.997261712
0.9953649274
0.9964341269
0.9994816733
1.000396061
1.001514806
1.004538257
1.006261966
0.5400931348
0.5018251424
0.5144419719
0.5393362482
0.5967544047
0.7246117334
0.9273274989
1.015404962
1.020696708
0.996496465
1.003106392
0.9926034116
0.9846783849
0.9804169168
0.9872491865
0.9898604955
0.9907613153
0.990977097
0.9924413844
0.9959089985
0.9992265174
1.002520335
1.005734414
1.00795785
1.005999815
0.5442206552
0.5048259568
0.5084864022
0.5369367942
0.584726584
0.6930828938
0.8900897989
1.002812613
1.009120901
0.9929435676
0.9984213903
0.9858646613
0.9810045309
0.9829008234
0.9901064983
0.9911063674
0.9905630769
0.9918407688
0.9952378727
0.9980357032
0.9993509559
1.00249497
1.006148634
1.006153986
1.0001314
0.5486772116
0.5076281496
0.5038710576
0.5375452392
0.5742880782
0.6536649284
0.8395343292
0.9757373214
0.9987904949
0.9833586825
0.9923597047
0.9827794521
0.9816174589
0.985643058
0.9935472744
0.9929765633
0.9924077176
0.994134665
0.9991336677
1.000431628
1.000042438
1.001490423
1.002636755
0.99899807
0.995081616
0.5513087549
0.5105370663
0.5017105813
0.539887013
0.5704798924
0.6248995206
0.7912670758
0.9486857188
0.9960113461
0.9838234116
0.9963018124
0.9869342036
0.9834295401
0.987811953
0.9943498099
0.9935476157
0.9940209354
0.9975655964
1.001878721
1.00105888
1.000525215
1.001392091
0.9998258827
0.997384829
0.9960172739
0.5752533667
0.5122438815
0.4966400056
0.5355718062
0.5666192481
0.5995954512
0.7254831102
0.9127783562
1.001430472
0.9868328819
1.002084233
0.993289166
0.9865789472
0.9871540482
0.9915835568
0.9915184701
0.9936655085
0.9972148428
0.9999418442
0.9990040587
1.000185018
1.001493582
1.000029141
0.9986375064
0.9986613746
1.091174828
0.6516295641
0.5871441291
0.5730050785
0.5752967694
0.57059823
0.607807988
0.7492725787
0.9109265166
0.9567523809
0.9965253972
0.9911066139
0.9897739683
0.9891719933
0.9908449336
0.991253873
0.9920479637
0.9936673974
0.995392796
0.9964451838
0.9981120872
0.9999202879
1.001059383
1.001439238
1.001098842
1.405307175
1.151959277
0.912643156
0.7312377081
0.6424028461
0.5701678569
0.56706405
0.5885276078
0.6756057117
0.8274781678
0.937177061
0.9618575565
0.9945414316
1.000017193
0.9936987043
0.9916705647
0.9906662279
0.990650719
0.9913659806
0.9924758171
0.9944968808
0.9971627304
0.9991857649
0.9997816899
0.9997529322
1.485661736
1.38393341
1.16401296
0.9458175546
0.77712925
0.6544648653
0.6125228975
0.6135047134
0.6156822072
0.6543786133
0.7496749284
0.8680925146
0.9591860624
0.9766386106
0.9903471211
0.9999334919
0.994837391
0.9913918549
0.9911444402
0.9906363747
0.9912939449
0.9933315127
0.9966475338
1.000040599
1.000369706
1.469859415
1.465496052
1.372932545
1.195377918
1.001073002
0.8484034278
0.7502862393
0.6657134849
0.61389724
0.6164834139
0.6343388978
0.7143785612
0.8283025194
0.9053130564
0.9679006821
0.989277761
0.9906488039
0.9949918473
0.9962058447
0.9946494996
0.9925024688
0.9930992537
0.9953171253
0.9972836592
0.9994403552
1.439896309
1.471422444
1.454442055
1.362606817
1.197295857
1.036644191
0.888939464
0.7574191048
0.6992033319
0.6493884047
0.6531842015
0.6574512377
0.6839135191
0.7707188058
0.8740603938
0.9484684918
0.9710772746
0.9926180244
0.9969046951
0.9963354171
0.9959599996
0.9959574836
0.9959646316
0.9955539843
0.9967101086
1.270172348
1.423037326
1.437474386
1.433316006
1.359083723
1.226238821
1.059940447
0.9387359018
0.8342437031
0.7386373379
0.6967977769
0.655231476
0.65752766
0.6756021407
0.7278234977
0.8229010999
0.9112601961
0.9781255663
0.9846618665
0.9916137344
0.9961137692
0.9973715253
0.9971030782
0.9961357649
0.9961636651
1.091381564
1.288871183
1.405914301
1.440078315
1.427176077
1.353852851
1.225914229
1.094267799
0.9568627798
0.8575714758
0.7757990968
0.7034579474
0.6825110723
0.6851183719
0.6867601298
0.7112150938
0.7798276945
0.8748122735
0.9216693447
0.9687512657
0.9860056938
0.9873786651
0.9929634236
0.9970617245
0.9968482051
1.014392322
1.111344659