/*--------------------------------*- C++ -*----------------------------------*\
  =========                 |
  \\      /  F ield         | OpenFOAM: The Open Source CFD Toolbox
   \\    /   O peration     | Website:  https://openfoam.org
    \\  /    A nd           | Version:  7
     \\/     M anipulation  |
\*---------------------------------------------------------------------------*/
FoamFile
{
    version     2.0;
    format      ascii;
    class       volVectorField;
    location    "3.5";
    object      U;
}
// * * * * * * * * * * * * * * * * * * * * * * * * * * * * * * * * * * * * * //

dimensions      [0 1 -1 0 0 0 0];

internalField   nonuniform List<vector> 
555
(
(2.967351105 -0.3089504378 0)
(2.949791161 -0.1896461468 0)
(2.916585153 -0.06170232084 0)
(2.899929818 0.0004633767454 0)
(2.894432444 0.005485568435 0)
(2.889387856 -0.006147819197 0)
(2.890098148 -0.006214243236 0)
(2.891475339 0.002651241023 0)
(3.339725935 -0.4498056977 0)
(3.369709706 -0.423967918 0)
(3.361585482 -0.4447008561 0)
(3.224938372 -0.4609490719 0)
(3.077661752 -0.4240323585 0)
(2.996932326 -0.4062452373 0)
(2.965400608 -0.3873019629 0)
(2.963195882 -0.3819907443 0)
(2.970635573 -0.3769764241 0)
(2.977402659 -0.3416411576 0)
(2.954793119 -0.2176413406 0)
(2.924166457 -0.07054743607 0)
(2.905636649 0.0008805796001 0)
(2.896302536 0.004034024391 0)
(2.890560359 -0.006854932095 0)
(2.892159178 -0.007751051769 0)
(2.894132977 0.0007685336562 0)
(3.33073844 -0.4506114263 0)
(3.36923396 -0.4226208547 0)
(3.372701246 -0.4384505165 0)
(3.226835634 -0.4617608135 0)
(3.071234449 -0.4257374078 0)
(2.993468689 -0.4084855883 0)
(2.963568374 -0.389456462 0)
(2.965632493 -0.3864045044 0)
(2.973846291 -0.3808247651 0)
(2.980353105 -0.349292228 0)
(2.97372607 -0.2704582484 0)
(2.929182884 -0.09877458225 0)
(2.911277776 -0.0108568414 0)
(2.898500634 0.001401098556 0)
(2.891713403 -0.007797549973 0)
(2.89510042 -0.008719043586 0)
(2.89664649 0.0005264667932 0)
(3.320663368 -0.4514354653 0)
(3.369350829 -0.4216717165 0)
(3.383941962 -0.4320975769 0)
(3.228507869 -0.4624244691 0)
(3.063831034 -0.4276476543 0)
(2.98972115 -0.4103016323 0)
(2.962518526 -0.3910954678 0)
(2.967317673 -0.3877051208 0)
(2.976460208 -0.3815940081 0)
(2.983412271 -0.3585279596 0)
(2.977413721 -0.2858584953 0)
(2.940016728 -0.1389901919 0)
(2.914216268 -0.02971469565 0)
(2.899730617 0.0004236080561 0)
(2.893495363 -0.008348085072 0)
(2.897773917 -0.008695647772 0)
(2.899213603 0.001347989972 0)
(3.309613989 -0.4518846727 0)
(3.372644925 -0.4218182955 0)
(3.397179869 -0.4252557365 0)
(3.229792708 -0.4621569216 0)
(3.055212236 -0.429741279 0)
(2.983961935 -0.4121689107 0)
(2.961431255 -0.3917878902 0)
(2.969398311 -0.38886677 0)
(2.97831212 -0.386183476 0)
(2.985720111 -0.3709863401 0)
(2.981500872 -0.3093380779 0)
(2.953904786 -0.1731637839 0)
(2.923295082 -0.05890151323 0)
(2.901375282 -0.003860628748 0)
(2.895236491 -0.008666673633 0)
(2.900104234 -0.00830054314 0)
(2.901135814 0.002426850017 0)
(2.899091161 0.0004819672016 0)
(3.296498198 -0.4523245198 0)
(3.381881634 -0.4218383788 0)
(3.414318053 -0.4203145218 0)
(3.230207582 -0.4609764829 0)
(3.046198025 -0.4310132965 0)
(2.976551489 -0.4139181386 0)
(2.959390308 -0.3924906298 0)
(2.971038542 -0.3907429222 0)
(2.980264686 -0.3901942085 0)
(2.988235389 -0.3811980174 0)
(2.98630261 -0.3345119872 0)
(2.962114423 -0.2012771908 0)
(2.932766301 -0.080691312 0)
(2.905872871 -0.00762276465 0)
(2.898609405 -0.008988010128 0)
(2.901903035 -0.009073272779 0)
(2.902960946 0.003040685838 0)
(2.901202216 0.0005031160084 0)
(3.279819505 -0.4522096291 0)
(3.395297587 -0.4204501782 0)
(3.430421023 -0.412519616 0)
(3.229996769 -0.4584593948 0)
(3.036008282 -0.4322008185 0)
(2.969208479 -0.4156390999 0)
(2.957016998 -0.3934628609 0)
(2.972554061 -0.3931021488 0)
(2.982305036 -0.3922933568 0)
(2.989507777 -0.3844295463 0)
(2.992154019 -0.3575381358 0)
(2.966523624 -0.2324829886 0)
(2.940354552 -0.08675578738 0)
(2.913088279 -0.01147533463 0)
(2.90249379 -0.009186100602 0)
(2.903036285 -0.01049796847 0)
(2.904721657 0.002650687625 0)
(2.90237969 0.0002610770519 0)
(3.257289904 -0.4527551834 0)
(3.417283162 -0.4202924703 0)
(3.448591612 -0.4032459524 0)
(3.228807064 -0.4545197247 0)
(3.026016283 -0.4324511346 0)
(2.962476086 -0.4170750603 0)
(2.954764138 -0.3948211777 0)
(2.97383013 -0.3941916872 0)
(2.984103917 -0.3926568298 0)
(2.990350152 -0.3882473316 0)
(2.9928849 -0.3641235105 0)
(2.988446256 -0.2801457291 0)
(2.947442466 -0.1089582286 0)
(2.922426717 -0.01743152345 0)
(2.907314883 -0.009446143112 0)
(2.902859053 -0.01183581123 0)
(2.904098382 0.002365091479 0)
(2.901266408 5.301284116e-05 0)
(3.226073639 -0.4538774587 0)
(3.450904529 -0.4211107674 0)
(3.479091179 -0.3988916359 0)
(3.22233906 -0.4490791697 0)
(3.015214986 -0.4323101383 0)
(2.954163848 -0.4185057518 0)
(2.953640101 -0.3956015253 0)
(2.974332538 -0.3949094438 0)
(2.985359129 -0.3939733146 0)
(2.991257526 -0.3914395156 0)
(2.994642856 -0.3786313275 0)
(2.989461266 -0.2868654817 0)
(2.973925585 -0.154667791 0)
(2.935649737 -0.02463478526 0)
(2.911159248 -0.007500998001 0)
(2.898706208 -0.01129565664 0)
(2.89942782 0.003028379592 0)
(2.897573486 0.000399619143 0)
(3.181059868 -0.4486028211 0)
(3.498778636 -0.4289258659 0)
(3.507461008 -0.3836179171 0)
(3.211844165 -0.4400837925 0)
(3.004190577 -0.4312875175 0)
(2.944359464 -0.4197138915 0)
(2.953854416 -0.3968127022 0)
(2.97422225 -0.396011427 0)
(2.986392576 -0.396095197 0)
(2.992523813 -0.3944977023 0)
(2.996159691 -0.3857522511 0)
(2.991146172 -0.3203490071 0)
(2.990024859 -0.1802704835 0)
(2.953194269 -0.03455307316 0)
(2.903337964 -0.01183822168 0)
(2.887731081 -0.01324506651 0)
(2.88973614 0.001994853446 0)
(2.893247456 0.0009161766016 0)
(3.12602049 -0.4493306825 0)
(3.562488211 -0.4369114491 0)
(3.534085186 -0.3747231006 0)
(3.194774626 -0.4291023588 0)
(2.995637963 -0.4284635506 0)
(2.93925947 -0.4211441513 0)
(2.955297219 -0.3981831349 0)
(2.973963993 -0.3973038965 0)
(2.987210694 -0.3967948094 0)
(2.993668475 -0.395378525 0)
(2.997422723 -0.3908177117 0)
(2.994472119 -0.3436651931 0)
(3.004149607 -0.2207206903 0)
(2.972556686 -0.06632687436 0)
(2.882941557 -0.02022494178 0)
(2.874612423 -0.01218787281 0)
(2.879037736 0.003279333582 0)
(2.89233465 0.00125473532 0)
(3.053071285 -0.4266190385 0)
(3.621599618 -0.4409147043 0)
(3.550747777 -0.3721309028 0)
(3.167482045 -0.4184853366 0)
(2.987124568 -0.4265650193 0)
(2.937310649 -0.4189436004 0)
(2.958244033 -0.3979030536 0)
(2.973647068 -0.398375395 0)
(2.987712555 -0.3980315873 0)
(2.994668408 -0.397629863 0)
(2.998668556 -0.3962049115 0)
(2.996288805 -0.3617356757 0)
(3.011188844 -0.2709300413 0)
(2.982664879 -0.1140357375 0)
(2.86746941 -0.03564267783 0)
(2.866894512 -0.01593628745 0)
(2.873859739 0.002793956553 0)
(2.895189756 0.0004756922591 0)
(2.961658035 -0.04259385118 0)
(2.985049154 -0.01240071412 0)
(2.981364238 -0.2626581254 0)
(2.910703698 -0.3930637772 0)
(2.925702684 -0.4214493102 0)
(2.948309121 -0.416644565 0)
(2.96745903 -0.3985622743 0)
(2.978044399 -0.4017553934 0)
(2.988323655 -0.4023160845 0)
(2.995980928 -0.404565163 0)
(3.010507958 -0.4081142758 0)
(3.025717995 -0.3934743167 0)
(3.038486474 -0.3586898069 0)
(3.012899539 -0.2188258612 0)
(3.040060035 -0.1685968391 0)
(2.96600592 0.02213591811 0)
(2.919798149 0.007362283978 0)
(2.92186683 0.002328511136 0)
(2.893110915 0.2288317003 0)
(2.908135373 0.05235449854 0)
(2.902075067 -0.1428956881 0)
(2.916463579 -0.2931973454 0)
(2.944137683 -0.3616438768 0)
(2.982023887 -0.3267988898 0)
(2.985293729 -0.3447966917 0)
(3.0218634 -0.3844846228 0)
(3.032497947 -0.3983036965 0)
(3.053980099 -0.4111664898 0)
(3.061820986 -0.4099490832 0)
(3.076723967 -0.4077920076 0)
(3.079816716 -0.4031453865 0)
(3.086410303 -0.3879165108 0)
(3.100399464 -0.3147930177 0)
(3.082049263 -0.1904948086 0)
(3.089446405 -0.1349726792 0)
(3.017599431 -0.02819857761 0)
(2.894591544 0.2481780962 0)
(2.907072741 0.2067361956 0)
(2.927268063 0.1161776974 0)
(2.965028683 -0.03528635498 0)
(2.981291083 -0.09415286615 0)
(3.024884953 -0.2151662312 0)
(3.042768775 -0.2952767166 0)
(3.068127683 -0.371548505 0)
(3.080507304 -0.4107322946 0)
(3.097463563 -0.409311966 0)
(3.104951956 -0.3928295421 0)
(3.112143987 -0.396026357 0)
(3.114224513 -0.4051967907 0)
(3.118261722 -0.4121075011 0)
(3.117249171 -0.4039947111 0)
(3.109061554 -0.3660059651 0)
(3.115690804 -0.277566609 0)
(3.07264544 -0.09874054117 0)
(2.900057599 0.2481273615 0)
(2.904068853 0.2402184205 0)
(2.923815742 0.1958523644 0)
(2.957946742 0.1136534817 0)
(2.998727948 -0.01570572411 0)
(3.037814454 -0.1455641274 0)
(3.066486411 -0.2258580087 0)
(3.08477693 -0.29676724 0)
(3.097140792 -0.3150255788 0)
(3.09395908 -0.3028425302 0)
(3.104315939 -0.3504923406 0)
(3.109928848 -0.3690341638 0)
(3.115903119 -0.405904338 0)
(3.118624316 -0.4152135884 0)
(3.122813097 -0.409823051 0)
(3.118248461 -0.401405858 0)
(3.109827387 -0.3903575072 0)
(3.09123963 -0.3242625242 0)
(2.898300273 0.2517054953 0)
(2.899963818 0.2489393733 0)
(2.907030243 0.2359784493 0)
(2.927572783 0.1947362941 0)
(2.960303409 0.1192667224 0)
(2.996373009 0.0234544767 0)
(3.022431247 -0.04911106356 0)
(3.046646126 -0.1289454075 0)
(3.069583254 -0.2048478312 0)
(3.082777299 -0.2803399351 0)
(3.093882359 -0.3348386844 0)
(3.106389303 -0.3545176835 0)
(3.111188653 -0.3818017259 0)
(3.112883032 -0.3810133188 0)
(3.111659503 -0.37844453 0)
(3.102203407 -0.3931817827 0)
(3.100274885 -0.3989704254 0)
(3.097488343 -0.3911008702 0)
(2.897162414 0.255278609 0)
(2.897970827 0.2518961148 0)
(2.900797461 0.2453376439 0)
(2.909160295 0.2286267672 0)
(2.928724241 0.1893404254 0)
(2.957375275 0.1254967031 0)
(2.994868985 0.0226335507 0)
(3.018169445 -0.03969416608 0)
(3.046171836 -0.1253428948 0)
(3.067090875 -0.2279760474 0)
(3.07859014 -0.2560828658 0)
(3.077526995 -0.2380406275 0)
(3.073297589 -0.2852244068 0)
(3.0836688 -0.3272257265 0)
(3.088639351 -0.3531511129 0)
(3.097018221 -0.3782296395 0)
(3.096154816 -0.4008879151 0)
(3.099536019 -0.3959031675 0)
(2.89083376 0.2603031813 0)
(2.892722711 0.2546633392 0)
(2.894518894 0.2495687851 0)
(2.898340187 0.2427129791 0)
(2.908026986 0.225476027 0)
(2.927144419 0.1875349632 0)
(2.95233325 0.130711391 0)
(2.985345422 0.04370097066 0)
(3.005592761 -0.00450098258 0)
(3.019152033 -0.06676926897 0)
(3.045793313 -0.1564484508 0)
(3.056577281 -0.1963668388 0)
(3.065716412 -0.2415918746 0)
(3.078037763 -0.3110309231 0)
(3.083192794 -0.3301379014 0)
(3.094173761 -0.3327380027 0)
(3.095591621 -0.3567490178 0)
(3.093386154 -0.3688915188 0)
(2.888046021 0.2603501464 0)
(2.888913946 0.257750527 0)
(2.890552662 0.2522674322 0)
(2.892925704 0.2491410072 0)
(2.89835898 0.2413653025 0)
(2.909061195 0.2217492319 0)
(2.926325824 0.1860859098 0)
(2.952310625 0.1263937247 0)
(2.979021274 0.05495557008 0)
(2.99732135 0.006385912101 0)
(3.024135405 -0.07432164338 0)
(3.041951321 -0.1552855818 0)
(3.055137005 -0.1834317703 0)
(3.060091679 -0.206935186 0)
(3.064329132 -0.2488871059 0)
(3.067534768 -0.2622211402 0)
(3.071942407 -0.2892448455 0)
(3.086736622 -0.3374928722 0)
(2.893125925 0.2530771319 0)
(2.889049651 0.2564253574 0)
(2.888173232 0.2553314717 0)
(2.889541033 0.2540830599 0)
(2.892661922 0.2508667406 0)
(2.89911938 0.2396396982 0)
(2.909803134 0.2174883051 0)
(2.925418826 0.1841906229 0)
(2.949430727 0.1286270395 0)
(2.974734155 0.06391852344 0)
(2.989307289 0.02664504838 0)
(3.008679509 -0.04085102585 0)
(3.028959111 -0.1039854752 0)
(3.039759317 -0.1341507991 0)
(3.053949665 -0.193803915 0)
(3.060938238 -0.2495883107 0)
(3.070991225 -0.2731955213 0)
(3.083367685 -0.2982184139 0)
(2.893392955 0.2698638297 0)
(2.885889349 0.259720813 0)
(2.886433367 0.2564542767 0)
(2.887218452 0.2574733043 0)
(2.889412558 0.2553696544 0)
(2.892775263 0.2491609005 0)
(2.898756236 0.2362728415 0)
(2.90922404 0.2145584533 0)
(2.925149887 0.1820285014 0)
(2.9483308 0.1299543904 0)
(2.970035407 0.07386279861 0)
(2.988782857 0.02541930791 0)
(3.009551952 -0.03714306123 0)
(3.026579158 -0.09543285741 0)
(3.039148234 -0.1283837043 0)
(3.051509298 -0.1787413737 0)
(3.060131518 -0.2032118897 0)
(3.061305819 -0.2111557902 0)
(2.916315265 0.2016012178 0)
(2.905917304 0.229201435 0)
(2.894892245 0.2495851195 0)
(2.887582381 0.2571670541 0)
(2.886998441 0.2566607315 0)
(2.887568498 0.2538740971 0)
(2.89048393 0.2476658388 0)
(2.897775919 0.2342743721 0)
(2.909939739 0.2116486254 0)
(2.926069276 0.1797716859 0)
(2.947627878 0.1317133116 0)
(2.968094991 0.08208197802 0)
(2.985871932 0.03481269921 0)
(3.004695329 -0.02141524382 0)
(3.018559893 -0.05896863326 0)
(3.031094543 -0.100136082 0)
(3.044903875 -0.151275097 0)
(3.052997516 -0.1837139521 0)
(2.945418041 0.1229417561 0)
(2.930661939 0.1854023207 0)
(2.901470869 0.2671182645 0)
(2.888753874 0.2593424075 0)
(2.883867881 0.2564636498 0)
(2.884119013 0.2554989137 0)
(2.885860256 0.252124932 0)
(2.890052132 0.2459371077 0)
(2.898430273 0.2325835545 0)
(2.911204713 0.2095524951 0)
(2.927057063 0.1778047335 0)
(2.946861668 0.1329911415 0)
(2.964766592 0.08960914551 0)
(2.984469163 0.0389789945 0)
(3.002841819 -0.01398425022 0)
(3.016764885 -0.05475292187 0)
(3.031074683 -0.1007596525 0)
(3.042774001 -0.1424851884 0)
(2.989395248 0.02352185116 0)
(2.950270704 0.1281814919 0)
(2.924533598 0.197714553 0)
(2.916562542 0.2278756126 0)
(2.893094399 0.2494023368 0)
(2.884395182 0.2539622093 0)
(2.883972644 0.2537003275 0)
(2.885108105 0.2518740631 0)
(2.889589895 0.245211993 0)
(2.898254607 0.2310241624 0)
(2.910942298 0.2076700841 0)
(2.926857715 0.1755606335 0)
(2.945478364 0.1339648624 0)
(2.963468573 0.09209151114 0)
(2.981067104 0.04673958998 0)
(2.997911794 0.0002096878073 0)
(3.009763613 -0.03460139535 0)
(3.023287736 -0.07912666473 0)
(2.998668101 0.003416750924 0)
(2.987745307 0.03067218559 0)
(2.947130144 0.1245626474 0)
(2.936039043 0.1847852183 0)
(2.903981514 0.2660188998 0)
(2.888491159 0.2567784971 0)
(2.88320069 0.2544371148 0)
(2.883260065 0.2544550134 0)
(2.885135758 0.2511973791 0)
(2.889620881 0.24376001 0)
(2.898456714 0.2292258836 0)
(2.911175159 0.2063990249 0)
(2.927290255 0.1738344976 0)
(2.944828174 0.1346208771 0)
(2.961416978 0.09464547242 0)
(2.978699568 0.05025421137 0)
(2.992675497 0.0106703052 0)
(3.006623085 -0.03105598384 0)
(2.999960049 9.93789187e-05 0)
(2.997366291 0.006754301338 0)
(2.985991635 0.03350777078 0)
(2.949763529 0.1286332976 0)
(2.924738275 0.1977367171 0)
(2.918914566 0.2283258865 0)
(2.897472027 0.2490379132 0)
(2.886224311 0.2536269869 0)
(2.884954312 0.2525293342 0)
(2.88583847 0.2505868513 0)
(2.891195456 0.2431344195 0)
(2.900917765 0.2273000927 0)
(2.913327424 0.2037064346 0)
(2.92795401 0.1724550939 0)
(2.943899711 0.135080109 0)
(2.958982471 0.09822834599 0)
(2.974829726 0.0569366352 0)
(2.989068758 0.0172535304 0)
(2.999999157 2.197440616e-06 0)
(2.999777854 0.0005226361138 0)
(2.996821943 0.008463143896 0)
(2.984361506 0.038399779 0)
(2.945534625 0.1281805547 0)
(2.939954027 0.1842351726 0)
(2.910444328 0.2610412341 0)
(2.892730386 0.2566586447 0)
(2.884120246 0.2519257007 0)
(2.885012101 0.2530377405 0)
(2.888722045 0.2500607422 0)
(2.89482378 0.2409102092 0)
(2.903380517 0.2250268541 0)
(2.914572657 0.2021857931 0)
(2.928256217 0.1714833761 0)
(2.942961381 0.136070929 0)
(2.956830395 0.1017063417 0)
(2.971733987 0.06314536315 0)
(2.999999995 1.213437776e-08 0)
(2.999981765 4.382428914e-05 0)
(2.999694215 0.0007938557519 0)
(2.995799173 0.01064326363 0)
(2.984066574 0.03931492863 0)
(2.949508068 0.1347646916 0)
(2.930406608 0.1914943265 0)
(2.920881275 0.2296855427 0)
(2.895726601 0.2454397914 0)
(2.889907487 0.2536931507 0)
(2.889261604 0.2518142898 0)
(2.891022513 0.2485302591 0)
(2.896214238 0.2401074248 0)
(2.904783207 0.2246110675 0)
(2.915991481 0.2014316808 0)
(2.929133422 0.1711580432 0)
(2.943047184 0.1364431047 0)
(2.956327019 0.1033917003 0)
(3 3.612513819e-11 0)
(2.999999144 2.029372994e-06 0)
(2.999974662 6.610441871e-05 0)
(2.999495995 0.001218377497 0)
(2.995892918 0.01115769502 0)
(2.982937865 0.04245929964 0)
(2.94647962 0.1289095148 0)
(2.941976119 0.183694248 0)
(2.909033144 0.2603845574 0)
(2.897042692 0.2529042359 0)
(2.889191304 0.2492972588 0)
(2.889915299 0.2498990147 0)
(2.893158275 0.2477853559 0)
(2.898845354 0.2396576072 0)
(2.907434374 0.2232588281 0)
(2.917579859 0.200915501 0)
(2.930361729 0.170178419 0)
(2.943135954 0.1379014439 0)
(3 -1.247699349e-14 0)
(2.999999971 7.383944719e-08 0)
(2.99999885 2.935200511e-06 0)
(2.999950974 0.0001208429093 0)
(2.999493971 0.001322534076 0)
(2.995030459 0.01237651516 0)
(2.982239736 0.04285309251 0)
(2.949270591 0.1367472072 0)
(2.929921563 0.1953711126 0)
(2.923609321 0.221737691 0)
(2.89794949 0.2417671783 0)
(2.890525918 0.2508481974 0)
(2.890685763 0.2500010073 0)
(2.892965106 0.2473330487 0)
(2.89874488 0.2393173159 0)
(2.907824152 0.223292975 0)
(2.918738988 0.2000935667 0)
(2.931285414 0.1701191236 0)
(3 -1.320921941e-14 0)
(2.999999999 1.638865036e-09 0)
(2.999999965 8.884563319e-08 0)
(2.999997023 7.289631645e-06 0)
(2.999951325 0.0001253641322 0)
(2.999287331 0.001709838102 0)
(2.99511387 0.01277356599 0)
(2.982146136 0.04465413959 0)
(2.945831587 0.1335556701 0)
(2.939784366 0.1829660067 0)
)
;

boundaryField
{
    inlet
    {
        type            fixedValue;
        value           nonuniform 0();
    }
    outlet
    {
        type            inletOutlet;
        inletValue      nonuniform 0();
        value           nonuniform 0();
    }
    bottom
    {
        type            slip;
    }
    top
    {
        type            slip;
    }
    obstacle
    {
        type            slip;
    }
    defaultFaces
    {
        type            empty;
    }
    procBoundary27to20
    {
        type            processor;
        value           nonuniform List<vector> 
16
(
(2.87647145 0.2498779166 0)
(2.883123868 0.2520719049 0)
(2.893249535 0.2510354839 0)
(2.89974141 0.2484978128 0)
(2.89803744 0.2513370227 0)
(2.894448184 0.2579875729 0)
(2.88996849 0.2621101609 0)
(2.885701714 0.2630237444 0)
(2.896855149 0.243680802 0)
(2.903840602 0.2383357183 0)
(2.940198123 0.1400910278 0)
(2.981769356 0.03975294758 0)
(2.99835357 0.003371174166 0)
(2.999994838 2.036534078e-06 0)
(3.000000022 1.496476207e-08 0)
(3.000000002 -7.912367097e-10 0)
)
;
    }
    procBoundary27to21
    {
        type            processor;
        value           nonuniform List<vector> 
18
(
(2.962331602 -0.2851921871 0)
(2.939172642 -0.1665853293 0)
(2.905580028 -0.04422876889 0)
(2.894731328 -0.001923277477 0)
(2.891240723 0.005901520416 0)
(2.887001278 -0.005885335324 0)
(2.887863339 -0.004870259081 0)
(2.888313915 0.003896629185 0)
(3.347540019 -0.4488552107 0)
(3.370485843 -0.4252748853 0)
(3.350899603 -0.4506889122 0)
(3.223191826 -0.459042247 0)
(3.083521139 -0.4224653984 0)
(3.001705202 -0.4049041178 0)
(2.967719221 -0.3865221257 0)
(2.96203709 -0.3777766657 0)
(2.967032826 -0.3667754767 0)
(2.967032826 -0.3667754767 0)
)
;
    }
    procBoundary27to26
    {
        type            processor;
        value           nonuniform List<vector> 4((3 -3.897598726e-11 0) (3 -8.860306582e-13 0) (3 -4.565144791e-14 0) (3 -1.065814446e-14 0));
    }
    procBoundary27to28
    {
        type            processor;
        value           nonuniform List<vector> 
28
(
(2.88952137 -0.001132662066 0)
(2.892540098 -0.002323846348 0)
(2.895010892 -0.001995492816 0)
(2.897223317 -0.000897810828 0)
(2.897223317 -0.000897810828 0)
(2.896341726 -0.003541677727 0)
(2.897185106 -0.002607449713 0)
(2.897915461 -0.002753856866 0)
(2.898305744 -0.003258536831 0)
(2.899405839 -0.00378406649 0)
(2.901211489 -0.003212379789 0)
(2.903194065 -0.002903356267 0)
(2.904694149 -0.00357805384 0)
(2.928653368 -0.00114646249 0)
(2.988652672 -0.02173201045 0)
(3.06670966 -0.08830311341 0)
(3.085629293 -0.2275453832 0)
(3.092435233 -0.3597178136 0)
(3.100007812 -0.3869165141 0)
(3.093816508 -0.3774291706 0)
(3.089098531 -0.3595588898 0)
(3.086379755 -0.3241263597 0)
(3.071180751 -0.2572892961 0)
(3.063670339 -0.2184059937 0)
(3.04959209 -0.1545219492 0)
(3.034109498 -0.1122755217 0)
(3.019505682 -0.07048213904 0)
(3.001511336 -0.01930960371 0)
)
;
    }
    procBoundary27to33
    {
        type            processor;
        value           nonuniform List<vector> 
19
(
(2.908244172 0.2585980939 0)
(2.893505783 0.2521823818 0)
(2.888633199 0.2482054996 0)
(2.889535535 0.2489357045 0)
(2.89309786 0.2468073014 0)
(2.900045883 0.2378717545 0)
(2.90976274 0.220675075 0)
(2.920603245 0.1979152826 0)
(3 -1.471535859e-14 0)
(3 1.793835262e-11 0)
(2.999999999 1.963441555e-09 0)
(2.999999882 2.944693242e-07 0)
(2.999997006 7.634049797e-06 0)
(2.999923739 0.0001870839216 0)
(2.999333695 0.001732224909 0)
(2.994414463 0.01406569201 0)
(2.981914993 0.04472727676 0)
(2.908244172 0.2585980939 0)
(2.948098965 0.1368807494 0)
)
;
    }
    procBoundary27to34
    {
        type            processor;
        value           nonuniform List<vector> 4((2.985885879 0.0231589345 0) (2.96924748 0.06872691615 0) (2.95601731 0.1049843018 0) (2.943915871 0.138338583 0));
    }
}


// ************************************************************************* //
