/*--------------------------------*- C++ -*----------------------------------*\
  =========                 |
  \\      /  F ield         | OpenFOAM: The Open Source CFD Toolbox
   \\    /   O peration     | Website:  https://openfoam.org
    \\  /    A nd           | Version:  7
     \\/     M anipulation  |
\*---------------------------------------------------------------------------*/
FoamFile
{
    version     2.0;
    format      ascii;
    class       volVectorField;
    location    "1";
    object      U;
}
// * * * * * * * * * * * * * * * * * * * * * * * * * * * * * * * * * * * * * //

dimensions      [0 1 -1 0 0 0 0];

internalField   nonuniform List<vector> 
2222
(
(2.891490874 0.003099932628 0)
(2.890666663 0.00338630416 0)
(2.889386814 0.005374858453 0)
(2.888802064 0.006820850015 0)
(2.889492311 0.008264845621 0)
(2.889802063 0.009118652468 0)
(2.889716144 0.009510348345 0)
(2.889306228 0.009783617026 0)
(2.888720507 0.008817043958 0)
(2.888103316 0.006655020272 0)
(2.887741005 0.004713783049 0)
(2.887730969 0.001772546349 0)
(2.887582232 0.0008185646702 0)
(2.887455879 0.002353898112 0)
(2.887180173 0.004014554147 0)
(2.887035748 0.004921911988 0)
(2.886809637 0.005291867711 0)
(2.886367313 0.0056901859 0)
(2.885833994 0.00625842302 0)
(2.88559035 0.007098043935 0)
(2.885522223 0.007905116965 0)
(2.885692734 0.008589309699 0)
(2.885534043 0.008395765608 0)
(2.885361086 0.007335341973 0)
(2.88533231 0.006680788704 0)
(2.885374704 0.006091187084 0)
(2.885475867 0.005556052323 0)
(2.885399398 0.005445251859 0)
(2.885550717 0.006139507823 0)
(2.885916183 0.007155486138 0)
(2.885712371 0.007645208454 0)
(2.885290281 0.007249921365 0)
(2.88488263 0.005103160556 0)
(2.884521762 0.001133562699 0)
(2.889449928 0.002734718435 0)
(2.888985253 0.003856655188 0)
(2.887911972 0.006452756117 0)
(2.887295752 0.008648762026 0)
(2.887830354 0.00880481353 0)
(2.888147887 0.008337238187 0)
(2.888076578 0.008214354583 0)
(2.887595129 0.008259247872 0)
(2.886921727 0.008179579179 0)
(2.886386329 0.00760632254 0)
(2.886144863 0.006691766666 0)
(2.88610485 0.005180869388 0)
(2.885878367 0.002863657925 0)
(2.88582143 0.001986372714 0)
(2.885570833 0.002740611458 0)
(2.885206365 0.003121925711 0)
(2.884707736 0.003455055779 0)
(2.884224265 0.003620818352 0)
(2.883984006 0.004191393978 0)
(2.883780003 0.005342429534 0)
(2.883529279 0.006436836481 0)
(2.88363243 0.007230055593 0)
(2.88378922 0.007663053847 0)
(2.883708723 0.006984197844 0)
(2.883600899 0.00569196147 0)
(2.883541154 0.004456988146 0)
(2.883678155 0.0035615263 0)
(2.884187933 0.003270601629 0)
(2.88421302 0.003841003797 0)
(2.883927187 0.004440874171 0)
(2.883668773 0.005158466594 0)
(2.883419538 0.005864213797 0)
(2.883071082 0.006013323373 0)
(2.882058949 0.004217086158 0)
(2.887557474 0.003241635118 0)
(2.887227508 0.004216817191 0)
(2.886226142 0.006737791991 0)
(2.885581296 0.00917185061 0)
(2.885889996 0.009290839195 0)
(2.88625067 0.00798442995 0)
(2.886098437 0.007262914409 0)
(2.885665704 0.006609221842 0)
(2.884839253 0.006175600229 0)
(2.884135831 0.006308771785 0)
(2.883866943 0.00683072775 0)
(2.883845359 0.007472840344 0)
(2.883565887 0.007023794174 0)
(2.883379398 0.005175392579 0)
(2.883259827 0.003578708731 0)
(2.882828347 0.002068914791 0)
(2.88298694 0.001053487171 0)
(2.883128531 0.0009419404513 0)
(2.882497479 0.001705432073 0)
(2.882099564 0.003018727844 0)
(2.88230671 0.004186387272 0)
(2.882313534 0.005260025266 0)
(2.882304157 0.005987810495 0)
(2.882221036 0.00593787552 0)
(2.882244657 0.004705081754 0)
(2.882410443 0.002911482354 0)
(2.882626914 0.001651356769 0)
(2.882917654 0.0009344708773 0)
(2.882857351 0.0007532722826 0)
(2.882553798 0.0009709373877 0)
(2.882011277 0.001790565964 0)
(2.881477934 0.002882638324 0)
(2.881017504 0.003855171758 0)
(2.879811574 0.004104744183 0)
(2.88568311 0.00271914853 0)
(2.885338215 0.003771992364 0)
(2.884383883 0.006279057395 0)
(2.883667435 0.008983941777 0)
(2.883785283 0.009728339337 0)
(2.884119435 0.00805095604 0)
(2.884029666 0.006234890372 0)
(2.883607949 0.005320000991 0)
(2.882599444 0.005252076827 0)
(2.881976258 0.006049296871 0)
(2.881847027 0.007542504229 0)
(2.88180626 0.009079235233 0)
(2.88160155 0.01016139293 0)
(2.881009966 0.01007201468 0)
(2.880607159 0.008310432557 0)
(2.880145265 0.005175757423 0)
(2.88043334 0.001605630035 0)
(2.880687851 -0.0001225841932 0)
(2.880432161 0.0001952166982 0)
(2.880034715 0.001481049821 0)
(2.879743827 0.002602832387 0)
(2.880176406 0.003949508193 0)
(2.880428619 0.00516491789 0)
(2.880535244 0.005938671722 0)
(2.880674764 0.005736937368 0)
(2.880765969 0.004212759368 0)
(2.880802257 0.001915385416 0)
(2.880732853 -0.0003161992985 0)
(2.880562355 -0.001160127809 0)
(2.880596497 -0.001345902197 0)
(2.880558082 -0.0007577976453 0)
(2.880175128 0.0005247884377 0)
(2.879690234 0.002546127999 0)
(2.878631072 0.005281706545 0)
(2.883581546 0.002956704843 0)
(2.883253452 0.003566941342 0)
(2.882357118 0.005582963763 0)
(2.881576278 0.008286352907 0)
(2.881625265 0.01015304765 0)
(2.881880791 0.009377764971 0)
(2.881743766 0.007131056096 0)
(2.881318079 0.004887983904 0)
(2.881031577 0.003938686742 0)
(2.880647347 0.004600631516 0)
(2.880042793 0.005904241564 0)
(2.879737522 0.007844373644 0)
(2.879643777 0.01011090172 0)
(2.879336377 0.01198384713 0)
(2.878789067 0.01213893224 0)
(2.878289858 0.0103768592 0)
(2.878108819 0.007391124091 0)
(2.878322458 0.003932075746 0)
(2.878711693 0.0009545047292 0)
(2.878731506 0.0001397000774 0)
(2.878714708 0.0006197193033 0)
(2.878588871 0.001928825935 0)
(2.878744195 0.003461283898 0)
(2.878960413 0.004239324796 0)
(2.879019524 0.004380934602 0)
(2.878999955 0.00392134901 0)
(2.879102233 0.001679616653 0)
(2.879442522 -0.002161723439 0)
(2.880124065 -0.004405112826 0)
(2.880097425 -0.003797330212 0)
(2.879733705 -0.002801362722 0)
(2.879281348 -0.00120740004 0)
(2.879128551 0.001498061851 0)
(2.877848205 0.004430591019 0)
(2.881388989 0.002684542518 0)
(2.881057843 0.003012603404 0)
(2.880202236 0.004584304477 0)
(2.879409271 0.007620373076 0)
(2.879444203 0.01015852926 0)
(2.879494466 0.01026602663 0)
(2.879222299 0.008737357277 0)
(2.878863132 0.006465885126 0)
(2.878636515 0.005003552288 0)
(2.878296913 0.004475927419 0)
(2.8777449 0.005054012712 0)
(2.877551202 0.006832924902 0)
(2.877541458 0.009265193584 0)
(2.877440548 0.01154757601 0)
(2.876985243 0.01292928934 0)
(2.876446118 0.01335752014 0)
(2.875991125 0.01313957439 0)
(2.876048149 0.01121246183 0)
(2.876526179 0.007134010679 0)
(2.876605034 0.002740350314 0)
(2.876542521 0.0006125482863 0)
(2.87656016 0.001075404652 0)
(2.876808048 0.002528540694 0)
(2.877089113 0.003637748766 0)
(2.877275119 0.004042420107 0)
(2.877435369 0.003848909788 0)
(2.877581249 0.002522095077 0)
(2.877787029 -0.0002284272622 0)
(2.878261472 -0.00360541204 0)
(2.878614561 -0.004861254717 0)
(2.878508162 -0.00402907245 0)
(2.878336465 -0.002670054656 0)
(2.878058174 -0.0006435004636 0)
(2.877552937 0.003041680153 0)
(2.8789784 0.0035610302 0)
(2.878652529 0.003178844095 0)
(2.877846435 0.004262361613 0)
(2.877241307 0.007236666204 0)
(2.877270511 0.0103275596 0)
(2.877193166 0.01118140631 0)
(2.876781242 0.01049303296 0)
(2.876325905 0.008556552612 0)
(2.87607168 0.006005755199 0)
(2.875945111 0.00400388573 0)
(2.876024647 0.003253118235 0)
(2.875950559 0.004369130173 0)
(2.875489535 0.006256892334 0)
(2.874936847 0.008081294897 0)
(2.874437744 0.009982641459 0)
(2.873897708 0.01185218224 0)
(2.873445367 0.01373107248 0)
(2.873618012 0.01453355951 0)
(2.874033272 0.01315272144 0)
(2.874256544 0.009069528667 0)
(2.874182164 0.004192664782 0)
(2.874477819 0.001406585716 0)
(2.874941632 0.001233948727 0)
(2.875299894 0.001805103049 0)
(2.875588802 0.001967183564 0)
(2.875729612 0.001927353932 0)
(2.875832864 0.002026551583 0)
(2.875994674 0.002112497414 0)
(2.876463611 0.0009377897883 0)
(2.877115921 -0.001788553676 0)
(2.877585994 -0.004016912957 0)
(2.877892826 -0.004041685753 0)
(2.877997131 -0.002220839839 0)
(2.877453644 0.001383246872 0)
(2.876240986 0.003766887316 0)
(2.875991571 0.003036946684 0)
(2.87536 0.003914327634 0)
(2.87499439 0.006914114281 0)
(2.874994823 0.009505241227 0)
(2.874828961 0.01031519618 0)
(2.87445242 0.01060303588 0)
(2.873998075 0.01014297525 0)
(2.873742292 0.008715608766 0)
(2.873696151 0.00656011204 0)
(2.873628409 0.00451683707 0)
(2.873432086 0.00371934554 0)
(2.87312705 0.004179265922 0)
(2.873024799 0.00531645208 0)
(2.872506362 0.007358955526 0)
(2.871942324 0.01018340788 0)
(2.871580597 0.01338117101 0)
(2.87171543 0.01568709121 0)
(2.872085019 0.01615595037 0)
(2.872238616 0.01404048089 0)
(2.872098012 0.009402904624 0)
(2.872319158 0.004345174082 0)
(2.872788027 0.001564777302 0)
(2.873121079 0.001036666736 0)
(2.873409497 0.0009637086036 0)
(2.873632798 0.001126412841 0)
(2.873950851 0.001937157388 0)
(2.874507526 0.003650129242 0)
(2.875031377 0.004584621687 0)
(2.875528051 0.003435917296 0)
(2.876142505 0.0005231220528 0)
(2.876710252 -0.002665363914 0)
(2.877140404 -0.003403552731 0)
(2.876774189 -0.0006844334149 0)
(2.873294993 0.005030462534 0)
(2.873115292 0.004171735455 0)
(2.872715174 0.004697416272 0)
(2.872530083 0.006892146379 0)
(2.872456328 0.008635801939 0)
(2.872383796 0.008970727168 0)
(2.872118848 0.009228245767 0)
(2.871615944 0.009255951464 0)
(2.871236007 0.00884627113 0)
(2.871046444 0.007727485015 0)
(2.870977167 0.005595099745 0)
(2.871183164 0.002946905405 0)
(2.871727761 0.002227863383 0)
(2.871306871 0.003358501301 0)
(2.870551614 0.005284298055 0)
(2.869956864 0.007870175333 0)
(2.869447696 0.01049288262 0)
(2.8691337 0.01236440835 0)
(2.869226422 0.01334888484 0)
(2.869702152 0.01314317773 0)
(2.869558912 0.01129724906 0)
(2.869703119 0.007365205496 0)
(2.870239384 0.002534010441 0)
(2.870957198 -0.000635897271 0)
(2.871423579 -0.001482275785 0)
(2.871646861 -0.001232376529 0)
(2.872071509 -0.0001300518439 0)
(2.872464826 0.001852501214 0)
(2.872916868 0.00392425268 0)
(2.873593657 0.00536727783 0)
(2.874336737 0.005193293094 0)
(2.875096391 0.002721699211 0)
(2.875906485 -0.001296836842 0)
(2.87611413 -0.002533231547 0)
(2.87015521 0.004840776129 0)
(2.870102966 0.004386909067 0)
(2.869997809 0.004457342418 0)
(2.869813383 0.005251297159 0)
(2.869847619 0.006223366218 0)
(2.869900945 0.00647795486 0)
(2.869844762 0.006584982662 0)
(2.869545397 0.007260234655 0)
(2.869109612 0.008665975623 0)
(2.868743 0.009721111085 0)
(2.868607856 0.009796510499 0)
(2.868573383 0.00835035637 0)
(2.868736594 0.005153704976 0)
(2.869062773 0.002076708679 0)
(2.868839561 0.001947278232 0)
(2.868465182 0.002977616432 0)
(2.867942905 0.004682443464 0)
(2.86717318 0.006463046475 0)
(2.865993197 0.008114413244 0)
(2.866120974 0.01025527472 0)
(2.867042862 0.01267878261 0)
(2.867308356 0.01285868371 0)
(2.867317683 0.01070516485 0)
(2.867520876 0.005996863142 0)
(2.868138482 0.0006142397338 0)
(2.868670126 -0.002345373857 0)
(2.868971744 -0.002527101158 0)
(2.869387621 -0.001546965556 0)
(2.869899385 0.0004764438541 0)
(2.870536929 0.003424316149 0)
(2.871770939 0.006633565653 0)
(2.872609339 0.007922248887 0)
(2.873347466 0.007218699435 0)
(2.874196577 0.003692065983 0)
(2.874491106 -0.001887982222 0)
(2.866915244 0.00523776283 0)
(2.867008977 0.005339667621 0)
(2.867032599 0.005805594291 0)
(2.866877945 0.006817958877 0)
(2.866891046 0.006443531407 0)
(2.867039846 0.005141815511 0)
(2.867077401 0.004624323033 0)
(2.866905772 0.004871284687 0)
(2.866503122 0.006214069618 0)
(2.866094902 0.007683234293 0)
(2.865840145 0.008560254367 0)
(2.865704289 0.008456886168 0)
(2.865726388 0.006340023547 0)
(2.866009983 0.002677644521 0)
(2.866401155 0.0002880928848 0)
(2.866228302 0.0001217395402 0)
(2.865898048 0.0007725665672 0)
(2.865452592 0.001780197991 0)
(2.865307565 0.003589480547 0)
(2.864653783 0.006749478925 0)
(2.86430456 0.009487132375 0)
(2.864612078 0.01049726829 0)
(2.864538725 0.009798670243 0)
(2.864559201 0.007365034834 0)
(2.864972713 0.003128885673 0)
(2.865680705 -0.002185058935 0)
(2.866662716 -0.004644504807 0)
(2.867173839 -0.003885231753 0)
(2.867777649 -0.002073305856 0)
(2.868488389 0.0006050193889 0)
(2.869519576 0.004247846448 0)
(2.870406504 0.006831002468 0)
(2.871076165 0.007681562429 0)
(2.871926818 0.007075222128 0)
(2.87224539 0.001301300202 0)
(2.86380695 0.004218389435 0)
(2.863992731 0.004661049072 0)
(2.864010201 0.005416150087 0)
(2.863907017 0.006767554785 0)
(2.863860123 0.006402958693 0)
(2.864107739 0.0042213704 0)
(2.864354014 0.003294710577 0)
(2.864171659 0.003734994802 0)
(2.863690714 0.005439726395 0)
(2.863480276 0.007957252807 0)
(2.863496596 0.009744024907 0)
(2.863270274 0.01005817697 0)
(2.863036166 0.008482369484 0)
(2.863074391 0.004044564408 0)
(2.863129702 -0.0009114725356 0)
(2.862733304 -0.002675233832 0)
(2.862461706 -0.002653983289 0)
(2.862041691 -0.001841534423 0)
(2.862094856 0.0003558090666 0)
(2.861923067 0.003650433753 0)
(2.861236644 0.006704529302 0)
(2.861414496 0.008902231561 0)
(2.861714514 0.009503871305 0)
(2.861852615 0.00868743294 0)
(2.862072149 0.006322360165 0)
(2.862528334 0.001885785476 0)
(2.863420378 -0.002456170972 0)
(2.864065032 -0.003515874227 0)
(2.864576143 -0.002670222142 0)
(2.865342386 -0.0009219690959 0)
(2.8665477 0.00261425358 0)
(2.867876605 0.006520323631 0)
(2.868885932 0.008955592045 0)
(2.869597043 0.009351804081 0)
(2.869906973 0.005330441239 0)
(2.860952325 0.005309737841 0)
(2.861105374 0.005465832253 0)
(2.861096488 0.006064341843 0)
(2.86100416 0.006927296339 0)
(2.860870395 0.006858655319 0)
(2.861045167 0.005586300934 0)
(2.861456371 0.004136020317 0)
(2.861559029 0.00366892749 0)
(2.861252867 0.004600477195 0)
(2.861059797 0.006758954384 0)
(2.860950711 0.008494169495 0)
(2.860570317 0.008700705043 0)
(2.860066627 0.007512509511 0)
(2.859999317 0.003741134033 0)
(2.860252413 -0.003052799693 0)
(2.860454297 -0.007352401954 0)
(2.860552701 -0.008050715505 0)
(2.860672404 -0.007440165986 0)
(2.860979212 -0.004457716377 0)
(2.860427281 -0.000325105012 0)
(2.860039554 0.003147438479 0)
(2.859532692 0.00550244106 0)
(2.859091489 0.00635775793 0)
(2.858873204 0.006016562601 0)
(2.85874585 0.005287556859 0)
(2.858997698 0.003484570804 0)
(2.85980078 0.000128488469 0)
(2.860762152 -0.002882576733 0)
(2.861659897 -0.003726168836 0)
(2.862699417 -0.003005224612 0)
(2.864112388 -0.000213519268 0)
(2.865313864 0.004081158523 0)
(2.866195019 0.007489939256 0)
(2.866999927 0.008722961413 0)
(2.867099846 0.007132488126 0)
(2.858172148 0.005123632745 0)
(2.858427488 0.004182712318 0)
(2.858378525 0.004471097007 0)
(2.858244051 0.005021717476 0)
(2.857979852 0.005868428695 0)
(2.858010948 0.006606623448 0)
(2.858500553 0.006496883394 0)
(2.858733024 0.005955449855 0)
(2.858588152 0.006336109561 0)
(2.858275419 0.007850352356 0)
(2.857868757 0.009042759122 0)
(2.85748143 0.008944433574 0)
(2.856988091 0.007827193555 0)
(2.856892358 0.004866459216 0)
(2.857009949 -0.001310163043 0)
(2.857123566 -0.008142663385 0)
(2.857260816 -0.01054849169 0)
(2.857075962 -0.009896412934 0)
(2.857402658 -0.007003316854 0)
(2.857278393 -0.002854337006 0)
(2.856672042 0.0008811717278 0)
(2.855887998 0.003544536422 0)
(2.855397567 0.004452721281 0)
(2.855323624 0.004874104678 0)
(2.85546927 0.005223281819 0)
(2.855841793 0.004996533116 0)
(2.856550933 0.003396904089 0)
(2.857437641 0.0004946043332 0)
(2.858419143 -0.001310855398 0)
(2.859533131 -0.0011543239 0)
(2.860793902 0.0002059462234 0)
(2.862018539 0.002859386978 0)
(2.863054969 0.006524383765 0)
(2.864109183 0.008959785937 0)
(2.864183364 0.008760081714 0)
(2.85543782 0.006758061122 0)
(2.855526174 0.004369695552 0)
(2.855524677 0.003963288679 0)
(2.855411362 0.004446961724 0)
(2.855253806 0.006076650963 0)
(2.855374481 0.008191959677 0)
(2.855628136 0.008922183594 0)
(2.855625209 0.008535897322 0)
(2.855475099 0.008184343482 0)
(2.855316683 0.008053985772 0)
(2.855074547 0.007731107002 0)
(2.854785026 0.007213387614 0)
(2.854243621 0.006004694433 0)
(2.85379768 0.003651608188 0)
(2.853744821 0.0001206950423 0)
(2.853734519 -0.004823835726 0)
(2.853664155 -0.009100434946 0)
(2.853589306 -0.01004059103 0)
(2.853933674 -0.008365706812 0)
(2.85455559 -0.00537442078 0)
(2.854332163 -0.002025105696 0)
(2.853497685 0.0003863563127 0)
(2.85288971 0.001061413584 0)
(2.852520375 0.001882447217 0)
(2.852351098 0.00265890655 0)
(2.852478904 0.002816808863 0)
(2.852859643 0.002534837583 0)
(2.853646697 0.001785550684 0)
(2.85466299 0.0008947475049 0)
(2.855858773 0.000660426094 0)
(2.857310444 0.0007478690146 0)
(2.858770153 0.001268536606 0)
(2.860152713 0.003499580327 0)
(2.861006172 0.006349136497 0)
(2.86074953 0.007355665156 0)
(2.852831676 0.00576159975 0)
(2.852899378 0.003094931869 0)
(2.852973211 0.002258690376 0)
(2.852732056 0.002972583115 0)
(2.852549001 0.005318813184 0)
(2.852545246 0.008175476043 0)
(2.852680475 0.009915692913 0)
(2.852646896 0.01062914552 0)
(2.852466284 0.01092896784 0)
(2.852234682 0.01078198762 0)
(2.851875296 0.009487402389 0)
(2.851552826 0.00773236986 0)
(2.851041248 0.006437691604 0)
(2.850581174 0.005040177684 0)
(2.850586169 0.003489598608 0)
(2.850428625 0.001770277999 0)
(2.850084528 -0.0009985581823 0)
(2.849847346 -0.002962990877 0)
(2.849908002 -0.003535596544 0)
(2.850397627 -0.003815799369 0)
(2.850782155 -0.002914417486 0)
(2.85006186 9.168954298e-05 0)
(2.84899385 0.001089907939 0)
(2.848516437 0.001306091269 0)
(2.848445159 0.00170712814 0)
(2.848704224 0.002349729464 0)
(2.849219777 0.003105304452 0)
(2.850138125 0.003907157394 0)
(2.851126497 0.004021943938 0)
(2.852254168 0.00394732529 0)
(2.853570056 0.003616997153 0)
(2.854941371 0.003206521728 0)
(2.856004545 0.003507167374 0)
(2.856996598 0.005099058498 0)
(2.856862084 0.006938640101 0)
(2.850069933 0.005787164277 0)
(2.850059998 0.004191814721 0)
(2.850068651 0.002819453189 0)
(2.849902966 0.003191131116 0)
(2.84972596 0.005293006817 0)
(2.849562237 0.007977773021 0)
(2.849573163 0.009432937471 0)
(2.849546795 0.01015300527 0)
(2.849312229 0.01026633246 0)
(2.848999352 0.009817429095 0)
(2.84857578 0.008724875238 0)
(2.84826625 0.007143131696 0)
(2.847513215 0.006180369338 0)
(2.846959482 0.005392506686 0)
(2.846635999 0.005251308769 0)
(2.846575518 0.005661035538 0)
(2.846343985 0.005608696713 0)
(2.846273962 0.004916031359 0)
(2.846219454 0.003432128779 0)
(2.84618716 0.001178755 0)
(2.846267304 -0.0007884369465 0)
(2.845950408 -0.0007748171355 0)
(2.845137777 -0.0004521137722 0)
(2.844771971 -0.0008413733211 0)
(2.844866287 -0.0008475522965 0)
(2.845165963 -0.0001890249315 0)
(2.845585198 0.0008471259179 0)
(2.846184716 0.002210429702 0)
(2.84702476 0.003234596153 0)
(2.848050388 0.003819131394 0)
(2.849187959 0.004089805657 0)
(2.850465286 0.003893688028 0)
(2.851753359 0.0032446731 0)
(2.852944319 0.003114529642 0)
(2.852950505 0.004790028405 0)
(2.846751726 0.004978891598 0)
(2.846683187 0.004134825271 0)
(2.846762898 0.002864792081 0)
(2.846826982 0.002262973658 0)
(2.846684436 0.003858213792 0)
(2.846550248 0.005588162257 0)
(2.84638866 0.00673981345 0)
(2.846175783 0.007883147991 0)
(2.845819458 0.008505913174 0)
(2.845465208 0.008739152547 0)
(2.844976111 0.008711896581 0)
(2.84475842 0.008554240591 0)
(2.84390036 0.008226323553 0)
(2.843337054 0.007829221963 0)
(2.84290061 0.008027546466 0)
(2.843085674 0.008929723495 0)
(2.843094241 0.009269285557 0)
(2.843243195 0.008833872696 0)
(2.843335964 0.008361285786 0)
(2.842845377 0.007022298261 0)
(2.842199459 0.004332196009 0)
(2.841623617 0.00195257271 0)
(2.84096378 0.0009847329892 0)
(2.84054228 0.0001787515831 0)
(2.840493792 -0.0004702838013 0)
(2.840845395 -0.00051063083 0)
(2.841320547 0.0004364355957 0)
(2.841874878 0.002069407958 0)
(2.842686195 0.003716951723 0)
(2.843767055 0.005143565876 0)
(2.84478391 0.005910157684 0)
(2.845994792 0.006182144936 0)
(2.847237961 0.005554783554 0)
(2.848364591 0.004524835821 0)
(2.848379947 0.005047965103 0)
(2.843041914 0.006263187193 0)
(2.843086537 0.005904870334 0)
(2.843128676 0.004942173503 0)
(2.842987786 0.003875656779 0)
(2.84269251 0.003852737803 0)
(2.842522201 0.004043626518 0)
(2.842381633 0.004053695428 0)
(2.84221837 0.004493093269 0)
(2.841869613 0.004933959094 0)
(2.841213072 0.005316852026 0)
(2.840607771 0.00658006224 0)
(2.840232347 0.007728381376 0)
(2.839552844 0.007830738472 0)
(2.838905364 0.007841700098 0)
(2.83866043 0.008169012729 0)
(2.83908226 0.008720681537 0)
(2.83927219 0.008595779892 0)
(2.839452234 0.00763611843 0)
(2.839276876 0.007217199952 0)
(2.838771674 0.006351183715 0)
(2.838047613 0.004205716798 0)
(2.837219389 0.001367156325 0)
(2.836468605 3.335653262e-05 0)
(2.835932129 -0.0004289197906 0)
(2.835877362 -0.0009865882859 0)
(2.836317487 -0.001457615444 0)
(2.836970893 -0.001023414709 0)
(2.837589345 -0.0001522112894 0)
(2.838349181 0.001227100811 0)
(2.839193084 0.002967727325 0)
(2.840144384 0.004208201366 0)
(2.841137781 0.00487138893 0)
(2.842218927 0.005153705447 0)
(2.843333469 0.004586718564 0)
(2.843683621 0.004435811303 0)
(2.83841043 0.006236510467 0)
(2.838539256 0.005660621702 0)
(2.838581271 0.004726108054 0)
(2.838584296 0.003653661217 0)
(2.838390396 0.002483487967 0)
(2.838178976 0.001644517555 0)
(2.837990174 0.001254705995 0)
(2.837681586 0.002047221046 0)
(2.837383041 0.003508215929 0)
(2.836743823 0.005239721787 0)
(2.836279288 0.00708321612 0)
(2.83570532 0.008624710193 0)
(2.83529239 0.009049576608 0)
(2.834529918 0.009309242317 0)
(2.834238818 0.009201198855 0)
(2.834541901 0.008613316162 0)
(2.834669758 0.007294394032 0)
(2.834590184 0.005604457565 0)
(2.834344283 0.00560224078 0)
(2.834030691 0.005412524943 0)
(2.83340419 0.003840101061 0)
(2.832491506 0.001992360255 0)
(2.83165874 0.0008948717462 0)
(2.83108654 0.0008170857074 0)
(2.831086856 0.0008920936496 0)
(2.831465448 0.0008143094697 0)
(2.831949444 0.0006844598259 0)
(2.8324554 0.0006078335029 0)
(2.833206489 0.001027943685 0)
(2.834142244 0.002484893808 0)
(2.835137996 0.004269823117 0)
(2.836148429 0.005605605325 0)
(2.837310428 0.006703243152 0)
(2.838452187 0.006945167814 0)
(2.838835614 0.006221343275 0)
(2.833186935 0.007523492125 0)
(2.833338694 0.00720409598 0)
(2.833443107 0.005891082431 0)
(2.833505506 0.004605123884 0)
(2.833378368 0.002960594123 0)
(2.833147666 0.001594728072 0)
(2.832993635 0.001165788654 0)
(2.832766037 0.001608220556 0)
(2.832629922 0.002462252038 0)
(2.832476411 0.003650628069 0)
(2.832100189 0.005302659269 0)
(2.831174221 0.006532722 0)
(2.830618986 0.006981958774 0)
(2.829857077 0.007296833889 0)
(2.829518053 0.007060324797 0)
(2.829509262 0.006268612432 0)
(2.829392572 0.005008311013 0)
(2.829148917 0.003936501454 0)
(2.829032133 0.003390581482 0)
(2.828815896 0.00188980832 0)
(2.828103531 -0.0003594921124 0)
(2.827152519 -0.001596054853 0)
(2.826390179 -0.001613819329 0)
(2.825729604 -0.0006752250031 0)
(2.82576212 0.0005452576983 0)
(2.826138084 0.001225354327 0)
(2.826559249 0.0008823596044 0)
(2.827141258 0.000108671398 0)
(2.827996562 -0.0003160698603 0)
(2.829203141 0.0002369338349 0)
(2.830244836 0.002008094518 0)
(2.831268839 0.003928322395 0)
(2.832354932 0.005694024951 0)
(2.833426328 0.006844733656 0)
(2.833857717 0.006336615921 0)
(2.827461319 0.006386613132 0)
(2.827742893 0.00531377001 0)
(2.827826929 0.003996069667 0)
(2.827767094 0.002912016961 0)
(2.827618265 0.002212569533 0)
(2.827437056 0.001877832131 0)
(2.827425058 0.002415582906 0)
(2.827392391 0.003248327639 0)
(2.827171074 0.004208165095 0)
(2.82695249 0.005106216864 0)
(2.826396728 0.005823570424 0)
(2.825473757 0.006018440435 0)
(2.824759577 0.006376926307 0)
(2.824102385 0.006356254657 0)
(2.823810091 0.005819234238 0)
(2.823667523 0.004915546547 0)
(2.823585059 0.003734129275 0)
(2.823492334 0.002786037267 0)
(2.823375142 0.001858212637 0)
(2.822821998 0.0005605320827 0)
(2.821889592 -0.001571730807 0)
(2.821209958 -0.002780657071 0)
(2.820731418 -0.002221019325 0)
(2.820203893 -0.0004668989733 0)
(2.820436028 0.001540071645 0)
(2.820761186 0.002634634252 0)
(2.821205345 0.002792494966 0)
(2.821757598 0.002099862047 0)
(2.822732945 0.001173902102 0)
(2.823960792 0.0009730485121 0)
(2.825225288 0.002207435635 0)
(2.826482028 0.004522448167 0)
(2.827614991 0.006685378599 0)
(2.828712913 0.008429173464 0)
(2.829145726 0.008124543438 0)
(2.821307871 0.006004611994 0)
(2.821607958 0.004682832311 0)
(2.821717486 0.0035355782 0)
(2.821681006 0.003112129971 0)
(2.82163493 0.003220441529 0)
(2.821601383 0.003949765104 0)
(2.82169029 0.004935431092 0)
(2.821656023 0.005597882293 0)
(2.821287425 0.005532827495 0)
(2.820946601 0.005337293143 0)
(2.820433066 0.004339958143 0)
(2.81978424 0.003161262791 0)
(2.819155779 0.002784453556 0)
(2.81855007 0.002180161227 0)
(2.818157144 0.001837097045 0)
(2.817874682 0.00243542236 0)
(2.817787605 0.002829376513 0)
(2.817768388 0.002244326513 0)
(2.817562276 0.001166990956 0)
(2.816947474 -0.0006524666962 0)
(2.816176438 -0.003403586702 0)
(2.81590284 -0.005311641668 0)
(2.815524901 -0.004668108188 0)
(2.814951492 -0.00244617789 0)
(2.815113847 -0.0003208147519 0)
(2.815342273 0.001132424913 0)
(2.815786925 0.002300964993 0)
(2.816475194 0.002263190947 0)
(2.817402122 0.001640217236 0)
(2.819009465 0.0009440803685 0)
(2.82056821 0.001387838212 0)
(2.821988889 0.003168979109 0)
(2.823348369 0.005313901124 0)
(2.824360292 0.00735728612 0)
(2.824755065 0.007762477403 0)
(2.815139661 0.005732940819 0)
(2.815447691 0.003660531849 0)
(2.815712257 0.002121753929 0)
(2.815808377 0.001209440245 0)
(2.815760081 0.001435754976 0)
(2.815675044 0.002379944093 0)
(2.815710673 0.004269686331 0)
(2.815872177 0.006033055098 0)
(2.815865368 0.007018752531 0)
(2.815528711 0.007536045163 0)
(2.815039536 0.007413345806 0)
(2.814452372 0.005611369118 0)
(2.813649923 0.002543681633 0)
(2.813100683 0.0006294762827 0)
(2.812660432 -0.000127152638 0)
(2.812417323 0.0002425644813 0)
(2.812370035 0.001649330184 0)
(2.812357036 0.002427755293 0)
(2.812281867 0.001649234708 0)
(2.812037194 0.0009085803982 0)
(2.811424178 -5.10334859e-05 0)
(2.810678205 -0.002142871048 0)
(2.810459806 -0.00468105152 0)
(2.810307096 -0.004862722229 0)
(2.809787039 -0.002687706558 0)
(2.809872828 -0.001030809814 0)
(2.810207513 0.0006128227863 0)
(2.810830898 0.002663280075 0)
(2.811740235 0.003487250802 0)
(2.812786664 0.003339928355 0)
(2.814501401 0.002817450948 0)
(2.816408932 0.002665347204 0)
(2.818063608 0.00374953725 0)
(2.819503985 0.005339613789 0)
(2.820652628 0.007193090743 0)
(2.821062141 0.008171656424 0)
(2.809681619 0.004255606718 0)
(2.809853188 0.002993175346 0)
(2.810096409 0.001714115352 0)
(2.810294114 0.001399114925 0)
(2.810365587 0.001922204231 0)
(2.81038009 0.003349456715 0)
(2.810436024 0.00537856897 0)
(2.8105216 0.006855892856 0)
(2.810460077 0.007393233072 0)
(2.810123017 0.007345855091 0)
(2.809583712 0.00716646914 0)
(2.808883923 0.005961748963 0)
(2.807942997 0.003088351468 0)
(2.807464514 -0.0003099787115 0)
(2.807448735 -0.00165920908 0)
(2.807503856 -0.001192844947 0)
(2.807591587 0.0006705265296 0)
(2.807543487 0.002208911937 0)
(2.807361512 0.001914897704 0)
(2.807068707 0.001407409579 0)
(2.806472613 0.0002309935661 0)
(2.805676644 -0.001850647068 0)
(2.805468394 -0.004573309193 0)
(2.805695348 -0.005948042183 0)
(2.80543239 -0.004422187465 0)
(2.805638665 -0.00312781871 0)
(2.805963629 -0.001455582657 0)
(2.806546991 0.0009353874277 0)
(2.807594178 0.002509189257 0)
(2.808864497 0.002787321938 0)
(2.810510665 0.00266083511 0)
(2.812815759 0.002076308747 0)
(2.81496988 0.002249943649 0)
(2.816534547 0.003424976863 0)
(2.817809606 0.004913185325 0)
(2.818259682 0.006546701658 0)
(2.805159129 0.004274013488 0)
(2.805099909 0.003450699045 0)
(2.805305636 0.001661036612 0)
(2.80560961 0.001030187909 0)
(2.805822065 0.001289079762 0)
(2.805905128 0.002151957081 0)
(2.805934741 0.003625984341 0)
(2.805896612 0.004996314347 0)
(2.805764033 0.005811678285 0)
(2.80530653 0.006261155921 0)
(2.804768317 0.006636574294 0)
(2.804015421 0.006576438462 0)
(2.803006374 0.005758881409 0)
(2.802368348 0.003701275823 0)
(2.80270842 0.001303961211 0)
(2.803091394 0.0007043576965 0)
(2.803376662 0.001128251392 0)
(2.803493074 0.001984038047 0)
(2.803244233 0.001703217473 0)
(2.802886647 0.001125627848 0)
(2.802413775 0.000598678476 0)
(2.801685874 -0.0003889293676 0)
(2.801348921 -0.002014506758 0)
(2.801486651 -0.00363026878 0)
(2.80147843 -0.00370138885 0)
(2.801949797 -0.003129051648 0)
(2.802372552 -0.002197417907 0)
(2.80308952 3.003722788e-05 0)
(2.804262935 0.002216016914 0)
(2.806005874 0.002809919564 0)
(2.807616478 0.002972561529 0)
(2.810059885 0.002364141837 0)
(2.812421519 0.001602480892 0)
(2.814180975 0.002258332536 0)
(2.815444641 0.003063209137 0)
(2.816302197 0.00529225616 0)
(2.801581321 0.005275377675 0)
(2.801477044 0.005381080845 0)
(2.801740798 0.00405647491 0)
(2.802099781 0.002659190596 0)
(2.802219485 0.00205985596 0)
(2.802222812 0.002086773774 0)
(2.802174875 0.00266918618 0)
(2.802061332 0.003375547348 0)
(2.801922228 0.00369584292 0)
(2.801429718 0.003761835045 0)
(2.800752657 0.004363917555 0)
(2.799981858 0.005354956748 0)
(2.798947501 0.006731368655 0)
(2.79826443 0.007320563168 0)
(2.798455057 0.005468488089 0)
(2.799236762 0.003308512183 0)
(2.799734494 0.002037011968 0)
(2.800151456 0.001904518188 0)
(2.800027355 0.001704788626 0)
(2.799709442 0.001093878135 0)
(2.799326498 0.0003591946942 0)
(2.798674925 -0.0004425987055 0)
(2.798204156 -0.000855100003 0)
(2.798199597 -0.001438473466 0)
(2.798374084 -0.001935462061 0)
(2.799058803 -0.002513196144 0)
(2.799879622 -0.002680204298 0)
(2.800898098 -0.00151720438 0)
(2.802023813 0.000573950164 0)
(2.80413386 0.001130066298 0)
(2.805871965 0.001162611165 0)
(2.808282446 0.0005253727232 0)
(2.810868044 -0.0005377566447 0)
(2.812924843 -7.859186485e-05 0)
(2.814211961 0.0005760647745 0)
(2.815400291 0.003358357936 0)
(2.799390033 0.0073813446 0)
(2.799076495 0.007600818485 0)
(2.799115328 0.006317596189 0)
(2.799517964 0.003737648895 0)
(2.799756649 0.001798511162 0)
(2.799938252 0.0004508502917 0)