/*--------------------------------*- C++ -*----------------------------------*\
  =========                 |
  \\      /  F ield         | OpenFOAM: The Open Source CFD Toolbox
   \\    /   O peration     | Website:  https://openfoam.org
    \\  /    A nd           | Version:  7
     \\/     M anipulation  |
\*---------------------------------------------------------------------------*/
FoamFile
{
    version     2.0;
    format      ascii;
    class       volScalarField;
    location    "0.4";
    object      p;
}
// * * * * * * * * * * * * * * * * * * * * * * * * * * * * * * * * * * * * * //

dimensions      [1 -1 -2 0 0 0 0];

internalField   nonuniform List<scalar> 
2222
(
0.945994354
0.9896437862
0.9860294958
0.9808057713
0.9768042553
0.9750166424
0.9744039146
0.9732423575
0.9723388145
0.9712000259
0.9699787098
0.9680579085
0.9651129195
0.9617571814
0.9586607346
0.9558067825
0.9531435515
0.9515118648
0.9506971574
0.9507778394
0.9509341326
0.9508067542
0.951263843
0.9502973537
0.948251576
0.9468467563
0.9466288526
0.9473760278
0.9984930383
0.997047296
0.99555042
0.9958529798
0.9954516507
0.9943469557
0.9934508676
0.9917638952
0.9889985007
0.9846851827
0.9807875132
0.9781143101
0.9762727815
0.9743406282
0.9727570097
0.9712044168
0.9697069617
0.9672991233
0.9640633465
0.959804686
0.9567465116
0.9547358657
0.9532620456
0.9516328094
0.950554602
0.9502850157
0.9516385085
0.9531495495
0.9525461301
0.9508952962
0.9492503082
0.948356308
0.9483344249
0.9483248393
0.9985409671
0.9967403209
0.9952382334
0.9959481988
0.996024704
0.9963044962
0.9957362987
0.9940776594
0.9907714211
0.9873163875
0.9828703983
0.9790415565
0.9761464331
0.9740139565
0.9722367232
0.9705031446
0.9687670665
0.9659253723
0.9623595327
0.9589008562
0.9557689693
0.9540853895
0.9533683354
0.9524496731
0.9520467035
0.9524553301
0.9546467049
0.9544183788
0.952697231
0.9508896896
0.9501654694
0.9496767665
0.949200674
0.9483373261
0.9983131168
0.9966427263
0.9956887822
0.9966210653
0.9971670492
0.9975840301
0.9967429568
0.9944074261
0.9911036615
0.9875862381
0.9834148526
0.9792208908
0.9754902178
0.9731770852
0.9714241696
0.9697195677
0.9676793993
0.9648833872
0.9614488857
0.9588109482
0.9570071493
0.9560950864
0.9562386212
0.9563677699
0.9558668997
0.9557593797
0.9560403691
0.9540932579
0.9523678242
0.9506943287
0.9500396017
0.9493412973
0.9485645618
0.947840394
0.9981142534
0.9966183809
0.9963026803
0.9975369198
0.9980117122
0.9971184549
0.9959345195
0.9935318934
0.9903927166
0.9873758305
0.9839124214
0.9789725904
0.9747122471
0.9720675938
0.9704085688
0.9691337826
0.9670007999
0.9639823991
0.9609618279
0.9590647196
0.9589190881
0.9595408847
0.9592287363
0.9589020482
0.9582138084
0.9572122406
0.9554691114
0.9535884855
0.9517921703
0.9507761629
0.9497231107
0.9486736242
0.9475612258
0.9468510706
0.9985370687
0.9975050864
0.9968696061
0.9979449103
0.9976849378
0.9962561233
0.9947008168
0.9921847583
0.9892759023
0.9864138283
0.9833885009
0.9786189724
0.9739017577
0.9707688001
0.9690792779
0.9680820831
0.9665731714
0.9637970568
0.9619053144
0.9615366522
0.9621704438
0.9617170889
0.95986641
0.9588784896
0.9582894271
0.9569649904
0.954538582
0.9532487834
0.9512377639
0.9510006112
0.9497516874
0.9485350955
0.9466661836
0.9460593907
0.9990273726
0.9978280097
0.9972882443
0.9971571004
0.9968785661
0.9962614735
0.9939886201
0.9914351592
0.9883067957
0.9858186513
0.9827663848
0.9782549289
0.974607544
0.9711855608
0.9687427656
0.9673297825
0.96617933
0.9651364224
0.9647814869
0.9645918708
0.963124604
0.9614909118
0.9599602458
0.9585047539
0.9577887881
0.9561693085
0.9540737956
0.9523901512
0.9511641735
0.9501405826
0.9492871401
0.9483035986
0.9467616863
0.9465289081
0.9974946941
0.9966956072
0.996779647
0.9967353504
0.9962364179
0.9943971848
0.9917943228
0.9886971394
0.9867823618
0.9824869264
0.9773432403
0.9733569466
0.9707202435
0.9688541641
0.9678906897
0.9677615646
0.9681006004
0.9668584691
0.9650546488
0.9628663374
0.9606077079
0.959130651
0.9578107337
0.9565047084
0.9552966586
0.9536205953
0.951778549
0.9508489953
0.9493788655
0.9488865241
0.9483942918
0.9477757791
0.9476782244
0.9973319153
0.9964334845
0.9975200755
0.9973677536
0.9961236676
0.9944157547
0.9922676112
0.991185825
0.9888352865
0.982566862
0.975777817
0.9723352076
0.9704015391
0.9695464523
0.9695329432
0.9696313841
0.9689493437
0.9669263173
0.9643464947
0.9619054672
0.9593117334
0.9581215373
0.9569104481
0.9558830923
0.9548613483
0.9537313263
0.9518274548
0.9504188649
0.9501663037
0.9495384331
0.949871369
0.9489492198
0.9480600618
0.947139485
0.9976367786
0.9976296581
0.998563227
0.9985136515
0.9977532659
0.9967636174
0.996037504
0.9946554516
0.9898652651
0.9822759914
0.9757206343
0.9723442138
0.9713724145
0.9710864278
0.9704492602
0.9697037811
0.9683644935
0.9661019827
0.9633912094
0.9603683726
0.9579952113
0.9570646193
0.9566168264
0.9560159743
0.95525828
0.9543766646
0.9528981669
0.9515919949
0.9513045176
0.951288201
0.9507929887
0.9490630164
0.9476896572
0.9469838682
0.9983698147
0.9991182093
1.000471445
1.001257847
1.001025833
1.000191435
0.9987483661
0.9952710005
0.9896218396
0.9819401436
0.9767012349
0.9742172831
0.9734325869
0.9717697001
0.9701344085
0.9689824272
0.9675343182
0.9650491268
0.9622531881
0.9587062366
0.957828944
0.9574815787
0.9576557585
0.9575015086
0.9565640684
0.9555259562
0.9547485819
0.9530947107
0.9526971046
0.9520203648
0.9502633142
0.9489316848
0.9474537374
0.9472187934
0.9992796763
0.9996293942
1.000891053
1.001804013
1.001686495
1.000806284
0.9986518492
0.9948410965
0.9888884891
0.9828388429
0.9800706337
0.9772405185
0.9739886535
0.9715438142
0.9695415614
0.9681273569
0.9666064967
0.9635520298
0.9604229539
0.9585108124
0.9575337333
0.9585120871
0.9594994396
0.9586007514
0.9575632308
0.9568241905
0.9566020121
0.9544604322
0.9533659835
0.951398154
0.949408219
0.9483379283
0.9475097829
0.9477615637
0.9990839135
0.9992503777
1.000386791
1.001174014
1.001044813
1.000133216
0.9978673411
0.9941233358
0.987957174
0.9847626126
0.9834722531
0.9792490028
0.9737651711
0.9706507656
0.9689327011
0.9671109055
0.9653097146
0.9633548979
0.9597667691
0.9586451729
0.9594747427
0.9607015959
0.9598697298
0.9583786123
0.957734454
0.9573750015
0.9572949958
0.9553965873
0.9532147316
0.9502527359
0.9489053003
0.947930695
0.9478829437
0.9486926305
0.9983238729
0.9984811051
0.9996220388
1.000325421
1.000138517
0.9991585668
0.9967370236
0.9920827647
0.9874486879
0.9866028542
0.9842653239
0.9794209368
0.9738063288
0.9696165695
0.9677273427
0.9664572237
0.9648337276
0.9631293247
0.9615411922
0.9613756211
0.9622374905
0.9612390921
0.9591700885
0.957795593
0.9573775482
0.9573638024
0.9569520599
0.955830421
0.9525317669
0.9500656766
0.9487092569
0.9482935729
0.9486831435
0.9487160249
0.9973229754
0.9973477444
0.9985873537
0.9993952032
0.9991958757
0.9980283493
0.9951273943
0.9909015718
0.9885005117
0.9876507494
0.9838913916
0.9788513542
0.9739213879
0.9701671291
0.9674728196
0.9660265538
0.9654403075
0.9651942931
0.9652774294
0.9648660236
0.9628434502
0.960650406
0.9582555125
0.9573596978
0.9570924339
0.9571685449
0.9564085705
0.9553385176
0.9523890756
0.9501214402
0.9490168697
0.9494741182
0.9490733473
0.9480888479
0.9965285253
0.9980296418
0.9991935256
0.9990191127
0.9978489049
0.9948274385
0.9914640519
0.9905042192
0.9882503621
0.9831016792
0.9775838442
0.9730551217
0.9704811877
0.9687063919
0.9678123102
0.9678545042
0.9691677675
0.968716869
0.9654820619
0.9623074932
0.9595832776
0.9575864048
0.9572466856
0.9572851063
0.9570737254
0.9558585385
0.954521483
0.9524686056
0.9505797602
0.9503824587
0.9502294352
0.9486940741
0.9471032619
0.9963596079
0.9978893349
0.9990002728
0.9988024822
0.9976632839
0.994886075
0.9937879948
0.9921536872
0.9879278459
0.9819160235
0.9756119362
0.9723434302
0.9707473607
0.970526784
0.9708503087
0.9712345943
0.9708524143
0.9689142185
0.9654691078
0.9612896269
0.9584097773
0.9571912809
0.9574164562
0.9574212753
0.9569682342
0.9554064921
0.9542624385
0.9530956329
0.9526833998
0.9516356705
0.9499629898
0.9478632165
0.9464662705
0.9967913457
0.998343571
0.9998366525
0.999690157
0.9986742205
0.9966097368
0.995734126
0.9923599957
0.9872724472
0.9801432139
0.9747582946
0.9721512217
0.9725154602
0.9731778657
0.9729092191
0.9719028062
0.9705819635
0.9684497631
0.9647335218
0.9607911055
0.9584239927
0.9577242689
0.9577808583
0.9574487451
0.9566635794
0.9554267269
0.9548797348
0.9546213996
0.953641417
0.9517490933
0.9495224477
0.9474760108
0.9465115208
0.9971869193
0.998545465
1.000412307
1.000346163
0.9996242484
0.9979911867
0.9957995308
0.9924162891
0.9862558787
0.9795767486
0.9748249386
0.9737263404
0.9739935618
0.9731889063
0.972759897
0.9716028203
0.9699353047
0.9673072095
0.9634057064
0.9603261775
0.9589722151
0.9585812462
0.9577441946
0.956914435
0.9564130678
0.9559163775
0.9556313468
0.9549360595
0.9533230163
0.9514226374
0.9494764451
0.9479614326
0.9474196619
0.9970618889
0.9982728868
1.000294966
1.000298166
0.9997306319
0.9979553894
0.9957379719
0.9921288065
0.9866441424
0.9808195642
0.9776755064
0.9754401448
0.9728534496
0.972361503
0.9722533043
0.9710046485
0.9687849255
0.965966206
0.9625131167
0.960342575
0.9594074212
0.9583695623
0.9572538723
0.9563718732
0.9557893052
0.9559613492
0.9556330109
0.9546596661
0.9526940002
0.9508473059
0.9495432345
0.9486404899
0.9482331911
0.9968276609
0.9979724447
1.000210612
1.00025015
0.999715147
0.997868236
0.9958564408
0.9918457475
0.9873488933
0.9845395468
0.9816075107
0.9761154663
0.9721378796
0.9710938146
0.9710464912
0.9696815247
0.9676242652
0.965039824
0.9627484392
0.961101216
0.959524227
0.9580309535
0.9566534576
0.955830248
0.9553787242
0.9555303222
0.9553541451
0.9541404345
0.9523701555
0.9501298832
0.9492065174
0.9488532648
0.9482736325
0.9967398609
0.9978945299
1.000652991
1.000967929
1.000590819
0.998756506
0.9960988704
0.9925208849
0.9904582266
0.988373191
0.9834234766
0.9767026752
0.9719391681
0.9699953449
0.9693291686
0.9680502624
0.9666605475
0.9650229503
0.9629178261
0.9610825886
0.9595885031
0.9581444909
0.9567502914
0.9559559501
0.9554022967
0.9552639991
0.9549516188
0.9536630992
0.9518101244
0.9494420673
0.9488169
0.9485019357
0.9479925687
0.9965508128
0.9978881612
1.001003557
1.001555685
1.001302539
0.9995289602
0.9973195218
0.9945188527
0.9923478084
0.9888404002
0.9837811463
0.9772264694
0.9709398861
0.9683078674
0.9677806186
0.9668371119
0.9658468113
0.9646523513
0.9626495249
0.9607027019
0.9590337373
0.9577129096
0.9566954298
0.9564540724
0.956233743
0.9557266644
0.9547699536
0.9531748991
0.9509368167
0.949592137
0.9485133022
0.9481325364
0.9477703435
0.9977224788
1.000927108
1.001373007
1.001068381
0.9995628732
0.9976839715
0.9951540581
0.9919530003
0.9886666285
0.9834963277
0.9768972773
0.9722712806
0.9688712876
0.9673937023
0.9665340873
0.9656120816
0.9644788981
0.962444718
0.960167492
0.958581984
0.9575339218
0.9575579326
0.958252741
0.9578409392
0.9565739896
0.9548873437
0.9527478836
0.9504239011
0.9492416344
0.9487199467
0.9482428106
0.9480780769
0.9970875364
1.000325518
1.000934134
1.000696558
0.9991323866
0.9972505385
0.9946719804
0.9912571912
0.9873864709
0.9818875719
0.9761113732
0.9718946555
0.9696516186
0.9679969791
0.9671910718
0.9665265155
0.965492577
0.9628820292
0.9601708462
0.958981449
0.9590403339
0.9596638673
0.9595755987
0.9585243649
0.9570706893
0.9552866495
0.9527896188
0.9505618341
0.9491773241
0.9489466008
0.9490775334
0.9489809714
0.9486501856
0.9963392901
0.9997413091
1.000548919
1.000376503
0.9987366581
0.9967314439
0.9941799314
0.9906971924
0.9859120218
0.9794963204
0.9746997467
0.9720370413
0.9703745896
0.9691833363
0.9692459403
0.9687267659
0.9672250478
0.9638772254
0.9614975238
0.9609967501
0.9610326785
0.9603571896
0.9595369431
0.9584594194
0.9570328389
0.9553098717
0.9531212337
0.9512485578
0.9506054926
0.9505577109
0.9502115164
0.9491975936
0.9486650233
0.9954343573
0.9989804057
1.000074348
0.9999725299
0.9983526886
0.9963589602
0.9938442538
0.9900537451
0.9844499352
0.9783644142
0.9744518095
0.97326313
0.9726662404
0.9717651056
0.9715524018
0.9705177941
0.9688940074
0.9657922712
0.9637226726
0.9626453219
0.9613367518
0.9603390497
0.9591437609
0.9580989908
0.9567263997
0.9552647808
0.9534096517
0.952924764
0.9529415345
0.9519170028
0.9503415527
0.9492343013
0.948695468
0.9949953082
0.9988320901
1.000260217
1.000268872
0.9986687045
0.9966703568
0.9940356987
0.9902269204
0.984489721
0.9785650704
0.9750320042
0.9762278175
0.9747598014
0.9728231443
0.971594693
0.9704608105
0.9688296487
0.9668527482
0.9645068839
0.9628272577
0.9612838256
0.9602580973
0.9589986694
0.9575796757
0.9562890122
0.9551221859
0.9546742843
0.9549660074
0.9538222238
0.9522228779
0.9502485169
0.9492882294
0.9483519955
0.9949554613
0.9988716086
1.000660038
1.000781926
0.9993337403
0.9974523286
0.9948030853
0.9909875206
0.9861092134
0.9812324787
0.978997214
0.9766284629
0.9743120726
0.9725519236
0.9712929134
0.9704030457
0.9688628275
0.967091371
0.9650273652
0.9628176959
0.9614739315
0.9595728642
0.9578420431
0.9560728929
0.9556834097
0.9554084439
0.9560661295
0.955407009
0.9538039489
0.9520832833
0.9503667867
0.9487612003
0.9477353697
0.9952466434
0.9990439657
1.001168397
1.001466472
1.00023405
0.9984638777
0.995663771
0.9919031236
0.988922989
0.9864171249
0.9818038908
0.97719089
0.9738979337
0.9721292978
0.9713061934
0.9705466332
0.9690844137
0.9672535038
0.9656771112
0.9631987395
0.9604465817
0.9578991984
0.9561434474
0.954896101
0.9552904528
0.956136085
0.9564516266
0.9556729299
0.9541117472
0.9517584185
0.9493393164
0.9477751532
0.9469633914
0.9947502063
0.998360154
1.001050658
1.00156832
1.00055457
0.9989417544
0.9967326453
0.994116229
0.9921897404
0.9888493772
0.9835177723
0.9779159186
0.9739329352
0.971749711
0.9704405089
0.9694920039
0.9684470725
0.966622012
0.9646401912
0.9615431678
0.9581236768
0.9560505944
0.9552636055
0.9548556082
0.9558860718
0.9564918256
0.9566977708
0.955683217
0.9535140687
0.9502492986
0.9479113715
0.9469372205
0.9466153456
0.9978962548
1.000592942
1.001265261
1.000475056
0.9989130829
0.996995128
0.994767236
0.9930022486
0.9899698773
0.9848839845
0.9780303031
0.9734820345
0.9706559093
0.9690884367
0.9682173638
0.9672299159
0.9654442139
0.9627376561
0.9588358614
0.9564159337
0.9555614646
0.9552162658
0.9552224624
0.9570288018
0.9572971342
0.9568965942
0.9552640409
0.9516275912
0.9484000622
0.9473346139
0.9468500504
0.9470988379
0.9975943075
1.000435089
1.00107723
1.000331827
0.9988250367
0.9969281682
0.9949646296
0.992806499
0.9898769831
0.9848507456
0.9781277468
0.9727420428
0.968811669
0.9671712355
0.9663143101
0.9656345535
0.9638247455
0.9606661202
0.9578343983
0.9564171745
0.9559719404
0.9558708236
0.9563033651
0.9578246219
0.9578602181
0.9567285091
0.9536363401
0.9498110304
0.9482511263
0.9475593108
0.9474330106
0.9479102821
0.9963843277
0.9997501334
1.000520605
0.9999551882
0.9985125468
0.9968472367
0.9949550515
0.9923276108
0.9883801759
0.9837644048
0.9781087697
0.9717712284
0.96762305
0.9661055275
0.965387102
0.9649204372
0.9634367849
0.9608541522
0.9585293835
0.9572334194
0.956741241
0.9568353357
0.9575683231
0.9584810532
0.9577238175
0.9553885077
0.9521044773
0.9499659771
0.9488613652
0.9481987992
0.9484423873
0.9486971341
0.9953624687
0.9990797824
1.000207949
0.9997881255
0.9983436249
0.9968275085
0.9947112138
0.9914165551
0.9871916839
0.9830226671
0.9770265858
0.970913921
0.9674688069
0.9662026675
0.9656630033
0.965282377
0.9642436757
0.961859337
0.9596396653
0.9585973474
0.9579503923
0.958454389
0.9584173029
0.9585889159
0.9568637343
0.9541522405
0.9520837554
0.9504923664
0.9496216269
0.9494722187
0.9497811038
0.9495129863
0.9948030545
0.9986761012
1.000139187
0.9999880683
0.9986968523
0.9969320072
0.9942223786
0.9907610517
0.9875816575
0.983078782
0.9757842795
0.9705802734
0.9682159111
0.9671441103
0.9666149891
0.9660861844
0.9650702971
0.9631519971
0.9616500286
0.9608262731
0.9598982852
0.9592189403
0.9586641994
0.9577776459
0.9557487487
0.9543245405
0.9526232835
0.9511147695
0.9509538801
0.9513311578
0.9505728441
0.9498819539
0.9946063195
0.9986553625
1.000231983
1.000301926
0.9990030952
0.9966267735
0.9938284091
0.9916367284
0.9890602402
0.9833780032
0.9744424462
0.9709026966
0.9691581973
0.96819705
0.9676879805
0.9670688885
0.9661687309
0.9650364352
0.9638902627
0.9623910558
0.960600721
0.959477147
0.9578692937
0.9564946494
0.955674368
0.9545896543
0.95356066
0.9529651009
0.9530893626
0.9520604943
0.950868714
0.9497280268
0.9949618179
0.9991360582
1.00042329
1.000236402
0.998811171
0.9962735378
0.9943748897
0.9927300532
0.9903364368
0.983205351
0.9749396071
0.9716223824
0.9700558132
0.9692915252
0.9688799798
0.9682058854
0.9673585292
0.9659761165
0.9640803595
0.9622611519
0.9606289185
0.9585405553
0.9564574185
0.9563527515
0.9558597151
0.9554191851
0.9553770102
0.9545983214
0.9536544892
0.9520437737
0.9501175385
0.9486679492
0.9952497516
0.9991738405
1.000110092
0.9999004536
0.9986778536
0.9965205821
0.994859738
0.9939869242
0.990574008
0.9830056521
0.9758477484
0.9724273913
0.9715829373
0.9705671716
0.9696354834
0.9684937884
0.9674183565
0.9658851854
0.9638925032
0.9616676376
0.9592490858
0.9572921922
0.9566181781
0.9562625263
0.9564509826
0.9567131046
0.9563980643
0.9547942956
0.9534679198
0.9511144979
0.9483397755
0.9472614915
0.9944353173
0.9977788212
0.9993952149
0.9997411601
0.9987403443
0.9970269835
0.9956522434
0.9941468225
0.9904574301
0.9841272287
0.9787189706
0.9748768145
0.9740241585
0.9713177492
0.9695260256
0.9679786965
0.9664518316
0.9650154427
0.9626731778
0.9599338019
0.9581420061
0.9573435162
0.9570629631
0.9566856756
0.9571267886
0.9569413367
0.9562322772
0.9547623142
0.9520215384
0.9491474094
0.9476842833
0.9470137089
0.9968926995
0.9988827911
0.9992996806
0.9987703935
0.9975826006
0.9959001464
0.9937677396
0.9909560845
0.9872580052
0.9822444197
0.9767283353
0.9715868466
0.9677589427
0.9663647006
0.9657361047
0.9653047187
0.9641505727
0.9622024594
0.9604822423
0.9594296181
0.9585874076
0.9578704624
0.9566961307
0.9557935601
0.9549217113
0.9538096764
0.9524523864
0.950720771
0.9494979557
0.948731499
0.9481796523
0.998029728
0.9976528123
0.9977688103
0.9978063818
0.9973022981
0.9962986182
0.9946686839
0.9922481918
0.9884372247
0.9831159136
0.9774529335
0.9727120701
0.96879151
0.9669672191
0.966285899
0.9655969716
0.9641803161
0.9622980448
0.9607081901
0.9594510723
0.9582133058
0.9569819873
0.9560617691
0.9552793691
0.9545260369
0.9536562354
0.9524958321
0.951069269
0.9497872909
0.94905854
0.9484477234
0.9976264774
0.9966656244
0.9971720444
0.9978932929
0.9977910104
0.9967935177
0.9949417333
0.9927993776
0.9898331946
0.9848008858
0.9783890209
0.972994215
0.9692720888
0.9671669589
0.9663904375
0.9654711605
0.9636594719
0.9615502241
0.960494587
0.9596090709
0.9583795208
0.9570950636
0.9559575354
0.9550622762
0.9542795503
0.9533736293
0.9522693421
0.9510140183
0.9498734015
0.9490792426
0.948362282
0.9905365499
0.9936868847
0.9972749607
0.9983734624
0.9980198264
0.9964516803
0.9938216942
0.9914779863
0.9884477608
0.9839434026
0.9787125133
0.9740766733
0.9702629524
0.9675469581
0.9659034795
0.9642672871
0.9623479725
0.9605487669
0.9597441002
0.9588686133
0.9578085709
0.9568960712
0.9562024869
0.9556834827
0.9550803546
0.9541546324
0.9528468333
0.9513311111
0.9500059942
0.9490849631
0.9482435943
0.9799556602
0.9983473015
0.9981458073
0.995786325
0.9951545625
0.9924090464
0.9894178616
0.9883988317
0.9865597783
0.9829972099
0.9786784509
0.9750964222
0.9720236856
0.9685959999
0.9655130659
0.9629445604
0.9608656731
0.9599261816
0.9593378571
0.9585096511
0.9575281462
0.956635082
0.955922076
0.9553996341
0.9548786796
0.9540974976
0.9528991195
0.9514638411
0.9501412489
0.9491085074
0.9481108603
0.9663650388
0.9893461424
0.9804683434
0.9870957213
0.989849479
0.9878623321
0.9867018509
0.987268956
0.9863871827
0.9831163454
0.9793228828
0.9761186246
0.9730771695
0.9696177889
0.9659918611
0.9631683847
0.9607267209
0.9594832592
0.9587225058
0.9579522424
0.9572837312
0.956572545
0.955925806
0.9553706406
0.9549043314
0.9541753584
0.952938046
0.9513139578
0.9498298969
0.9486977682
0.9476931317
0.8162790652
0.9008486637
0.9415037919
0.9882457156
0.9917378049
0.9932084701
0.9926064777
0.9910163526
0.9873870506
0.9831210566
0.9784188831
0.974694081
0.9718255282
0.9693033014
0.9668571247
0.9644002378
0.9617642167
0.9596270986
0.9581146054
0.9568416103
0.9558420679
0.95524211
0.9550110982
0.9548213478
0.9546598501
0.9540996183
0.9529003556
0.9512383159
0.9496698683
0.9485607409
0.9475961941
0.6278013679
0.7459463032
0.8774311049
0.9607958666
0.9745358733
0.9895670585
0.9939622259
0.9911184317
0.9847423432
0.9794577575
0.974050849
0.9707136803
0.9696798177
0.9691975066
0.968131163
0.9661813699
0.9630361059
0.9596398518
0.9574132494
0.9556397946
0.9540053118
0.95327021
0.9532228047
0.9533824178
0.9537365867
0.9535984667
0.9526882172
0.9510596217
0.949513231
0.9485652876
0.9479172458
0.5526676006
0.5914084154
0.6746498728
0.7880929117
0.8705606599
0.9612326429
0.9812035295
0.9732841475
0.9756032649
0.9746743147
0.9711216123
0.9694741232
0.970379044
0.9710457771
0.969741899
0.9673274124
0.9639237264
0.9600343883
0.9574627958
0.9557047266
0.9539566588
0.9530139561
0.9527858463
0.9528121784
0.9530121566
0.953005629
0.9519426691
0.95005573
0.9489339246
0.9484322227
0.9480877293
0.5440537533
0.5468203016
0.5630670575
0.6139521818
0.7266810028
0.85310463
0.9178596038
0.9439819152
0.9773310624
0.9771232309
0.9755294295
0.9755888722
0.9757225344
0.9731512223
0.9696127684
0.9661137281
0.9634339967
0.9608522983
0.9589795849
0.957451955
0.9559297537
0.9550418091
0.9547709027
0.9544793484
0.9537188079
0.95247195
0.9506268201
0.9489740916
0.9482282503
0.9480031087
0.9480395568
0.5440936007
0.5441797629
0.5448432784
0.5501294603
0.5809455178
0.6519597559
0.7735450782
0.8897512602
0.9619006922
0.9630778117
0.9678454214
0.9742430261
0.9737346131
0.9691282545
0.9663477511
0.9649475705
0.9649404015
0.9640482473
0.9623191391
0.9608638395
0.9593294205
0.9580408949
0.9570725563
0.9558035697
0.9540875059
0.9520459201
0.9495266839
0.9484164453
0.9482758682
0.9481985703
0.9481444308
0.546231417
0.546092553
0.5460607984
0.5457389993
0.5470271401
0.557759108
0.6049780773
0.6946513832
0.8096457981
0.8751301262
0.9283789055
0.966173742
0.9569866664
0.9584799449
0.962401028
0.9663815816
0.9666106028
0.9649877312
0.9626431971
0.9609102193
0.9594258581
0.9583795012
0.9571349356
0.9556239803
0.9538560515
0.9516865553
0.9500090572
0.9485048644
0.9481201807
0.9480946372
0.9481109493
0.5495985537
0.5497839479
0.5487495992
0.5474531361
0.545810379
0.5454022757
0.549010806
0.5702449147
0.6274961062
0.7443743329
0.8420850962
0.9101740374
0.9263179464
0.9555938325
0.9656050048
0.9656590641
0.9657713429
0.9618057467
0.9565849932
0.9557249774
0.9552332258
0.9543144511
0.9531618157
0.9528642643
0.9529592665
0.9523356798
0.9507441133
0.9486418249
0.9477425175
0.9476534995
0.9478047677
0.5538331506
0.5525042337
0.5498950489
0.5481860664
0.5476410041
0.5469279845
0.5465760254
0.547174267
0.5530895127
0.5864037413
0.6583578945
0.7620209093
0.8655247626
0.9435439801
0.9513185962
0.9548804455
0.9574355181
0.9504887119
0.9484883607
0.9510395174
0.9528680822
0.9522366448
0.9518507803
0.9528564362
0.9542170902
0.9532025525
0.9512461509
0.9483521601
0.9471316466
0.9469032286
0.9470727351
0.5654091724
0.5609291625
0.5553607652
0.5497209194
0.5491287626
0.5484365533
0.5473890762
0.5475643975
0.5460799327
0.5468625103
0.5569149608
0.5981750406
0.6869581348
0.8034150336
0.8616082787
0.9109017825
0.9489007619
0.9474207318
0.9515580582
0.9564591617
0.9555955313
0.9553980965
0.9560423846
0.9580690347
0.9566133142
0.9537019587
0.9498821397
0.9480385085
0.9471563776
0.9474215932
0.9472928734
0.5813296095
0.576290311
0.5720472579
0.5633340434
0.5564095655
0.551689539
0.547515168
0.5472915362
0.5470552703
0.545082007
0.5427931956
0.5457041878
0.5666011701
0.6181839595
0.7255105238
0.8366516307
0.9201214473
0.9412822025
0.9590779432
0.9605193342
0.958231525
0.9603331136
0.9617763185
0.9610775375
0.9572582507
0.9510157737
0.9482731304
0.9484148659
0.9487296512
0.9480801972
0.9471065426
0.5948469468
0.5842232673
0.5831238978
0.5782431156
0.5697911903
0.5649053449
0.5572471834
0.5513040918
0.5482280346
0.5448772776
0.5415525849
0.5414735816
0.5417465061
0.5466066101
0.5780929956
0.6424726911
0.7421361927
0.8470734437
0.9351059277
0.9417639677
0.9480659557
0.9554164211
0.9595134101
0.95609933
0.9499249575
0.9483652047
0.9500733693
0.9513643003
0.9501256171
0.9480668683
0.9468851047
0.6246229307
0.6057765206
0.5981023267
0.5924233446
0.5822537673
0.5784248183
0.5747723931
0.5666485096
0.5582774385
0.5515082494
0.5438955955
0.5419749652
0.541673061
0.5393804778
0.5398485372
0.5491821986
0.5914578168
0.6853054906
0.7956576206
0.8544629387
0.9014730159
0.9354133695
0.9386974344
0.9374944828
0.9431040764
0.9514858662
0.9555341163
0.9527930358
0.9495820173
0.9472454823
0.9475657178
0.6488291721
0.6343839932
0.6191624502
0.6122247153
0.6002773132
0.5888114669
0.5851332082
0.5773786238
0.5693995632
0.5653122295
0.5593710289
0.5522112563
0.5467661131
0.5410246136
0.5383337046
0.5384080434
0.5416313853
0.5611593922
0.6121679872
0.7174182565
0.825431867
0.8858234655
0.9116018678
0.9277917205
0.9542197687
0.9582414161
0.9546543341
0.9470290354
0.9464849749
0.9477811929
0.9495732881
0.6671640235
0.6552414017
0.6374290347
0.6325644395
0.6262265589
0.6107255087
0.5989651541
0.5887377381
0.5763978129
0.5737069965
0.5707842804
0.5632876448
0.5582836888
0.5532274835
0.5443589964
0.540578282
0.5407691319
0.5404614015
0.5444437561
0.5715681048
0.6337449577
0.7308691089
0.8443832128
0.9107132425
0.9425580179
0.9510838061
0.9370385387
0.93837521
0.9443304702
0.9511385805
0.9505570952
0.6924337887
0.6834614115
0.663680149
0.6520519209
0.6464360393
0.6326868752
0.6192258281
0.6126157164
0.6005224395
0.5873282271
0.5795446758
0.5693483126
0.5642822373
0.5624800819
0.5569573865
0.5502669529
0.5481423209
0.5452023935
0.5401390923
0.5404997234
0.5486662194
0.5839248854
0.6528631699
0.754655292
0.8388860436
0.8943615842
0.9132789991
0.9403684065
0.9525368447
0.9519607758
0.9471581414
0.7170559235
0.7088480703
0.6931377573
0.6731380565
0.6636002822
0.6502782139
0.633426052
0.6298368931
0.6240021495
0.6097959856
0.5992700786
0.5888618571
0.5753326481
0.5700575782
0.5651515921
0.5565973026
0.5547949076
0.5531865029
0.5474244955
0.5435335162
0.5414734538
0.5424092318
0.5519736631
0.5960243348
0.6784100074
0.7837960097
0.8823720397
0.929856709
0.9451863961
0.9376451205
0.936005917
0.7408490254
0.7309382537
0.7206505564
0.7004166531
0.6887717706
0.6794218949
0.659386327
0.6459698482
0.6381404115
0.623990829
0.6137951953
0.608985877
0.5994419096
0.58869147
0.5817024142
0.5697453188
0.5612834856
0.55933169
0.554776033
0.5479090099
0.5458447235
0.545308329
0.5413406392
0.5431675421
0.559745545
0.6110169893
0.7088494743
0.8032494851
0.873371185
0.8965688195
0.9320914879
0.7744768797
0.7571661457
0.7462217639
0.7245998488
0.7077913092
0.7012553546
0.6876459349
0.669281196
0.6590558043
0.6447983986
0.6253650255
0.6210203157
0.6145533227
0.6038648622
0.5986150472
0.5920531861
0.5815663083
0.5739292291
0.5663542236
0.5533867639
0.5498744842
0.5495171082
0.5450772774
0.5421976934
0.5418074152
0.5455413496
0.5709127317
0.6348278566
0.7322173793
0.8367396677
0.9148340328
0.8075005323
0.7832131959
0.7723063749
0.7558065171
0.7314426001
0.720694991
0.7087977639
0.6893868085
0.6800196926
0.6714614384
0.653029603
0.6394569253
0.6308236306
0.6166137042
0.6086686045
0.6054457929
0.5970608912
0.5894024045
0.5847697551
0.5750140207
0.5644713148
0.5591595177
0.5529111745
0.5430785518
0.5423222246
0.5415032164
0.5418536862
0.5496574798
0.5837108872
0.6607200863
0.7581897557
0.8390916734
0.8093228599
0.7959839308
0.7853251636
0.7633088047
0.7456542007
0.7333301566
0.7118707321
0.6955978671
0.6882140064
0.6742074198
0.6583832418
0.6520910378
0.6419494995
0.6261533863
0.6182660978
0.6088427263
0.599395755
0.5964271459
0.5912110894
0.5809374388
0.5750457995
0.5704775676
0.5590558746
0.550477885
0.5461816189
0.5426833603
0.5410646844
0.5428853808
0.5561025978
0.5966105891
0.8722942533
0.8458691016
0.8218024192
0.8093513965
0.7892539569
0.7672677569
0.756970143
0.7417662531
0.7206747551
0.7088872981
0.6951918632
0.6745344172
0.6679943467
0.6624859473
0.648418069
0.6371314347
0.6295380607
0.6172897074
0.6093436262
0.6033574147
0.5921909456
0.5851542038
0.5823997504
0.575421126
0.5652152394
0.5613390996
0.5550976769
0.5464635233
0.5442068168
0.5428934709
0.5451643678
0.9000378448
0.8802043272
0.8521463897
0.8349374548
0.8184237652
0.7926248131
0.7774702757
0.7651292083
0.7447307308
0.730643189
0.7201016211
0.699786331
0.6842841591
0.6777591182
0.6653823683
0.6517860492
0.6468491274
0.6382060423
0.6270620423
0.6205747703
0.6107299935
0.5990016863
0.5938161479
0.5874189099
0.5761482874
0.5713233536
0.5672554952
0.558601244
0.5529522071
0.5491985867
0.5457407647
0.9278837643
0.910029916
0.8838894169
0.860195125
0.8468989271
0.8257606158
0.8031203149
0.7881303207
0.7669547236
0.7476331005
0.7394984262
0.7260347138
0.7069416327
0.6977999452
0.6874890846
0.6695292315
0.6621097981
0.65555084
0.6430075142
0.6351100248
0.6283469729
0.6173556088
0.6101644176
0.6044953306
0.593566031
0.5846755313
0.5805512975
0.5722286197
0.562553991
0.5587696535
0.5521356084
0.9595171547
0.9396473859
0.9191471435
0.8891034229
0.8698218009
)
;

boundaryField
{
    inlet
    {
        type            fixedValue;
        value           nonuniform 0();
    }
    outlet
    {
        type            zeroGradient;
    }
    bottom
    {
        type            slip;
    }
    top
    {
        type            slip;
    }
    obstacle
    {
        type            zeroGradient;
    }
    defaultFaces
    {
        type            empty;
    }
    procBoundary28to21
    {
        type            processor;
        value           nonuniform List<scalar> 
19
(
1.000682863
1.0004715
1.000028435
0.9998254359
1.000284845
1.000898993
0.999009106
0.999009106
0.9982600663
0.9977526591
0.9980248669
0.9991374696
0.999897304
0.9995055323