/*--------------------------------*- C++ -*----------------------------------*\
  =========                 |
  \\      /  F ield         | OpenFOAM: The Open Source CFD Toolbox
   \\    /   O peration     | Website:  https://openfoam.org
    \\  /    A nd           | Version:  7
     \\/     M anipulation  |
\*---------------------------------------------------------------------------*/
FoamFile
{
    version     2.0;
    format      ascii;
    class       volVectorField;
    location    "4.7";
    object      U;
}
// * * * * * * * * * * * * * * * * * * * * * * * * * * * * * * * * * * * * * //

dimensions      [0 1 -1 0 0 0 0];

internalField   nonuniform List<vector> 5((3 1.928305364e-16 0) (3 -5.104591203e-17 0) (3 8.868946539e-17 0) (3 -1.685069418e-15 0) (3 -5.329672672e-16 0));

boundaryField
{
    inlet
    {
        type            fixedValue;
        value           uniform (3 0 0);
    }
    outlet
    {
        type            inletOutlet;
        inletValue      nonuniform 0();
        value           nonuniform 0();
    }
    bottom
    {
        type            slip;
    }
    top
    {
        type            slip;
    }
    obstacle
    {
        type            slip;
    }
    defaultFaces
    {
        type            empty;
    }
    procBoundary18to12
    {
        type            processor;
        value           nonuniform List<vector> 3((3 1.421133205e-16 0) (3 6.524042258e-16 0) (3 1.426098449e-15 0));
    }
    procBoundary18to19
    {
        type            processor;
        value           uniform (3 7.56459533e-16 0);
    }
    procBoundary18to24
    {
        type            processor;
        value           nonuniform List<vector> 4((3 -3.281476587e-16 0) (3 -1.144523526e-15 0) (3 -3.281476587e-16 0) (3 -3.380915166e-16 0));
    }
}


// ************************************************************************* //
