/*--------------------------------*- C++ -*----------------------------------*\
  =========                 |
  \\      /  F ield         | OpenFOAM: The Open Source CFD Toolbox
   \\    /   O peration     | Website:  https://openfoam.org
    \\  /    A nd           | Version:  7
     \\/     M anipulation  |
\*---------------------------------------------------------------------------*/
FoamFile
{
    version     2.0;
    format      ascii;
    class       volScalarField;
    location    "4.9";
    object      rho;
}
// * * * * * * * * * * * * * * * * * * * * * * * * * * * * * * * * * * * * * //

dimensions      [1 -3 0 0 0 0 0];

internalField   nonuniform List<scalar> 
2222
(
0.9961043116
1.003241447
0.970584305
0.9565878145
0.9313162705
0.9279480653
0.9399452656
0.9566680345
0.965098619
0.9765049612
0.988277535
0.9961647875
0.9912026053
0.9923514254
0.9928821681
0.9890626485
0.9894551367
0.9911605545
0.5483604422
0.7481919091
0.9640827891
1.033375575
0.9759817668
0.9785428385
0.9954276148
0.9793246194
0.9555127614
0.9340913563
0.9269845868
0.9392494907
0.9555453027
0.9647933071
0.982674054
0.9960045777
1.003646767
0.9971552663
0.9956156098
0.9982862547
0.9961705393
0.9956216898
0.9952488572
0.4412545743
0.521812857
0.8449264463
1.007500762
0.9764545361
0.9649088453
0.9828181903
0.9904621468
0.9500325268
0.9412146863
0.927519256
0.9386920647
0.9466977484
0.9607969684
0.9859484576
1.001523437
1.000678819
0.9972179997
0.9945256333
1.000101696
0.9993210163
0.9983757224
0.9968531513
0.3011875882
0.2998408114
0.5797786453
0.8730215341
0.9814439508
0.9626639847
0.9751531873
0.9993523079
0.9500021949
0.9530887387
0.9359140111
0.939131753
0.940219452
0.9499460933
0.9886851926
1.002191532
0.9992704279
0.999908145
0.9962840763
1.001956907
1.000099454
0.998101159
0.997118469
0.3015753848
0.2978522018
0.3178523978
0.6873859378
0.9726394086
0.9808146214
0.9822803496
1.008103486
0.9593856621
0.9631093321
0.9511590891
0.9419765519
0.9431654487
0.9523707163
0.9805994018
1.003044148
1.00204711
1.003058403
1.000177177
1.004811344
1.00190005
0.9986495407
0.9985658309
0.3006319743
0.2980391532
0.304577967
0.4429816631
0.855694988
1.018264208
1.005970155
1.005586693
0.9877284267
0.9666392781
0.9662557246
0.9521062761
0.9543876046
0.9610553219
0.9834139227
1.008268154
1.006159318
1.011587557
1.012749894
1.010973613
1.008131654
1.005032451
1.005612881
1.009715892
0.2975304526
0.2977736914
0.3061891335
0.3144165188
0.6587354397
1.026583002
1.035790654
1.004895001
1.012737571
0.9643756858
0.9838824895
0.9737990623
0.9844731348
0.9891364744
0.9935329103
1.019763685
1.02204456
1.021646284
1.025610131
1.02346671
1.022104988
1.018342863
1.019116026
1.024258439
0.294779779
0.2983888298
0.3065864235
0.3126023611
0.3791507417
0.8835359399
1.052636559
1.004164575
1.032101363
0.9756321268
0.9850907102
1.000618508
1.015221637
1.018643231
1.015572842
1.029787261
1.036761206
1.031324146
1.040165206
1.040087107
1.04215145
1.0395153
1.038457085
1.042447593
0.293980109
0.2993891277
0.3063426147
0.3143214809
0.3231136646
0.5530571169
0.9839839327
1.007884535
1.033619314
0.9946800278
0.9884929032
1.021734561
1.03665816
1.038518919
1.033807657
1.037069846
1.049116083
1.04004899
1.049426296
1.057157277
1.060203978
1.058825302
1.05629888
1.058782514
0.2936635778
0.3006486248
0.3064595284
0.3142365896
0.3231587869
0.3376049033
0.7494873082
1.027264629
1.025353373
1.030401866
1.000154617
1.026782542
1.045671953
1.050716522
1.049438984
1.038719332
1.052296307
1.04965709
1.055519905
1.069546668
1.07207832
1.072407114
1.068556811
1.067725716
0.2940419279
0.3013700933
0.3064055742
0.3143030523
0.324358528
0.3314468302
0.4307530534
0.9344206597
1.012330048
1.059486725
1.019819023
1.025441578
1.031948084
1.041513486
1.054693473
1.040716099
1.048488702
1.057605122
1.060104594
1.07455423
1.074595188
1.075192074
1.07190382
1.07017743
0.2954918003
0.3013128921
0.3063831424
0.3144656718
0.3249205965
0.3319637392
0.3396398711
0.6948987551
1.002283407
1.068787014
1.048700258
1.026657358
1.022564964
1.024859155
1.045771057
1.043999867
1.046642267
1.063379685
1.063113385
1.07480853
1.071913265
1.071019529
1.070032311
1.0690956
1.068079273
0.2957401647
0.3010959717
0.3061020321
0.315509719
0.3259438193
0.3340415855
0.3360339212
0.3904163814
0.9141034392
1.056124153
1.058538367
1.027784012
1.020404024
1.017130134
1.03293192
1.051368694
1.048939787
1.0666252
1.066948409
1.071147394
1.06772546
1.064804922
1.066525661
1.068377121
1.065686127
0.2955824218
0.3007424574
0.3057805054
0.3169825907
0.3263377675
0.3342901927
0.3374255754
0.3388388035
0.6260030347
0.9352079227
1.0530122
1.031612677
1.026919598
1.021090722
1.030856246
1.065486488
1.053683376
1.066960941
1.067861154
1.06436085
1.064676252
1.064415792
1.068913424
1.072531467
1.068011163
0.2953115089
0.3001742354
0.3053252149
0.3172553389
0.3265443469
0.3343049278
0.3379471478
0.3376377853
0.3499708715
0.7913392283
1.017115658
1.035954086
1.051683307
1.046454905
1.034356079
1.072152554
1.071370457
1.061657865
1.069171047
1.059177473
1.067660114
1.070090771
1.075062691
1.081530911
1.075154626
0.294641429
0.2990218764
0.3049417639
0.3171735681
0.3266657907
0.3342640248
0.3378138187
0.3368659112
0.3383341711
0.5589534017
0.8884053537
1.029685766
1.05711741
1.067839163
1.050365011
1.070043784
1.077732917
1.053529444
1.064678424
1.057970443
1.067512619
1.075858971
1.078683375
1.085944216
1.084802253
0.2931911243
0.2965326399
0.3046272768
0.317056447
0.3264393608
0.3341788597
0.3369346378
0.3347577706
0.3349338912
0.3431074326
0.7568713688
1.002333455
1.060353881
1.07451006
1.06725251
1.057287378
1.074587604
1.046621743
1.055343445
1.060636596
1.064995541
1.077013123
1.076585578
1.082496681
1.084498275
0.292578925
0.2941995784
0.3044134802
0.3163674005
0.3257735774
0.3333534173
0.3353522679
0.3334221193
0.333861239
0.3364499461
0.5357875861
0.8835577536
1.037320578
1.072424969
1.069682018
1.040887973
1.058292866
1.046021887
1.045924805
1.061928956
1.061508451
1.070203442
1.067966921
1.07320837
1.078027252
0.2932128986
0.2933617462
0.3044088827
0.3151790514
0.3252561529
0.3315708794
0.3338612943
0.3332991788
0.3327800739
0.3342856796
0.3387914975
0.729527926
0.9763441698
1.042794032
1.064566939
1.029542549
1.034207983
1.05018815
1.039879647
1.06131439
1.055467634
1.058355982
1.05685459
1.062021363
1.064443117
1.064197934
0.2953521795
0.2931580411
0.3043106621
0.3147544453
0.3249413068
0.3309056033
0.3335151919
0.3333854366
0.3326200163
0.3345513583
0.334795894
0.4454328346
0.8799860191
1.000455386
1.037518626
1.02601564
1.022209904
1.052939967
1.041239408
1.058373571
1.051208439
1.047659845
1.047835978
1.051317012
1.052554392
1.055325704
0.2960565758
0.2945297759
0.3041617504
0.3147373373
0.3248942743
0.330871756
0.3335576874
0.3335987037
0.332680601
0.3342642749
0.3345093972
0.3351175846
0.6917312858
0.9523158518
1.008298959
1.043673735
1.016769314
1.051835236
1.050069887
1.052441656
1.052730682
1.042039026
1.047110498
1.047736884
1.044601886
1.050509773
0.2962684631
0.2978942295
0.3041046235
0.3149917282
0.3249727581
0.3309440361
0.3336220805
0.3338801397
0.332943649
0.3342528398
0.3338677359
0.3326781658
0.3617262863
0.8644490577
0.9940312198
1.058734537
1.035149986
1.047120978
1.059643394
1.045313711
1.056121015
1.046660776
1.051601244
1.051049054
1.044297077
1.052291857
0.2953771231
0.2997114508
0.3047736066
0.3176796146
0.3263591012
0.3315092368
0.3340671375
0.3341405572
0.3330079966
0.3338280577
0.3320402739
0.3322717951
0.3320122955
0.5746036172
0.9680245492
1.062545556
1.067054937
1.030621672
1.061684091
1.040680539
1.057099838
1.05714315
1.05472143
1.057840478
1.058179331
1.062870451
0.2899745894
0.3006781649
0.3058189061
0.3213607774
0.3308677072
0.3347201035
0.3363735311
0.3343671626
0.3329029706
0.3328771056
0.3308582444
0.3313120103
0.3322036958
0.3374786653
0.8051285703
1.032752616
1.077999167
1.024560977
1.061249168
1.0413384
1.055711559
1.062775381
1.053300091
1.059623762
1.069823831
1.068786734
0.286599379
0.3012820725
0.3067799091
0.3232082557
0.3338237817
0.3375537769
0.3385849039
0.3348598042
0.3320213361
0.3313515667
0.3299970171
0.3313537973
0.3324574147
0.3323839111
0.4747913142
0.8942762882
1.069522778
1.027904271
1.05612803
1.052670362
1.047087982
1.062998052
1.049740397
1.060346954
1.073700497
1.069448434
1.074263645
0.2862060921
0.3014231127
0.3073850303
0.3236945902
0.334795649
0.3385049332
0.3392692102
0.3353489157
0.3301798327
0.329793735
0.3292531479
0.3310900238
0.3318355437
0.3334964541
0.3368467526
0.7224780528
1.01327088
1.050208995
1.032693405
1.064276247
1.038067867
1.052391235
1.042732496
1.051733915
1.069030864
1.065020079
1.071348471
0.28634725
0.3005473512
0.3077130564
0.3237250587
0.3352112681
0.3388385304
0.3393476587
0.3352161826
0.3290200768
0.3291046829
0.3286946744
0.3305491407
0.3315902778
0.3341262141
0.3344625242
0.3994368278
0.8561619492
1.052166869
1.019245361
1.068559033
1.037449875
1.039977071
1.04271425
1.047600475
1.051961131
1.0594148
1.065507108
0.2870782857
0.2966311006
0.3083715586
0.3236605892
0.3355947368
0.338922378
0.3388159263
0.3349909844
0.3288267522
0.3288099214
0.3282354488
0.3296304792
0.3314667379
0.3347592619
0.3360486842
0.3372708824
0.6570859306
1.014093592
1.007208067
1.06508092
1.042330868
1.039656287
1.04918562
1.047739116
1.042520692
1.05677607
1.061694605
0.2914786819
0.2937859972
0.3101799764
0.3235488475
0.3358651817
0.3388863589
0.3385012787
0.3350935371
0.3288904842
0.3287342856
0.3279883552
0.3290480007
0.331312086
0.334965092
0.3368524669
0.336573869
0.3497596876
0.8040897816
1.02259864
1.06031455
1.067909646
1.044949495
1.067948073
1.053984358
1.040437406
1.059142436
1.061562719
0.2941069926
0.2931008159
0.3110089182
0.3235096806
0.3362380802
0.3389676381
0.3385197969
0.3353739995
0.3290690247
0.3287494066
0.32793514
0.328810577
0.3311768379
0.3348748732
0.3369010107
0.3380327919
0.3383282603
0.548003064
0.9813925569
1.022301959
1.084023636
1.066801207
1.079263924
1.070962917
1.049977605
1.065658956
1.066443752
0.2944986164
0.2932799267
0.311116659
0.3235762417
0.337339047
0.3395052671
0.3387415956
0.3360256679
0.3294198564
0.3288623525
0.3281279803
0.3288352671
0.3309881244
0.3340229403
0.3368470309
0.3384281371
0.3387100083
0.3429101743
0.7717299063
0.9916108147
1.085424648
1.083947018
1.08265125
1.084704926
1.075944427
1.069154627
1.074654887
0.2938532522
0.2960557462
0.3109812965
0.3245423323
0.3383438671
0.3407989694
0.3402295999
0.3384143783
0.3305203902
0.3300160847
0.3293087013
0.3294250764
0.33068929
0.333217577
0.3368232686
0.3384481655
0.3389244228
0.3389764058
0.4509997711
0.9506058911
1.07072342
1.083001084
1.070229768
1.086952151
1.091213819
1.070852179
1.079844636
1.077416018
0.2866991237
0.2984857352
0.3107287452
0.3247275245
0.3385029377
0.3414175434
0.3418642361
0.3414214223
0.3335947241
0.3316649137
0.3304539186
0.330026414
0.330314072
0.3329414987
0.3368133284
0.3381885089
0.3386959177
0.3390549067
0.3416876518
0.7205774761
0.9584932423
1.073562118
1.034759739
1.086185854
1.092046334
1.065529894
1.080131349
1.076774238
0.2789533157
0.2991769277
0.3092376941
0.3246470108
0.3384268604
0.3414810235
0.3423273464
0.3425464932
0.336189727
0.3318064507
0.3307319038
0.3302162557
0.3302009236
0.33280319
0.3368138403
0.337617906
0.3378445918
0.3385778449
0.3400719031
0.3617155246
0.8270041339
1.036877244
1.016399265
1.072328699
1.08603074
1.064881539
1.078301933
1.076422772
0.2768804895
0.2992551013
0.3081074708
0.3243384609
0.3381930697
0.3414338736
0.3423335565
0.3424856186
0.3370960201
0.3309789168
0.3303019688
0.3300841985
0.3302006499
0.3327768069
0.3371050208
0.3373670448
0.3372790783
0.3382002903
0.3400582087
0.3409538421
0.5981420374
0.9347697325
1.029935751
1.044086043
1.053743151
1.069861831
1.072917305
1.082768347
0.2766437859
0.2988344896
0.307774091
0.3229824415
0.3366234981
0.3412487201
0.3423325383
0.342013437
0.3371810292
0.3309314222
0.3302315293
0.3300548693
0.3308047658
0.333359319
0.3373331765
0.3373431875
0.3370889601
0.3380106169
0.3396787653
0.340228824
0.3456220556
0.8065666459
1.048726548
1.026604604
1.032294404
1.085320168
1.070595808
1.087525925
0.2786960269
0.2956696121
0.3076059649
0.3210994424
0.3341870474
0.3402070563
0.342053925
0.3418280669
0.3372632186
0.3311886118
0.3305180556
0.3303679197
0.3332342121
0.3350958316
0.33733316
0.337774942
0.3374222439
0.3382054983
0.3393604929
0.340337893
0.3421226959
0.4875573194
0.9793709003
1.031529064
1.035866578
1.096417376
1.070082127
1.089945009
0.2858942258
0.2892748197
0.307765252
0.3203038449
0.333277034
0.3391000813
0.341269586
0.3423697096
0.3386771692
0.3319475481
0.3312893839
0.3318541043
0.3348730188
0.3362589459
0.3372926252
0.3379612378
0.3380860938
0.3389769714
0.3393419842
0.3404100761
0.3422969059
0.3462044278
0.7487976919
1.052359155
1.073287144
1.098253444
1.07695856
1.089401099
1.08991211
0.2895345172
0.2862602793
0.3079422356
0.3201196574
0.3330955195
0.3388826505
0.3412279555
0.3429362016
0.3408905058
0.3338244723
0.3335208455
0.3341275506
0.3351016367
0.3365134828
0.336864551
0.337930572
0.3381335144
0.3390713852
0.3399275228
0.3416921457
0.3423680769
0.3440704106
0.4379209765
0.9806465406
1.090350043
1.086291038
1.094463967
1.082422754
1.09054179
0.2899093841
0.2858880239
0.3077989765
0.3204012498
0.3331814106
0.3391895037
0.3416612917
0.3431206885
0.3417282906
0.3360189656
0.3355146157
0.3349410958
0.334809766
0.3365024491
0.3366781631
0.3376674426
0.3380276008
0.3389629401
0.3409634991
0.3435471865
0.3427580572
0.3448152547
0.3485055757
0.6700039859
1.057739046
1.03259718
1.102394826
1.075620204
1.089059205
0.2857729751
0.2872824292
0.3072603419
0.3208666621
0.3341588454
0.3399271007
0.3422340184
0.3432508634
0.3421048533
0.3372095044
0.3359512306
0.334719991
0.3339197614
0.3364365942
0.3366902792
0.337248715
0.3373873287
0.3380069122
0.3412665904
0.3442427909
0.3450856006
0.3482208809
0.3503610626
0.3640675219
0.8444956378
1.009440467
1.106784204
1.07457331
1.094607022
0.2794065244
0.2899009661
0.3063395405
0.3209491021
0.3348677738
0.3403952382
0.3426521545
0.3433086088
0.3424864731
0.337749232
0.3356640534
0.3337091669
0.3335553969
0.3363432675
0.3368037817
0.3372061881
0.3369531161
0.3371040626
0.3405712758
0.344246438
0.3475687108
0.3506480291
0.354201713
0.3566236397
0.6068828031
1.005511718
1.099222724
1.087494324
1.104285306
0.2780548287
0.2903178417
0.3041270415
0.3208819611
0.335146398
0.3407855723
0.3428416593
0.3427141712
0.3429587658
0.338183851
0.3353526857
0.3335873551
0.3334788438
0.3362312391
0.3377448355
0.3372728314
0.3369835774
0.3370359116
0.3396156219
0.3436107766
0.3485696916
0.3519259168
0.3561411182
0.3591736605
0.3659769057
0.8839247867
1.041605041
1.108429266
1.106501979
0.2782571026
0.290258
0.3027660611
0.3206677855
0.3346675713
0.3404001493
0.341992005
0.3418303686
0.343167688
0.3393307864
0.3353754477
0.3336761154
0.3335503736
0.3364024782
0.3388297617
0.3380389163
0.3371363893
0.337157143
0.3396040207
0.3436492516
0.3486042509
0.352130439
0.3564589136
0.3600296548
0.362723757
0.5699711814
0.9567535599
1.110494667
1.10369338
0.2826982007
0.2896980548
0.3021568528
0.3203104309
0.3332647394
0.3389950572
0.3404176178
0.3419040494
0.343157261
0.3403123337
0.3357653718
0.3339763291
0.3340676293
0.3364220788
0.338962388
0.3400952391
0.3383533245
0.3378084407
0.3397848531
0.34388614
0.3484406819
0.3520543097
0.3564036043
0.359833185
0.3644258641
0.3698299783
0.8480391579
1.088717146
1.084526863
1.12945662
0.2874405536
0.285474829
0.30162528
0.3199528113
0.3331124704
0.338904257
0.3400824211
0.3421712445
0.3429541377
0.3406815287
0.3367038776
0.3356511147
0.3358023146
0.3362221748
0.3385069629
0.3411803664
0.3413440002
0.3409605832
0.3406958617
0.3450583707
0.3487139045
0.3525081353
0.3571306551
0.3607905049
0.3646698703
0.3670351044
0.5022752347
0.9235268831
1.065713278
1.132132282
0.2882173416
0.2813991177
0.3016023946
0.3199409462
0.3332664314
0.3392008836
0.340240832
0.3420944863
0.3423731802
0.3407598668
0.3376227094
0.3378888672
0.3367453641
0.3355544435
0.3374136958
0.3413244432
0.3430761929
0.3437919525
0.3445647246
0.3486436128
0.3504448199
0.354133327
0.3581905325
0.3629154354
0.3660096718
0.3678465091
0.372970554
0.760866123
1.045331866
1.11830025
0.2870093682
0.2808536566
0.3022145308
0.3200068941
0.3335427277
0.339820421
0.3405431346
0.3411504077
0.3414265514
0.3405926314
0.33797033
0.3383946316
0.3367601036
0.3351833634
0.3371350685
0.3403310434
0.3434729523
0.3451376541
0.3475704376
0.3508381487
0.3544735118
0.3590261921
0.362355639
0.3662705776
0.3701812888
0.3720777183
0.3724119151
0.4737700867
0.9815451435
1.069556275
0.2825902964
0.2810293205
0.3021770816
0.3196961532
0.3351028827
0.3421967268
0.3410956383
0.3410149165
0.3410817374
0.3399583344
0.3380063329
0.3380921451
0.336097305
0.3350734267
0.3371399981
0.3399747802
0.3429164162
0.3455417352
0.3488759223
0.3516432533
0.3566344822
0.362069126
0.366320328
0.3701701974
0.3737826928
0.3773333248
0.3774664058
0.3801107979
0.7785529478
1.021646716
0.2806091684
0.2813156122
0.3016899399
0.3190429713
0.3369541676
0.344761596
0.3423583863
0.3413352776
0.3412800107
0.3398431933
0.337877039
0.3363095757
0.3350400841
0.3349729487
0.3373244034
0.3399920395
0.3429542784
0.3457998056
0.3494370666
0.3517514382
0.3575048246
0.3632198924
0.3678614353
0.3717859429
0.3757372662
0.379717389
0.3829881053
0.38427662
0.4335525508
0.9643960523
0.2805434671
0.2814680826
0.2997229896
0.3185982355
0.337157218
0.3459541464
0.3435775305
0.3422293187
0.3420626497
0.3410148198
0.3375185917
0.3350357912
0.334794411
0.3349447954
0.3382607947
0.3401991309
0.343490563
0.3460495434
0.3496266594
0.3527521871
0.3580285358
0.3634130352
0.3678695469
0.3723222897
0.3763646199
0.380801184
0.384521172
0.3881507559
0.3894029661
0.7226596276
0.2808450821
0.2813950257
0.2976585137
0.3185683582
0.3370576877
0.346338188
0.344392858
0.3425988018
0.3421785251
0.3412833098
0.3373761712
0.3346068459
0.3348166106
0.3349708674
0.3389633933
0.3421701976
0.3463789075
0.3481192062
0.3501484207
0.3537411848
0.3592478152
0.3642828735
0.3682155179
0.3723311542
0.3773929224
0.3817349597
0.3855372093
0.3891344359
0.3926542697
0.4038736718
0.9487486114
0.2849186036
0.2816339923
0.2963779839
0.3190140656
0.335744697
0.3448090258
0.3445440466
0.3426482326
0.3421205655
0.3411611657
0.3372720143
0.3346301098
0.3351489193
0.3352323731
0.3393814621
0.3446053589
0.3488768684
0.3529851637
0.3537437524
0.3558003728
0.3603367583
0.3659750072
0.3703418487
0.3735161853
0.3779317234
0.3821158503
0.3859790428
0.3891229114
0.3934311098
0.3962521071
0.6661290537
0.2905047658
0.2823994439
0.2961870917
0.3195404965
0.3350278679
0.343277892
0.3425106727
0.3416956673
0.3412370145
0.3404260256
0.3369899828
0.3364165623
0.3372454115
0.3374000016
0.3394291011
0.3458185514
0.3501754078
0.3554211484
0.3595091063
0.3624338179
0.3658349525
0.3675568942
0.3732030639
0.377717268
0.3811828614
0.3840895564
0.3870166487
0.3901118738
0.3932864868
0.3972328786
0.4047594318
0.2912208122
0.2824714151
0.2964287106
0.3219162804
0.3350631363
0.3432944255
0.3414704087
0.33909187
0.3385321428
0.3376817475
0.3363607943
0.3379597515
0.3387450039
0.3396187796
0.3395803869
0.3461750241
0.3505952419
0.3569591368
0.3623431832
0.3662009511
0.3703788986
0.373345721
0.3778974676
0.3819166164
0.3867209109
0.3896889664
0.3917013409
0.3932235775
0.3947104054
0.3978528879
0.402393511
0.2909628243
0.2821156089
0.2978229178
0.3239644149
0.3351071201
0.3436841809
0.3417458883
0.3378916007
0.3368347602
0.3357161754
0.335685912
0.3381546934
0.3391623547
0.3407645499
0.3412473157
0.3460554254
0.3507314864
0.3582363374
0.3641897508
0.3679183094
0.3720991278
0.3769603426
0.3816755893
0.3853265063
0.3894168274
0.3934624487
0.3965988366
0.3992783853
0.3997391101
0.4008292528
0.4045149536
0.2860340879
0.28209812
0.2993354899
0.3238614095
0.3352114463
0.344471378
0.342237464
0.3376716757
0.3362582923
0.3350483793
0.335538783
0.3377109882
0.3381928731
0.3413803325
0.3456204644
0.3465842984
0.3515506334
0.3585192478
0.3647460566
0.3691232524
0.3726248388
0.3781883664
0.3828660509
0.3870590996
0.3906661102
0.395017437
0.3993338982
0.4027822526
0.4050765664
0.4068634325
0.4074650396
0.2746564966
0.2833490482
0.2994538739
0.3235313838
0.3365784446
0.3479442273
0.3452314459
0.3390926751
0.3372636036
0.3354442888
0.3368279623
0.336729669
0.3377608305
0.3413234138
0.3477971589
0.3496168899
0.35538725
0.3592716078
0.3647844859
0.3699234768
0.3740966565
0.3788902682
0.3825968884
0.3873160643
0.3914539676
0.394988944
0.4005054417
0.4043198933
0.4078326487
0.4105810547
0.4119432085
0.2701606145
0.2878675126
0.2985383664
0.323983542
0.3406198959
0.3519679727
0.3496497392
0.3410272369
0.338985497
0.3372604206
0.337512542
0.3366652499
0.3379853655
0.3418007354
0.3484349992
0.3543432983
0.3598665592
0.3637775167
0.3662072718
0.3706299068
0.3746919908
0.3801161353
0.3837435672
0.3875163414
0.3925383337
0.3956788629
0.4003463118
0.4053045788
0.4089878391
0.4122746412
0.4156336854
0.2699564827
0.2900546709
0.2982422384
0.3270604286
0.3436715115
0.3530501202
0.3510951205
0.3414062987
0.339010552
0.3375054793
0.3374178147
0.3368690508
0.3384698744
0.3427324041
0.3486783388
0.3563311263
0.3620902065
0.3676759945
0.3715196401
0.3754526529
0.3782618581
0.3808090731
0.3856846407
0.3894576882
0.3932072169
0.3976477667
0.4013175208
0.4063094764
0.4100397134
0.4128522737
0.4168254533
0.4212290032
0.2745935077
0.2902782627
0.298924447
0.3320279414
0.3449894321
0.35178256
0.3510199807
0.3414259488
0.3388240358
0.3371906818
0.3366664578
0.3380864934
0.3413797288
0.343863013
0.3489747185
0.3566990826
0.3634963137
0.3694193895
0.3754526468
0.3811016315
0.385035051
0.3862564217
0.3888208201
0.3951108557
0.3985322534
0.4011307325
0.4048395044
0.4080001643
0.4119727037
0.4143929175
0.4170202609
0.4223660714
0.2938834242
0.2888074402
0.3011575012
0.3346890321
0.3461741021
0.351219732
0.3491969442
0.3406478115
0.3376437728
0.3352240488
0.3357861102
0.3415880999
0.3465556592
0.3490495517
0.3506027656
0.3564383711
0.3639228961
0.3706732006
0.3779541168
0.3837326605
0.3883559364
0.3918205778
0.3951660559
0.399529358
0.4034015874
0.4070237047
0.4090480865
0.4136225202
0.4144425037
0.4167395164
0.4187924142
0.4225842142
0.3051843561
0.2851274071
0.3023185862
0.335915601
0.3473338083
0.3513593344
0.3486414206
0.3393188429
0.3356719228
0.3335312115
0.3357370336
0.3434434641
0.3489807811
0.3528136144
0.3569251195
0.3574122172
0.3642755055
0.3707395433
0.3789040846
0.3853021623
0.3904145971
0.3944453009
0.3977543131
0.4020840344
0.4055157836
0.4095874826
0.4131957196
0.4175086399
0.4207767103
0.4204726729
0.421233567
0.4239753433
0.3078820569
0.2844036128
0.3027772061
0.3366019966
0.3481774659
0.3517745511
0.3487471953
0.3389882206
0.3350410474
0.3332527271
0.3358437594
0.3441850271
0.350035791
0.3544662548
0.3610413312
0.3623471424
0.3668344751
0.3717539926
0.3793442164
0.385704877
0.3912397327
0.3961474857
0.3983815864
0.4027149731
0.406346537
0.4104442988
0.4155691141
0.4192654115
0.423428297
0.4260344016
0.4263700822
0.4273523119
0.3089588011
0.2846150144
0.3031847298
0.3370050671
0.3488179426
0.3530431705
0.3490245047
0.3389971972
0.3350231988
0.3333148094
0.3367872506
0.3444624696
0.350243516
0.3556090624
0.3627699111
0.3680444955
0.3731014029
0.3779199018
0.3811526163
0.3868125204
0.3917257601
0.3963264483
0.399151224
0.4023676639
0.4073082802
0.4109697472
0.4159665612
0.4206307031
0.4242711834
0.4280562257
0.4309088785
0.433003787
0.3041842777
0.2850609549
0.3038100995
0.336825278
0.3493144125
0.3543022472
0.3504274136
0.3398056365
0.3354060628
0.3349400582
0.3420196516
0.3446971923
0.3504011618
0.3573562516
0.364541112
0.3711159914
0.3772174961
0.384463156
0.3883717108
0.3905991456
0.3945551759
0.3972124465
0.4010367785
0.4035602529
0.4077750826
0.4127027283
0.4165616653
0.4204074621
0.4251546553
0.4285646685
0.4327200381
0.4363536259
0.2821291908
0.2876623873
0.3059089079
0.3355098837
0.3496702138
0.3546366232
0.3538301425
0.3438414866
0.3393704231
0.3411782321
0.3464039121
0.3476527546
0.3515043699
0.3583360072
0.3648817592
0.3724585031
0.3801783549
0.3873182515
0.393397627
0.3970408508
0.401166672
0.402465794
0.4032427165
0.4063396057
0.411788654
0.415341484
0.4184250353
0.4215109033
0.4261016544
0.4293832769
0.4330922684
0.4374337009
0.4412440136
0.2681625282
0.2958963611
0.3107841767
0.3350651886
0.3489580274
0.3546302674
0.3553755977
0.3472600969
0.3438075272
0.3448103031
0.347862464
0.3510991437
0.3574335119
0.3643715822
0.3654816047
0.3726908227
0.3814400087
0.3887663424
0.3953184085
0.4013550071
0.4052919117
0.408974251
0.411119583
0.4132058791
0.418684887
0.4229095805
0.4248474703
0.4265593865
0.4282128982
0.4310711776
0.434542481
0.4378237752
0.4422227058
0.2660201596
0.2996669807
0.3134313159
0.3372411729
0.3489831994
0.3545381921
0.3556532724
0.3487733936
0.3456027661
0.345565163
0.3474759283
0.352560335
0.3629190397
0.3692330736
0.3690585634
0.3733664216
0.381267202
0.3902901939
0.3960573712
0.4029093459
0.4079770547
0.4123727255
0.4152333377
0.4178949065
0.4222214241
0.4269451079
0.4306295375
0.4324071989
0.4346038684
0.4341736117
0.4351794529
0.4397498357
0.442834082
0.2661310412
0.3001550223
0.3142450082
0.339599382
0.3504987926
0.3552731504
0.3548919484
0.3489634946
0.3456589346
0.343845863
0.3461122644
0.3528181528
0.3650026207
0.3708216947
0.3768665166
0.3786514344
0.3824675555
0.390474946
0.3981531324
0.4036496598
0.4085275449
0.4140908816
0.4168945682
0.419801987
0.4235736116
0.4286508752
0.4333417012
0.4360623635
0.4383796104
0.4406378871
0.4402036008
0.441216425
0.4445263774
0.2711572409
0.2999536458
0.3106066154
0.3397470569
0.3504218064
0.3561059714
0.3548901224
0.3486736804
0.3452960517
0.3435992909
0.3464136189
0.3528957828
0.3651556694
0.3729458876
0.3814334359
0.386311991
0.3886639099
0.3934225438
0.3997412142
0.4052151589
0.4089642389
0.4139921617
0.4177240334
0.4204599944
0.4236296945
0.4292640441
0.4342585017
0.437708136
0.4400281443
0.443388103
0.4461971444
0.4474086254
0.4465298344
0.29725438
0.2958321682
0.3029143962
0.3396006208
0.350235146
0.3560720078
0.3552844289
0.3494683626
0.3460941598
0.3441588806
0.3476977854
0.3545639621
0.3646778403
0.3748997833
0.3847944938
0.3908386778
0.3952343428
0.4013611776
0.4065931444
0.4094997969
0.412098469
0.4149423803
0.418393765
0.4219173098
0.4247648003
0.4299849521
0.4348570039
0.4379012317
0.4408876885
0.4444671709
0.4488935845
0.4519084863
0.4529557631
0.3141674732
0.2876462176
0.3001279624
0.3379543769
0.3482365126
0.3558597619
0.3572330054
0.3538345618
0.3506781117
0.3477706147
0.3557079345
0.3634251009
0.3654930901
0.3755354263
0.3854674034
0.3937521794
0.4002872968
0.4059676908
0.4130895395
0.4167725653
0.4186133146
0.4199574059
0.4211591393
0.4253221424
0.4291798012
0.4328291157
0.436485307
0.4388768462
0.441668863
0.4454008177
0.4502089968
0.4535220958
0.4566133764
0.3168386011
0.2848871092
0.2994544381
0.3336522063
0.3429633968
0.3533187211
0.3581004825
0.3579224902
0.3568851939
0.3577680846
0.3648177891
0.3711326458
0.3706987905
0.3801798021
0.38591089
0.3948706591
0.4029770679
0.4081171963
0.4156302367
0.4222335552
0.425047723
0.4271829689
0.4297852279
0.4336878991
0.4370525634
0.4403440077
0.4430646698
0.4425934216
0.4431437524
0.4466220882
0.4508364432
0.4542008676
0.4580035687
0.3164363927
0.284582609
0.3021064706
0.3311678205
0.340493826
0.3499797309
0.3570717025
0.3594160448
0.360010784
0.3636091148
0.3682537068
0.3743106909
0.3804988327
0.3857313564
0.3901154092
0.3954959785
0.4029909202
0.4100857947
0.4159913725
0.4238783127
0.4286793145
0.4314107937
0.4350561172
0.4387807635
0.4415977192
0.445223553
0.44927657
0.4508012798
0.4496610406
0.4512338891
0.4518658723
0.4550961096
0.4581621219
0.4611410925
0.2992676326
0.284895004
0.3085738627
0.3304771841
0.3402978578
0.349620175
0.3570809069
0.359421471
0.361549562
0.3656631585
0.3685282568
0.3758169056
0.3854971325
0.3893029961
0.3953571977
0.399855286
0.4039156283
0.4100266939
0.4171632965
0.4235643614
0.4293152117
0.4332815552
0.4372731311
0.4406112511
0.4434552314
0.4472760423
0.4517573329
0.4556070889
0.4559091234
0.4580008096
0.4565998673
0.4567570912
0.4587426518
0.4621007347
0.2756756703
0.2887204174
0.3095170417
0.3304930468
0.3404254733
0.3499202535
0.3576054891
0.3606273039
0.3621920604
0.3651605865
0.3674727582
0.3766576727
0.3872466664
0.3931107696
0.40216082
0.4081048999
0.4094468693
0.4119116139
0.4193839806
0.4248542814
0.4294400372
0.4332457327
0.4384077053
0.4409591382
0.4441150291
0.4480905984
0.4524851991
0.4573056973
0.4587271955
0.4611251458
0.4627872079
0.4631678166
0.461454355
0.4643539374
0.2688233485
0.2952848878
0.3087335235
0.3333336997
0.3435222518
0.3526801544
0.3606073247
0.3646637664
0.3635969906
0.3655536676
0.3684426828
0.3780661766
0.3876535613
0.3948380494
0.4076861752
0.4144512776
0.4184406368
0.4205009981
0.4238051452
0.4289377158
0.4317997465
0.4343574362
0.4395646136
0.4424534242
0.445168806
0.4492396466
0.4536405498
0.4576951158
0.4595974843
)
;

boundaryField
{
    inlet
    {
        type            calculated;
        value           nonuniform 0();
    }
    outlet
    {
        type            calculated;
        value           nonuniform 0();
    }
    bottom
    {
        type            calculated;
        value           nonuniform 0();
    }
    top
    {
        type            calculated;
        value           nonuniform 0();
    }
    obstacle
    {
        type            calculated;
        value           nonuniform List<scalar> 
77
(
0.5483604422
0.4412545743
0.3011875882
0.3015753848
0.3006319743
0.2975304526
0.294779779
0.293980109
0.2936635778
0.2940419279
0.2954918003
0.2957401647
0.2955824218
0.2953115089
0.294641429
0.2931911243
0.292578925
0.2932128986
0.2953521795
0.2960565758
0.2962684631
0.2953771231
0.2899745894
0.286599379
0.2862060921
0.28634725
0.2870782857
0.2914786819
0.2941069926
0.2944986164
0.2938532522
0.2866991237
0.2789533157
0.2768804895
0.2766437859
0.2786960269
0.2858942258
0.2895345172
0.2899093841
0.2857729751
0.2794065244
0.2780548287
0.2782571026
0.2826982007
0.2874405536