/*--------------------------------*- C++ -*----------------------------------*\
  =========                 |
  \\      /  F ield         | OpenFOAM: The Open Source CFD Toolbox
   \\    /   O peration     | Website:  https://openfoam.org
    \\  /    A nd           | Version:  7
     \\/     M anipulation  |
\*---------------------------------------------------------------------------*/
FoamFile
{
    version     2.0;
    format      ascii;
    class       volScalarField;
    location    "1";
    object      p;
}
// * * * * * * * * * * * * * * * * * * * * * * * * * * * * * * * * * * * * * //

dimensions      [1 -1 -2 0 0 0 0];

internalField   nonuniform List<scalar> 5(0.8075234853 0.8092614862 0.8620726406 1.158531008 0.9326238154);

boundaryField
{
    inlet
    {
        type            fixedValue;
        value           nonuniform 0();
    }
    outlet
    {
        type            zeroGradient;
    }
    bottom
    {
        type            slip;
    }
    top
    {
        type            slip;
    }
    obstacle
    {
        type            zeroGradient;
    }
    defaultFaces
    {
        type            empty;
    }
    procBoundary27to21
    {
        type            processor;
        value           uniform 0.8244481873;
    }
    procBoundary27to26
    {
        type            processor;
        value           uniform 1.362462415;
    }
    procBoundary27to28
    {
        type            processor;
        value           nonuniform List<scalar> 4(0.8962520915 0.8962520915 1.016779334 0.9491853561);
    }
    procBoundary27to33
    {
        type            processor;
        value           nonuniform List<scalar> 2(1.092939943 1.046790023);
    }
}


// ************************************************************************* //
