/*--------------------------------*- C++ -*----------------------------------*\
  =========                 |
  \\      /  F ield         | OpenFOAM: The Open Source CFD Toolbox
   \\    /   O peration     | Website:  https://openfoam.org
    \\  /    A nd           | Version:  7
     \\/     M anipulation  |
\*---------------------------------------------------------------------------*/
FoamFile
{
    version     2.0;
    format      ascii;
    class       volScalarField;
    location    "3";
    object      T;
}
// * * * * * * * * * * * * * * * * * * * * * * * * * * * * * * * * * * * * * //

dimensions      [0 0 0 1 0 0 0];

internalField   nonuniform List<scalar> 
2222
(
1.37252999
1.362869043
1.353210671
1.343240433
1.332571395
1.321257866
1.309661983
1.29807878
1.287418118
1.278221872
1.270282186
1.262982074
1.255738945
1.248048134
1.239499104
1.230090298
1.220215771
1.210400788
1.201417839
1.193576152
1.186628251
1.180331301
1.174414945
1.168264099
1.161534521
1.154302256
1.146522268
1.138394678
1.130626678
1.123219606
1.117409387
1.108869777
1.37640308
1.366759359
1.356993847
1.346915519
1.336200039
1.324722555
1.313003557
1.30153923
1.290979119
1.281836347
1.273851459
1.266448935
1.259105366
1.251374351
1.242813848
1.2333807
1.223440871
1.213548068
1.204460696
1.196574759
1.189667251
1.183345655
1.177331673
1.171243486
1.164552594
1.157311456
1.149519279
1.141364451
1.133530713
1.126127298
1.120293253
1.111668988
1.373707084
1.364125047
1.354390178
1.344191003
1.333619745
1.322096535
1.310226171
1.29918066
1.28873753
1.279592025
1.271554355
1.264057157
1.25662574
1.248940244
1.240406695
1.230939354
1.221008594
1.211120009
1.201972385
1.19405335
1.187225417
1.180938297
1.174824307
1.1688438
1.162408227
1.15518618
1.147507079
1.139430672
1.131576128
1.124151074
1.118189324
1.109417507
1.374533611
1.364999182
1.355407762
1.345085061
1.334227917
1.322382339
1.310196219
1.29925904
1.289578716
1.280498166
1.272428311
1.264855403
1.257334996
1.24950004
1.240720065
1.231068106
1.221123785
1.211255085
1.202079687
1.194082124
1.187238219
1.181023188
1.174912716
1.168739848
1.162755644
1.155702167
1.148024672
1.139963413
1.132094659
1.12458105
1.118420087
1.109484183
1.377555439
1.368496221
1.358970932
1.348421773
1.33612167
1.323778059
1.311470662
1.299985158
1.291589526
1.283893291
1.276027394
1.268306491
1.260519875
1.251959476
1.241906319
1.232059418
1.222100702
1.212203652
1.202979264
1.194859419
1.187961615
1.181839345
1.175787513
1.169465311
1.163254386
1.157873262
1.150737515
1.142752412
1.134765059
1.126468533
1.11932488
1.110154013
1.375846202
1.365462504
1.355641802
1.346156907
1.335521277
1.324946107
1.314619086
1.303461504
1.291588951
1.281656164
1.273528605
1.265817745
1.257873247
1.249833693
1.243180606
1.235058523
1.225376165
1.215416582
1.206144855
1.197891055
1.190836886
1.184792584
1.178880781
1.17253346
1.165333619
1.156761604
1.148634338
1.140544214
1.13252634
1.125031688
1.121024649
1.112916482
1.377242205
1.367136835
1.356808594
1.346348162
1.336551286
1.325070406
1.312323345
1.300839979
1.291647853
1.282647673
1.274567407
1.266839669
1.258804451
1.250978721
1.24236459
1.232607163
1.222705576
1.212820044
1.203784473
1.195618238
1.188333144
1.182216449
1.176476504
1.170122038
1.163588157
1.157059501
1.149306845
1.141187592
1.133051697
1.126022707
1.119974493
1.110837626
1.379890062
1.370625077
1.359929467
1.34815379
1.336916155
1.32597801
1.314035497
1.302270564
1.292312496
1.285217891
1.277650609
1.269920476
1.26196312
1.253098018
1.243248786
1.233541441
1.223720852
1.213788338
1.20463509
1.196286201
1.188833649
1.182394704
1.176923261
1.170916086
1.164255346
1.157607451
1.151362512
1.143662949
1.135739373
1.127570029
1.120605235
1.111492553
1.378432415
1.367894308
1.357832928
1.347798889
1.337055048
1.327193979
1.317316917
1.305771574
1.293696584
1.283112316
1.274688077
1.26694192
1.259308793
1.251403862
1.243811392
1.235879278
1.226517732
1.216665933
1.207066154
1.197866473
1.190343653
1.183661198
1.177600203
1.173002639
1.166805139
1.158677078
1.149747112
1.141409676
1.133429366
1.126492751
1.12237322
1.114041821
1.380048269
1.369497785
1.359327055
1.348965154
1.338443418
1.326891511
1.314838964
1.303715215
1.293679468
1.283934002
1.275260876
1.267382234
1.259735198
1.252149582
1.243638535
1.233807863
1.224099518
1.21403356
1.204664846
1.19910838
1.193407649
1.186858443
1.179865409
1.171818108
1.16457839
1.157848305
1.15019843
1.14208138
1.134092048
1.127310585
1.121206491
1.111970403
1.382178038
1.37169978
1.361454389
1.351062813
1.339873783
1.327706976
1.315747383
1.304692954
1.294766196
1.286039973
1.27748096
1.268985319
1.260825427
1.252578007
1.24376595
1.234499292
1.224788982
1.215124701
1.206092663
1.198555152
1.191466686
1.184492024
1.178607475
1.172523444
1.165489959
1.157952447
1.151410323
1.144297582
1.136767416
1.128584274
1.121858288
1.112744092
1.383871317
1.373782644
1.363296075
1.352317652
1.340649999
1.328446861
1.316648926
1.306045233
1.296327057
1.286954549
1.278102861
1.269781668
1.261986661
1.25409721
1.245318073
1.235651058
1.22528016
1.216752487
1.208667383
1.19938739
1.191979589
1.185524084
1.179173393
1.173991441
1.16788174
1.159865905
1.150196549
1.141569542
1.134196585
1.127231888
1.123375218
1.115291802
1.383934612
1.374391966
1.364187145
1.35300955
1.341221326
1.329377537
1.317798675
1.306833442
1.296949389
1.287913848
1.279255353
1.271247813
1.263479749
1.25510274
1.245995085
1.236311879
1.226516084
1.216511737
1.207127636
1.198959862
1.192166128
1.187552193
1.181401216
1.173524674
1.165908442
1.158608762
1.150526687
1.141894537
1.134382039
1.128150076
1.122320623
1.113249951
1.383854863
1.374324113
1.364486785
1.353457527
1.341518167
1.329418437
1.317930554
1.307286956
1.297522965
1.288750281
1.280673919
1.272678956
1.264263008
1.255522947
1.246551717
1.237175914
1.227531212
1.217462385
1.208079892
1.19988147
1.193033957
1.186225787
1.180313366
1.174065922
1.166941953
1.159373162
1.151598494
1.143023018
1.135163029
1.128925442
1.12324318
1.114136494
1.383890827
1.373481058
1.363608859
1.353317041
1.341705361
1.329689571
1.318435813
1.307787824
1.297536957
1.288466352
1.281156606
1.273862652
1.265420301
1.256607195
1.247344612
1.237248729
1.227453458
1.218240644
1.209303416
1.201327856
1.193995273
1.18694724
1.180630466
1.174749039
1.168300059
1.160726774
1.152839545
1.144836106
1.136402288
1.129262791
1.125080831
1.116653807
1.383729162
1.373676247
1.362864743
1.351729609
1.340592846
1.329178584
1.317891299
1.307421352
1.297696423
1.289048474
1.280900342
1.272778055
1.264664449
1.25597453
1.246994275
1.237776734
1.227784018
1.217842328
1.209053205
1.201327049
1.194300766
1.187899905
1.181695987
1.175144887
1.168115376
1.160556048
1.152939931
1.146322013
1.138453997
1.129841736
1.123445122
1.114576543
1.384113578
1.373515275
1.362230754
1.350700299
1.339567891
1.328822484
1.317918869
1.307656457
1.298298705
1.289417161
1.280846842
1.272691804
1.264780657
1.256346917
1.247318523
1.238204813
1.2283649
1.218559183
1.209643997
1.201861032
1.194955796
1.188237574
1.181566989
1.174987179
1.168364626
1.161036192
1.153494422
1.145259694
1.137059501
1.129409684
1.123660979
1.115144444
1.383366715
1.372904238
1.362181771
1.35108276
1.339851483
1.328614065
1.317292318
1.306651883
1.298255574
1.290336058
1.281791758
1.273390334
1.264976708
1.256043606
1.246517115
1.23775612
1.22993373
1.220796592
1.210913338
1.202506998
1.195287004
1.188424519
1.181694295
1.174993339
1.168621641
1.161816355
1.15407229
1.145856758
1.138005911
1.130405762
1.124517922
1.115737076
1.3828741
1.372312545
1.361446749
1.350189015
1.338580387
1.327231412
1.316885624
1.306993038
1.297240006
1.288349955
1.280340421
1.272387373
1.264330243
1.255919894
1.246934324
1.23709864
1.226892275
1.218240122
1.210680755
1.20330068
1.196127337
1.189190679
1.182500009
1.175712626
1.168562736
1.162284457
1.155430984
1.147747317
1.140381596
1.132822573
1.12559806
1.116095337
1.381793388
1.371053289
1.360421946
1.349611248
1.338414388
1.327048241
1.316178687
1.306093685
1.296564826
1.287925611
1.280090247
1.272421538
1.264361273
1.255736698
1.246308372
1.236064937
1.226027549
1.217567739
1.211448588
1.205171629
1.198284135
1.191409702
1.18463091
1.177582376
1.169724105
1.161016221
1.152652136
1.144910727
1.137849374
1.130703633
1.124881547
1.116491049
1.380860581
1.37046759
1.359866675
1.34880331
1.337385941
1.325859702
1.314965177
1.305248714
1.296434631
1.288104841
1.280070383
1.271942883
1.263306451
1.254610885
1.245878719
1.236097284
1.226329972
1.217566489
1.20924962
1.202043341
1.19535212
1.188451253
1.181519713
1.174624159
1.16817873
1.160979908
1.153114376
1.145365777
1.138313399
1.131401813
1.125585822
1.116752801
1.379807881
1.369130496
1.358380908
1.347479005
1.336583351
1.325851631
1.315304322
1.305164062
1.295883003
1.287329622
1.279212274
1.271413518
1.263332841
1.254515137
1.245249462
1.235802189
1.226267171
1.217033882
1.208692845
1.201664303
1.195340004
1.188810711
1.181923735
1.174599337
1.167337508
1.161323681
1.154578549
1.146956407
1.139945945
1.133550124
1.127626125
1.117185569
1.379127354
1.36843881
1.357924922
1.347312948
1.336418451
1.325479264
1.314834817
1.304689858
1.295283521
1.286782359
1.278903315
1.270920764
1.262603247
1.253490503
1.243866763
1.235132527
1.226765633
1.217702911
1.209199093
1.201453241
1.194829742
1.189671671
1.183375653
1.175628423
1.167566388
1.159427067
1.151762871
1.144199887
1.136885845
1.130210091
1.125531032
1.117208113
1.377622457
1.367213548
1.356758628
1.346036499
1.33528832
1.324700139
1.31439594
1.3046421
1.295462474
1.286749677
1.278240378
1.269671106
1.261312395
1.253019301
1.243996805
1.234497251
1.225589564
1.217365852
1.209173398
1.201480444
1.194497279
1.187336004
1.180774456
1.174493512
1.167316137
1.159300696
1.151654083
1.144320348
1.136929882
1.129684859
1.125063086
1.118074626
1.37590213
1.365669361
1.355683729
1.345496387
1.334851175
1.323993291
1.313475064
1.303647732
1.294393438
1.285469049
1.27705357
1.269267396
1.261256551
1.252736925
1.24368602
1.234030357
1.224838685
1.217292036
1.210185611
1.202432894
1.19456596
1.186922511
1.179911944
1.173673169
1.167280667
1.159835466
1.152078539
1.144860191
1.137378685
1.130345084
1.125228146
1.116081503
1.374599308
1.364342895
1.354133157
1.343701417
1.333028892
1.322518313
1.312429545
1.302867703
1.293853528
1.285191097
1.276707095
1.268308293
1.259747449
1.251137039
1.243081146
1.234547189
1.225461152
1.216541308
1.208286872
1.201072631
1.193910427
1.186782535
1.180116186
1.173286279
1.165919879
1.158305535
1.150607004
1.143958052
1.138596195
1.132327251
1.126064401
1.115974676
1.372809477
1.36232237
1.352055461
1.342016172
1.332075238
1.321645168
1.311058207
1.301357179
1.292758147
1.284520231
1.275876414
1.266906835
1.258463753
1.250563897
1.242168666
1.233490809
1.224835457
1.216107444
1.20795459
1.20082423
1.194015708
1.186940064
1.179826676
1.172528566
1.165043834
1.15743745
1.150206384
1.143542019
1.136433125
1.130124102
1.124689326
1.115601313
1.370999136
1.360179683
1.350104622
1.340483511
1.330667887
1.32043831
1.310052429
1.300165592
1.291301113
1.283464431
1.275661777
1.267167021
1.258117393
1.249081185
1.240336883
1.232353677
1.224643957
1.216459693
1.208286872
1.200374014
1.193182121
1.186793501
1.179771194
1.172391122
1.165236498
1.157809844
1.149798206
1.142131919
1.135931263
1.130262097
1.125021062
1.115867588
1.369527363
1.359289182
1.348944597
1.338839305
1.329097969
1.319575397
1.309912146
1.300320968
1.291212588
1.282428363
1.274156927
1.266060172
1.257228207
1.247993235
1.239413227
1.231071492
1.222412468
1.214315701
1.207294672
1.200462287
1.193140397
1.18574927
1.178493598
1.171219381
1.163926383
1.156657353
1.14890667
1.141261553
1.13580055
1.131405338
1.126539241
1.117089428
1.367582256
1.357138769
1.346820167
1.336661195
1.327032867
1.317914839
1.308835629
1.299624691
1.29051641
1.281446019
1.272548349
1.264444841
1.25680959
1.24839127
1.239220111
1.229939016
1.221247029
1.213521426
1.20624202
1.199254161
1.192565806
1.185798451
1.178828615
1.171297155
1.163378065
1.156096056
1.148994015
1.141705999
1.13535414
1.128822629
1.123480021
1.114764302
1.364273493
1.354210045
1.344753082
1.335204769
1.325649343
1.316542628
1.307947456
1.299141605
1.289847642
1.280749549
1.27222585
1.263748753
1.255201016
1.246725747
1.23787885
1.228806104
1.220342229
1.21234936
1.204891839
1.198217642
1.192692524
1.186857552
1.180173215
1.172367576
1.163635002
1.155464897
1.149311147
1.143023296
1.135209448
1.128066826
1.122734617
1.114322599
1.362381799
1.352716675
1.343101355
1.333562069
1.324099284
1.314699009
1.305361939
1.29618706
1.287275367
1.278716719
1.270320842
1.261756458
1.253163267
1.245113827
1.237075436
1.228574624
1.220077201
1.212125638
1.204765675
1.197781974
1.190798572
1.183623496
1.176623592
1.169538182
1.16228393
1.155095861
1.147769054
1.140543925
1.133910554
1.127700585
1.122755141
1.114482244
1.359612178
1.34974902
1.34035332
1.331375635
1.322287289
1.31285325
1.303359698
1.294136728
1.285339679
1.276683112
1.26814147
1.260284337
1.252532251
1.244224549
1.235801203
1.227505563
1.219169831
1.211178354
1.203679882
1.196725893
1.189977809
1.183030501
1.175837319
1.168902823
1.16204248
1.155016374
1.147816615
1.140724804
1.134173968
1.128000528
1.122607687
1.113561234
1.357152436
1.347532167
1.338561203
1.329552774
1.320264186
1.310877973
1.301438553
1.292085823
1.283074732
1.274652096
1.266811614
1.258807183
1.250422969
1.241795497
1.233441047
1.225976097
1.218696571
1.211136927
1.203711516
1.196550991
1.189225843
1.181761207
1.174529743
1.168225639
1.162499935
1.155903079
1.14888605
1.142005119
1.135470628
1.128639417
1.122748927
1.11349678
1.356864712
1.346620071
1.336739118
1.32707303
1.317588115
1.308224968
1.299222429
1.290759442
1.282468135
1.273986686
1.265434594
1.257003087
1.248766532
1.240712832
1.232861625
1.22493318
1.217196671
1.209800911
1.202355077
1.194970114
1.188163445
1.181459111
1.174433282
1.167327391
1.159946226
1.152620055
1.145527861
1.138694726
1.132375618
1.126535719
1.121801442
1.112853753
1.354886517
1.344779633
1.335050416
1.325433092
1.315911873
1.306699567
1.297868249
1.289240215
1.280795982
1.272413298
1.263980101
1.255484041
1.247047907
1.238821314
1.230757617
1.222688207
1.2151042
1.208486044
1.201886476
1.194844729
1.187659665
1.180321244
1.172822519
1.165295427
1.158198115
1.151444824
1.144672189
1.138043082
1.131554979
1.125175093
1.120307707
1.112143716
1.353389173
1.342793679
1.332781478
1.323113755
1.313715915
1.304549865
1.295512642
1.286798765
1.278570712
1.270436847
1.261976458
1.253316542
1.244820487
1.236696764
1.228969729
1.221594663
1.214540899
1.207528848
1.200474283
1.193298246
1.185856452
1.178725455
1.172085877
1.165053475
1.15750082
1.150079553
1.14300772
1.136376749
1.13048558
1.12485879
1.119780948
1.110711172
1.353043862
1.342484651
1.332332787
1.322454564
1.312753937
1.303233603
1.294113584
1.285489537
1.277063875
1.268616013
1.260204431
1.251816612
1.24343872
1.235223232
1.227348339
1.2197723
1.212372289
1.205087456
1.198454854
1.19231352
1.185600444
1.178281746
1.170755741
1.163112636
1.155366189
1.148250063
1.142049318
1.136049129
1.130229153
1.124370986
1.118992213
1.109618554
1.352238071
1.341446895
1.331030141
1.320835825
1.310924597
1.301520116
1.292453638
1.28348522
1.274709542
1.266136426
1.257674461
1.249309594
1.24100211
1.232780079
1.22484492
1.217454987
1.210670325
1.204231556
1.197588779
1.190612358
1.183595886
1.176222638
1.168754253
1.16171347
1.154805816
1.148106437
1.141514748
1.135114925
1.128956983
1.123158061
1.118564168
1.109807749
1.351197968
1.340103372
1.329568332
1.319626838
1.310212933
1.300754504
1.290920657
1.281219786
1.272149379
1.26377814
1.255575623
1.247369269
1.239335398
1.231566987
1.224026253
1.216707711
1.209607676
1.20260381
1.19543963
1.188175581
1.181558629
1.175272927
1.168278452
1.160713084
1.153373039
1.146411145
1.139915725
1.134169645
1.128684749
1.122922064
1.11767982
1.108514068
1.35068614
1.339883732
1.329671861
1.319765242
1.309926403
1.30009627
1.290549636
1.281334105
1.272242446
1.263057518
1.253950315
1.245211686
1.236914073
1.229064354
1.22160999
1.214363775
1.207212353
1.200307493
1.193760696
1.187376976
1.180570409
1.173151437
1.165735595
1.158685659
1.152113559
1.145649714
1.139534128
1.133542726
1.127643846
1.121562742
1.116264501
1.10782282
1.350072039
1.339312599
1.328964754
1.318871909
1.309040026
1.299490679
1.289968091
1.280213321
1.270323627
1.260456621
1.251117004
1.242501883
1.234286904
1.226470684
1.219463815
1.212933445
1.206264407
1.199516783
1.192502725
1.185290559
1.177899754
1.170810351
1.164364964
1.157848445
1.150848281
1.144009092
1.13764813
1.131726713
1.126587397
1.121275949
1.116247887
1.107089503
1.349753164
1.338824422
1.328418871
1.318520369
1.308891518
1.299199443
1.289240715
1.279160549
1.269397922
1.259974779
1.250809111
1.241988554
1.233701865
1.226087127
1.218784848
1.211405268
1.204304351
1.197380972
1.190186915
1.182736297
1.175577453
1.168811349
1.161921138
1.155097507
1.148800611
1.142904365
1.137037595
1.131330429
1.125626236
1.119712787
1.114405405
1.10538578
1.348570249
1.338064244
1.328083572
1.318371297
1.308678126
1.298850758
1.28886728
1.278810333
1.268819462
1.259017595
1.249591917
1.240693022
1.232280412
1.224083959
1.216359512
1.209608134
1.203139476
1.196297159
1.189121496
1.181780157
1.17445387
1.167344861
1.160649882
1.154269457
1.14782377
1.141391032
1.135344886
1.129428522
1.12365872
1.118298929
1.113591902
1.104847029
1.347212232
1.337160013
1.327424105
1.317779474
1.308075199
1.298236882
1.288137714
1.277755702
1.267409497
1.25756615
1.248368312
1.239436167
1.230542391
1.222369665
1.215274626
1.208395025
1.201271954
1.194001006
1.186654364
1.179419762
1.172366707
1.16536237
1.1585417
1.151994349
1.14554288
1.139460136
1.133988096
1.128569465
1.123219443
1.117378119
1.111879779
1.102672674
1.345082956
1.335504787
1.326140566
1.316766198
1.307232051
1.297474502
1.28743204
1.277265007
1.267324374
1.257712261
1.248345669
1.239232247
1.230455841
1.222196851
1.214443701
1.207161916
1.200121605
1.192784152
1.185094334
1.177576122
1.170484023
1.163721732
1.157132797
1.150725976
1.144685319
1.138930413
1.132991363
1.126993159
1.12115853
1.115120758
1.110260593
1.101946161
1.342440795
1.333538784
1.324858686
1.315841666
1.306476993
1.296927572
1.287155894
1.277138282
1.267045804
1.256913023
1.2470994
1.238333375
1.230164561
1.222201623
1.214416245
1.206613858
1.198875966
1.191346344
1.18414943
1.176977232
1.169680296
1.162413961
1.155330311
1.148658838
1.142416363
1.136446914
1.130737413
1.125471536
1.120143889
1.114540801
1.109266276
1.100072559
1.339625423
1.331569755
1.323148573
1.314268422
1.305114739
1.295819733
1.286240287
1.276266444
1.266164769
1.256358052
1.247032508
1.238009649
1.229156235
1.220780104
1.212677436
1.20477734
1.197482995
1.190511598
1.183069925
1.175210556
1.167301768
1.15969025
1.153037843
1.147222082
1.14126836
1.135374797
1.129654873
1.123641316
1.117839711
1.112012104
1.10692572
1.09884768
1.335889131
1.327960508
1.32002494
1.311763025
1.303170578
1.29437394
1.285194484
1.275442744
1.265444653
1.255626144
1.246148217
1.23716805
1.228966233
1.221126784
1.213370673
1.205764378
1.197781852
1.189337364
1.181445747
1.174296984
1.167100721
1.159798646
1.152857753
1.145854133
1.139042845
1.132632532
1.126572778
1.121039645
1.116268304
1.111154307
1.106353226
1.097483611
1.33206694
1.324471497
1.317010109
1.309167703
1.300904192
1.292431435
1.283556668
1.27404122
1.264211258
1.254512967
1.245241086
1.236530838
1.228157942
1.219891437
1.211914971
1.204062545
1.196204825
1.18917731
1.182077101
1.174227691
1.165934057
1.157902446
1.150425478
1.143666515
1.137811838
1.131901161
1.126092765
1.120539706
1.114693718
1.108765621
1.103670697
1.095502755
1.327275447
1.320358825
1.313445553
1.306033519
1.298148474
1.290023226
1.281517247
1.272296313
1.262729176
1.253534691
1.244830582
1.236314144
1.228034633
1.220010625
1.212320604
1.204743125
1.197168489
1.18906067
1.180564745
1.172213582
1.16461247
1.157606969
1.150624133
1.144007066
1.137227386
1.130624292
1.124371974
1.118307075
1.112766818
1.107633991
1.102870278
1.094291716
1.323168615
1.315993154
1.309242162
1.302185354
1.294732309
1.287075997
1.279037979
1.270485514
1.261583464
1.252545907
1.243762815
1.235372699
1.227211399
1.219094977
1.211114135
1.203229571
1.195330311
1.187684021
1.18048013
1.172870932
1.164924504
1.156668181
1.148989659
1.142038703
1.135746358
1.130184134
1.124386569
1.118582162
1.112637466
1.106100055
1.100560536
1.091784354
1.319545501
1.311895897
1.305024139
1.298160438
1.291082804
1.283872447
1.27627656
1.267828689
1.258779011
1.249838049
1.241509885
1.233913618
1.226351953
1.21863718
1.211056638
1.203560168
1.196045286
1.18824254
1.179640065
1.170932504
1.162854971
1.15576681
1.149014741
1.142487988
1.136108587
1.129496138
1.122987604
1.11678693
1.110774804
1.105091594
1.099980468
1.091216611
1.31372642
1.306358188
1.299727168
1.293250828
1.286718253
1.280013755
1.272726528
1.26463861
1.256423163
1.24838738
1.24073978
1.233091946
1.225273829
1.217589775
1.210113967
1.202406616
1.194373239
1.186104489
1.178387928
1.171035492
1.163546633
1.155541614
1.147659843
1.140520028
1.133962746
1.128314151
1.122719054
1.116932547
1.111051039
1.10444286
1.0986137
1.089327254
1.310361668
1.302324326
1.295066308
1.288478204
1.282087208
1.275622411
1.268775441
1.261360156
1.253427728
1.245510673
1.23783952
1.230227308
1.223254294
1.216453398
1.209437094
1.202245789
1.19471976
1.186858907
1.178447166
1.16958291
1.16133386
1.153916893
1.147300035
1.140816076
1.13441434
1.127785547
1.121174041
1.114881735
1.109013052
1.103363074
1.098334583
1.089484021
1.30398186
1.297025079
1.290042621
1.28347588
1.277155281
1.270891853
1.264059847
1.256531299
1.24906737
1.242624759
1.236310812
1.229812543
1.222804844
1.215457544
1.208399275
1.201315701
1.193389935
1.184817876
1.176606002
1.169278875
1.161991023
1.154368663
1.146696081
1.139768571
1.133001889
1.126226797
1.120428005
1.114899258
1.10929913
1.102596436
1.096370125
1.08703618
1.299702511
1.293799722
1.286183089
1.278885058
1.271965894
1.26535858
1.258991266
1.252676253
1.246214599
1.239192365
1.232331606
1.22587786
1.219254778
1.212749043
1.206523335
1.199979097
1.192695466
1.185035811
1.177319816
1.168877385
1.160387085
1.15287941
1.146507266
1.140286868
1.133861651
1.127293597
1.120572196
1.11372785
1.107308334
1.101183018
1.095555725
1.086840352
1.291949877
1.288261505
1.281511479
1.274127905
1.267247236
1.260965718
1.254574832
1.247838107
1.241211031
1.234987517
1.22937157
1.223767543
1.217920188
1.211860265
1.205556789
1.198756243
1.191061762
1.182555154
1.174286255
1.167173625
1.160503726
1.153523037
1.146225603
1.139518231
1.133123838
1.126612256
1.120589202
1.114139852
1.107802082
1.100517429
1.094173923
1.085196317
1.285762435
1.28397241
1.278356681
1.270136157
1.261734244
1.254807826
1.248576839
1.242435256
1.237135288
1.231861619
1.225837593
1.220274885
1.214832733
1.209149122
1.202939858
1.196105714
1.188525294
1.181331735
1.17402995
1.166447344
1.158802937
1.151954908
1.145532704
1.139758022
1.134017841
1.127879356
1.120911631
1.113235816
1.105804918
1.099166205
1.093954032
1.084849303
1.273577543
1.27567314
1.272468119
1.265749525
1.257727039
1.250934028
1.24524344
1.239773664
1.233118214
1.227126306
1.222457195
1.217879073
1.2128928
1.207521311
1.201569925
1.195252292
1.188312626
1.180281459
1.171511576
1.163438883
1.156271382
1.150109691
1.143786001
1.13767816
1.131729965
1.126349139
1.120611467
1.113895823
1.106489993
1.098958122
1.092707304
1.083228031
1.240517237
1.270912778
1.268175608
1.261352783
1.252559234
1.245222105
1.239266945
1.233213179
1.226987927
1.222201329
1.217544129
1.212863011
1.208055611
1.203184481
1.198106973
1.192557691
1.185679528
1.178176138
1.170662689
1.1634899
1.155967342
1.149008654
1.142698084
1.137296616
1.132225273
1.126643379
1.119738104
1.112840086
1.105062631
1.098215393
1.091255971
1.082053527
1.174874366
1.26057952
1.262220197
1.258369175
1.250064033
1.242072979
1.235968969
1.2300121
1.223493543
1.217470292
1.212317238
1.208358157
1.204133331
1.199466437
1.194519544
1.18978728
1.183912598
1.177225346
1.169790963
1.162453556
1.154714882
1.147684592
1.141398598
1.135812759
1.130218945
1.124791686
1.11918381
1.113163012
1.105958935
1.097855346
1.090810209
1.083102128
1.088508854
1.231251065
1.253950883
1.252757951
1.248144176
1.241431143
1.235005211
1.228134111
1.220651375
1.214219945
1.209095878
1.204373836
1.199174401
1.194308087
1.190494983
1.186439044
1.181852883
1.176314407
1.169064927
1.161254884
1.153250284
1.146045322
1.140384633
1.135842657
1.130832163
1.124812041
1.117774469
1.110873747
1.103505872
1.097592423
1.091389199
1.092262142
0.9969401271
1.178031938
1.238844988
1.245146696
1.242123503
1.235480953
1.22877773
1.223796569
1.21931169
1.213415754
1.207123699
1.201320792
1.196038766
1.191545729
1.186798693
1.18211779
1.177215588
1.171367177
1.164774066
1.158123094
1.151631054
1.145510636
1.139777071
1.134465499
1.128192626
1.122227656
1.115213553
1.109951818
1.104626778
1.099012364
1.101727707
1.15090594
0.9385043144
1.085271496
1.225634194
1.238817306
1.237483049
1.232882961
1.22568891
1.219463885
1.213988589
1.208432669
1.202438826
1.196374367
1.190557967
1.185327501
1.181828164
1.178026609
1.173628401
1.167787895
1.161839523
1.155705595
1.149858952
1.143627758
1.138843791
1.133644889
1.127058941
1.121095181
1.116646355
1.111113988
1.113120335
1.133413484
1.174297574
1.239703374
0.9123867614
0.9924452805
1.18088701
1.226663194
1.231178597
1.229347341
1.224642463
1.218190456
1.212010671
1.206037456
1.200028378
1.193943638
1.188448533
1.182888992
1.177976113
1.173351184
1.169064604
1.164141098
1.159722626
1.154236332
1.148996046
1.142454586
1.136324409
1.130155477
1.12732295
1.121929058
1.122904638
1.140315485
1.18029411
1.227849111
1.26642569
1.274846981
0.9005388434
0.9300896773
1.091277915
1.214741024
1.225668652
1.224400013
1.219863252
1.213010492
1.20715705
1.201638736
1.195894962
1.189456958
1.183046367
1.176441313
1.172297505
1.168429135
1.164870512
1.16018561
1.156005395
1.150362037
1.145673397
1.139517865
1.135486061
1.130387268
1.1311945
1.146561211
1.186849079
1.238145065
1.276270251
1.293778889
1.299592993
1.29267368
0.8937864332
0.9018106712
0.992104332
1.178481765
1.215693207
1.217409198
1.218015483
1.213415511
1.206116267
1.199904173
1.194344049
1.187899494
1.180835438
1.172978956
1.168194218
1.164084138
1.160996989
1.156667588
1.152268634
1.147406155
1.143610725
1.138365033
1.139865521
1.156378825
1.194781378
1.245376027
1.287004014
1.306754513
1.309945873
1.308036608
1.305691498
1.300966263
0.8877794603
0.8893641045
0.9248657866
1.097690751
1.205422936
1.21087002
1.21100183
1.208581539
1.201833716
1.196446964
1.19136649
1.184552298
1.177247264
1.169779639
1.163549579
1.159215399
1.155438455
1.152009638
1.149486373
1.145717635
1.148382324
1.168399904
1.212635952
1.268878095
1.308837134
1.326310915
1.327375451
1.324329062
1.317103761
1.308489947
1.305330674
1.301335327
0.8817662065
0.8817369402
0.8922005441
0.9985562924
1.16995392
1.204292286
1.210090834
1.20814708
1.201182509
1.192997837
1.186191264
1.180399431
1.173904347
1.167641512
)
;

boundaryField
{
    inlet
    {
        type            fixedValue;
        value           nonuniform 0();
    }
    outlet
    {
        type            inletOutlet;
        inletValue      uniform 1;
        value           nonuniform List<scalar> 
69
(
1.108908614
1.111706432
1.109451712
1.109515675
1.110182833
1.112946238
1.110860411
1.111517554
1.114067237
1.111991779
1.112767823
1.115320049
1.113273964
1.114160331
1.116683552
1.114611414
1.11518636
1.115781759
1.116135139
1.11653489
1.116778147
1.117184874
1.117231045
1.118133153
1.116092395
1.115978256
1.115621206
1.115884542
1.117086338
1.114789217
1.114356683
1.114510126
1.11357306
1.113502186
1.112855463
1.112179394
1.110715019
1.109613287
1.109807153
1.108512144
1.107850991
1.107082847
1.105393235
1.104838327
1.1026567
1.101952054
1.100053482
1.098863178
1.097466322
1.095522185
1.09427551
1.091778564
1.091207169
1.089310607
1.089479636
1.087029792
1.086854035
1.085195625
1.084850072
1.083230374
1.082059832
1.083103167
1.092248452
1.150888236
1.239589139
1.274888165
1.292793245
1.300981082
1.301305956
)
;
    }
    bottom
    {
        type            slip;
    }
    top
    {
        type            slip;
    }
    obstacle
    {
        type            zeroGradient;
    }
    defaultFaces
    {
        type            empty;
    }
    procBoundary5to4
    {
        type            processor;
        value           nonuniform List<scalar> 
69
(
1.382546625
1.386411129
1.383960862
1.384568716
1.385521439
1.388033369
1.387259402
1.388094321
1.389712368
1.391519219
1.393117001
1.394074746
1.393877516
1.393807779
1.39437994
1.394067907
1.394253144
1.393829483
1.393281464
1.392750213
1.391574995
1.390640366
1.390113734
1.388414378
1.386685696
1.385296303
1.383622185
1.382093006
1.379758139
1.378313876
1.375133708
1.37256643
1.370094984
1.367499465
1.367409384
1.365570167
1.364603073
1.36406091
1.363458493
1.362860468
1.36219523
1.361440538
1.361075336
1.35954375
1.35764527
1.354976458
1.351966834
1.347951057
1.344294965
1.340323133
1.33507066
1.331300949
1.327307616
1.32099694
1.31620053
1.307901601
1.301600368
1.28724258
1.250592865
1.181865715
1.092122267
1.001937943
0.9465414234
0.9232668801
0.913193067
0.9063413677
0.8998875655
0.8942362379
0.8888181415
)
;
    }
    procBoundary5to10
    {
        type            processor;
        value           uniform 0.883782552;
    }
    procBoundary5to11
    {
        type            processor;
        value           nonuniform List<scalar> 
33
(
1.160379738
1.155915829
1.151552998
1.149514447
1.154525628
1.181772293
1.226718825
1.277388325
1.315084425
1.326076768
1.333276748
1.331441947
1.328140858
1.323595124
1.316640088
1.308888053
1.304866053
1.301529254
0.876727078
0.8766434523
0.8791792175
0.92364423
1.099804914
1.189940736
1.204222087
1.204913788
1.199870015
1.192992619