/*--------------------------------*- C++ -*----------------------------------*\
  =========                 |
  \\      /  F ield         | OpenFOAM: The Open Source CFD Toolbox
   \\    /   O peration     | Website:  https://openfoam.org
    \\  /    A nd           | Version:  7
     \\/     M anipulation  |
\*---------------------------------------------------------------------------*/
FoamFile
{
    version     2.0;
    format      ascii;
    class       volScalarField;
    location    "3.4";
    object      T;
}
// * * * * * * * * * * * * * * * * * * * * * * * * * * * * * * * * * * * * * //

dimensions      [0 0 0 1 0 0 0];

internalField   nonuniform List<scalar> 
22
(
0.9342642602
0.9808314702
0.9316624394
0.9282281485
0.9592201947
1.070403975
0.9711078686
0.951711962
0.9689973799
1.074142662
1.04408874
0.9900230487
0.9603472905
1.066520203
1.064182079
1.040257094
0.9993364744
1.027317651
1.052230628
1.051197336
1.038797576
1.004122498
)
;

boundaryField
{
    inlet
    {
        type            fixedValue;
        value           nonuniform 0();
    }
    outlet
    {
        type            inletOutlet;
        inletValue      nonuniform 0();
        value           nonuniform 0();
    }
    bottom
    {
        type            slip;
    }
    top
    {
        type            slip;
    }
    obstacle
    {
        type            zeroGradient;
    }
    defaultFaces
    {
        type            empty;
    }
    procBoundary27to20
    {
        type            processor;
        value           nonuniform List<scalar> 2(1.141910986 1.072190055);
    }
    procBoundary27to21
    {
        type            processor;
        value           nonuniform List<scalar> 4(0.9437964771 0.9977409189 0.9222133482 0.9222133482);
    }
    procBoundary27to26
    {
        type            processor;
        value           nonuniform List<scalar> 3(1.023100086 1.001913243 1.000024358);
    }
    procBoundary27to28
    {
        type            processor;
        value           nonuniform List<scalar> 6(1.027865846 1.016710721 1.016710721 0.998046295 0.965443119 0.9774889645);
    }
    procBoundary27to33
    {
        type            processor;
        value           nonuniform List<scalar> 5(1.027603179 1.048710765 1.047419989 1.027603179 1.00025246);
    }
    procBoundary27to34
    {
        type            processor;
        value           uniform 1.006774268;
    }
}


// ************************************************************************* //
