/*--------------------------------*- C++ -*----------------------------------*\
  =========                 |
  \\      /  F ield         | OpenFOAM: The Open Source CFD Toolbox
   \\    /   O peration     | Website:  https://openfoam.org
    \\  /    A nd           | Version:  7
     \\/     M anipulation  |
\*---------------------------------------------------------------------------*/
FoamFile
{
    version     2.0;
    format      ascii;
    class       volVectorField;
    location    "3.2";
    object      U;
}
// * * * * * * * * * * * * * * * * * * * * * * * * * * * * * * * * * * * * * //

dimensions      [0 1 -1 0 0 0 0];

internalField   nonuniform List<vector> 
138
(
(3 2.404003749e-12 0)
(3 5.325026081e-12 0)
(3 8.448641614e-12 0)
(3 1.152819812e-11 0)
(3 1.295916741e-11 0)
(3 2.143883098e-11 0)
(3 2.148121161e-11 0)
(3 2.153353586e-11 0)
(3 2.326524013e-11 0)
(3 1.271824963e-11 0)
(3 1.153067492e-10 0)
(3 -4.037985664e-10 0)
(3 1.799209707e-11 0)
(3 1.990469131e-11 0)
(3 2.003789972e-11 0)
(3 2.053722288e-11 0)
(3 1.808568598e-11 0)
(3 8.04419843e-11 0)
(3 -4.477973651e-10 0)
(3 2.546362334e-10 0)
(2.999999997 -6.080918657e-09 0)
(2.999999983 -2.340785024e-08 0)
(2.999999898 -1.701979587e-07 0)
(2.999999543 -7.120329093e-07 0)
(2.999997988 -3.432685041e-06 0)
(2.999992228 -1.296675464e-05 0)
(2.999975189 -4.340314533e-05 0)
(2.999871115 -0.0002481056774 0)
(2.999877448 -0.0002139690066 0)
(3 4.24782795e-11 0)
(3 -5.776840396e-11 0)
(3 3.463892096e-10 0)
(2.999999999 -2.461744148e-09 0)
(2.999999994 -7.830570696e-09 0)
(2.999999951 -7.893515613e-08 0)
(2.999999787 -3.155404743e-07 0)
(2.999998998 -1.665012747e-06 0)
(2.999996549 -5.495452294e-06 0)
(2.999987358 -2.192308263e-05 0)
(2.999963069 -6.128382328e-05 0)
(2.999884168 -0.0002106942975 0)
(2.999717785 -0.0004875543112 0)
(2.999244357 -0.001446170052 0)
(2.99848061 -0.002780262952 0)
(2.996452355 -0.007352873167 0)
(2.994798788 -0.009912614303 0)
(2.999999984 -2.324971381e-08 0)
(2.999999908 -1.321244957e-07 0)
(2.99999953 -7.396288616e-07 0)
(2.999998093 -3.02614449e-06 0)
(2.99999293 -1.174084103e-05 0)
(2.99997783 -3.761541422e-05 0)
(2.999934355 -0.0001148386522 0)
(2.999831486 -0.0002986573383 0)
(2.999574991 -0.0007709606133 0)
(2.999064572 -0.001752307201 0)
(2.997923842 -0.003955197698 0)
(2.996186287 -0.007511448603 0)
(2.992470993 -0.01537624779 0)
(2.988549118 -0.02415786675 0)
(2.980098273 -0.04301953994 0)
(2.974619241 -0.057909038 0)
(2.960728715 -0.08860310178 0)
(2.999988031 -2.014597171e-05 0)
(2.999961327 -6.997524689e-05 0)
(2.999894384 -0.0001908785935 0)
(2.999727548 -0.0005190223966 0)
(2.999373669 -0.001202916321 0)
(2.998700804 -0.002662922296 0)
(2.9974943 -0.005190596146 0)
(2.995461046 -0.009816288092 0)
(2.9919085 -0.01791624068 0)
(2.98800943 -0.02785151505 0)
(2.980201848 -0.04766267864 0)
(2.974434249 -0.06494916859 0)
(2.963323036 -0.09503911042 0)
(2.95882251 -0.1106734355 0)
(2.942640576 -0.1524692642 0)
(2.939002566 -0.1657692897 0)
(2.92617279 -0.1961610326 0)
(2.999045616 -0.002034866716 0)
(2.998197597 -0.004136049934 0)
(2.996508593 -0.008296038095 0)
(2.994325275 -0.01384102137 0)
(2.990060346 -0.02509498083 0)
(2.986750975 -0.0365014244 0)
(2.979040069 -0.05947160446 0)
(2.975578452 -0.07552423741 0)
(2.962972777 -0.1147557327 0)
(2.961344998 -0.1347131328 0)
(2.947186122 -0.1780815839 0)
(2.948399436 -0.1882070556 0)
(2.932849569 -0.2272404807 0)
(2.92732262 -0.2365983657 0)
(2.915055035 -0.2597009011 0)
(2.914626966 -0.2619533761 0)
(2.905422285 -0.2774711708 0)
(2.988057955 -0.03094015343 0)
(2.985108636 -0.04225470043 0)
(2.97965425 -0.06043013534 0)
(2.974639342 -0.07667140591 0)
(2.967025268 -0.1042958838 0)
(2.964617931 -0.119778135 0)
(2.9586597 -0.145363048 0)
(2.955869842 -0.1658896621 0)
(2.94577759 -0.194234444 0)
(2.944720992 -0.2034208896 0)
(2.929901777 -0.2265976256 0)
(2.920474478 -0.2449806219 0)
(2.915473208 -0.2494314156 0)
(2.908693795 -0.2548586863 0)
(2.90335447 -0.2618836142 0)
(2.900397316 -0.2659059084 0)
(2.898213067 -0.2670562813 0)
(2.9306398 -0.1709209828 0)
(2.922080906 -0.2016462193 0)
(2.91153009 -0.2310525524 0)
(2.905596741 -0.249925848 0)
(2.889148494 -0.283161749 0)
(2.883820711 -0.2943506265 0)
(2.874842228 -0.3141513801 0)
(2.869537235 -0.314330375 0)
(2.864777753 -0.3114198268 0)
(2.861037545 -0.3010226562 0)
(2.859619782 -0.2996400254 0)
(2.857017494 -0.2922641875 0)
(2.856071667 -0.2870348209 0)
(2.863361654 -0.2811556575 0)
(2.869676741 -0.2768228339 0)
(2.870443558 -0.2756197148 0)
(2.873508043 -0.2732229925 0)
(2.85612561 -0.2582614892 0)
(2.855691141 -0.2617239936 0)
(2.856603455 -0.2643024732 0)
(2.859705787 -0.2608812257 0)
(2.860916479 -0.2644170539 0)
(2.861900503 -0.2613789282 0)
(2.861745446 -0.2648677193 0)
)
;

boundaryField
{
    inlet
    {
        type            fixedValue;
        value           nonuniform 0();
    }
    outlet
    {
        type            inletOutlet;
        inletValue      nonuniform 0();
        value           nonuniform 0();
    }
    bottom
    {
        type            slip;
    }
    top
    {
        type            slip;
    }
    obstacle
    {
        type            slip;
    }
    defaultFaces
    {
        type            empty;
    }
    procBoundary14to7
    {
        type            processor;
        value           uniform (3 9.660733619e-13 0);
    }
    procBoundary14to8
    {
        type            processor;
        value           nonuniform List<vector> 
18
(
(3 5.149660212e-14 0)
(3 2.296774427e-13 0)
(3 7.187559391e-13 0)
(3 1.653897074e-12 0)
(3 2.87894922e-12 0)
(3 5.269715063e-12 0)
(3 8.207916467e-12 0)
(3 1.138526605e-11 0)
(3 1.465421707e-11 0)
(3 1.496788035e-11 0)
(3 2.414866904e-11 0)
(3 2.459502969e-11 0)
(2.999999999 -9.763725225e-10 0)
(2.999999999 -9.763725225e-10 0)
(2.99999999 -1.650806146e-08 0)
(2.999999956 -6.631856723e-08 0)
(2.999998743 -2.358967664e-06 0)
(3.000000296 6.332697044e-07 0)
)
;
    }
    procBoundary14to9
    {
        type            processor;
        value           nonuniform List<vector> 8((2.99588766 -0.009280537139 0) (2.975834354 -0.06208561434 0) (2.952348953 -0.1485370484 0) (2.927869545 -0.2206523622 0) (2.896613285 -0.2740734268 0) (2.895515137 -0.2671699355 0) (2.891459427 -0.2392045859 0) (2.954811415 0.03111154993 0));
    }
    procBoundary14to13
    {
        type            processor;
        value           nonuniform List<vector> 7((3 1.205654336e-11 0) (3 3.141936668e-11 0) (2.999999999 -1.329888314e-09 0) (2.999996661 -5.582354896e-06 0) (2.999589289 -0.0008320729241 0) (2.992401955 -0.0188099371 0) (2.947479219 -0.1317692118 0));
    }
    procBoundary14to20
    {
        type            processor;
        value           nonuniform List<vector> 
11
(
(2.898267087 -0.1191279858 0)
(2.895368722 -0.1231306628 0)
(2.889519788 -0.13978513 0)
(2.879105052 -0.1605224864 0)
(2.872336753 -0.1780872967 0)
(2.871459065 -0.1942657084 0)
(2.866202933 -0.2110717167 0)
(2.858731899 -0.2246234707 0)
(2.854596296 -0.2344023434 0)
(2.854695642 -0.244783481 0)
(2.854695642 -0.244783481 0)
)
;
    }
}


// ************************************************************************* //
