/*--------------------------------*- C++ -*----------------------------------*\
  =========                 |
  \\      /  F ield         | OpenFOAM: The Open Source CFD Toolbox
   \\    /   O peration     | Website:  https://openfoam.org
    \\  /    A nd           | Version:  7
     \\/     M anipulation  |
\*---------------------------------------------------------------------------*/
FoamFile
{
    version     2.0;
    format      ascii;
    class       volScalarField;
    location    "5";
    object      p;
}
// * * * * * * * * * * * * * * * * * * * * * * * * * * * * * * * * * * * * * //

dimensions      [1 -1 -2 0 0 0 0];

internalField   nonuniform List<scalar> 
2222
(
1.003864212
1.003796404
1.003617827
1.00342168
1.003173437
1.003276336
1.003660961
1.004100532
1.004528697
1.005769774
1.019101796
1.164227638
1.570634941
1.918761909
1.969746448
2.010720233
2.029631945
2.00312278
0.9733364217
1.000098825
0.9921413645
0.9964756299
1.004652111
1.00823855
1.007919391
1.006769615
1.006032954
1.005970217
1.005608734
1.004544077
1.003892455
1.004174637
1.004696981
1.004631028
1.004317267
1.003846773
1.003382122
1.003418974
1.003825491
1.004478829
1.00480029
1.005293353
1.007066639
1.045040941
1.241080627
1.683435539
1.951425726
2.044157196
2.040066056
2.016770798
0.9877146104
1.006162473
1.004566262
1.002035766
1.004229807
1.006948876
1.007183312
1.006537618
1.005710618
1.00516292
1.005075101
1.004993678
1.005047374
1.005517082
1.00586479
1.005708652
1.005142991
1.00430195
1.003715207
1.003726031
1.004050697
1.004638052
1.005196162
1.005305967
1.005562787
1.011967398
1.068228828
1.374012396
1.819240986
2.013219493
2.012197005
2.00966374
0.9963714703
1.002060394
1.005650936
1.005046248
1.004943085
1.006049337
1.006173909
1.005674985
1.004795157
1.004349637
1.004380632
1.004653267
1.005042762
1.005591431
1.005818763
1.005688488
1.005114056
1.004244246
1.003666969
1.003654954
1.003889378
1.004381855
1.004922918
1.005161738
1.005226141
1.005940832
1.016112648
1.136290059
1.528206455
1.864227314
1.971813813
2.019264105
1.004875293
1.00437299
1.005241838
1.005547505
1.005957665
1.006029047
1.005863973
1.005283166
1.004572256
1.004212564
1.00417439
1.004282012
1.004668501
1.005072972
1.005211793
1.005143049
1.004776351
1.004224546
1.003843301
1.003812812
1.003921289
1.004246279
1.004766535
1.005171008
1.005187014
1.005291704
1.006524848
1.036541395
1.214417838
1.629836341
1.943699742
2.023217458
1.006148009
1.005831144
1.005273717
1.005293512
1.00583556
1.006333903
1.006266786
1.005790974
1.005087458
1.004600458
1.00445221
1.004447112
1.00458766
1.00472856
1.00473729
1.004717044
1.004625376
1.004374659
1.004071012
1.003968686
1.003998254
1.004161005
1.004613171
1.005206981
1.005287227
1.005254181
1.0053524
1.01012911
1.059276403
1.333078429
1.756850209
1.978887418
1.004956865
1.005995572
1.005601043
1.005161251
1.005456944
1.006134997
1.006597156
1.006386924
1.005839316
1.005239361
1.005071972
1.005005942
1.005108201
1.005226552
1.005109237
1.004963364
1.004817529
1.004591455
1.00427421
1.004142661
1.004144756
1.004251367
1.004589068
1.005240558
1.00548934
1.005464898
1.005344819
1.00580387
1.014519885
1.112237765
1.443954366
1.884180185
1.004144157
1.00569117
1.005562857
1.005019502
1.005080021
1.005585479
1.006361889
1.006715045
1.006560356
1.006099844
1.005873976
1.00581014
1.005895332
1.005975995
1.005813968
1.005555526
1.005207812
1.004767886
1.004412969
1.004312185
1.004312683
1.00440132
1.004677766
1.005229589
1.005616935
1.005617551
1.005505385
1.005395719
1.006320782
1.027695479
1.171553901
1.677474662
1.005040161
1.005358184
1.005466916
1.005048535
1.005094194
1.005353756
1.005768137
1.006640948
1.007076335
1.00689029
1.006650559
1.006553634
1.006495578
1.006478121
1.006322281
1.005961289
1.005404611
1.004803759
1.004456489
1.004397181
1.004425707
1.004537044
1.004810708
1.005152831
1.005534665
1.005606387
1.005563581
1.005313961
1.005299962
1.008498875
1.042643574
1.424731279
1.005062975
1.005114417
1.005400255
1.005367734
1.005212864
1.005380573
1.005739122
1.006340727
1.007082345
1.007202202
1.007111753
1.006968647
1.00687406
1.00662795
1.006412191
1.006030612
1.005370015
1.004704415
1.00445547
1.004435556
1.004467396
1.004606412
1.004920244
1.005199871
1.005393135
1.005472228
1.005459389
1.005265105
1.004962052
1.005230621
1.010234761
1.217685376
1.004447922
1.004938009
1.005364385
1.005776064
1.005712683
1.005777409
1.006000492
1.006304251
1.00691466
1.007289754
1.007279292
1.007209996
1.006999802
1.006637431
1.006264981
1.00580556
1.00521224
1.004748112
1.004630614
1.004639979
1.004684656
1.004834665
1.005167462
1.005350819
1.005398202
1.005401048
1.005354401
1.005178622
1.004792815
1.004619869
1.005112131
1.095339975
1.003340117
1.00455269
1.005469267
1.006206068
1.006389515
1.006336321
1.006371825
1.006560968
1.00691275
1.007175547
1.00721192
1.007146229
1.006928009
1.006574881
1.006197697
1.005816343
1.005393803
1.00506095
1.004945893
1.004963189
1.005024906
1.005181913
1.005460382
1.005553658
1.005544605
1.005499226
1.005386031
1.005162658
1.004763595
1.004373867
1.004403339
1.038754353
1.003218602
1.00437662
1.00558889
1.006591549
1.006884607
1.006842662
1.006597545
1.006553861
1.00671416
1.006772767
1.006805726
1.006888616
1.00678943
1.006545725
1.0062584
1.005947213
1.005641671
1.005431333
1.005291956
1.00527861
1.005363726
1.005552617
1.005791816
1.005837372
1.005808862
1.005739339
1.00556961
1.005268531
1.004889525
1.004418845
1.004235431
1.016404524
1.003344211
1.004097657
1.005273777
1.006520292
1.00680519
1.006795275
1.006561255
1.006366695
1.006420579
1.006441153
1.006428965
1.006563735
1.006662316
1.006517589
1.00625405
1.005946967
1.005680788
1.005566148
1.005477202
1.005467157
1.005574427
1.005800612
1.006038818
1.006083777
1.00605212
1.005977658
1.005782008
1.005459284
1.005067086
1.004664475
1.004336746
1.008399844
1.003276917
1.003728711
1.004878271
1.006225176
1.006626797
1.006678861
1.006519951
1.006200613
1.006170604
1.006212086
1.006177437
1.006253982
1.006449608
1.006392694
1.006177094
1.005891629
1.005600047
1.005450629
1.00544289
1.005497571
1.005622794
1.005865004
1.006156525
1.006218326
1.006204583
1.00614208
1.005969094
1.005650319
1.005272765
1.004944566
1.004592426
1.005898769
1.00305541
1.00376938
1.005079447
1.006148997
1.006381449
1.006446905
1.006350964
1.006004885
1.005880484
1.005989508
1.006054122
1.006131959
1.006300001
1.006286775
1.006116469
1.005824418
1.005518058
1.005343065
1.005360664
1.005424221
1.005542283
1.005772943
1.006101957
1.006197934
1.006202351
1.006173419
1.006036817
1.005755858
1.005443862
1.005191061
1.004863298
1.005219865
1.003635832
1.004530088
1.005649816
1.006330553
1.006433059
1.006412128
1.006205612
1.005779538
1.005571157
1.005709967
1.005935182
1.006107221
1.006274367
1.006279692
1.006151596
1.005911439
1.005584227
1.005348661
1.005266123
1.00528449
1.005356178
1.005561157
1.005897567
1.00605959
1.006078422
1.006069277
1.005969811
1.005737873
1.005494514
1.00531069
1.00505524
1.005080935
1.004620901
1.005370013
1.006093078
1.006519165
1.006594695
1.006523681
1.006216868
1.005727111
1.005516924
1.005593551
1.005869689
1.006173217
1.006386505
1.006411763
1.006329919
1.00612708
1.0058009
1.005437592
1.005191764
1.005131021
1.005155732
1.005318246
1.00564846
1.005880648
1.005927427
1.005926967
1.005852818
1.005670203
1.005493692
1.00535804
1.005211328
1.00508434
1.005453448
1.005878809
1.006208601
1.006541125
1.006683798
1.006625629
1.006360776
1.005876749
1.005737881
1.005758267
1.005972009
1.006343823
1.006589822
1.006613098
1.006551761
1.006368612
1.006026907
1.005530121
1.005107523
1.004978346
1.004972815
1.005089226
1.005425038
1.005693221
1.005798657
1.005814073
1.005769078
1.005642991
1.005499884
1.005402681
1.005315563
1.005144084
1.005745445
1.005741181
1.005818119
1.006108625
1.006544231
1.006621558
1.006481983
1.006129786
1.00601655
1.006019716
1.006186682
1.006555009
1.006761943
1.006752027
1.006671981
1.006454565
1.006048899
1.005485631
1.005038102
1.004885764
1.004869373
1.00496328
1.005295245
1.005568729
1.005730703
1.005797464
1.005783217
1.005701926
1.005591698
1.005523389
1.005462404
1.005283422
1.005441173
1.005307986
1.005336343
1.005649425
1.006187057
1.006555518
1.006527598
1.006357427
1.006241524
1.006232249
1.006405763
1.00672964
1.006848853
1.006810417
1.006687622
1.006427813
1.006007088
1.005488986
1.005126817
1.004971385
1.00493644
1.005016839
1.005294977
1.005529919
1.005691188
1.005817278
1.005855314
1.005804188
1.005730208
1.005694742
1.005655811
1.005471107
1.005564106
1.005375107
1.005328412
1.005504558
1.005853839
1.00619635
1.006305802
1.00626797
1.006225811
1.006281047
1.006463313
1.006671859
1.006732436
1.006691789
1.006550064
1.0062848
1.005952761
1.005571332
1.005321165
1.005191261
1.005119098
1.005160484
1.005324964
1.005504457
1.005654651
1.005806731
1.005915326
1.00592158
1.005883676
1.005883259
1.005873497
1.005683506
1.005955353
1.005786129
1.005671581
1.005668325
1.005676133
1.005730298
1.005827266
1.00587204
1.00592497
1.006070378
1.006253208
1.0063713
1.006423942
1.006417102
1.006294918
1.006089738
1.005886053
1.005643586
1.005473426
1.005384425
1.00535732
1.00535605
1.005430562
1.005526107
1.005598997
1.005722788
1.005868283
1.005933912
1.005963045
1.006029809
1.006054891
1.00588768
1.006313138
1.006293576
1.006147745
1.005780064
1.005483813
1.005406414
1.005479503
1.005609738
1.005675109
1.005774227
1.005824263
1.005865705
1.005936373
1.005988672
1.005934241
1.005826758
1.005765741
1.005689969
1.005605716
1.005605066
1.005677691
1.005662241
1.005620374
1.005580047
1.005523484
1.005582018
1.00572734
1.005860924
1.005981142
1.006128232
1.006155207
1.006002663
1.006446276
1.00641154
1.006270412
1.006023073
1.00576146
1.005642086
1.005725512
1.00584181
1.005900073
1.005844364
1.005728614
1.005625377
1.005598862
1.00560844
1.005588174
1.005556651
1.005582635
1.005616914
1.005653266
1.005738965
1.005868861
1.00585973
1.00574992
1.005574543
1.005442513
1.005469997
1.005596192
1.005793423
1.005990339
1.006169355
1.006176593
1.006015462
1.006360791
1.006313391
1.006207108
1.00603101
1.00590744
1.005905882
1.006066601
1.006268493
1.006268691
1.006168383
1.005965712
1.005800293
1.005655443
1.005523486
1.005429537
1.005372339
1.005387145
1.005448461
1.005550251
1.005674944
1.005817196
1.005820058
1.005703324
1.005484066
1.005375596
1.00538939
1.005473592
1.005704085
1.006010242
1.006196629
1.006184251
1.00601688
1.006250954
1.006177032
1.006040919
1.005825196
1.00577783
1.00591954
1.006187462
1.006512745
1.006574601
1.006521381
1.006364295
1.006166917
1.005941453
1.005720704
1.005513694
1.005380785
1.005358771
1.005387596
1.005472356
1.005602962
1.005728289
1.005708224
1.005606446
1.005384496
1.00529305
1.005297365
1.005351155
1.00554693
1.005942805
1.006189547
1.006190998
1.006067765
1.005835994
1.005680429
1.005517091
1.005396265
1.00542993
1.005657364
1.006007021
1.006457179
1.006643592
1.006659453
1.00657657
1.006406933
1.006212731
1.005980138
1.005701968
1.005528069
1.005488173
1.005493111
1.005544982
1.005681133
1.005781629
1.005754599
1.005666982
1.005424218
1.005289542
1.005279148
1.005331564
1.00550573
1.00587573
1.006181071
1.006210703
1.006140479
1.005175583
1.005101534
1.005036859
1.005077585
1.005232143
1.005510794
1.005858322
1.006246718
1.006551848
1.006612728
1.006577791
1.00645001
1.006270984
1.006072439
1.0058386
1.005689335
1.005663101
1.005663263
1.005719155
1.005889399
1.005979158
1.005963826
1.00588258
1.005638953
1.005422112
1.005389385
1.005430549
1.00558759
1.005903085
1.006230774
1.006286948
1.00622857
1.004590344
1.004640926
1.00472752
1.004910524
1.005174077
1.005427704
1.005658797
1.005887572
1.006154979
1.00631404
1.006312889
1.006267926
1.006177813
1.006052051
1.005899335
1.005796238
1.005756997
1.005765219
1.005874257
1.006088571
1.006208322
1.006219489
1.006144193
1.005924927
1.005617952
1.005484624
1.00549232
1.005622442
1.005891508
1.006217155
1.006401678
1.006367207
1.004463045
1.004345171
1.004356088
1.004526346
1.004747167
1.004928243
1.005055317
1.005189422
1.005414878
1.005640475
1.005731236
1.005781298
1.005793735
1.005817038
1.005871536
1.005923805
1.005924392
1.00588741
1.005936971
1.006081006
1.006184039
1.006236048
1.006201104
1.006045441
1.005741439
1.005511025
1.005407152
1.005294205
1.00539693
1.005775281
1.006228621
1.00638146
1.004814525
1.004465877
1.004153581
1.004080627
1.004275839
1.004558671
1.004838132
1.004963774
1.00512981
1.00536417
1.005576434
1.005724586
1.005804891
1.005763429
1.005536444
1.005342421
1.005543359
1.005975327
1.006133837
1.006267994
1.00633465
1.006300686
1.006090104
1.005895503
1.005843813
1.005825926
1.005902834
1.00587387
1.005808163
1.005689877
1.005596457
1.005693238
1.004976279
1.004765272
1.00446833
1.004173182
1.004236523
1.00434999
1.004649199
1.004988634
1.005209339
1.00539336
1.005578971
1.005814676
1.005921143
1.005906506
1.005552356
1.004922694
1.004676246
1.005324353
1.006118216
1.006320034
1.006352263
1.006366003
1.006171484
1.005887589
1.005811523
1.006057221
1.006465521
1.006673436
1.00668176
1.006672698
1.006482673
1.005939609
1.004928417
1.004948519
1.004776898
1.004529674
1.004347433
1.004356708
1.004330875
1.004707945
1.00528372
1.005531748
1.005633392
1.005833559
1.005988088
1.005903789
1.005491331
1.004817355
1.004541114
1.004804155
1.005686774
1.00615008
1.006134043
1.006099218
1.006089135
1.005867909
1.005684769
1.006052343
1.006695987
1.006999129
1.007061423
1.007071644
1.006953537
1.00639594
1.004862494
1.005009414
1.004920673
1.004807284
1.004776168
1.004527366
1.004296578
1.004520592
1.005207838
1.005642495
1.005786384
1.005864193
1.005895203
1.005835388
1.005635618
1.005098326
1.004709718
1.004859825
1.00538155
1.006046578
1.006080316
1.005925728
1.005715519
1.005481484
1.005267745
1.005488255
1.006349063
1.007012153
1.007228752
1.007320396
1.007302891
1.006755007
1.004943514
1.004953716
1.00484442
1.004874412
1.004951271
1.004951594
1.004732819
1.004597324
1.005074111
1.005654758
1.005873522
1.005926763
1.005861332
1.005848593
1.005812906
1.005660635
1.005203728
1.005052212
1.005347061
1.005918965
1.006129118
1.00599727
1.005695777
1.005265095
1.004803758
1.004753667
1.005092654
1.005896229
1.006897084
1.007411871
1.007498297
1.006827291
1.005224303
1.004993114
1.004779764
1.004841336
1.005031397
1.005108571
1.005165324
1.005008124
1.005128387
1.005555661
1.005863538
1.00594347
1.005927442
1.005952884
1.00603483
1.006168326
1.006046172
1.005578737
1.005441869
1.005712901
1.006155295
1.006162125
1.005807723
1.005382126
1.004793859
1.004421774
1.004395663
1.004636101
1.005574562
1.006982325
1.007543823
1.006993358
1.005501619
1.005309563
1.004887524
1.004886437
1.005016492
1.005169614
1.005319751
1.005430277
1.005448893
1.005586241
1.005757007
1.005912307
1.006041553
1.006105413
1.00627469
1.006442244
1.00654138
1.00640012
1.005866071
1.005731792
1.005963328
1.006228787
1.006009736
1.005562427
1.004822985
1.004338944
1.004120305
1.004184047
1.004595508
1.005727108
1.00707004
1.007154728
1.005524769
1.005549583
1.005281134
1.005010533
1.005030114
1.00509674
1.005315796
1.005640604
1.005826377
1.005803746
1.005827197
1.005835372
1.005989279
1.006174199
1.00643741
1.006691667
1.0068235
1.006778014
1.006587601
1.006053899
1.005928593
1.006047108
1.006103831
1.005833495
1.005294254
1.004474224
1.003988361
1.004105331
1.004378679
1.004929188
1.006062413
1.006843053
1.005080542
1.005540776
1.005519798
1.005342424
1.005190306
1.005066399
1.005169851
1.005655339
1.006049426
1.006121864
1.006060444
1.005941464
1.005959906
1.00600282
1.006156326
1.006643623
1.007005064
1.007010166
1.006956821
1.006666996
1.006048623
1.005968845
1.006084772
1.005993916
1.005672832
1.005066675
1.00396698
1.004047319
1.004307318
1.004806024
1.005443534
1.006273344
1.004912824
1.004966354
1.005396371
1.00545974
1.005437972
1.005218791
1.005129782
1.005425658
1.006103819
1.006336042
1.00635234
1.006212197
1.006092287
1.0060238
1.005907997
1.006015296
1.006592507
1.007131991
1.007138347
1.006907571
1.006574443
1.006035639
1.006054057
1.006131695
1.005891818
1.005418939
1.004636398
1.004447823
1.004556169
1.004925564
1.005390554
1.005911587
1.004892996
1.004704655
1.004845906
1.005331124
1.005521483
1.005459325
1.005212555
1.005368834
1.005813837
1.006381125
1.006498339
1.006443121
1.006378969
1.006210342
1.005938032
1.005666187
1.005746273
1.006451405
1.007083414
1.007066078
1.006782192
1.006469955
1.006142712
1.006178682
1.005998264
1.005633121
1.0052044
1.00505735
1.005065103
1.005283739
1.005520454
1.005740163
1.005236865
1.004707504
1.004623035
1.004908817
1.005452357
1.005614404
1.005497449
1.005428182
1.005646645
1.005972554
1.006391412
1.006584753
1.006563124
1.006529152
1.006231616
1.005721172
1.005469523
1.005530756
1.00609016
1.006806031
1.006950863
1.00673065
1.006444953
1.006206131
1.005979402
1.005813027
1.005655966
1.005632604
1.005590667
1.005771188
1.00579817
1.005740826
1.005588167
1.005061687
1.004649778
1.004820821
1.00504934
1.005611117
1.005722769
1.005717531
1.005720889
1.005727565
1.005843565
1.00625446
1.006652479
1.006694604
1.006506859
1.00612374
1.005465557
1.005209263
1.005293794
1.00580945
1.006671718
1.006918942
1.006639065
1.006255965
1.00598997
1.006006864
1.005974999
1.00605986
1.005946871
1.006110029
1.006146879
1.005786385
1.00574047
1.00537026
1.005011451
1.004875903
1.004941421
1.005247628
1.00579274
1.005939142
1.005958411
1.005778019
1.005638632
1.005704304
1.006132373
1.006608527
1.0066717
1.006342612
1.005819301
1.0052356
1.005177127
1.005300946
1.0057493
1.00650398
1.006671732
1.006304763
1.006082693
1.006259392
1.006363846
1.006372811
1.00621499
1.006293461
1.006259618
1.005674651
1.005595646
1.00550259
1.005291017
1.005198555
1.00503722
1.00507196
1.005504971
1.006018284
1.006138979
1.006045851
1.005710051
1.005619744
1.005580764
1.005905019
1.006481274
1.006451112
1.005932226
1.005375405
1.005154698
1.00518383
1.005314869
1.005570206
1.006016938
1.006094771
1.005912389
1.006139662
1.006554494
1.00654962
1.006478998
1.006431208
1.006254789
1.005930665
1.005231807
1.005364303
1.005382068
1.005377368
1.005351316
1.005157516
1.005214902
1.00581039
1.006253914
1.006189166
1.006041741
1.005779196
1.005510654
1.0054361
1.005641565
1.006138579
1.005969669
1.005580434
1.00539719
1.005395878
1.005385476
1.005296457
1.005212724
1.005228378
1.005079384
1.00522477
1.005830818
1.006511197
1.00665177
1.006524622
1.006172843
1.006066161
1.005678954
1.005247275
1.005000371
1.005269157
1.00550329
1.005562096
1.005460721
1.005246374
1.005427622
1.006041309
1.006289547
1.006204757
1.005904976
1.005704174
1.00543286
1.005141715
1.005287246
1.005778508
1.005725901
1.005575078
1.005584023
1.005547327
1.005286659
1.005035952
1.004754789
1.004420828
1.004364367
1.004593651
1.005399243
1.006423797
1.006481169
1.006184313
1.006151105
1.006105068
1.005553057
1.005021273
1.004959213
1.005332966
1.005694648
1.005650836
1.005491287
1.005429714
1.005587135
1.005958119
1.006212703
1.00606125
1.005915521
1.005468885
1.005080331
1.004851708
1.00513513
1.005591353
1.005616948
1.005611107
1.005630883
1.005554285
1.005237241
1.004796379
1.004443567
1.004200569
1.00410072
1.004272152
1.005234476
1.005938058
1.006136225
1.006206286
1.006348924
1.005933332
1.005378013
1.005013126
1.005074572
1.005415773
1.005770771
1.005661548
1.005625233
1.005569814
1.005568486
1.005822562
1.006144555
1.006044157
1.005818349
1.005330031
1.00489077
1.004861615
1.005275794
1.005482745
1.005465607
1.005620906
1.005810828
1.005605909
1.005016745
1.004674908
1.004246411
1.003854964
1.003791478
1.004200856
1.004746774
1.005596439
1.006064557
1.006356869
1.006208567
1.005721546
1.005410564
1.005198148
1.005140266
1.005349703
1.005724566
1.005841527
1.005800636
1.005626203
1.005616498
1.005795561
1.006099974
1.006067684
1.005750668
1.005095001
1.004947305
1.005225942
1.005600608
1.005645561
1.005650912
1.005800621
1.005789599
1.005376029
1.005028894
1.004250395
1.0038263
1.003809533
1.003872111
1.003967652
1.00473978
1.005681443
1.005646005
1.005907906
1.005965595
1.005714075
1.005595917
1.005291858
1.005077982
1.005216797
1.005873749
1.006013362
1.005932975
1.00580904
1.00577603
1.005888555
1.006156468
1.006054052
1.00566001
1.005289594
1.005411038
1.005910903
1.006054131
1.005888292
1.005691211
1.005667639
1.005621447
1.005246866
1.004822132
1.004377885
1.0038713
1.003739614
1.003877127
1.004367205
1.005306782
1.005409352
1.005170158
1.005393049
1.005858389
1.005880242
1.005736554
1.005277996
1.005022243
1.00526346
1.005854036
1.006137005
1.006177997
1.006091537
1.005976987
1.006026814
1.006241353
1.006118826
1.005814175
1.005738926
1.006149599
1.006387145
1.006274994
1.005786442
1.00557079
1.005535893
1.005333219
1.005081504
1.00483959
1.004585452
1.004263787
1.004167597
1.004466572
1.005013285
1.005754201
1.005148755
1.004801077
1.005127471
1.005823011
1.005989887
1.005763412
1.005292056
1.005146322
1.00517759
1.005723358
1.00629328
1.006439797
1.006312771
1.006170045
1.006421533
1.00654136
1.006344344
1.00612166
1.006063998
1.006406116
1.006448135
1.006092603
1.005727709
1.00534909
1.005344157
1.00535849
1.00522254
1.005142805
1.005091226
1.004933045
1.004761421
1.004966313
1.006299869
1.005650873
1.004949785
1.004765375
1.004984061
1.005685623
1.006010558
1.005891566
1.005528608
1.005123536
1.005103955
1.005624273
1.006415408
1.006601349
1.006537482
1.00660926
1.006868227
1.006855469
1.006558815
1.006020918
1.005779192
1.006130104
1.006274107
1.005951358
1.005470644
1.005230846
1.005536306
1.005624283
1.005690919
1.005749138
1.005693507
1.005413241
1.005195134
1.006324695
1.006186802
1.005580053
1.00507836
1.004810453
1.00484796
1.005519419
1.006123131
1.006130422
1.005628617
1.00522589
1.005206891
1.005629974
1.006253191
1.006715631
1.006681519
1.006956993
1.007241065
1.006982324
1.00614335
1.005412664
1.005477756
1.006246431
1.006258567
1.005824843
1.005324034
1.005437939
1.005961823
1.006188772
1.006269339
1.006217467
1.006052058
1.005590135
1.005192939
1.005916729
1.006072869
1.005784498
1.005256099
1.004789766
1.004692346
1.00541813
1.006365517
1.006298374
1.005853626
1.005482651
1.005379488
1.00556924
1.005926275
1.006128303
1.006319203
1.006841034
1.006844339
1.006178527
1.005610723
1.005427166
1.005793379
1.006452353
1.006217652
1.005639107
1.005381053
1.005806188
1.00643159
1.006654233
1.006645193
1.00654566
1.006202074
1.004740803
1.004784649
1.005545052
1.006164075
1.006001098
1.005364385
1.004805046
1.004738763
1.005564053
1.006433642
1.00645149
1.006169411
1.005764318
1.005560651
1.005478329
1.005270102
1.00505658
1.005100614
1.005798458
1.006234947
1.006201288
1.00592256
1.005773392
1.006039214
1.006391629
1.006022043
1.005450848
1.00536945
1.006113889
1.006766591
1.006902527
1.006907482
1.006665034
1.005167157
1.004483997
1.004560882
1.00543884
1.006269585
1.006171845
1.005499136
1.004860496
1.004809255
1.005387462
1.006349609
1.006641837
1.006476731
1.006078051
1.005579236
1.00487418
1.004196262
1.004022077
1.004333481
1.005528815
1.006456831
1.006529112
1.006085554
1.005858316
1.006021568
1.006163617
1.005665752
1.005141483
1.005357848
1.006184682
1.006767705
1.006936954
1.006831022
1.006033387
1.005122052
1.004593832
1.004728814
1.00540144
1.006309451
1.006210121
1.005626137
1.005094868
1.004840225
1.005250461
1.006209639
1.00679397
1.006726961
1.006099957
1.00522524
1.004556204
1.004124018
1.003952904
1.00438923
1.005547025
1.006533545
1.006525336
1.006058612
1.005789717
1.005808166
1.00572827
1.005109918
1.004873005
1.005248396
1.006141334
1.006619635
1.00661501
1.006560217
1.006079959
1.005309008
1.004908216
1.004837439
1.005337975
1.006222185
1.006419325
1.005834864
1.005025001
1.004862604
1.005238808
1.006014817
1.006724449
1.006619196
1.006210731
1.005560135
1.00471468
1.004339321
1.004212993
1.004600581
1.005537144
1.006679326
1.006539649
1.006099576
1.00575107
1.005562388
1.005131975
1.004693743
1.004618035
1.00525122
1.006099312
1.006253383
1.005657129
1.00621104
1.006087784
1.005719829
1.005265323
1.005020619
1.005297915
1.006204689
1.006336256
1.005762032
1.005311277
1.005100565
1.005247235
1.005710279
1.006422624
1.006744163
1.006218197
1.005631168
1.00518347
1.004846801
1.004696686
1.004928676
1.005725433
1.006649454
1.006472603
1.005954087
1.005527765
1.005269139
1.004857713
1.004499715
1.004495943
1.005074217
1.005852174
1.004809427
1.005155885
1.006016362
1.006450636
1.006112625
1.005444616
1.004948649
1.00527088
1.006093262
1.006380984
1.006032146
1.005665543
1.005491336
1.005374093
1.005593632
1.006180409
1.006413881
1.006378021
1.006200154
1.006015023
1.005524528
1.00530557
1.005181154
1.005575826
1.006068991
1.005920588
1.005471613
1.005346868
1.005044755
1.004451732
1.004060165
1.004244793
1.005215667
1.005905612
1.005196259
1.004773609
1.005038814
1.005965168
1.006567007
1.006225874
1.005556417
1.005257299
1.005347743
1.005882312
1.006295174
1.006309219
1.006110981
1.005710106
1.005410333
1.005545403
1.006223146
1.006610375
1.006813759
1.006788396
1.006608667
1.005999201
1.00526945
1.004936588
1.005088367
1.005603624
1.005485921
1.005294962
1.005075346
1.004684979
1.004332675
1.004291953
1.0047612
1.006886522
1.006111368
1.005170555
1.004792399
1.005077804
1.005931843
1.00663475
1.006342055
1.005705586
1.005085171
1.005113272
1.005671893
1.006274492
1.006527526
1.00632672
1.00587482
1.005563966
1.006022656
1.006532807
1.006737801
1.006833989
1.006917419
1.006501341
1.005620318
1.004781753
1.004488058
1.005034981
1.005493834
1.005308082
1.005126936
1.005144873
1.004947726
1.004666166
1.004755121
1.006516641
1.006624182
1.006047948
1.005517983
1.005242697
1.005286978
1.005810559
1.006346207
1.006222654
1.005653202
1.005198445
1.005187764
1.005580092
1.006240762
1.006664144
1.006367594
1.005987579
1.006030933
1.00630812
1.00640114
1.006306415
1.006337854
1.006430896
1.006036511
1.005273359
1.004726583
1.004637886
1.005249597
1.005503339
1.005473252
1.005513837
1.00554656
1.005339613
1.0053401
1.005073455
1.005958674
1.006605282
1.006504294
1.006034236
1.005417096
1.00517396
1.005545422
1.006279808
1.006234737
1.005630473
1.005302294
1.005328921
1.005623899
1.006114431
1.006404173
1.006318056
1.006092971
1.006079985
1.006033985
1.005771217
1.005587365
1.005762218
1.00606204
1.005843334
1.005199968
1.004649798
1.004787777
1.005521124
1.00593661
1.005987353
1.00605654
1.006084137
1.006072446
1.00482231
1.004806305
1.005506781
1.006549818
1.006754376
1.006246401
1.005587151
1.005217722
1.00548073
1.005939378
1.005951798
1.005790691
1.005659925
1.005503162
1.005572839
1.005972187
1.006112877
1.005819351
1.00556094
1.005506476
1.005595349
1.005570514
1.005620731
1.005883069
1.005951486
1.005623215
1.004972016
1.004582754
1.005045236
1.005980339
1.00652723
1.006680132
1.006618228
1.006461399
1.005244433
1.004506993
1.004508418
1.005298714
1.006608061
1.006974837
1.006347251
1.005398075
1.004974023
1.005170052
1.00578433
1.006108239
1.006125775
1.005983494
1.005828675
1.005799955
1.005779392
1.00546735
1.004987426
1.00485019
1.005305706
1.005758793
1.005829166
1.005836225
1.005973425
1.005868079
1.005341704
1.004684733
1.00463154
1.005527391
1.00605034
1.005334853
1.004765743
1.004775778
)
;

boundaryField
{
    inlet
    {
        type            fixedValue;
        value           nonuniform 0();
    }
    outlet
    {
        type            zeroGradient;
    }
    bottom
    {
        type            slip;
    }
    top
    {
        type            slip;
    }
    obstacle
    {
        type            zeroGradient;
    }
    defaultFaces
    {
        type            empty;
    }
    procBoundary11to5
    {
        type            processor;
        value           nonuniform List<scalar> 
33
(
1.004153678
1.004026291
1.003709732
1.003359692
1.003150501
1.003347265
1.003721815
1.004067302
1.004500364
1.01280178
1.085512587
1.416719572
1.879626342
2.035187224
2.01844747
2.011548992
2.010608234
1.980824915
0.8539183333
0.941126597
0.9684683413
0.9986901182
1.005483555
1.007602416
1.006503615
1.005793866
1.006134842
1.00650097
1.005846371
1.003566122
1.00309832
1.003428609
1.003428609
)
;
    }
    procBoundary11to10
    {
        type            processor;
        value           nonuniform List<scalar> 
70
(
0.8994574215
0.9565343328
0.9950221191
1.007114929
1.004359201
1.000479975
1.001418415
1.004705198
1.005305103
1.003696581
1.00249613
1.002761553
1.003094007
1.003141958
1.002720958
1.003085236
1.004138389
1.005158434
1.005662042
1.005526192
1.005741238
1.006069978
1.006218441
1.006132338
1.006005744
1.005956544
1.005855653
1.005254754
1.004551325
1.004559382
1.004944462
1.005031593
1.004896834
1.004865183
1.005008871
1.005357729
1.005443731
1.005202131
1.005028535
1.004990755
1.005223316
1.005625527
1.005837172
1.005782422
1.005431324
1.005422046
1.005422046
1.006090276
1.00633089
1.006524962
1.006090184
1.005631835
1.005789379
1.006288883
1.006594959
1.005793617
1.005004529
1.005302872
1.006158244
1.00677234
1.006325638
1.005300288
1.005080131
1.005080131
1.006563864
1.007020507
1.005782758
1.004741657
1.005303722
1.006315738
)
;
    }
    procBoundary11to16
    {
        type            processor;
        value           uniform 1.006659019;
    }
    procBoundary11to17
    {
        type            processor;
        value           nonuniform List<scalar> 
36
(
1.006796933
1.00719715
1.007026064
1.00659234
1.005403653
1.006447731
1.006630427
1.006007366
1.005385704
1.004964137
1.005107203
1.005626851
1.006236844
1.006490584
1.006332932
1.00599856
1.00569924
1.00534018
1.004900204
1.004671153
1.004853322
1.005565076
1.006035836
1.006235064
1.006238535
1.00600772
1.005589807
1.005065869
1.004771818
1.006796933
1.00509243
1.006552342
1.006248857
1.005488454
1.005403653
1.005099036
)
;
    }
}


// ************************************************************************* //
