/*--------------------------------*- C++ -*----------------------------------*\
  =========                 |
  \\      /  F ield         | OpenFOAM: The Open Source CFD Toolbox
   \\    /   O peration     | Website:  https://openfoam.org
    \\  /    A nd           | Version:  7
     \\/     M anipulation  |
\*---------------------------------------------------------------------------*/
FoamFile
{
    version     2.0;
    format      ascii;
    class       volScalarField;
    location    "0.4";
    object      rho;
}
// * * * * * * * * * * * * * * * * * * * * * * * * * * * * * * * * * * * * * //

dimensions      [1 -3 0 0 0 0 0];

internalField   nonuniform List<scalar> 10(1.385274371 1.392836997 1.388251072 1.392622637 1.391453208 1.388806577 1.366024828 1.370672479 1.377060097 1.394072374);

boundaryField
{
    inlet
    {
        type            calculated;
        value           nonuniform 0();
    }
    outlet
    {
        type            calculated;
        value           nonuniform List<scalar> 8(1.388833464 1.366038711 1.370710443 1.377098679 1.39410327 1.385447452 1.388369866 1.39152433);
    }
    bottom
    {
        type            calculated;
        value           nonuniform 0();
    }
    top
    {
        type            calculated;
        value           uniform 1.394072374;
    }
    obstacle
    {
        type            calculated;
        value           nonuniform 0();
    }
    defaultFaces
    {
        type            empty;
    }
    procBoundary35to28
    {
        type            processor;
        value           nonuniform List<scalar> 4(1.378112658 1.363825932 1.342260537 1.342260537);
    }
    procBoundary35to29
    {
        type            processor;
        value           nonuniform List<scalar> 3(1.382919848 1.388094806 1.388094806);
    }
    procBoundary35to34
    {
        type            processor;
        value           nonuniform List<scalar> 4(1.336070349 1.367908573 1.404499848 1.41894636);
    }
}


// ************************************************************************* //
