/*--------------------------------*- C++ -*----------------------------------*\
  =========                 |
  \\      /  F ield         | OpenFOAM: The Open Source CFD Toolbox
   \\    /   O peration     | Website:  https://openfoam.org
    \\  /    A nd           | Version:  7
     \\/     M anipulation  |
\*---------------------------------------------------------------------------*/
FoamFile
{
    version     2.0;
    format      ascii;
    class       volScalarField;
    location    "2.6";
    object      T;
}
// * * * * * * * * * * * * * * * * * * * * * * * * * * * * * * * * * * * * * //

dimensions      [0 0 0 1 0 0 0];

internalField   nonuniform List<scalar> 5(0.9933011918 0.957706302 0.9781702145 0.9590844731 0.9669293096);

boundaryField
{
    inlet
    {
        type            fixedValue;
        value           nonuniform 0();
    }
    outlet
    {
        type            inletOutlet;
        inletValue      nonuniform 0();
        value           nonuniform 0();
    }
    bottom
    {
        type            slip;
    }
    top
    {
        type            slip;
    }
    obstacle
    {
        type            zeroGradient;
    }
    defaultFaces
    {
        type            empty;
    }
    procBoundary15to4
    {
        type            processor;
        value           uniform 0.9991821139;
    }
    procBoundary15to9
    {
        type            processor;
        value           nonuniform List<scalar> 3(1.01729924 1.052654381 1.052654381);
    }
    procBoundary15to10
    {
        type            processor;
        value           nonuniform List<scalar> 4(1.024811126 0.9913073648 0.9913073648 1.005126911);
    }
    procBoundary15to21
    {
        type            processor;
        value           uniform 0.9745574795;
    }
}


// ************************************************************************* //
