/*--------------------------------*- C++ -*----------------------------------*\
  =========                 |
  \\      /  F ield         | OpenFOAM: The Open Source CFD Toolbox
   \\    /   O peration     | Website:  https://openfoam.org
    \\  /    A nd           | Version:  7
     \\/     M anipulation  |
\*---------------------------------------------------------------------------*/
FoamFile
{
    version     2.0;
    format      ascii;
    class       volVectorField;
    location    "1.2";
    object      U;
}
// * * * * * * * * * * * * * * * * * * * * * * * * * * * * * * * * * * * * * //

dimensions      [0 1 -1 0 0 0 0];

internalField   nonuniform List<vector> 
2222
(
(3 -1.827807e-15 0)
(2.987308404 0.003557856551 0)
(2.973895969 0.004636886548 0)
(2.960562809 0.01462355199 0)
(2.947157584 0.03991893408 0)
(2.935703699 0.04375280046 0)
(2.929700602 0.04612908863 0)
(2.915738051 0.08319548807 0)
(2.907618723 0.102418363 0)
(2.908044207 0.09998628046 0)
(2.892501749 0.1244910792 0)
(2.883802162 0.1481263148 0)
(2.886650471 0.1587834066 0)
(2.874808917 0.1771995898 0)
(2.868075603 0.1897540361 0)
(2.867297697 0.2057380007 0)
(2.862763205 0.2201323499 0)
(2.858193955 0.2359435728 0)
(2.854301607 0.2468722038 0)
(2.853216791 0.2507264613 0)
(2.8564761 0.2572104302 0)
(2.859349355 0.2644527857 0)
(2.859536175 0.2644424368 0)
(2.859707574 0.2627589308 0)
(2.860913589 0.2636137345 0)
(2.86273548 0.2622883852 0)
(2.863278718 0.2611767478 0)
(2.863561728 0.2618675501 0)
(2.863548627 0.2618941447 0)
(2.865076011 0.2596551657 0)
(2.866818351 0.2580585647 0)
(2.868036044 0.2575956926 0)
(2.869983265 0.2581740477 0)
(2.871885193 0.2576192008 0)
(2.9986074 0.002168293631 0)
(2.995485475 0.007625221057 0)
(2.989909437 0.01825280258 0)
(2.983899944 0.0315888013 0)
(2.973563744 0.05701436897 0)
(2.965547903 0.07903470182 0)
(2.957555243 0.1000048919 0)
(2.941031388 0.1406907684 0)
(2.936375814 0.1649294383 0)
(2.923882217 0.1963932654 0)
(2.910429445 0.2299477018 0)
(2.909666848 0.2436578891 0)
(2.891626441 0.2783912619 0)
(2.88321329 0.2994676803 0)
(2.879674363 0.301957809 0)
(2.871278016 0.3137853508 0)
(2.867016156 0.3185582061 0)
(2.861552866 0.3096241331 0)
(2.859739008 0.2959328102 0)
(2.858948729 0.292493061 0)
(2.857959896 0.2914165951 0)
(2.86306551 0.2836310625 0)
(2.865745953 0.2791488515 0)
(2.868490544 0.2764862589 0)
(2.873355723 0.2736602957 0)
(2.875985501 0.2702588141 0)
(2.877025898 0.2684929042 0)
(2.878207353 0.2667268431 0)
(2.879910305 0.2628597341 0)
(2.881183639 0.2585993788 0)
(2.881629949 0.2554201093 0)
(2.882616975 0.2548350644 0)
(2.883599569 0.2555466899 0)
(2.99999066 1.528783921e-05 0)
(2.999949788 8.447318354e-05 0)
(2.999795703 0.0003572230472 0)
(2.99937065 0.001210624172 0)
(2.99872151 0.002740088614 0)
(2.997602336 0.005493442571 0)
(2.995288042 0.0106291042 0)
(2.992386335 0.01840233318 0)
(2.989572028 0.0278723793 0)
(2.985475041 0.04029405714 0)
(2.98020859 0.05750672359 0)
(2.975648218 0.07268001568 0)
(2.968643322 0.09690489503 0)
(2.964233511 0.1209481916 0)
(2.963965987 0.1302567452 0)
(2.954846696 0.1608082427 0)
(2.946777693 0.1898343018 0)
(2.950656167 0.1955822636 0)
(2.93476305 0.2180125703 0)
(2.923474994 0.2374706089 0)
(2.920568647 0.2423801801 0)
(2.910631025 0.2542176008 0)
(2.904577748 0.2626868407 0)
(2.901819266 0.2639574948 0)
(2.900186076 0.2639094231 0)
(2.8988608 0.2643532701 0)
(2.897539655 0.26681352 0)
(2.895646199 0.2685919832 0)
(2.894043189 0.2699326731 0)
(2.893105711 0.270291753 0)
(2.892965048 0.2693404151 0)
(2.892967819 0.2681312809 0)
(2.893709072 0.2677529223 0)
(2.999999994 9.665652053e-09 0)
(2.999999925 1.210937528e-07 0)
(2.999999348 1.069642445e-06 0)
(2.999996265 6.327810934e-06 0)
(2.999985131 2.816259144e-05 0)
(2.999950415 9.55576494e-05 0)
(2.99985076 0.0002817621617 0)
(2.999621462 0.0007640952059 0)
(2.999181559 0.001777301195 0)
(2.998410689 0.003561653988 0)
(2.996973709 0.007034166387 0)
(2.994756402 0.0126115948 0)
(2.991739682 0.02029442492 0)
(2.987012886 0.0343341712 0)
(2.982974476 0.04870098308 0)
(2.975225975 0.07035972516 0)
(2.966145783 0.1004181463 0)
(2.96496367 0.1203835734 0)
(2.951892125 0.1604390491 0)
(2.94379058 0.1889116233 0)
(2.945312093 0.1955547856 0)
(2.927589433 0.2324857014 0)
(2.919168566 0.2568714381 0)
(2.919096264 0.253554813 0)
(2.911969811 0.2632151435 0)
(2.902847597 0.2789926528 0)
(2.898588617 0.2802040653 0)
(2.895797538 0.2824811375 0)
(2.895686429 0.2842400491 0)
(2.894863712 0.2828566998 0)
(2.8939149 0.2783772754 0)
(2.892543887 0.2719996682 0)
(2.89372424 0.2704112311 0)
(3 5.793726784e-13 0)
(3 1.676797151e-12 0)
(3 1.828958586e-10 0)
(2.999999998 3.06791047e-09 0)
(2.999999982 2.854645232e-08 0)
(2.999999879 1.884419495e-07 0)
(2.999999354 1.030590602e-06 0)
(2.999997253 4.547149572e-06 0)
(2.999990438 1.647040738e-05 0)
(2.99997034 5.273464276e-05 0)
(2.999917194 0.0001484573617 0)
(2.999792238 0.0003865086742 0)
(2.999517737 0.0009193271006 0)
(2.99900032 0.001962494328 0)
(2.998058188 0.00403902125 0)
(2.996439583 0.00732135383 0)
(2.99372748 0.01347046773 0)
(2.989963798 0.02282131238 0)
(2.984923686 0.03464298663 0)
(2.977719704 0.05408060341 0)
(2.970510139 0.07419991693 0)
(2.960054231 0.1005178044 0)
(2.951406901 0.1267800536 0)
(2.947999886 0.1412292668 0)
(2.931503549 0.1794637178 0)
(2.923378167 0.206956597 0)
(2.925457456 0.1992876641 0)
(2.91971575 0.212419831 0)
(2.911510298 0.2384974856 0)
(2.911014867 0.2382099149 0)
(2.908918392 0.2429647087 0)
(2.902892086 0.249177714 0)
(2.900986725 0.2516620872 0)
(3 -9.582225732e-15 0)
(3 -4.991501644e-15 0)
(3 -1.77495914e-14 0)
(3 3.210946957e-13 0)
(3 -9.636252235e-14 0)
(3 2.200265059e-11 0)
(3 3.032796858e-10 0)
(2.999999998 2.956412854e-09 0)
(2.999999987 1.966017373e-08 0)
(2.999999931 1.055799746e-07 0)
(2.999999677 5.065983938e-07 0)
(2.999998731 2.027471272e-06 0)
(2.999995531 7.350763136e-06 0)
(2.999985808 2.387649069e-05 0)
(2.999959932 6.842422696e-05 0)
(2.999892695 0.0001891539674 0)
(2.999740125 0.0004614004198 0)
(2.999404332 0.001085871224 0)
(2.998723227 0.002367067915 0)
(2.997428241 0.004914665745 0)
(2.995208722 0.009548650163 0)
(2.99195987 0.01592300712 0)
(2.986461104 0.02831709208 0)
(2.979748276 0.04450383324 0)
(2.972333452 0.05961292157 0)
(2.960095891 0.08934040196 0)
(2.952737198 0.1122712478 0)
(2.940029487 0.1415627242 0)
(2.925123791 0.1793505943 0)
(2.925773732 0.1851454583 0)
(2.917535872 0.2085411823 0)
(2.903775406 0.2469242816 0)
(2.900868636 0.2503780061 0)
(3 -8.844642495e-15 0)
(3 -7.226164525e-15 0)
(3 -8.724046092e-15 0)
(3 -8.54620016e-15 0)
(3 -9.853402458e-15 0)
(3 -8.038676958e-15 0)
(3 2.402842394e-14 0)
(3 -2.91789851e-13 0)
(3 1.146745173e-12 0)
(3 1.279099337e-11 0)
(3 1.479211318e-10 0)
(2.999999999 1.20372261e-09 0)
(2.999999995 7.291345884e-09 0)
(2.999999975 3.924069434e-08 0)
(2.999999884 1.82063e-07 0)
(2.999999539 7.361355447e-07 0)
(2.999998279 2.810084699e-06 0)
(2.999994303 9.32339927e-06 0)
(2.999982083 3.021323989e-05 0)
(2.999947947 8.828244981e-05 0)
(2.999862114 0.0002387854962 0)
(2.999648793 0.0006297006721 0)
(2.999202797 0.001432098996 0)
(2.998329147 0.00312606344 0)
(2.996662407 0.006376765587 0)
(2.993886689 0.01190075283 0)
(2.989834101 0.02104767283 0)
(2.984242894 0.03225674711 0)
(2.975897668 0.05038278761 0)
(2.967238886 0.07246551887 0)
(2.956810597 0.09581705036 0)
(2.945303822 0.1250231463 0)
(2.941780407 0.1366559108 0)
(3 -8.646803913e-15 0)
(3 -7.39692413e-15 0)
(3 -7.539541423e-15 0)
(3 -7.973405039e-15 0)
(3 -6.365734033e-15 0)
(3 -4.538804578e-15 0)
(3 -4.604101415e-15 0)
(3 -2.59005085e-15 0)
(3 -2.389285195e-15 0)
(3 -2.757711582e-15 0)
(3 -2.493723063e-14 0)
(3 1.47263288e-13 0)
(3 2.496839548e-13 0)
(3 2.832186922e-12 0)
(3 4.092808207e-11 0)
(3 3.047675685e-10 0)
(2.999999999 1.974120239e-09 0)
(2.999999993 1.129641475e-08 0)
(2.999999966 5.310441963e-08 0)
(2.999999846 2.475930444e-07 0)
(2.999999373 1.022777733e-06 0)
(2.999997657 3.837221865e-06 0)
(2.999991659 1.402116396e-05 0)
(2.999974056 4.425283691e-05 0)
(2.999924582 0.0001318722345 0)
(2.999798874 0.0003577650424 0)
(2.999513218 0.0008950108029 0)
(2.998907768 0.002060150348 0)
(2.997737925 0.004307912801 0)
(2.995615896 0.008743485938 0)
(2.992513103 0.01487019156 0)
(2.987478755 0.02538986547 0)
(2.980051067 0.04377107826 0)
(3 -1.002045401e-14 0)
(3 -9.833884342e-15 0)
(3 -9.359403267e-15 0)
(3 -8.106496244e-15 0)
(3 -6.088369565e-15 0)
(3 -5.632421421e-15 0)
(3 -5.421179354e-15 0)
(3 -5.190132377e-15 0)
(3 -5.091939594e-15 0)
(3 -6.389267972e-15 0)
(3 -7.948117354e-15 0)
(3 -6.06827523e-15 0)
(3 -3.646892307e-15 0)
(3 -4.327312181e-15 0)
(3 -7.322186934e-15 0)
(3 4.149310172e-14 0)
(3 -1.919133366e-13 0)
(3 7.166766629e-13 0)
(3 6.468055977e-12 0)
(3 5.708648543e-11 0)
(3 4.552690971e-10 0)
(2.999999998 2.943898747e-09 0)
(2.999999989 1.723077657e-08 0)
(2.999999943 9.075103272e-08 0)
(2.999999748 4.083230662e-07 0)
(2.999998939 1.765777473e-06 0)
(2.999996086 6.559850704e-06 0)
(2.999986814 2.27668119e-05 0)
(2.999958639 7.264017314e-05 0)
(2.999885417 0.0002026675316 0)
(2.999699256 0.0005561956405 0)
(2.999284828 0.001326041884 0)
(2.998485472 0.002884570092 0)
(3 -9.695596055e-15 0)
(3 -1.068238795e-14 0)
(3 -1.109110826e-14 0)
(3 -1.096976061e-14 0)
(3 -1.210974474e-14 0)
(3 -1.334464814e-14 0)
(3 -1.512605088e-14 0)
(3 -1.465793603e-14 0)
(3 -1.3561722e-14 0)
(3 -1.323350588e-14 0)
(3 -1.180223663e-14 0)
(3 -8.967250076e-15 0)
(3 -6.388610805e-15 0)
(3 -6.906744297e-15 0)
(3 -7.702708215e-15 0)
(3 -7.183466081e-15 0)
(3 -5.196590285e-15 0)
(3 -8.039046513e-16 0)
(3 1.910537468e-15 0)
(3 -6.713484472e-15 0)
(3 4.864684898e-14 0)
(3 1.825854709e-13 0)
(3 2.878530587e-13 0)
(3 1.231400601e-11 0)
(3 1.195362591e-10 0)
(2.999999999 8.824103131e-10 0)
(2.999999996 6.181124933e-09 0)
(2.999999979 3.348844924e-08 0)
(2.999999893 1.722586198e-07 0)
(2.999999514 8.025565202e-07 0)
(2.999998107 3.146395648e-06 0)
(2.999992969 1.200644823e-05 0)
(2.999977011 4.00630669e-05 0)
(3 -2.639294809e-15 0)
(3 -3.475248631e-15 0)
(3 -5.377330008e-15 0)
(3 -6.85949006e-15 0)
(3 -1.09498444e-14 0)
(3 -1.217067788e-14 0)
(3 -1.13590178e-14 0)
(3 -8.57337922e-15 0)
(3 -7.562890176e-15 0)
(3 -7.706536525e-15 0)
(3 -7.812359405e-15 0)
(3 -9.320545413e-15 0)
(3 -1.04529266e-14 0)
(3 -9.035464483e-15 0)
(3 -7.89777362e-15 0)
(3 -5.173244876e-15 0)
(3 -3.470168898e-15 0)
(3 -3.956197492e-15 0)
(3 -5.443490703e-15 0)
(3 -6.45028348e-15 0)
(3 -5.086965266e-15 0)
(3 -7.397383626e-15 0)
(3 -1.115123128e-14 0)
(3 -1.097431807e-14 0)
(3 1.136272479e-14 0)
(3 -1.046669529e-13 0)
(3 1.17035052e-13 0)
(3 2.910229879e-12 0)
(3 2.997015777e-11 0)
(3 2.956962753e-10 0)
(2.999999999 2.186064932e-09 0)
(2.999999991 1.352787853e-08 0)
(2.999999953 7.626788589e-08 0)
(3 5.116173223e-15 0)
(3 2.908530431e-15 0)
(3 1.84452942e-15 0)
(3 8.791020159e-16 0)
(3 -8.949732157e-16 0)
(3 -2.627984508e-15 0)
(3 -3.136796376e-15 0)
(3 -4.012091426e-15 0)
(3 -5.635837572e-15 0)
(3 -4.741776623e-15 0)
(3 -5.207670648e-15 0)
(3 -5.849362901e-15 0)
(3 -4.726088971e-15 0)
(3 -3.542786792e-15 0)
(3 -1.01024835e-15 0)
(3 2.388928414e-15 0)
(3 4.306711999e-15 0)
(3 3.960744627e-15 0)
(3 2.526591608e-15 0)
(3 1.42485622e-15 0)
(3 1.015052445e-15 0)
(3 -1.378663703e-15 0)
(3 -3.051030223e-15 0)
(3 -3.738651885e-15 0)
(3 -3.938743636e-15 0)
(3 -3.451716997e-15 0)
(3 -8.84812892e-16 0)
(3 1.364066964e-15 0)
(3 1.63282051e-15 0)
(3 -2.86753373e-14 0)
(3 4.165911621e-13 0)
(3 1.108370331e-13 0)
(3 7.965519394e-12 0)
(3 8.287476252e-15 0)
(3 8.41072879e-15 0)
(3 7.895737348e-15 0)
(3 7.420337272e-15 0)
(3 6.397535194e-15 0)
(3 3.83203081e-15 0)
(3 -7.003353941e-16 0)
(3 -3.143119011e-15 0)
(3 -2.9613662e-15 0)
(3 -3.179152343e-15 0)
(3 -4.153887126e-15 0)
(3 -2.455549166e-15 0)
(3 -1.827703981e-15 0)
(3 -1.39623676e-15 0)
(3 -9.673969245e-16 0)
(3 -3.904575244e-16 0)
(3 -5.330840957e-16 0)
(3 2.011546508e-16 0)
(3 5.962679732e-16 0)
(3 1.71387904e-16 0)
(3 6.116750955e-16 0)
(3 1.105746033e-15 0)
(3 1.12309718e-15 0)
(3 1.809079754e-15 0)
(3 2.042801295e-15 0)
(3 1.369074656e-15 0)
(3 -1.473295033e-16 0)
(3 1.63968442e-16 0)
(3 1.592631545e-15 0)
(3 4.077261104e-15 0)
(3 3.670889024e-15 0)
(3 8.665968851e-16 0)
(3 -7.021045303e-16 0)
(3 9.706072066e-15 0)
(3 8.8903347e-15 0)
(3 8.028255818e-15 0)
(3 6.138533053e-15 0)
(3 4.770184557e-15 0)
(3 3.310468741e-15 0)
(3 1.396612396e-15 0)
(3 4.083662985e-16 0)
(3 3.993311266e-16 0)
(3 -1.072919828e-15 0)
(3 -1.088218123e-15 0)
(3 -5.331360312e-16 0)
(3 -2.996556283e-15 0)
(3 -4.459522878e-15 0)
(3 -5.213436608e-15 0)
(3 -6.693968988e-15 0)
(3 -8.371346933e-15 0)
(3 -8.435219311e-15 0)
(3 -6.991100074e-15 0)
(3 -3.762620111e-15 0)
(3 -1.866623981e-15 0)
(3 -2.905472257e-16 0)
(3 -7.820767927e-17 0)
(3 -7.257242078e-16 0)
(3 -7.629794905e-16 0)
(3 -4.453389039e-16 0)
(3 8.155471087e-16 0)
(3 2.150343633e-15 0)
(3 2.406264384e-15 0)
(3 4.503530226e-15 0)
(3 4.512958083e-15 0)
(3 4.219272564e-15 0)
(3 3.174199036e-15 0)
(3 1.243228297e-14 0)
(3 9.256993562e-15 0)
(3 7.639683585e-15 0)
(3 6.544641065e-15 0)
(3 5.771270778e-15 0)
(3 4.005759423e-15 0)
(3 2.602491187e-15 0)
(3 1.075685033e-15 0)
(3 -1.38073613e-15 0)
(3 -2.301000962e-15 0)
(3 -1.465990765e-15 0)
(3 -1.235076968e-15 0)
(3 -1.571031009e-15 0)
(3 -1.313285e-15 0)
(3 -2.037570871e-15 0)
(3 -5.724814549e-15 0)
(3 -9.101755268e-15 0)
(3 -9.667876433e-15 0)
(3 -8.27650938e-15 0)
(3 -5.248531216e-15 0)
(3 -4.130444178e-15 0)
(3 -4.565139196e-15 0)
(3 -4.064043069e-15 0)
(3 -2.879575631e-15 0)
(3 -1.249665814e-15 0)
(3 2.122518768e-15 0)
(3 3.85050014e-15 0)
(3 5.29916179e-15 0)
(3 5.020438254e-15 0)
(3 4.609030841e-15 0)
(3 1.207880344e-15 0)
(3 -1.164981456e-15 0)
(3 -3.157525998e-15 0)
(3 9.034263443e-15 0)
(3 8.766860803e-15 0)
(3 9.117565259e-15 0)
(3 9.348929422e-15 0)
(3 8.982111065e-15 0)
(3 8.256083302e-15 0)
(3 4.591117355e-15 0)
(3 3.135132374e-15 0)
(3 2.590467872e-15 0)
(3 2.348558031e-15 0)
(3 2.327342623e-15 0)
(3 2.785255393e-15 0)
(3 3.915688642e-15 0)
(3 7.226624686e-15 0)
(3 7.172999898e-15 0)
(3 4.902087244e-15 0)
(3 2.286376323e-15 0)
(3 -1.039481399e-15 0)
(3 -2.836724366e-15 0)
(3 -4.569994472e-15 0)
(3 -5.108603702e-15 0)
(3 -3.513129646e-15 0)
(3 -2.758491987e-15 0)
(3 -8.774832052e-16 0)
(3 2.202216958e-15 0)
(3 3.20248566e-15 0)
(3 3.246170769e-15 0)
(3 1.98769561e-15 0)
(3 2.352877637e-15 0)
(3 6.825608616e-16 0)
(3 -3.693251613e-15 0)
(3 -1.065756571e-14 0)
(3 -1.172031324e-14 0)
(3 9.528311085e-15 0)
(3 1.392139016e-14 0)
(3 1.390331041e-14 0)
(3 1.319803195e-14 0)
(3 1.015683237e-14 0)
(3 5.61989066e-15 0)
(3 4.140099272e-15 0)
(3 4.221620425e-15 0)
(3 8.37776521e-15 0)
(3 9.015336982e-15 0)
(3 8.587320281e-15 0)
(3 7.613274172e-15 0)
(3 6.517224808e-15 0)
(3 5.710128453e-15 0)
(3 4.150114967e-15 0)
(3 2.884796312e-15 0)
(3 2.49205871e-15 0)
(3 1.408599601e-15 0)
(3 1.808693703e-15 0)
(3 7.203680068e-16 0)
(3 3.069745546e-16 0)
(3 4.00565251e-16 0)
(3 -1.405977718e-17 0)
(3 -6.680786929e-16 0)
(3 -1.590099476e-17 0)
(3 -1.833611746e-15 0)
(3 -3.080364576e-15 0)
(3 -5.506526989e-15 0)
(3 -6.601131914e-15 0)
(3 -9.332446408e-15 0)
(3 -1.19348147e-14 0)
(3 -1.35852236e-14 0)
(3 -1.460742179e-14 0)
(3 1.188238271e-14 0)
(3 1.148213542e-14 0)
(3 1.052062322e-14 0)
(3 8.319127691e-15 0)
(3 6.885836998e-15 0)
(3 4.864684938e-15 0)
(3 3.804166088e-15 0)
(3 5.003315012e-15 0)
(3 8.339255845e-15 0)
(3 7.98199178e-15 0)
(3 9.048322693e-15 0)
(3 8.272113303e-15 0)
(3 6.569996583e-15 0)
(3 5.151671864e-15 0)
(3 3.406336635e-15 0)
(3 2.777017945e-15 0)
(3 2.346268992e-15 0)
(3 1.949430431e-15 0)
(3 -6.128711463e-16 0)
(3 -2.583605155e-15 0)
(3 -3.812625248e-15 0)
(3 -5.649317542e-15 0)
(3 -7.223925301e-15 0)
(3 -7.276215539e-15 0)
(3 -6.983309261e-15 0)
(3 -7.181028739e-15 0)
(3 -7.581434072e-15 0)
(3 -9.645893602e-15 0)
(3 -1.455791591e-14 0)
(3 -1.629292721e-14 0)
(3 -1.583618424e-14 0)
(3 -1.413516838e-14 0)
(3 -1.126094621e-14 0)
(3 7.898919014e-15 0)
(3 5.478548988e-15 0)
(3 2.337850375e-15 0)
(3 1.210758806e-15 0)
(3 9.519154711e-16 0)
(3 1.254339103e-15 0)
(3 4.191678572e-16 0)
(3 2.362007361e-15 0)
(3 9.439985746e-15 0)
(3 1.226955773e-14 0)
(3 1.266785446e-14 0)
(3 1.172027028e-14 0)
(3 1.006862841e-14 0)
(3 8.619321189e-15 0)
(3 5.670134807e-15 0)
(3 2.250578459e-15 0)
(3 1.983054098e-15 0)
(3 2.017807206e-15 0)
(3 1.336710564e-15 0)
(3 -7.986782181e-16 0)
(3 -3.678863179e-15 0)
(3 -5.867666352e-15 0)
(3 -8.418302927e-15 0)
(3 -9.505148909e-15 0)
(3 -1.053669325e-14 0)
(3 -1.128879361e-14 0)
(3 -1.032913517e-14 0)
(3 -1.119884767e-14 0)
(3 -1.048687831e-14 0)
(3 -1.071766981e-14 0)
(3 -1.065128141e-14 0)
(3 -1.070261908e-14 0)
(3 -1.250919421e-14 0)
(3 3.635340666e-15 0)
(3 -7.375538147e-16 0)
(3 -2.610261226e-15 0)
(3 -3.330674942e-15 0)
(3 -2.329503161e-15 0)
(3 -1.723924589e-15 0)
(3 -3.663380222e-16 0)
(3 1.462523174e-15 0)
(3 7.14293597e-15 0)
(3 1.067805044e-14 0)
(3 1.200852329e-14 0)
(3 1.223866356e-14 0)
(3 1.061186971e-14 0)
(3 7.395225623e-15 0)
(3 4.800637886e-15 0)
(3 1.655353084e-15 0)
(3 -1.156284049e-15 0)
(3 -1.30823413e-15 0)
(3 6.892674784e-17 0)
(3 3.151653986e-15 0)
(3 2.469688429e-15 0)
(3 2.868041113e-15 0)
(3 1.552237817e-15 0)
(3 -2.04995649e-15 0)
(3 -6.158080872e-15 0)
(3 -8.51894261e-15 0)
(3 -1.070971279e-14 0)
(3 -1.074692947e-14 0)
(3 -9.083405789e-15 0)
(3 -1.298447125e-14 0)
(3 -1.460928411e-14 0)
(3 -1.640207176e-14 0)
(3 -1.658640253e-14 0)
(3 2.465943187e-15 0)
(3 -1.736807812e-15 0)
(3 -3.560605835e-15 0)
(3 -3.921915269e-15 0)
(3 -2.810244264e-15 0)
(3 2.553101604e-17 0)
(3 -1.820415691e-16 0)
(3 -2.736368673e-16 0)
(3 2.729221568e-15 0)
(3 4.226629953e-15 0)
(3 4.070848177e-15 0)
(3 3.716399333e-15 0)
(3 3.164336079e-15 0)
(3 2.702307909e-15 0)
(3 1.824762871e-15 0)
(3 3.126716608e-15 0)
(3 3.141665417e-15 0)
(3 2.759060498e-15 0)
(3 3.50181963e-15 0)
(3 6.347757315e-15 0)
(3 1.035638857e-14 0)
(3 1.145723896e-14 0)
(3 1.307908317e-14 0)
(3 7.611265451e-15 0)
(3 6.636813846e-15 0)
(3 5.569898247e-15 0)
(3 1.247013712e-15 0)
(3 -2.377618401e-15 0)
(3 -4.075265069e-15 0)
(3 -7.673715256e-15 0)
(3 -8.190880632e-15 0)
(3 -9.047663361e-15 0)
(3 -9.135554067e-15 0)
(3 3.812937508e-15 0)
(3 2.758312458e-15 0)
(3 1.26585049e-15 0)
(3 2.057847312e-15 0)
(3 4.680767491e-15 0)
(3 7.241556421e-15 0)
(3 6.66805222e-15 0)
(3 4.855038806e-15 0)
(3 2.165754112e-17 0)
(3 -3.559165201e-15 0)
(3 -4.16223444e-15 0)
(3 -3.802993605e-15 0)
(3 -2.564151131e-15 0)
(3 -3.368276968e-15 0)
(3 -4.209681002e-15 0)
(3 -3.556392944e-15 0)
(3 -2.133189854e-15 0)
(3 5.534042017e-17 0)
(3 3.26406812e-15 0)
(3 6.807455357e-15 0)
(3 1.065003663e-14 0)
(3 1.565983205e-14 0)
(3 1.821378476e-14 0)
(3 1.727898371e-14 0)
(3 1.52692621e-14 0)
(3 1.099428859e-14 0)
(3 8.61906074e-15 0)
(3 5.773799184e-15 0)
(3 1.511100931e-15 0)
(3 1.042871341e-15 0)
(3 2.125892572e-15 0)
(3 2.014279131e-15 0)
(3 -5.371894885e-16 0)
(3 -3.438107654e-16 0)
(3 5.314868267e-16 0)
(3 -8.158686345e-16 0)
(3 -2.405795561e-15 0)
(3 -2.098068386e-16 0)
(3 1.474538455e-15 0)
(3 1.120361564e-15 0)
(3 7.213087883e-16 0)
(3 -5.406558443e-15 0)
(3 -8.830714029e-15 0)
(3 -1.028760622e-14 0)
(3 -9.165633489e-15 0)
(3 -7.533507259e-15 0)
(3 -7.066282279e-15 0)
(3 -4.909515683e-15 0)
(3 -4.198969766e-15 0)
(3 -1.105534294e-15 0)
(3 1.991434523e-15 0)
(3 6.614809308e-15 0)
(3 7.93023511e-15 0)
(3 7.866854957e-15 0)
(3 8.131088872e-15 0)
(3 9.476228901e-15 0)
(3 1.151782985e-14 0)
(3 1.318619895e-14 0)
(3 1.288258333e-14 0)
(3 1.118636599e-14 0)
(3 9.304629863e-15 0)
(3 6.236027592e-15 0)
(3 3.536212381e-15 0)
(3 1.909114802e-15 0)
(3 8.235587583e-16 0)
(3 6.705319435e-16 0)
(3 -4.656303702e-15 0)
(3 -5.18356685e-15 0)
(3 -7.495132495e-15 0)
(3 -8.701538248e-15 0)
(3 -9.192499981e-15 0)
(3 -8.467765822e-15 0)
(3 -7.567244813e-15 0)
(3 -6.543536661e-15 0)
(3 -7.657645723e-15 0)
(3 -1.113172407e-14 0)
(3 -1.168265933e-14 0)
(3 -1.224889276e-14 0)
(3 -1.095528589e-14 0)
(3 -9.360068984e-15 0)
(3 -5.127081956e-15 0)
(3 9.460547829e-16 0)
(3 2.874936018e-15 0)
(3 5.251024516e-15 0)
(3 6.432096604e-15 0)
(3 7.823433268e-15 0)
(3 8.779593343e-15 0)
(3 8.306437819e-15 0)
(3 5.473677562e-15 0)
(3 4.245079613e-15 0)
(3 4.356011013e-15 0)
(3 4.201264664e-15 0)
(3 2.578281102e-15 0)
(3 1.184932624e-15 0)
(3 1.262965738e-15 0)
(3 1.578843981e-15 0)
(3 2.578852776e-15 0)
(3 7.088598265e-15 0)
(3 9.593214457e-15 0)
(3 -1.51710985e-14 0)
(3 -1.309365431e-14 0)
(3 -1.165490298e-14 0)
(3 -9.031655532e-15 0)
(3 -7.849342792e-15 0)
(3 -7.111107425e-15 0)
(3 -4.801979905e-15 0)
(3 -4.098761758e-15 0)
(3 -2.245994551e-15 0)
(3 -6.78563428e-15 0)
(3 -1.023713616e-14 0)
(3 -1.05734869e-14 0)
(3 -1.044639662e-14 0)
(3 -7.607993419e-15 0)
(3 -6.014521828e-15 0)
(3 -3.757700019e-15 0)
(3 -3.886862263e-15 0)
(3 -3.262892092e-15 0)
(3 -1.880948989e-15 0)
(3 1.583622532e-15 0)
(3 6.838113614e-15 0)
(3 8.7118777e-15 0)
(3 7.144495274e-15 0)
(3 4.113072164e-15 0)
(3 5.045748843e-16 0)
(3 2.398019988e-16 0)
(3 2.266439611e-16 0)
(3 7.639719244e-16 0)
(3 3.792388515e-15 0)
(3 7.348884464e-15 0)
(3 7.751616006e-15 0)
(3 9.052860195e-15 0)
(3 1.08437461e-14 0)
(3 -2.056894043e-14 0)
(3 -1.910778964e-14 0)
(3 -1.770036601e-14 0)
(3 -1.571719438e-14 0)
(3 -1.475951034e-14 0)
(3 -1.367232397e-14 0)
(3 -1.147387635e-14 0)
(3 -8.662838812e-15 0)
(3 -8.364554918e-15 0)
(3 -5.052267041e-15 0)
(3 -4.412625755e-15 0)
(3 -1.462860538e-15 0)
(3 1.150517007e-15 0)
(3 3.523871506e-15 0)
(3 3.656539382e-15 0)
(3 2.435662692e-15 0)
(3 1.205496801e-15 0)
(3 7.027279593e-16 0)
(3 3.059284109e-15 0)
(3 4.211294671e-15 0)
(3 3.809782305e-15 0)
(3 5.082185748e-15 0)
(3 5.231151591e-15 0)
(3 1.492568034e-15 0)
(3 1.26776259e-15 0)
(3 1.668304022e-15 0)
(3 1.734782084e-15 0)
(3 4.14707273e-15 0)
(3 5.689050809e-15 0)
(3 7.161479746e-15 0)
(3 7.997201729e-15 0)
(3 9.474665543e-15 0)
(3 1.023173569e-14 0)
(3 -1.350985533e-14 0)
(3 -1.123285928e-14 0)
(3 -9.716021687e-15 0)
(3 -9.786488052e-15 0)
(3 -1.040751914e-14 0)
(3 -1.010170955e-14 0)
(3 -9.563586171e-15 0)
(3 -6.413632778e-15 0)
(3 -4.703066609e-15 0)
(3 -2.940380604e-15 0)
(3 -3.344329257e-15 0)
(3 -3.974546351e-15 0)
(3 -3.841363373e-15 0)
(3 -3.116122461e-15 0)
(3 -1.008684918e-15 0)
(3 8.191431372e-16 0)
(3 2.790272134e-15 0)
(3 5.944773992e-16 0)
(3 -9.294471577e-16 0)
(3 -2.319881948e-15 0)
(3 -4.279650441e-15 0)
(3 -6.503568287e-15 0)
(3 -6.872794486e-15 0)
(3 -1.369707891e-15 0)
(3 1.362337829e-15 0)
(3 5.081425616e-16 0)
(3 1.110540246e-15 0)
(3 3.721539362e-15 0)
(3 5.478976807e-15 0)
(3 8.071606375e-15 0)
(3 8.718688778e-15 0)
(3 8.920776689e-15 0)
(3 9.006015709e-15 0)
(3 1.569414484e-17 0)
(3 3.884717981e-15 0)
(3 7.646107596e-15 0)
(3 7.467952099e-15 0)
(3 7.489884521e-15 0)
(3 7.327574092e-15 0)
(3 7.037430061e-15 0)
(3 5.832228944e-15 0)
(3 5.75005508e-15 0)
(3 7.032579466e-15 0)
(3 8.645370977e-15 0)
(3 6.543935918e-15 0)
(3 5.330859589e-15 0)
(3 5.123311044e-15 0)
(3 6.72683519e-15 0)
(3 6.242370915e-15 0)
(3 6.137073479e-15 0)
(3 2.836185082e-15 0)
(3 -3.155604973e-16 0)
(3 -2.421875479e-15 0)
(3 -2.879696156e-15 0)
(3 -2.816033508e-15 0)
(3 -1.992528e-15 0)
(3 -3.110045278e-16 0)
(3 -5.740896847e-16 0)
(3 1.156091329e-15 0)
(3 3.310809475e-15 0)
(3 4.193245412e-15 0)
(3 4.346040397e-15 0)
(3 5.230854939e-15 0)
(3 6.226552385e-15 0)
(3 6.684715223e-15 0)
(3 7.934087564e-15 0)
(3 3.957718525e-15 0)
(3 7.665411262e-15 0)
(3 1.21011722e-14 0)
(3 1.412955969e-14 0)
(3 1.771953781e-14 0)
(3 1.851053806e-14 0)
(3 1.794445021e-14 0)
(3 1.809334136e-14 0)
(3 1.987811319e-14 0)
(3 2.23029156e-14 0)
(3 2.572104243e-14 0)
(3 2.640136133e-14 0)
(3 2.347737845e-14 0)
(3 1.766456083e-14 0)
(3 1.497884027e-14 0)
(3 1.374132336e-14 0)
(3 1.114787041e-14 0)
(3 6.18898363e-15 0)
(3 4.892541186e-15 0)
(3 3.938330215e-15 0)
(3 2.292867925e-15 0)
(3 2.661786578e-15 0)
(3 3.782649578e-15 0)
(3 3.648294842e-15 0)
(3 2.99175488e-16 0)
(3 -1.345519162e-15 0)
(3 -1.171189863e-16 0)
(3 1.347533259e-15 0)
(3 2.653330115e-15 0)
(3 2.211405052e-15 0)
(3 2.576857182e-15 0)
(3 3.603384921e-15 0)
(3 4.903853665e-15 0)
(3 1.411676731e-14 0)
(3 1.700017592e-14 0)
(3 2.170537704e-14 0)
(3 2.366427569e-14 0)
(3 2.827175364e-14 0)
(3 3.363163057e-14 0)
(3 3.691833951e-14 0)
(3 3.624010155e-14 0)
(3 3.445038464e-14 0)
(3 3.167813086e-14 0)
(3 2.640389895e-14 0)
(3 2.477263624e-14 0)
(3 1.905591864e-14 0)
(3 1.822851472e-14 0)
(3 1.627066891e-14 0)
(3 1.531020357e-14 0)
(3 1.374761696e-14 0)
(3 1.496806589e-14 0)
(3 1.7016201e-14 0)
(3 1.45714452e-14 0)
(3 1.093057226e-14 0)
(3 8.607133815e-15 0)
(3 8.242284207e-15 0)
(3 8.430224344e-15 0)
(3 7.823645858e-15 0)
(3 6.269352985e-15 0)
(3 4.502012095e-15 0)
(3 2.077981868e-15 0)
(3 9.372333059e-16 0)
(3 -1.232298251e-15 0)
(3 -1.349346783e-15 0)
(3 -3.926250724e-16 0)
(3 1.487152814e-16 0)
(3 2.919592594e-14 0)
(3 3.192923437e-14 0)
(3 3.237749792e-14 0)
(3 3.228055737e-14 0)
(3 3.240515286e-14 0)
(3 3.510840011e-14 0)
(3 4.000908801e-14 0)
(3 3.831870844e-14 0)
(3 3.796787351e-14 0)
(3 3.841331169e-14 0)
(3 3.362353167e-14 0)
(3 3.23602475e-14 0)
(3 3.343034042e-14 0)
(3 3.418328763e-14 0)
(3 3.168109297e-14 0)
(3 3.104628125e-14 0)
(3 3.122748207e-14 0)
(3 2.990013189e-14 0)
(3 2.864795635e-14 0)
(3 2.246467596e-14 0)
(3 1.459889161e-14 0)
(3 1.192740487e-14 0)
(3 9.813679488e-15 0)
(3 1.02541649e-14 0)
(3 1.125047734e-14 0)
(3 1.260222169e-14 0)
(3 1.245850503e-14 0)
(3 8.815557104e-15 0)
(3 7.561680544e-15 0)
(3 5.676522234e-15 0)
(3 3.882538742e-15 0)
(3 2.251409358e-15 0)
(3 2.191809321e-16 0)
(3 3.554987811e-14 0)
(3 3.794463365e-14 0)
(3 3.632472586e-14 0)
(3 3.570648111e-14 0)
(3 3.375535303e-14 0)
(3 3.416020333e-14 0)
(3 3.351051846e-14 0)
(3 3.063715689e-14 0)
(3 3.121193021e-14 0)
(3 3.090338811e-14 0)
(3 3.060316272e-14 0)
(3 3.057242632e-14 0)
(3 3.111567285e-14 0)
(3 3.039816741e-14 0)
(3 2.784180597e-14 0)
(3 2.520569341e-14 0)
(3 2.816402516e-14 0)
(3 2.966822486e-14 0)
(3 3.067546933e-14 0)
(3 2.962985572e-14 0)
(3 2.454395064e-14 0)
(3 1.952842124e-14 0)
(3 1.761391156e-14 0)
(3 1.725097354e-14 0)
(3 1.922071325e-14 0)
(3 1.928899826e-14 0)
(3 1.762045839e-14 0)
(3 1.625660906e-14 0)
(3 1.282821732e-14 0)
(3 1.001888588e-14 0)
(3 6.00956365e-15 0)
(3 3.626171428e-16 0)
(3 -2.138384221e-15 0)
(3 2.110156095e-14 0)
(3 1.855565092e-14 0)
(3 1.696970151e-14 0)
(3 1.74100022e-14 0)
(3 1.636525021e-14 0)
(3 1.533182301e-14 0)
(3 1.368865834e-14 0)
(3 1.396126969e-14 0)
(3 1.31117365e-14 0)
(3 1.258854443e-14 0)
(3 1.421948921e-14 0)
(3 1.487036616e-14 0)
(3 1.435845369e-14 0)
(3 1.41926175e-14 0)
(3 1.421835974e-14 0)
(3 1.472225592e-14 0)
(3 2.001919352e-14 0)
(3 2.447835166e-14 0)
(3 2.517411511e-14 0)
(3 2.418486983e-14 0)
(3 2.235001469e-14 0)
(3 2.26927173e-14 0)
(3 2.325715057e-14 0)
(3 2.297600899e-14 0)
(3 2.07582478e-14 0)
(3 1.850211382e-14 0)
(3 1.7738124e-14 0)
(3 1.678913222e-14 0)
(3 1.355704116e-14 0)
(3 9.033789785e-15 0)
(3 3.976321306e-15 0)
(3 -1.099482377e-15 0)
(3 -6.428759143e-15 0)
(3 4.395274165e-15 0)
(3 2.770126029e-15 0)
(3 3.293614252e-15 0)
(3 1.06261421e-15 0)
(3 2.754333492e-15 0)
(3 4.519579134e-15 0)
(3 3.183814754e-15 0)
(3 2.779992862e-15 0)
(3 2.083422794e-15 0)
(3 2.948246727e-16 0)
(3 -1.096071826e-14 0)
(3 -7.378960835e-15 0)
(3 -8.629178922e-15 0)
(3 -9.984539764e-15 0)
(3 -8.620476281e-15 0)
(3 -6.53765679e-15 0)
(3 -1.532538741e-15 0)
(3 2.053475924e-15 0)
(3 2.436585474e-15 0)
(3 5.874564872e-16 0)
(3 2.42627873e-15 0)
(3 8.28358838e-15 0)
(3 8.031775669e-15 0)
(3 5.920672734e-15 0)
(3 3.753990537e-15 0)
(3 2.096800865e-15 0)
(3 -5.007400231e-16 0)
(3 -5.422018972e-15 0)
(3 -1.359849517e-14 0)
(3 -2.054155026e-14 0)
(3 -1.91786962e-14 0)
(3 -1.996974215e-14 0)
(3 -1.777861873e-14 0)
(3 -1.66731314e-14 0)
(3 -1.492213351e-14 0)
(3 -1.718527803e-14 0)
(3 -1.444857002e-14 0)
(3 -8.529045765e-15 0)
(3 -3.722650156e-15 0)
(3 -7.808610878e-16 0)
(3 1.125031026e-15 0)
(3 -2.65608635e-16 0)
(3 -2.569035239e-15 0)
(3 -8.106598875e-15 0)
(3 -7.265843717e-15 0)
(3 -8.422965331e-15 0)
(3 -1.09452858e-14 0)
(3 -1.061987725e-14 0)
(3 -7.675274414e-15 0)
(3 -4.83527232e-15 0)
(3 1.981102352e-15 0)
(3 1.108395483e-14 0)
(3 1.263724162e-14 0)
(3 1.261626051e-14 0)
(3 8.659361503e-15 0)
(3 8.649316138e-15 0)
(3 9.446613717e-15 0)
(3 8.412735618e-15 0)
(3 5.709037594e-15 0)
(3 -6.88729546e-16 0)
(3 -2.828107979e-15 0)
(3 -6.58391998e-15 0)
(3 -1.054612273e-14 0)
(3 -1.08711387e-14 0)
(3 -1.225687866e-14 0)
(3 -1.240476256e-14 0)
(3 -1.264599376e-14 0)
(3 -1.601854238e-14 0)
(3 -1.706524189e-14 0)
(3 -1.52331164e-14 0)
(3 -1.257875919e-14 0)
(3 -9.619261211e-15 0)
(3 -5.161669266e-15 0)
(3 -4.145076937e-17 0)
(3 3.038545924e-16 0)
(3 5.305565751e-16 0)
(3 -2.463190254e-15 0)
(3 -4.810591881e-15 0)
(3 -8.841088187e-15 0)
(3 -8.08188006e-15 0)
(3 -7.694618009e-15 0)
(3 -5.717126744e-15 0)
(3 -5.386593222e-15 0)
(3 -4.794972439e-15 0)
(3 -3.947055946e-15 0)
(3 -1.385662518e-15 0)
(3 -9.450676735e-16 0)
(3 -3.914809007e-16 0)
(3 3.994116742e-15 0)
(3 5.741081314e-15 0)
(3 5.013953862e-15 0)
(3 2.334353817e-15 0)
(3 -2.411105693e-15 0)
(3 -4.406390498e-15 0)
(3 -9.363788533e-15 0)
(3 -9.539158179e-15 0)
(3 -8.834198867e-15 0)
(3 -8.421761387e-15 0)
(3 -8.042021245e-15 0)
(3 -7.42335065e-15 0)
(3 -1.095037373e-14 0)
(3 -1.019849494e-14 0)
(3 -8.907364248e-15 0)
(3 -8.322602272e-15 0)
(3 -7.757848276e-15 0)
(3 -8.015193628e-15 0)
(3 -6.730753467e-15 0)
(3 -3.48356723e-15 0)
(3 -2.767035462e-15 0)
(3 1.096741696e-14 0)
(3 1.332025211e-14 0)
(3 1.247977212e-14 0)
(3 8.140134526e-15 0)
(3 6.497017582e-15 0)
(3 1.22306756e-15 0)
(3 -2.962434862e-15 0)
(3 -5.885317029e-15 0)
(3 -7.679271008e-15 0)
(3 -6.021755648e-15 0)
(3 -4.357943558e-15 0)
(3 -2.20403685e-16 0)
(3 2.418555575e-15 0)
(3 2.605375019e-15 0)
(3 4.240336014e-16 0)
(3 -2.065628492e-15 0)
(3 -6.229765998e-15 0)
(3 -1.017037923e-14 0)
(3 -9.311541212e-15 0)
(3 -9.994278016e-15 0)
(3 -5.244458233e-15 0)
(3 -4.35989041e-15 0)
(3 -3.862482545e-15 0)
(3 -3.017056778e-15 0)
(3 -2.967612628e-15 0)
(3 -2.115925177e-15 0)
(3 -2.211796213e-15 0)