/*--------------------------------*- C++ -*----------------------------------*\
  =========                 |
  \\      /  F ield         | OpenFOAM: The Open Source CFD Toolbox
   \\    /   O peration     | Website:  https://openfoam.org
    \\  /    A nd           | Version:  7
     \\/     M anipulation  |
\*---------------------------------------------------------------------------*/
FoamFile
{
    version     2.0;
    format      ascii;
    class       volVectorField;
    location    "3.6";
    object      U;
}
// * * * * * * * * * * * * * * * * * * * * * * * * * * * * * * * * * * * * * //

dimensions      [0 1 -1 0 0 0 0];

internalField   nonuniform List<vector> 5((3.000992496 0.03308871845 0) (2.969270446 0.08179616521 0) (2.977398966 0.01758116268 0) (2.90365633 0.05284052596 0) (2.928752068 0.0124182769 0));

boundaryField
{
    inlet
    {
        type            fixedValue;
        value           nonuniform 0();
    }
    outlet
    {
        type            inletOutlet;
        inletValue      nonuniform 0();
        value           nonuniform 0();
    }
    bottom
    {
        type            slip;
    }
    top
    {
        type            slip;
    }
    obstacle
    {
        type            slip;
    }
    defaultFaces
    {
        type            empty;
    }
    procBoundary10to4
    {
        type            processor;
        value           uniform (3.008261476 0.07818005129 0);
    }
    procBoundary10to15
    {
        type            processor;
        value           nonuniform List<vector> 4((3.001179075 0.1101250324 0) (3.001179075 0.1101250324 0) (2.865482583 0.2074557347 0) (2.832981455 0.143784221 0));
    }
    procBoundary10to16
    {
        type            processor;
        value           nonuniform List<vector> 2((2.834177151 0.03060606738 0) (2.891595117 0.006068248441 0));
    }
    procBoundary10to17
    {
        type            processor;
        value           nonuniform List<vector> 3((2.984010156 -0.001244017057 0) (2.967995122 -0.004542802152 0) (2.936188785 -0.001962603725 0));
    }
}


// ************************************************************************* //
