/*--------------------------------*- C++ -*----------------------------------*\
  =========                 |
  \\      /  F ield         | OpenFOAM: The Open Source CFD Toolbox
   \\    /   O peration     | Website:  https://openfoam.org
    \\  /    A nd           | Version:  7
     \\/     M anipulation  |
\*---------------------------------------------------------------------------*/
FoamFile
{
    version     2.0;
    format      ascii;
    class       volScalarField;
    location    "0.8";
    object      rho;
}
// * * * * * * * * * * * * * * * * * * * * * * * * * * * * * * * * * * * * * //

dimensions      [1 -3 0 0 0 0 0];

internalField   nonuniform List<scalar> 
22
(
1.400938077
1.40848045
1.442570603
1.504569745
1.407420891
1.434248475
1.483950036
1.520411437
1.489601432
1.516757718
1.523746876
1.53696362
1.533979194
1.513064145
1.539726698
1.514579517
1.446857424
1.514907349
1.428305571
1.343266662
1.401823561
1.303963165
)
;

boundaryField
{
    inlet
    {
        type            calculated;
        value           nonuniform 0();
    }
    outlet
    {
        type            calculated;
        value           nonuniform 0();
    }
    bottom
    {
        type            calculated;
        value           nonuniform List<scalar> 4(1.400938077 1.40848045 1.442570603 1.504569745);
    }
    top
    {
        type            calculated;
        value           nonuniform 0();
    }
    obstacle
    {
        type            calculated;
        value           nonuniform 0();
    }
    defaultFaces
    {
        type            empty;
    }
    procBoundary4to3
    {
        type            processor;
        value           nonuniform List<scalar> 6(1.400042964 1.400581582 1.433851928 1.433851928 1.488750038 1.540152497);
    }
    procBoundary4to5
    {
        type            processor;
        value           nonuniform List<scalar> 6(1.575595699 1.556313083 1.513890833 1.45924039 1.371596207 1.316330729);
    }
    procBoundary4to9
    {
        type            processor;
        value           nonuniform List<scalar> 2(1.56189547 1.522545225);
    }
    procBoundary4to10
    {
        type            processor;
        value           nonuniform List<scalar> 4(1.276290309 1.282883802 1.276290309 1.26853205);
    }
}


// ************************************************************************* //
