/*--------------------------------*- C++ -*----------------------------------*\
  =========                 |
  \\      /  F ield         | OpenFOAM: The Open Source CFD Toolbox
   \\    /   O peration     | Website:  https://openfoam.org
    \\  /    A nd           | Version:  7
     \\/     M anipulation  |
\*---------------------------------------------------------------------------*/
FoamFile
{
    version     2.0;
    format      ascii;
    class       volScalarField;
    location    "1";
    object      rho;
}
// * * * * * * * * * * * * * * * * * * * * * * * * * * * * * * * * * * * * * //

dimensions      [1 -3 0 0 0 0 0];

internalField   nonuniform List<scalar> 
2223
(
1.16396305
1.153122176
1.137167886
1.114239845
1.101669329
1.092543338
1.077470139
1.05956288
1.049870454
1.042102432
1.029092476
1.015452571
1.007498509
1.000232355
0.9877531328
0.97679995
0.9701699325
0.9638405621
0.9535502709
0.9454183364
0.9400240506
0.9340938872
0.924357921
0.9164523698
0.9111665187
1.333031523
1.297456277
1.268499881
1.254329182
1.238008094
1.208814493
1.189221306
1.177924718
1.162137544
1.138238711
1.124295045
1.114460999
1.099102246
1.080092782
1.069830876
1.061874749
1.048852907
1.034533691
1.025973635
1.018333874
1.005485261
0.9937949666
0.9867409007
0.98021004
0.9695903845
0.9610323898
0.9554104162
0.9494412578
0.9395749978
0.9314682749
0.9260193613
1.364949109
1.329131261
1.298080048
1.283029149
1.266609854
1.237077562
1.215961292
1.203698896
1.187500644
1.162228771
1.146764131
1.136337153
1.120875216
1.100997952
1.090154557
1.081975287
1.068824724
1.053697565
1.044412493
1.036334102
1.023146796
1.010819511
1.00342737
0.996693629
0.9857219746
0.9764704782
0.9704565062
0.9642164102
0.9540894326
0.9454812111
0.9397343547
1.394981554
1.359580339
1.326331761
1.309842931
1.292998123
1.263032516
1.240507082
1.227745478
1.211719495
1.185804756
1.169190701
1.158337238
1.142877884
1.122219338
1.110777283
1.102289768
1.088979118
1.073122464
1.063137558
1.054669362
1.041243206
1.028289974
1.020523925
1.013564085
1.002251642
0.9923929464
0.9859975194
0.9795867905
0.9691852644
0.9603752005
0.9545637724
1.425169328
1.389372533
1.354210944
1.337518475
1.321138456
1.291352624
1.267821591
1.25421542
1.237878521
1.211080949
1.192987702
1.18136406
1.165584172
1.143901391
1.131404863
1.12232517
1.108537555
1.091774485
1.081284528
1.072619767
1.059110384
1.045708925
1.037705063
1.030604043
1.019028616
1.008494622
1.001670334
0.99501067
0.9843723058
0.975120513
0.9689526115
1.456126615
1.421017147
1.383630875
1.364907492
1.347480275
1.316884555
1.292053306
1.278015041
1.26188256
1.234973137
1.215904168
1.20390467
1.188199201
1.165898702
1.152528235
1.142883062
1.128719187
1.111085903
1.099987626
1.091016917
1.077303197
1.063349866
1.055056332
1.047774139
1.035994547
1.024925481
1.017728259
1.010827417
0.9998403429
0.9902046797
0.9838428081
1.486496925
1.452086118
1.413593688
1.393779366
1.376007662
1.34483843
1.318649863
1.303985301
1.287667286
1.260270319
1.24029043
1.22760868
1.211553769
1.188369883
1.173971475
1.16377381
1.14929013
1.130909601
1.119249061
1.109999958
1.096089736
1.081471854
1.072690945
1.065086975
1.052960007
1.04134176
1.03382569
1.026711195
1.015463505
1.005336753
0.9985881486
1.518002905
1.483651728
1.443135373
1.421763511
1.403455488
1.372467576
1.345187495
1.329532479
1.312648295
1.284310078
1.262899195
1.249534771
1.233312356
1.209564331
1.194687378
1.184387493
1.169965382
1.151162188
1.139061912
1.129517103
1.115382457
1.100095919
1.090763309
1.082810539
1.070397204
1.058262898
1.050402565
1.043030365
1.031440532
1.020870512
1.013817476
1.550051515
1.516177786
1.474035513
1.450437434
1.430960403
1.398883489
1.37057251
1.355085129
1.338695998
1.310521148
1.288422386
1.274323561
1.257677674
1.233060153
1.217259334
1.206384429
1.191535825
1.172008104
1.159123469
1.149036468
1.134461487
1.118353644
1.108495601
1.100256922
1.087563583
1.075005946
1.066980023
1.059481619
1.04768158
1.036663233
1.029286651
1.581689832
1.547840392
1.50446427
1.479390447
1.459341584
1.427151831
1.397299482
1.38068555
1.36348288
1.334401197
1.311363022
1.296842701
1.280284034
1.255467013
1.239002067
1.227842774
1.212820982
1.19273527
1.179234849
1.168688308
1.153774143
1.136980212
1.126698398
1.118206722
1.105223154
1.092114308
1.083780161
1.076017889
1.063853972
1.052468332
1.044907141
1.61429562
1.580040701
1.535017978
1.508239891
1.487585335
1.455410945
1.42476298
1.407648209
1.390033607
1.359913099
1.335736995
1.320722592
1.304133944
1.279105773
1.262329531
1.250766681
1.235293631
1.214439127
1.200059062
1.188872723
1.173441221
1.155894759
1.145232694
1.136580763
1.123485058
1.109860923
1.101059066
1.092897545
1.080188397
1.068210352
1.060379003
1.646240545
1.612037508
1.566486816
1.538337603
1.517031226
1.484623642
1.452409818
1.434254694
1.415956701
1.385369796
1.360284423
1.344572701
1.327620048
1.301888451
1.284145215
1.272003844
1.256064052
1.234511815
1.219728837
1.208360803
1.19278588
1.174776698
1.164001559
1.155343934
1.14224651
1.128182261
1.118849766
1.110231991
1.097034971
1.084477637
1.07631171
1.678774522
1.643527335
1.597039349
1.568191135
1.546804112
1.514839877
1.48142363
1.461739285
1.442183621
1.409885842
1.383763194
1.36805115
1.351433409
1.325804145
1.307889783
1.295456894
1.279244426
1.256952723
1.241417149
1.229425428
1.213198156
1.194441261
1.183207254
1.174253979
1.160909383
1.146262766
1.136350381
1.127307586
1.113630354
1.100552375
1.092211681
1.711231786
1.675725312
1.628466987
1.598382402
1.576272025
1.544079897
1.509584437
1.489004446
1.468899917
1.436091282
1.408750331
1.392248782
1.374918328
1.348428156
1.329900826
1.317109609
1.30079882
1.278222669
1.2622456
1.249991937
1.233419275
1.213978716
1.202294647
1.193015902
1.179371656
1.164235909
1.153939859
1.144612959
1.130601419
1.117002598
1.108382754
1.743142509
1.707323051
1.65988826
1.629307855
1.606747636
1.573864243
1.537600268
1.515673005
1.494912253
1.461676633
1.433885724
1.417389242
1.39988321
1.372529747
1.353073206
1.339623841
1.322994954
1.299987602
1.284004166
1.271657915
1.254805962
1.234819279
1.222469044
1.212603642
1.198362914
1.182512168
1.171732139
1.162130472
1.147896676
1.13386779
1.124911808
1.77515474
1.739467983
1.691323988
1.659937562
1.636856734
1.603669029
1.566426073
1.543289064
1.521874916
1.488001912
1.459085574
1.442136988
1.424172595
1.396394355
1.376251531
1.362215777
1.34516975
1.321330042
1.304513697
1.29165041
1.274257726
1.253673826
1.241114002
1.2311037
1.216619615
1.200322227
1.189387925
1.179771597
1.165512754
1.151173002
1.141855616
1.806853811
1.771592084
1.723467358
1.691278426
1.667452217
1.633120644
1.594675567
1.570688542
1.549013568
1.515081493
1.485235887
1.467513253
1.448663412
1.419495852
1.398482849
1.384090778
1.366966913
1.342834688
1.325978498
1.313074211
1.295544806
1.274457202
1.261532413
1.251088362
1.236015994
1.219065839
1.207681509
1.197759404
1.183222955
1.168425249
1.158604418
1.838986042
1.803841043
1.754992628
1.721849298
1.697576019
1.662750387
1.623351898
1.598230941
1.575888328
1.54130954
1.51043492
1.492282718
1.473055034
1.443367252
1.421551129
1.406621986
1.388833586
1.363671698
1.346256264
1.333077877
1.315395485
1.294036951
1.280881986
1.270311876
1.25498478
1.237477909
1.225695455
1.215504198
1.200676424
1.185493875
1.175326322
1.870514513
1.835758436
1.786435635
1.751854629
1.726840089
1.691155815
1.651166056
1.625767831
1.603275817
1.568123882
1.535828076
1.516782655
1.496916688
1.466435406
1.444372688
1.429612821
1.411842416
1.386029644
1.367785246
1.353940133
1.335776163
1.313875157
1.300785356
1.290192212
1.274646114
1.256765813
1.24454761
1.233949309
1.218687205
1.203029909
1.192431912
1.901457776
1.867047677
1.817225198
1.78141914
1.756060272
1.719899157
1.678721625
1.652772712
1.630010024
1.594639583
1.561650331
1.542059641
1.521874435
1.490653551
1.467671832
1.452441431
1.434107851
1.407842918
1.38915639
1.374914856
1.356473205
1.334001396
1.320198227
1.309055992
1.292701476
1.274014056
1.261540058
1.250840688
1.235414757
1.219599588
1.209075714
1.932565011
1.898841213
1.848785401
1.811273699
1.78527226
1.748979475
1.707188305
1.680725432
1.657472428
1.621104943
1.587184307
1.567149896
1.546964807
1.51570807
1.492033556
1.476177812
1.456866758
1.429192892
1.409675604
1.394956245
1.376304614
1.353613628
1.339929947
1.328820774
1.312314974
1.292991218
1.280090659
1.269015974
1.253047389
1.236915337
1.226296505
1.963705507
1.93072812
1.88112018
1.841927093
1.81507546
1.778579801
1.735662452
1.708528119
1.68481699
1.647931597
1.613242521
1.592357098
1.571707581
1.539816734
1.515409815
1.499141268
1.479250198
1.450900585
1.430711544
1.415518306
1.396253579
1.372765676
1.358800148
1.347532576
1.330836085
1.311189759
1.298012198
1.286777871
1.27043164
1.253818657
1.24299936
1.994905772
1.962172112
1.912979555
1.872126293
1.844427759
1.808004197
1.764147577
1.736003411
1.711562051
1.673733894
1.638491714
1.61727669
1.596478623
1.563980935
1.538543732
1.521649679
1.501016287
1.471784805
1.451433589
1.436289692
1.417003005
1.393058295
1.378655147
1.366990788
1.349870949
1.329637835
1.316378354
1.305090905
1.288545392
1.271730306
1.260675867
2.025481305
1.992612432
1.944026526
1.9017088
1.873141894
1.836501013
1.791291853
1.762484658
1.737801377
1.699563603
1.663535975
1.641789981
1.620619649
1.587528619
1.561541608
1.54447703
1.523652198
1.493911529
1.473072944
1.457580666
1.437756068
1.413349447
1.39858465
1.38661979
1.3692765
1.348633408
1.334718098
1.322865865
1.305502691
1.288044863
1.276759128
2.054662371
2.021726001
1.973952657
1.930733172
1.901753403
1.865264611
1.81864997
1.788764725
1.76368547
1.72524549
1.689027378
1.667076117
1.645574159
1.611497794
1.584604021
1.567204438
1.546281044
1.516455684
1.495461028
1.47975639
1.459427036
1.434103904
1.418417143
1.405715206
1.387730345
1.366704361
1.352857171
1.341007891
1.323483826
1.305620168
1.294148716
2.082785595
2.050347378
2.003881763
1.960021427
1.930814061
1.894862672
1.847460178
1.816308048
1.790633046
1.751864276
1.715061049
1.692794677
1.671028024
1.636604328
1.608947127
1.59076528
1.569107502
1.538372197
1.51691849
1.501007334
1.480446889
1.454912515
1.438595403
1.425287965
1.406424008
1.384496036
1.37028996
1.358230905
1.340488985
1.322516951
1.311096267
2.111944799
2.079475206
2.0340555
1.9895161
1.960006925
1.924594979
1.876640334
1.843939299
1.817539179
1.778611428
1.741381698
1.718573519
1.696308561
1.661272379
1.63305947
1.614322093
1.592056858
1.56030417
1.538059198
1.521726152
1.500652294
1.474627637
1.45819413
1.444742197
1.425601385
1.403151314
1.38855107
1.376160482
1.35798574
1.33969368
1.328503239
2.141522031
2.108641604
2.064262734
2.018817419
1.988454036
1.953229951
1.904958388
1.870779858
1.84367115
1.804408231
1.766500245
1.743501601
1.721089693
1.685781897
1.656998665
1.637542595
1.614469096
1.581607416
1.558934856
1.542603225
1.521409451
1.49511092
1.47839152
1.464605179
1.444885743
1.421957997
1.407010494
1.394366543
1.375972307
1.357491001
1.346055725
2.167850627
2.135603676
2.093276571
2.047487425
2.015944532
1.98054401
1.932020919
1.896901513
1.8695022
1.830130009
1.791372898
1.767953199
1.745144394
1.709381662
1.680449004
1.660723223
1.637201929
1.603280341
1.580081386
1.563709373
1.54241313
1.515998117
1.499149254
1.485116534
1.464987459
1.441438509
1.425715531
1.412454016
1.393491165
1.374782092
1.363422126
2.191194913
2.16069337
2.120596724
2.074469583
2.041876208
2.006639141
1.958405441
1.923018454
1.895865958
1.856956935
1.817540975
1.793613798
1.770233879
1.733649835
1.704119598
1.68387602
1.659997156
1.625710271
1.602322739
1.585839631
1.564064458
1.536969791
1.519548687
1.505059833
1.484522961
1.460845704
1.444670985
1.430951331
1.411290827
1.392040813
1.38036515
2.215195294
2.185685031
2.146907784
2.100435396
2.067092595
2.032381394
1.984778164
1.949530289
1.923001944
1.88497575
1.845046446
1.820267491
1.796118495
1.758872894
1.728688238
1.707656417
1.68320304
1.648356294
1.624829788
1.608203183
1.585964039
1.558031751
1.539683941
1.52450874
1.503199946
1.479122057
1.462916656
1.449147535
1.429326962
1.409765793
1.39774105
2.240346916
2.210124338
2.172829694
2.127476479
2.093751112
2.059364032
2.011971279
1.976279521
1.950085583
1.912880212
1.872347303
1.846351856
1.821220881
1.783191914
1.752315007
1.730787136
1.706067334
1.670996888
1.647301731
1.630291329
1.607314501
1.578407471
1.559412197
1.5438705
1.522017746
1.497669401
1.481481668
1.467658174
1.447590317
1.427872716
1.41552013
2.259375153
2.230659339
2.197014485
2.15463188
2.120752808
2.086588645
2.039335636
2.002671822
1.976348749
1.939495099
1.898179313
1.871114514
1.845151829
1.806433268
1.774926618
1.753078781
1.728079996
1.692675577
1.669179152
1.652129928
1.628721206
1.598885254
1.57930658
1.563481038
1.54114418
1.516587476
1.500554949
1.486773116
1.466594554
1.446601975
1.433616307
2.271641534
2.246553317
2.216969192
2.177554047
2.144413737
2.111808417
2.066002679
2.028514079
2.001791069
1.965137071
1.92322667
1.895583601
1.869177543
1.829992562
1.797815898
1.77564515
1.750276833
1.714334769
1.690910446
1.673759139
1.650064822
1.619808578
1.599948899
1.583912927
1.560879826
1.535755894
1.519503798
1.505550039
1.485242128
1.46525844
1.45179559
2.28156603
2.262319736
2.234860652
2.197524845
2.165746919
2.135492516
2.091808032
2.053604456
2.02644274
1.989998831
1.947891141
1.920426187
1.894314317
1.855398894
1.822650493
1.79978669
1.773717242
1.737134891
1.713598831
1.69612468
1.672030379
1.641357585
1.621119162
1.604654997
1.580778378
1.554858287
1.538083255
1.52372936
1.502976675
1.482874385
1.469274874
2.292669579
2.275823772
2.252194254
2.219304182
2.18880428
2.15985486
2.117776637
2.078750783
2.05099756
2.014635558
1.972186457
1.944936109
1.919427796
1.88129598
1.848222284
1.824626468
1.79774626
1.760401192
1.736469986
1.718581714
1.694223992
1.663535435
1.642830601
1.625608715
1.600428932
1.573397435
1.556145577
1.541489862
1.520346161
1.500230896
1.486683074
2.295554075
2.284643649
2.269360986
2.244004025
2.21377535
2.184533753
2.144342622
2.105749549
2.077592863
2.041026387
1.997483033
1.969354022
1.943742886
1.905797445
1.87230328
1.84814936
1.820593174
1.782518894
1.758074808
1.739857292
1.715112581
1.684400491
1.663811764
1.646309846
1.620287155
1.592195656
1.574507608
1.55959904
1.538035743
1.51798374
1.504746741
2.278834729
2.289215055
2.283949235
2.265248806
2.235778889
2.207022078
2.169616043
2.132315472
2.104237381
2.067971774
2.02334258
1.993590381
1.967183263
1.928511702
1.894407833
1.870237014
1.842600049
1.804216952
1.779127774
1.760431874
1.73490774
1.703674851
1.683430356
1.666020966
1.639723477
1.611279774
1.593679233
1.578818031
1.556798662
1.536569984
1.523330534
2.285234679
2.297978287
2.293844082
2.277105379
2.251669676
2.226104389
2.191702752
2.154697452
2.12691908
2.092345077
2.048374488
2.017854333
1.990845058
1.950970964
1.91593666
1.892116765
1.865068391
1.827329546
1.801698344
1.782225237
1.755508455
1.723157767
1.702986379
1.685611333
1.659187981
1.630695093
1.613319326
1.598504917
1.576008218
1.555332505
1.541754851
2.287665938
2.286880005
2.285716502
2.282806164
2.267360276
2.244340857
2.212293049
2.174596339
2.146803614
2.114465598
2.072421873
2.042116701
2.015154099
1.974500077
1.938230989
1.914610717
1.888274415
1.85179996
1.8260178
1.805854607
1.778193282
1.744611047
1.723742084
1.705831708
1.679083603
1.650876089
1.633550016
1.618439076
1.595044257
1.573454335
1.5592638
2.169116449
2.237057156
2.278601121
2.292712481
2.283238558
2.261669379
2.232982989
2.196242194
2.167429494
2.13594239
2.095437422
2.065697814
2.039326757
1.998913775
1.961585339
1.937776189
1.911587964
1.87596309
1.850194418
1.829645326
1.801631186
1.767369031
1.74545524
1.726696097
1.69922846
1.671181226
1.653809519
1.638273296
1.614044901
1.591403543
1.576492576
1.981891213
2.224043619
2.297625191
2.293573031
2.279084426
2.270172997
2.254102529
2.222487556
2.190559839
2.158310341
2.118849529
2.089465107
2.063406039
2.023558724
1.985454526
1.961127574
1.934477483
1.89875395
1.872599924
1.851727606
1.823494197
1.788795472
1.766196679
1.746903962
1.718780926
1.690843591
1.673497523
1.657640882
1.632711177
1.609295874
1.594053286
1.733272282
2.096583803
2.265474546
2.259305497
2.267668673
2.278147767
2.270679573
2.245377163
2.212991924
2.181860757
2.144029123
2.113752699
2.086629175
2.046551395
2.007929852
1.983473521
1.956610858
1.920466203
1.893670046
1.872461558
1.843751567
1.808401534
1.785453071
1.765941145
1.737258417
1.709391653
1.692404847
1.676536839
1.651164198
1.627222599
1.611963442
1.521498924
1.822924631
2.098967485
2.214288149
2.290499461
2.290520145
2.282295446
2.260363166
2.232142929
2.204317337
2.167804891
2.13586158
2.107892701
2.068123184
2.029479293
2.005317919
1.978703609
1.942273515
1.91490246
1.893420944
1.864210909
1.82819056
1.804882169
1.785120163
1.756005457
1.728115971
1.711373951
1.695437414
1.669569356
1.645266538
1.630071763
1.614824596
1.427051083
1.553342243
1.86518904
2.185414023
2.281943737
2.275800346
2.274708606
2.269761986
2.250439321
2.224655584
2.188585233
2.155380826
2.128159581
2.090181022
2.052068719
2.027970485
2.001531034
1.964631676
1.936651113
1.915026838
1.885589674
1.84935005
1.825600802
1.805484966
1.77618451
1.748359437
1.731547589
1.715258037
1.688660194
1.663761197
1.648200676
1.632629167
1.403776634
1.432303155
1.619685094
1.992411594
2.165365154
2.232872802
2.278215594
2.277642296
2.266175616
2.242703237
2.209330797
2.17497341
2.147918264
2.111782587
2.074802987
2.051132251
2.025121424
1.987713118
1.958793368
1.93695656
1.907503646
1.871527522
1.847330639
1.826884696
1.797661454
1.769940644
1.752655613
1.735691381
1.70826737
1.682692241
1.666335885
1.650102227
1.400349161
1.404268381
1.465611836
1.683658426
1.995676119
2.226848345
2.289383385
2.280288189
2.261766256
2.25252182
2.232356042
2.198625561
2.168593748
2.133061026
2.097822385
2.075009174
2.049310152
2.01123313
1.980894418
1.958565906
1.928976436
1.893317255
1.868733632
1.848125246
1.819084925
1.791394571
1.773562639
1.755945428
1.727864693
1.701667318
1.684365043
1.667379313
1.400026118
1.40038603
1.412067338
1.480164575
1.756972484
2.115643753
2.256610396
2.251079056
2.25766028
2.263432645
2.251773928
2.221823374
2.190786454
2.157103007
2.123060947
2.098835155
2.071495262
2.03206689
2.000693811
1.97832754
1.948904812
1.91362076
1.889038567
1.868569201
1.83947583
1.811339321
1.792957091
1.774891891
1.746588047
1.720260578
1.702331662
1.684843062
1.400005878
1.400028306
1.40138787
1.41354329
1.537563122
1.84950399
2.103197881
2.224776533
2.282790033
2.279435448
2.268023234
2.241209515
2.212410633
2.181705728
2.147841175
2.120845158
2.091194806
2.050587828
2.019042372
1.997003275
1.967988141
1.933277776
1.909213755
1.889036801
1.859484957
1.83016036
1.810962019
1.792473974
1.76413592
1.738254777
1.720448071
1.7029676
1.40000506
1.400006023
1.400102028
1.401463443
1.431714532
1.572517423
1.887998696
2.192628573
2.274402592
2.265583026
2.263230616
2.253990673
2.23314656
2.205170008
2.170505917
2.141533275
2.111147164
2.070655931
2.039084477
2.016610306
1.987438255
1.953228915
1.930103456
1.910394234
1.880405749
1.84943801
1.829009773
1.809861841
1.781301429
1.756020141
1.738718009
1.721538714
1.400005041
1.400005073
1.400009348
1.400111239
1.404493593
1.438289722
1.640027636
2.002685046
2.165940332
2.230284365
2.266675678
2.264389801
2.250229656
2.225849145
2.191157968
2.160617329
2.130666399
2.091599092
2.060582419
2.037583711
2.007897968
1.97382963
1.951670961
1.932536376
1.902618178
1.870303082
1.848364786
1.828205122
1.798997884
1.773958158
1.756853886
1.740018632
1.40000504
1.400005041
1.400005171
1.400010865
1.400404496
1.405296218
1.472190218
1.698231664
2.006977053
2.233707197
2.270352132
2.262060565
2.257097909
2.242092543
2.211114218
2.17861427
2.149311218
2.112423383
2.083020257
2.060172576
2.030252313
1.99591196
1.973576877
1.954278916
1.924521078
1.891729156
1.868748789
1.847771927
1.81803192
1.792642661
1.775097035
1.758203241
1.40000504
1.40000504
1.400005043
1.4000053
1.400028146
1.400492466
1.412986022
1.488775802
1.770474596
2.136571394
2.210820759
2.238424046
2.258127496
2.252968189
2.22925001
2.197702688
2.170611404
2.135735127
2.105905942
2.082015569
2.051806907
2.017458817
1.994246682
1.974180201
1.944349032
1.911848951
1.888666926
1.867556335
1.837755624
1.811672476
1.79363843
1.775681901
1.40000504
1.40000504
1.40000504
1.40000505
1.400005909
1.400036812
1.40145385
1.415971028
1.546782268
1.86857728
2.096443987
2.246156264
2.273333372
2.26366176
2.239642065
2.213802429
2.192097945
2.160066356
2.127502723
2.101314402
2.070914493
2.037609008
2.014106344
1.993153332
1.962903193
1.930634032
1.907490639
1.886533848
1.85656923
1.830345053
1.811544496
1.79337643
1.40000504
1.40000504
1.40000504
1.400005041
1.400005062
1.400006601
1.400106306
1.401906481
1.434427921
1.587724965
1.907230731
2.206919613
2.265642115
2.249767047
2.243679602
2.2321436
2.213895647
2.183319474
2.148215448
2.120920187
2.089955553
2.057023041
2.033410609
2.011851827
1.981472836
1.949152319
1.926223417
1.904915416
1.87460238
1.847868582
1.828735352
1.811374925
1.40000504
1.40000504
1.40000504
1.40000504
1.400005041
1.400005106
1.400009695
1.400163085
1.404848284
1.443951702
1.655078787
2.014147105
2.166825969
2.222271847
2.255063927
2.250484467
2.234335593
2.206101734
2.169737325
2.141804142
2.109716255
2.075478698
2.051674843
2.030166616
2.000041485
1.968173873
1.945510702
1.924287037
1.893621251
1.865027065
1.846243243
1.82844204
1.40000504
1.40000504
1.40000504
1.40000504
1.40000504
1.400005043
1.40000519
1.400014943
1.400411282
1.40636629
1.475803046
1.713701999
2.024551467
2.224649806
2.251765061
2.24244848
2.24220882
2.227982317
2.194376722
2.16379487
2.130895778
2.095425456
2.071569314
2.049993252
2.019837173
1.98814276
1.965205303
1.944400042
1.913623794
1.884693306
1.863769531
1.847514195
1.40000504
1.40000504
1.40000504
1.40000504
1.40000504
1.40000504
1.400005044
1.400005532
1.4000267
1.400631989
1.413059292
1.499697205
1.788332782
2.125630986
2.188671781
2.223787086
2.249212911
2.243879588
2.218127348
2.186693388
2.154740363
2.118651128
2.092691798
2.069922751
2.03986262
2.008242088
1.985451328
1.963478992
1.934339252
1.904194035
1.883725799
1.864906593
1.40000504
1.40000504
1.40000504
1.40000504
1.40000504
1.40000504
1.40000504
1.400005061
1.400005851
1.400053331
1.401440129
1.419248164
1.554329472
1.868020095
2.100264066
2.238692153
2.256925104
2.249590115
2.23148098
2.207245641
2.17927068
2.142410875
2.111572853
2.087294416
2.058017903
2.028777325
2.005044995
1.983160759
1.954556576
1.924420856
1.903093181
1.879299915
1.40000504
1.40000504
1.40000504
1.40000504
1.40000504
1.40000504
1.40000504
1.400005041
1.400005065
1.40000815
1.400111546
1.402523043
1.435666015
1.594827588
1.920999969
2.209227843
2.229714732
2.231128512
2.236312987
2.225921751
2.202056928
2.164481676
2.130080166
2.103784535
2.076015538
2.047160536
2.023588749
2.001507179
1.972988879
1.944002341
1.916785573
1.895208163
1.40000504
1.40000504
1.40000504
1.40000504
1.40000504
1.40000504
1.40000504
1.40000504
1.400005041
1.4000052
1.400010746
1.400240104
1.40498857
1.449137338
1.665420755
2.030324534
2.15613634
2.214201772
2.246645073
2.241372732
2.22009414
2.185900221
2.149810211
2.122826948
2.094380654
2.063611251
2.040389824
2.017995068
1.991207053
1.957263336
1.931562781
1.934407958
1.40000504
1.40000504
1.40000504
1.40000504
1.40000504
1.40000504
1.40000504
1.40000504
1.40000504
1.400005046
1.400005252
1.400021853
1.400437262
1.408059784
1.481349188
1.732474579
2.049620798
2.217726296
2.242238762
2.234585488
2.228912378
2.206848937
2.172206816
2.143994032
2.112880301
2.082426689
2.05734699
2.035981232
2.005125749
1.972179489
1.972600064
2.034257081
1.40000504
1.40000504
1.40000504
1.40000504
1.40000504
1.40000504
1.40000504
1.40000504
1.40000504
1.40000504
1.400005046
1.400005919
1.400031092
1.400922731
1.414539233
1.513633661
1.816147844
2.092653296
2.184948367
2.2230145
2.234919154
2.222471974
2.195548758
2.165630674
2.134917743
2.102353841
2.076979429
2.050533206
2.01904814
2.013166458
2.069806094
2.309597976
1.40000504
1.40000504
1.40000504
1.40000504
1.40000504
1.40000504
1.40000504
1.40000504
1.40000504
1.40000504
1.40000504
1.400005075
1.400006167
1.400083441
1.401628906
1.42444513
1.561434781
1.852679426
2.131141223
2.236994554
2.235344078
2.22616047
2.213338788
2.190898008
2.159568656
2.125249419
2.092769764
2.064085239
2.05827752
2.107653569
2.336407581
2.718503797
1.40000504
1.40000504
1.40000504
1.40000504
1.40000504
1.40000504
1.40000504
1.40000504
1.40000504
1.40000504
1.40000504
1.400005041
1.400005077
1.400010006
1.400124872
1.403610131
1.434117381
1.613142974
1.943952685
2.181426414
2.203254141
2.217128954
2.223043353
2.211508209
2.183417455
2.144214043
2.10907059
2.102689705
2.151524311
2.376046055
2.729538766
2.981595617
1.40000504
1.40000504
1.40000504
1.40000504
1.40000504
1.40000504
1.40000504
1.40000504
1.40000504
1.40000504
1.40000504
1.40000504
1.400005041
1.400005262
1.40001147
1.400360894
1.404621314
1.46238537
1.671796152
1.976217341
2.162298512
2.23522075
2.234725281
2.226220275
2.204261475
2.16455285
2.150525146
2.195922367
2.417827128
2.797723909
2.945271139
3.018777261
1.40000504
1.40000504
1.40000504
1.40000504
1.40000504
1.40000504
1.40000504
1.40000504
1.40000504
1.40000504
1.40000504
1.40000504
1.40000504
1.400005047
1.400005283
1.400030092
1.400423176
1.411694913
1.478249549
1.737117282
2.065394282
2.214019337
2.225882548
2.214811714
2.200339415
2.198964517
2.250492569
2.473517063
2.828575151
3.106031984
3.101040666
3.057150584
1.40000504
1.40000504
1.40000504
1.40000504
1.40000504
1.40000504
1.40000504
1.40000504
1.40000504
1.40000504
1.40000504
1.40000504
1.40000504
1.40000504
1.400005047
1.400006255
1.400032815
1.401417728
1.414052504
1.529075754
1.81896709
2.065854605
2.19870077
2.204201117
2.215209202
2.287671699
2.535680588
2.90531861
3.060897346
3.152838514
3.143912634
3.099688822
1.40000504
1.40000504
1.40000504
1.40000504
1.40000504
1.40000504
1.40000504
1.40000504
1.40000504
1.40000504
1.40000504
1.40000504
1.40000504
1.40000504
1.40000504
1.400005082
1.40000642
1.400118359
1.401678116
1.430129673
1.561322181
1.876655573
2.138171833
2.213606083
2.317269993
2.607815386
2.981315062
3.215132999
3.212803929
3.193992052
3.141723122
3.077914591
1.40000504
1.40000504
1.40000504
1.40000504
1.40000504
1.40000504
1.40000504
1.40000504
1.40000504
1.40000504
1.40000504
1.40000504
1.40000504
1.40000504
1.40000504
1.400005041
1.400005091
1.400011113
1.400146133
1.404129351
1.441184621
1.628823007
1.935390696
2.243564138
2.56844769
2.975396505
3.168807011
3.299078047
3.275498385
3.204402143
3.129616078
3.066193424
1.40000504
1.40000504
1.40000504
1.40000504
1.40000504
1.40000504
1.40000504
1.40000504
1.40000504
1.40000504
1.40000504
1.40000504
1.40000504
1.40000504
1.40000504
1.40000504
1.400005041
1.400005248
1.400012666
1.400361611
1.406716683
1.467200622
1.768346565
2.346114071
2.982631019
3.352573507
3.382791585
3.365718566
3.303880831
3.213920909
3.12523604
3.057362284
)
;

boundaryField
{
    inlet
    {
        type            calculated;
        value           nonuniform 0();
    }
    outlet
    {
        type            calculated;
        value           nonuniform 0();
    }
    bottom
    {
        type            calculated;
        value           nonuniform 0();
    }
    top
    {
        type            calculated;
        value           nonuniform List<scalar> 
32
(
1.40000504
1.40000504
1.40000504
1.40000504
1.40000504
1.40000504
1.40000504
1.40000504
1.40000504
1.40000504
1.40000504
1.40000504
1.40000504
1.40000504
1.40000504
1.40000504
1.400005041
1.400005248
1.400012666
1.400361611
1.406716683
1.467200622
1.768346565
2.346114071
2.982631019
3.352573507
3.382791585
3.365718566
3.303880831
3.213920909
3.12523604
3.057362284
)
;
    }
    obstacle
    {
        type            calculated;
        value           nonuniform 0();
    }
    defaultFaces
    {
        type            empty;
    }
    procBoundary34to27
    {
        type            processor;
        value           nonuniform List<scalar> 9(1.351895393 1.383925199 1.414505054 1.445684786 1.4770505 1.507943325 1.540379255 1.572840806 1.605632754);
    }
    procBoundary34to28
    {
        type            processor;
        value           nonuniform List<scalar> 
32
(
1.138126936
1.128137902
1.112452961
1.09100767
1.079771248
1.071254445
1.056512223
1.039630872
1.03035939
1.02265857
1.009589906
0.9966689856
0.9892806927
0.9823652513
0.970324736
0.9601493612
0.9539121572
0.9477644858
0.9377217164
0.9301749293
0.9251845839
0.9194891446
0.9101568286
0.9028881869
0.8980025619
1.303594408
1.268486034
1.24165259
1.228052406
1.211305856
1.182150626
1.182150626
)
;
    }
    procBoundary34to29
    {
        type            processor;
        value           uniform 0.9057110945;
    }
    procBoundary34to33
    {
        type            processor;
        value           nonuniform List<scalar> 
61
(
1.63917396
1.672126646
1.706259782
1.739679965
1.772847269
1.805702835
1.838681554
1.872359584
1.905160161
1.937151328
1.968718058
2.000388995
2.032496088
2.064346965
2.094536984
2.122719694
2.151594436
2.180585667
2.205610457
2.226174118
2.246787903
2.268831144
2.284840176
2.294105002
2.288517629
2.297593069
2.305135481
2.271153654
2.205684702
2.166692153
1.963597938
1.659046079
1.469064789
1.411070131
1.401144053
1.400085714
1.400009314
1.400005216
1.400005046
1.40000504
1.40000504
1.40000504
1.40000504
1.40000504
1.40000504
1.40000504
1.40000504
1.40000504
1.40000504
1.40000504
1.40000504
1.40000504
1.40000504
1.40000504
1.40000504
1.40000504
1.40000504
1.40000504
1.40000504
1.40000504
1.40000504
)
;
    }
    procBoundary34to35
    {
        type            processor;
        value           nonuniform List<scalar> 
71
(
0.920450479
0.9339978445
0.9488258127
0.9629421888
0.9777185385
0.9921730723
1.007221019
1.022514133
1.038088926
1.053422257
1.069134428
1.084939585
1.100852223
1.117079334
1.133672651
1.15001423
1.1664233