/*--------------------------------*- C++ -*----------------------------------*\
  =========                 |
  \\      /  F ield         | OpenFOAM: The Open Source CFD Toolbox
   \\    /   O peration     | Website:  https://openfoam.org
    \\  /    A nd           | Version:  7
     \\/     M anipulation  |
\*---------------------------------------------------------------------------*/
FoamFile
{
    version     2.0;
    format      ascii;
    class       volScalarField;
    location    "0.1";
    object      p;
}
// * * * * * * * * * * * * * * * * * * * * * * * * * * * * * * * * * * * * * //

dimensions      [1 -1 -2 0 0 0 0];

internalField   nonuniform List<scalar> 
138
(
1.000000037
1.000000172
1.000000641
1.00000194
1.000005074
1.000009916
1.000026414
1.000016134
1
1
1
1
1
1
1
1
1
1
1
1
1
1.000000003
1.000000005
1.000000031
0.9999999948
1
1
1
1
1
1
1
1
1
1
1
1
1
1
1
0.9999999998
1
1
1
1
1
1
1
1
1
1
1
1
1
1
1
1
1
1
1
1
1
1
1
1
1
1
1
1
1
1
1
1
1
1
1
1
1
1
1
1
1
1
1
1
1
1
1
1
1
1
1
1
1
1
1
1
1
1
1
1
1
1
1
1
1
1
1
1
1
1
1
1
1
1
1
1
1
1
1
1
1
1
1
1
1
1
1
1
1
1
1
1
1
1
1
1
1
)
;

boundaryField
{
    inlet
    {
        type            fixedValue;
        value           nonuniform 0();
    }
    outlet
    {
        type            zeroGradient;
    }
    bottom
    {
        type            slip;
    }
    top
    {
        type            slip;
    }
    obstacle
    {
        type            zeroGradient;
    }
    defaultFaces
    {
        type            empty;
    }
    procBoundary26to20
    {
        type            processor;
        value           nonuniform List<scalar> 
18
(
1.000029221
1.000083965
1.00021085
1.000458135
1.000881042
1.001418569
1.002584613
1.002607723
1
1
1
1
1
1
1
1.000000001
1.000000006
1.000000006
)
;
    }
    procBoundary26to25
    {
        type            processor;
        value           nonuniform List<scalar> 9(1 1 1 1 1 1 1 1 1);
    }
    procBoundary26to27
    {
        type            processor;
        value           nonuniform List<scalar> 3(1.000108715 1.000000187 0.9999999998);
    }
    procBoundary26to31
    {
        type            processor;
        value           uniform 1;
    }
    procBoundary26to32
    {
        type            processor;
        value           nonuniform List<scalar> 
17
(
1
1
1
1
1
1
1
1
1
1
1
1
1
1
1
1
1
)
;
    }
    procBoundary26to33
    {
        type            processor;
        value           nonuniform List<scalar> 6(0.9999999999 1 1 1 1 1);
    }
}


// ************************************************************************* //
