/*--------------------------------*- C++ -*----------------------------------*\
  =========                 |
  \\      /  F ield         | OpenFOAM: The Open Source CFD Toolbox
   \\    /   O peration     | Website:  https://openfoam.org
    \\  /    A nd           | Version:  7
     \\/     M anipulation  |
\*---------------------------------------------------------------------------*/
FoamFile
{
    version     2.0;
    format      ascii;
    class       volVectorField;
    location    "5";
    object      U;
}
// * * * * * * * * * * * * * * * * * * * * * * * * * * * * * * * * * * * * * //

dimensions      [0 1 -1 0 0 0 0];

internalField   nonuniform List<vector> 
2222
(
(3 4.582076638e-15 0)
(3 4.836705483e-15 0)
(3 3.183076206e-15 0)
(3 2.009130165e-15 0)
(3 -3.811540607e-16 0)
(3 -2.416459913e-15 0)
(3 2.380331857e-15 0)
(3 2.90777156e-15 0)
(3 4.012110397e-15 0)
(3 4.948281678e-15 0)
(3 4.535368115e-15 0)
(3 4.703642777e-15 0)
(3 5.447066849e-15 0)
(3 6.492689657e-15 0)
(3 6.124234551e-15 0)
(3 5.310641527e-15 0)
(3 4.702979918e-15 0)
(3 4.42586124e-15 0)
(3 4.230959984e-15 0)
(3 3.708872443e-15 0)
(3 3.458244172e-15 0)
(3 3.515711556e-15 0)
(3 4.12246638e-15 0)
(3 3.805236703e-15 0)
(3 1.800401598e-15 0)
(3 1.589211054e-15 0)
(3 1.66615241e-15 0)
(3 1.910003353e-15 0)
(3 1.942357507e-15 0)
(3 3.356860534e-15 0)
(3 4.422652728e-15 0)
(3 4.329181689e-15 0)
(3 4.660783844e-15 0)
(3 4.154254376e-15 0)
(3 3.517267341e-15 0)
(3 3.144733772e-15 0)
(3 2.268427339e-15 0)
(3 2.015315952e-15 0)
(3 2.975312566e-15 0)
(3 3.993363158e-15 0)
(3 4.017040834e-15 0)
(3 3.741587083e-15 0)
(3 3.125950463e-15 0)
(3 3.500127239e-15 0)
(3 3.26416074e-15 0)
(3 2.556239647e-15 0)
(3 2.6483082e-15 0)
(3 3.390284409e-15 0)
(3 3.437263999e-15 0)
(3 3.072867588e-15 0)
(3 2.823635289e-15 0)
(3 3.001573462e-15 0)
(3 3.378270141e-15 0)
(3 3.483503757e-15 0)
(3 1.363051537e-15 0)
(3 -2.350770499e-16 0)
(3 -6.835678044e-17 0)
(3 -1.035352937e-15 0)
(3 -1.570999507e-15 0)
(3 -1.148331207e-15 0)
(3 -1.041691412e-15 0)
(3 3.156207286e-16 0)
(3 6.9952508e-16 0)
(3 4.511872576e-17 0)
(3 -2.073555122e-16 0)
(3 6.302508286e-16 0)
(3 1.296696919e-15 0)
(3 1.357847682e-15 0)
(3 1.105210707e-15 0)
(3 1.175227124e-15 0)
(3 1.213882287e-15 0)
(3 1.489346913e-15 0)
(3 1.26807085e-15 0)
(3 7.426768804e-16 0)
(3 1.020641639e-15 0)
(3 1.372628153e-15 0)
(3 2.012939199e-15 0)
(3 2.34701828e-15 0)
(3 2.955016242e-15 0)
(3 2.475415629e-15 0)
(3 2.933158639e-15 0)
(3 3.935806833e-15 0)
(3 4.66331291e-15 0)
(3 5.216833265e-15 0)
(3 5.440609263e-15 0)
(3 5.363280809e-15 0)
(3 4.292597798e-15 0)
(3 1.80862433e-15 0)
(3 1.580239825e-15 0)
(3 2.697829708e-15 0)
(3 3.276577554e-15 0)
(3 2.803020518e-15 0)
(3 2.311421605e-15 0)
(3 2.404122995e-15 0)
(3 2.439641918e-15 0)
(3 2.808941235e-15 0)
(3 2.750755465e-15 0)
(3 3.025952467e-15 0)
(3 4.748514605e-15 0)
(3 5.147383776e-15 0)
(3 6.59765775e-15 0)
(3 7.159492501e-15 0)
(3 7.674567942e-15 0)
(3 7.574274822e-15 0)
(3 5.315266944e-15 0)
(3 3.884318731e-15 0)
(3 3.473844615e-15 0)
(3 3.238471913e-15 0)
(3 3.088682029e-15 0)
(3 2.7538512e-15 0)
(3 2.537466294e-15 0)
(3 1.563898566e-15 0)
(3 3.896275279e-16 0)
(3 -1.932118225e-15 0)
(3 -3.545161262e-15 0)
(3 -3.83707813e-15 0)
(3 -3.535717441e-15 0)
(3 -2.832030201e-15 0)
(3 -2.382442458e-15 0)
(3 -1.966864278e-15 0)
(3 -2.0692051e-15 0)
(3 -1.674052667e-15 0)
(3 -7.79429272e-16 0)
(3 -3.763971053e-16 0)
(3 2.988967325e-16 0)
(3 -1.389198708e-18 0)
(3 -3.248497788e-16 0)
(3 -1.167700676e-15 0)
(3 -1.981772756e-15 0)
(3 -1.795215237e-15 0)
(3 -1.183397062e-15 0)
(3 1.784625482e-16 0)
(3 1.438646903e-15 0)
(3 1.19848114e-15 0)
(3 2.262072429e-15 0)
(3 2.329923089e-15 0)
(3 2.479026967e-15 0)
(3 2.649584777e-15 0)
(3 4.747131596e-15 0)
(3 6.057275142e-15 0)
(3 5.917240595e-15 0)
(3 5.674223599e-15 0)
(3 5.697352175e-15 0)
(3 5.576360652e-15 0)
(3 3.85634955e-15 0)
(3 3.174466964e-15 0)
(3 2.897889453e-15 0)
(3 2.539655303e-15 0)
(3 2.008267014e-15 0)
(3 1.975026474e-15 0)
(3 2.641807872e-15 0)
(3 2.72011391e-15 0)
(3 2.482594763e-15 0)
(3 2.188190857e-15 0)
(3 2.374275578e-15 0)
(3 6.470974341e-15 0)
(3 5.869164288e-15 0)
(3 4.828754251e-15 0)
(3 3.631305738e-15 0)
(3 2.636010612e-15 0)
(3 3.05529912e-15 0)
(3 2.988966852e-15 0)
(3 3.50514484e-15 0)
(3 4.423399461e-15 0)
(3 5.376008429e-15 0)
(3 4.624721904e-15 0)
(3 3.987343383e-15 0)
(3 4.850855574e-15 0)
(3 5.710393359e-15 0)
(3 6.028170331e-15 0)
(3 6.168514021e-15 0)
(3 6.088683587e-15 0)
(3 6.321686436e-15 0)
(3 6.013788541e-15 0)
(3 6.366480239e-15 0)
(3 4.786184299e-15 0)
(3 4.56901225e-15 0)
(3 4.181255995e-15 0)
(3 3.387018e-15 0)
(3 1.625731724e-15 0)
(3 3.954677131e-16 0)
(3 1.892307865e-17 0)
(3 -3.816525445e-17 0)
(3 -2.129825032e-16 0)
(3 -8.005608415e-16 0)
(3 -1.776642209e-15 0)
(3 -1.763207283e-15 0)
(3 -2.379204129e-15 0)
(3 -3.164685805e-15 0)
(3 -3.93582397e-15 0)
(3 -4.441531809e-15 0)
(3 -4.468121894e-15 0)
(3 -4.179967433e-15 0)
(3 -4.011665431e-15 0)
(3 -4.494351095e-15 0)
(3 -4.723740317e-15 0)
(3 -3.652711595e-15 0)
(3 -2.673649318e-15 0)
(3 -8.044505751e-16 0)
(3 5.475528258e-16 0)
(3 9.383035623e-16 0)
(3 1.813301193e-15 0)
(3 2.718688373e-15 0)
(3 2.731975541e-15 0)
(3 3.316002271e-15 0)
(3 3.854258562e-15 0)
(3 5.21277073e-15 0)
(3 6.303583362e-15 0)
(3 6.115901762e-15 0)
(3 5.443703423e-15 0)
(3 4.659679558e-15 0)
(3 3.678292075e-15 0)
(3 1.736567384e-15 0)
(3 1.208069749e-16 0)
(3 1.075366484e-15 0)
(3 1.569992273e-15 0)
(3 1.643987362e-15 0)
(3 1.523701453e-15 0)
(3 1.275630556e-15 0)
(3 7.132628086e-16 0)
(3 1.169138934e-16 0)
(3 6.442782774e-15 0)
(3 6.531933083e-15 0)
(3 4.727091205e-15 0)
(3 1.215219309e-15 0)
(3 -3.735113584e-17 0)
(3 2.363000346e-15 0)
(3 3.137613718e-15 0)
(3 3.610918311e-15 0)
(3 3.480846866e-15 0)
(3 3.452087187e-15 0)
(3 4.125993859e-15 0)
(3 4.334936614e-15 0)
(3 4.445523095e-15 0)
(3 4.321103895e-15 0)
(3 3.968994522e-15 0)
(3 3.506175888e-15 0)
(3 3.599604622e-15 0)
(3 3.525026719e-15 0)
(3 3.109585681e-15 0)
(3 3.885964986e-15 0)
(3 6.003639681e-15 0)
(3 5.686253992e-15 0)
(3 4.111423432e-15 0)
(3 4.475754519e-15 0)
(3 5.004658198e-15 0)
(3 4.695936802e-15 0)
(3 4.492486295e-15 0)
(3 3.286425464e-15 0)
(3 2.398557229e-15 0)
(3 1.938593438e-15 0)
(3 1.221739588e-15 0)
(3 -6.764789197e-16 0)
(3 -2.695387237e-15 0)
(3 -5.131507223e-15 0)
(3 -6.538119457e-15 0)
(3 -6.49258422e-15 0)
(3 -6.107040778e-15 0)
(3 -5.633701294e-15 0)
(3 -5.186632906e-15 0)
(3 -4.56629603e-15 0)
(3 -4.250425097e-15 0)
(3 -4.407849811e-15 0)
(3 -4.776549998e-15 0)
(3 -4.152676706e-15 0)
(3 -3.902448172e-15 0)
(3 -4.19848731e-15 0)
(3 -2.093368106e-15 0)
(3 7.002188878e-16 0)
(3 1.56374143e-15 0)
(3 1.336071974e-15 0)
(3 8.906003042e-16 0)
(3 1.63503694e-15 0)
(3 2.99606265e-15 0)
(3 4.118365379e-15 0)
(3 3.841531193e-15 0)
(3 3.753985589e-15 0)
(3 4.157451389e-15 0)
(3 4.3692874e-15 0)
(3 3.578526981e-15 0)
(3 4.274096714e-15 0)
(3 4.181000427e-15 0)
(3 4.06124711e-15 0)
(3 3.342100554e-15 0)
(3 2.922350244e-15 0)
(3 2.009756808e-15 0)
(3 2.808624321e-16 0)
(3 2.36099202e-15 0)
(3 3.843725299e-15 0)
(3 4.262672839e-15 0)
(3 4.139816414e-15 0)
(3 4.425501338e-15 0)
(3 4.336172293e-15 0)
(3 4.500411591e-15 0)
(3 4.439498689e-15 0)
(3 5.285432917e-15 0)
(3 5.69548587e-15 0)
(3 5.32898792e-15 0)
(3 4.912786812e-15 0)
(3 5.201436444e-15 0)
(3 4.787866668e-15 0)
(3 4.744447952e-15 0)
(3 4.506409755e-15 0)
(3 3.581294433e-15 0)
(3 2.490797499e-15 0)
(3 2.61321618e-15 0)
(3 2.954183912e-15 0)
(3 4.122488343e-15 0)
(3 5.529205658e-15 0)
(3 4.733804262e-15 0)
(3 4.399913376e-15 0)
(3 4.132530875e-15 0)
(3 3.621979559e-15 0)
(3 3.173248811e-15 0)
(3 3.197310737e-15 0)
(3 1.493220325e-15 0)
(3 -5.477649423e-16 0)
(3 -8.671988847e-16 0)
(3 -1.358068203e-15 0)
(3 -2.722065756e-15 0)
(3 -3.975941983e-15 0)
(3 -3.428291005e-15 0)
(3 -3.810297815e-15 0)
(3 -4.886603083e-15 0)
(3 -6.953860977e-15 0)
(3 -7.318243615e-15 0)
(3 -6.760765109e-15 0)
(3 -4.788879762e-15 0)
(3 -4.308582821e-15 0)
(3 -4.035475316e-15 0)
(3 -4.236973634e-15 0)
(3 -5.358622297e-15 0)
(3 -4.99615513e-15 0)
(3 -4.267978552e-15 0)
(3 -2.039068007e-15 0)
(3 -5.599847823e-16 0)
(3 -5.255990329e-16 0)
(3 -5.505346221e-16 0)
(3 -5.103770122e-16 0)
(3 -8.669684208e-16 0)
(3 -9.009769474e-16 0)
(3 4.063930839e-16 0)
(3 2.003786216e-15 0)
(3 3.731163044e-15 0)
(3 5.555592144e-15 0)
(3 7.00408444e-15 0)
(3 7.621157152e-15 0)
(3 7.739091437e-15 0)
(3 7.124771837e-15 0)
(3 5.060180637e-15 0)
(3 4.523446673e-15 0)
(3 4.203236664e-15 0)
(3 3.863987894e-15 0)
(3 2.639713325e-15 0)
(3 1.929616396e-15 0)
(3 2.912245111e-15 0)
(3 4.853274184e-15 0)
(3 5.377843569e-15 0)
(3 5.117169003e-15 0)
(3 4.787477843e-15 0)
(3 4.529921411e-15 0)
(3 4.437381649e-15 0)
(3 5.704980959e-15 0)
(3 6.699217758e-15 0)
(3 6.60256993e-15 0)
(3 5.582785704e-15 0)
(3 4.825162569e-15 0)
(3 4.179876852e-15 0)
(3 3.905248814e-15 0)
(3 2.58358097e-15 0)
(3 2.131369056e-15 0)
(3 2.668659895e-15 0)
(3 2.856876735e-15 0)
(3 2.391080266e-15 0)
(3 3.418208786e-15 0)
(3 5.069227112e-15 0)
(3 4.60666775e-15 0)
(3 4.082592538e-15 0)
(3 2.027082936e-15 0)
(3 1.256912823e-15 0)
(3 3.14849695e-16 0)
(3 -3.151124163e-16 0)
(3 -1.321271937e-15 0)
(3 -2.786364178e-15 0)
(3 -4.33691246e-15 0)
(3 -4.168123939e-15 0)
(3 -3.40889457e-15 0)
(3 -3.104200819e-15 0)
(3 -3.581321e-15 0)
(3 -3.761788758e-15 0)
(3 -3.843418689e-15 0)
(3 -4.873932469e-15 0)
(3 -5.314414329e-15 0)
(3 -5.622565878e-15 0)
(3 -4.948507751e-15 0)
(3 -4.580522964e-15 0)
(3 -4.804582418e-15 0)
(3 -5.781520194e-15 0)
(3 -5.178537978e-15 0)
(3 -3.641491312e-15 0)
(3 -3.298956372e-15 0)
(3 -2.068491233e-15 0)
(3 -1.336653464e-15 0)
(3 -2.328562001e-15 0)
(3 -3.225769414e-15 0)
(3 -3.186921748e-15 0)
(3 -1.929242375e-15 0)
(3 1.208433579e-15 0)
(3 2.479070335e-15 0)
(3 2.359715344e-15 0)
(3 3.534831691e-15 0)
(3 4.650420405e-15 0)
(3 4.573381358e-15 0)
(3 3.913203375e-15 0)
(3 3.854978391e-15 0)
(3 4.208180391e-15 0)
(3 4.094677688e-15 0)
(3 4.421916656e-15 0)
(3 4.583147656e-15 0)
(3 4.396084748e-15 0)
(3 4.319332719e-15 0)
(3 4.655186639e-15 0)
(3 5.577690969e-15 0)
(3 5.667048723e-15 0)
(3 6.058174509e-15 0)
(3 5.41972611e-15 0)
(3 4.527816145e-15 0)
(3 4.656970538e-15 0)
(3 5.427691257e-15 0)
(3 6.471590761e-15 0)
(3 6.312387868e-15 0)
(3 5.547990121e-15 0)
(3 3.424059103e-15 0)
(3 2.836338992e-15 0)
(3 1.735625332e-15 0)
(3 6.695927777e-16 0)
(3 1.023322918e-15 0)
(3 1.942021057e-15 0)
(3 2.990533342e-15 0)
(3 3.021234008e-15 0)
(3 2.686426723e-15 0)
(3 2.338225085e-15 0)
(3 1.204590873e-15 0)
(3 4.714871581e-16 0)
(3 -5.297712408e-16 0)
(3 -5.484312098e-16 0)
(3 -1.598285349e-15 0)
(3 -2.587933982e-15 0)
(3 -2.778790336e-15 0)
(3 -3.441507562e-15 0)
(3 -4.367889254e-15 0)
(3 -3.999601599e-15 0)
(3 -3.735686609e-15 0)
(3 -3.798260527e-15 0)
(3 -3.788259688e-15 0)
(3 -3.650977143e-15 0)
(3 -3.399876718e-15 0)
(3 -3.205392355e-15 0)
(3 -3.40087456e-15 0)
(3 -4.953760729e-15 0)
(3 -5.491102888e-15 0)
(3 -5.425195587e-15 0)
(3 -5.601119534e-15 0)
(3 -4.367024814e-15 0)
(3 -3.307859407e-15 0)
(3 -2.487885031e-15 0)
(3 -1.974695971e-15 0)
(3 -1.965731913e-15 0)
(3 -1.279882755e-15 0)
(3 -2.296943346e-15 0)
(3 -2.522133256e-15 0)
(3 -1.85667847e-15 0)
(3 -8.655231304e-17 0)
(3 4.132996193e-16 0)
(3 8.403716678e-16 0)
(3 9.451059377e-16 0)
(3 6.137567312e-16 0)
(3 1.74582637e-16 0)
(3 -7.043786524e-16 0)
(3 -5.595924869e-16 0)
(3 -8.976187533e-17 0)
(3 1.494909432e-16 0)
(3 2.958118121e-16 0)
(3 3.697505387e-16 0)
(3 4.217046049e-16 0)
(3 4.696675835e-15 0)
(3 6.420228132e-15 0)
(3 6.780822698e-15 0)
(3 5.898012109e-15 0)
(3 6.578937817e-15 0)
(3 5.865740342e-15 0)
(3 4.550246889e-15 0)
(3 3.564681218e-15 0)
(3 2.087037478e-15 0)
(3 1.610234034e-15 0)
(3 1.715362388e-15 0)
(3 2.376847433e-15 0)
(3 2.666517427e-15 0)
(3 2.094959068e-15 0)
(3 8.357639385e-16 0)
(3 -7.626015891e-16 0)
(3 -1.102397251e-15 0)
(3 -1.200440251e-15 0)
(3 -1.243899281e-15 0)
(3 -1.132743377e-15 0)
(3 -9.847322803e-16 0)
(3 -1.238768685e-15 0)
(3 -2.557956632e-15 0)
(3 -2.496757073e-15 0)
(3 -2.835734898e-15 0)
(3 -2.353084093e-15 0)
(3 -9.443558145e-16 0)
(3 -9.00266605e-16 0)
(3 -1.077929317e-15 0)
(3 -1.771606124e-15 0)
(3 -2.377955281e-15 0)
(3 -2.174752946e-15 0)
(3 -2.215335235e-15 0)
(3 -2.533462581e-15 0)
(3 -3.010632886e-15 0)
(3 -3.872335853e-15 0)
(3 -4.435084899e-15 0)
(3 -4.777366171e-15 0)
(3 -4.120233977e-15 0)
(3 -3.294628854e-15 0)
(3 -2.527434142e-15 0)
(3 -4.445091875e-15 0)
(3 -4.860762613e-15 0)
(3 -4.283313009e-15 0)
(3 -2.178229765e-15 0)
(3 -5.427718908e-16 0)
(3 -6.714113423e-16 0)
(3 -2.829915315e-15 0)
(3 -4.859518893e-15 0)
(3 -5.87805583e-15 0)
(3 -5.74104562e-15 0)
(3 -4.778129849e-15 0)
(3 -4.969955721e-15 0)
(3 -5.141533123e-15 0)
(3 -4.845467876e-15 0)
(3 -4.1325582e-15 0)
(3 -2.806664804e-15 0)
(3 -2.903507508e-15 0)
(3 -3.38186026e-15 0)
(3 -2.63269523e-15 0)
(3 -1.36900877e-15 0)
(3 -4.515878223e-16 0)
(3 1.725040255e-16 0)
(3 3.612126226e-16 0)
(3 -2.042611758e-16 0)
(3 -8.255000987e-16 0)
(3 5.098372342e-15 0)
(3 6.214892296e-15 0)
(3 6.740346766e-15 0)
(3 7.230697663e-15 0)
(3 7.903571892e-15 0)
(3 6.405270328e-15 0)
(3 3.291824684e-15 0)
(3 2.081856496e-15 0)
(3 2.644225729e-15 0)
(3 2.939664028e-15 0)
(3 2.723746308e-15 0)
(3 2.772657371e-15 0)
(3 2.710054741e-15 0)
(3 1.663754801e-15 0)
(3 1.040561403e-15 0)
(3 -4.169668904e-16 0)
(3 -7.910380871e-16 0)
(3 -9.74050304e-16 0)
(3 -2.784005525e-15 0)
(3 -3.297027236e-15 0)
(3 -3.624434065e-15 0)
(3 -3.914895359e-15 0)
(3 -3.929515621e-15 0)
(3 -3.751493723e-15 0)
(3 -3.344242722e-15 0)
(3 -2.907529732e-15 0)
(3 -1.878944525e-15 0)
(3 -1.511997548e-15 0)
(3 -1.49616447e-15 0)
(3 -1.846026118e-15 0)
(3 -1.956698741e-15 0)
(3 -1.480828829e-15 0)
(3 -1.713153341e-15 0)
(3 -2.285409228e-15 0)
(3 -2.593914111e-15 0)
(3 -3.358129455e-15 0)
(3 -4.692312462e-15 0)
(3 -5.903803077e-15 0)
(3 -4.980505404e-15 0)
(3 -4.426604118e-15 0)
(3 -5.153469127e-15 0)
(3 -4.818650125e-15 0)
(3 -5.240426244e-15 0)
(3 -4.741337249e-15 0)
(3 -4.15681932e-15 0)
(3 -4.570354184e-15 0)
(3 -5.174227918e-15 0)
(3 -5.208520545e-15 0)
(3 -5.33667627e-15 0)
(3 -6.323129572e-15 0)
(3 -6.454577128e-15 0)
(3 -6.177349115e-15 0)
(3 -4.948862885e-15 0)
(3 -3.837189226e-15 0)
(3 -3.149477461e-15 0)
(3 -2.859754022e-15 0)
(3 -2.877918744e-15 0)
(3 -2.239069039e-15 0)
(3 -1.675389186e-15 0)
(3 -1.124932804e-15 0)
(3 -1.360711707e-16 0)
(3 2.131893798e-17 0)
(3 3.080030381e-16 0)
(3 -1.948462388e-16 0)
(3 -6.671356132e-16 0)
(3 -1.169395606e-15 0)
(3 2.546189286e-15 0)
(3 3.346223236e-15 0)
(3 2.910691382e-15 0)
(3 3.853975692e-15 0)
(3 4.549589542e-15 0)
(3 3.919154308e-15 0)
(3 4.107288266e-15 0)
(3 3.424491684e-15 0)
(3 2.446619719e-15 0)
(3 1.523496107e-15 0)
(3 7.41453381e-16 0)
(3 7.631389002e-16 0)
(3 8.061672218e-16 0)
(3 5.785681793e-16 0)
(3 5.561887804e-16 0)
(3 4.788795756e-16 0)
(3 -2.942007157e-16 0)
(3 -8.587217645e-16 0)
(3 -2.262192184e-15 0)
(3 -3.693289165e-15 0)
(3 -4.103598864e-15 0)
(3 -3.671057832e-15 0)
(3 -2.939698292e-15 0)
(3 -2.923530867e-15 0)
(3 -2.72752602e-15 0)
(3 -2.8894412e-15 0)
(3 -4.013114509e-15 0)
(3 -4.041234082e-15 0)
(3 -4.511958941e-15 0)
(3 -3.92795282e-15 0)
(3 -3.08425393e-15 0)
(3 -2.639751834e-15 0)
(3 -2.563065644e-15 0)
(3 -3.667753916e-15 0)
(3 -4.804670867e-15 0)
(3 -4.854838906e-15 0)
(3 -5.832286495e-15 0)
(3 -5.881017043e-15 0)
(3 -5.612023223e-15 0)
(3 -4.946757129e-15 0)
(3 -4.889913187e-15 0)
(3 -4.807652899e-15 0)
(3 -5.080380054e-15 0)
(3 -6.170844825e-15 0)
(3 -6.949850335e-15 0)
(3 -7.17659721e-15 0)
(3 -6.317516454e-15 0)
(3 -4.854885078e-15 0)
(3 -5.590410597e-15 0)
(3 -5.957896824e-15 0)
(3 -5.52685364e-15 0)
(3 -4.245612033e-15 0)
(3 -3.075577593e-15 0)
(3 -2.03432747e-15 0)
(3 -1.797187896e-15 0)
(3 -2.042759926e-15 0)
(3 -2.285838842e-15 0)
(3 -2.65906815e-15 0)
(3 -2.62691283e-15 0)
(3 -1.638004424e-15 0)
(3 -4.96031079e-16 0)
(3 -8.756061996e-16 0)
(3 -1.68331092e-15 0)
(3 -1.94385619e-15 0)
(3 -2.379912554e-15 0)
(3 -2.619782731e-15 0)
(3 1.203731036e-15 0)
(3 1.378401165e-15 0)
(3 1.260428678e-15 0)
(3 -7.010975134e-18 0)
(3 -2.561120735e-16 0)
(3 -1.93219084e-16 0)
(3 1.668326061e-15 0)
(3 2.166613502e-15 0)
(3 1.603066727e-15 0)
(3 -1.242129502e-16 0)
(3 -5.72386174e-16 0)
(3 -1.492762619e-15 0)
(3 -1.800516219e-15 0)
(3 -1.718611307e-15 0)
(3 -1.690325605e-15 0)
(3 -1.175284062e-15 0)
(3 -6.583915028e-16 0)
(3 -6.479577563e-16 0)
(3 -8.366546827e-16 0)
(3 -1.351198565e-15 0)
(3 -2.171574179e-15 0)
(3 -2.822700661e-15 0)
(3 -3.332689924e-15 0)
(3 -3.944706331e-15 0)
(3 -3.603304756e-15 0)
(3 -3.126728989e-15 0)
(3 -4.308408775e-15 0)
(3 -4.948495796e-15 0)
(3 -6.097149293e-15 0)
(3 -6.74973904e-15 0)
(3 -5.736269048e-15 0)
(3 -4.204065708e-15 0)
(3 -2.699982283e-15 0)
(3 -3.509751866e-15 0)
(3 -4.216140555e-15 0)
(3 -5.11962166e-15 0)
(3 -4.697418543e-15 0)
(3 -4.246465625e-15 0)
(3 -4.601117723e-15 0)
(3 -5.15778503e-15 0)
(3 -5.272669328e-15 0)
(3 -5.402015275e-15 0)
(3 -5.267926162e-15 0)
(3 -6.109794084e-15 0)
(3 -6.928204719e-15 0)
(3 -7.179494448e-15 0)
(3 -6.727814355e-15 0)
(3 -6.788633844e-15 0)
(3 -6.073986198e-15 0)
(3 -4.627647001e-15 0)
(3 -4.184578404e-15 0)
(3 -4.313139512e-15 0)
(3 -4.010013953e-15 0)
(3 -2.932497167e-15 0)
(3 -2.516413078e-15 0)
(3 -2.455601609e-15 0)
(3 -2.461963652e-15 0)
(3 -2.236403265e-15 0)
(3 -1.988572414e-15 0)
(3 -1.844607405e-15 0)
(3 -2.19022592e-15 0)
(3 -1.703313259e-15 0)
(3 -2.369693008e-15 0)
(3 -2.230957476e-15 0)
(3 -2.138833885e-15 0)
(3 -1.846070892e-15 0)
(3 2.221352244e-15 0)
(3 2.198709774e-15 0)
(3 2.383768775e-15 0)
(3 1.484333246e-15 0)
(3 -6.904281148e-16 0)
(3 4.975382648e-17 0)
(3 6.946283203e-16 0)
(3 9.357943358e-16 0)
(3 9.079661451e-16 0)
(3 3.386724213e-16 0)
(3 -5.984650395e-16 0)
(3 -1.020931634e-15 0)
(3 -1.134364241e-15 0)
(3 -1.231002857e-15 0)
(3 -1.430174352e-15 0)
(3 -1.88393963e-15 0)
(3 -1.586329403e-15 0)
(3 -2.500747724e-15 0)
(3 -2.537716273e-15 0)
(3 -2.428255751e-15 0)
(3 -2.677514486e-15 0)
(3 -3.427573867e-15 0)
(3 -4.824568254e-15 0)
(3 -4.833391432e-15 0)
(3 -4.811901124e-15 0)
(3 -5.45302651e-15 0)
(3 -5.121043483e-15 0)
(3 -5.421961191e-15 0)
(3 -5.326152464e-15 0)
(3 -5.158428301e-15 0)
(3 -4.557593272e-15 0)
(3 -3.052189636e-15 0)
(3 -2.763191047e-15 0)
(3 -2.889061348e-15 0)
(3 -3.210678499e-15 0)
(3 -3.282833096e-15 0)
(3 -3.00062618e-15 0)
(3 -3.454449672e-15 0)
(3 -3.67302174e-15 0)
(3 -3.521667794e-15 0)
(3 -4.339895367e-15 0)
(3 -5.030560982e-15 0)
(3 -4.984479052e-15 0)
(3 -5.015685883e-15 0)
(3 -5.105641658e-15 0)
(3 -5.533235158e-15 0)
(3 -6.927143723e-15 0)
(3 -7.737052931e-15 0)
(3 -6.220515125e-15 0)
(3 -4.526677824e-15 0)
(3 -4.124782653e-15 0)
(3 -3.93262509e-15 0)
(3 -3.416403868e-15 0)
(3 -3.148049878e-15 0)
(3 -2.386522323e-15 0)
(3 -1.050492827e-15 0)
(3 -4.585723544e-16 0)
(3 -5.733179616e-16 0)
(3 -7.531433807e-16 0)
(3 -1.697537796e-15 0)
(3 -3.15491998e-15 0)
(3 -3.304613367e-15 0)
(3 -3.396775675e-15 0)
(3 -3.007894378e-15 0)
(3 -2.140317924e-15 0)
(3 -1.427822548e-15 0)
(3 3.251217969e-15 0)
(3 2.499260544e-15 0)
(3 2.717826463e-15 0)
(3 1.871722364e-15 0)
(3 7.272231621e-16 0)
(3 -1.921334757e-16 0)
(3 -3.113186985e-16 0)
(3 -3.488126821e-16 0)
(3 -2.805703801e-16 0)
(3 -6.292302253e-16 0)
(3 -1.627976859e-16 0)
(3 -1.754564665e-15 0)
(3 -3.961983651e-15 0)
(3 -4.313010239e-15 0)
(3 -4.532899791e-15 0)
(3 -4.851665213e-15 0)
(3 -1.793661845e-15 0)
(3 -7.69512588e-16 0)
(3 -5.839600807e-16 0)
(3 -8.837948181e-16 0)
(3 -1.272440719e-15 0)
(3 -2.742838362e-15 0)
(3 -3.34082231e-15 0)
(3 -3.688829232e-15 0)
(3 -4.201015211e-15 0)
(3 -4.255684001e-15 0)
(3 -4.716574159e-15 0)
(3 -4.508347842e-15 0)
(3 -4.741949153e-15 0)
(3 -3.943457083e-15 0)
(3 -2.359001383e-15 0)
(3 -1.899877864e-15 0)
(3 -2.685500723e-15 0)
(3 -3.352975248e-15 0)
(3 -3.553034453e-15 0)
(3 -4.08937888e-15 0)
(3 -4.598039755e-15 0)
(3 -4.54506276e-15 0)
(3 -3.865645849e-15 0)
(3 -4.021287729e-15 0)
(3 -5.342372255e-15 0)
(3 -6.050368951e-15 0)
(3 -5.88549986e-15 0)
(3 -5.8375484e-15 0)
(3 -5.307225676e-15 0)
(3 -5.23013718e-15 0)
(3 -4.663665795e-15 0)
(3 -4.575531876e-15 0)
(3 -4.523501642e-15 0)
(3 -5.432775453e-15 0)
(3 -5.797011994e-15 0)
(3 -3.664094958e-15 0)
(3 -3.269500882e-15 0)
(3 -3.129078538e-15 0)
(3 -3.132578481e-15 0)
(3 -2.643765204e-15 0)
(3 -1.775269107e-15 0)
(3 -1.371480238e-15 0)
(3 -1.697300203e-15 0)
(3 -2.74735398e-15 0)
(3 -2.912910642e-15 0)
(3 -3.274264923e-15 0)
(3 -3.57459689e-15 0)
(3 -2.922742112e-15 0)
(3 -2.232203646e-15 0)
(3 -1.331432192e-15 0)
(3 1.29130408e-15 0)
(3 5.458454659e-16 0)
(3 -2.92091222e-17 0)
(3 -4.745791984e-16 0)
(3 -2.671059934e-16 0)
(3 -1.050558712e-15 0)
(3 -2.205043936e-15 0)
(3 -2.399456319e-15 0)
(3 -2.251170026e-15 0)
(3 -1.697583851e-15 0)
(3 -6.617133518e-16 0)
(3 -2.208851457e-16 0)
(3 -2.843893524e-16 0)
(3 -1.645475655e-15 0)
(3 -2.099216724e-15 0)
(3 -1.675424797e-15 0)
(3 -1.734779867e-15 0)
(3 -1.719799207e-15 0)
(3 -2.885489947e-15 0)
(3 -2.640514128e-15 0)
(3 -1.804533934e-15 0)
(3 -2.578048281e-15 0)
(3 -2.558212732e-15 0)
(3 -3.794924147e-15 0)
(3 -3.888409296e-15 0)
(3 -3.089481486e-15 0)
(3 -2.990801464e-15 0)
(3 -2.879207008e-15 0)
(3 -3.002223702e-15 0)
(3 -2.639734659e-15 0)
(3 -2.771611785e-15 0)
(3 -3.578511822e-15 0)
(3 -3.742045628e-15 0)
(3 -4.096672221e-15 0)
(3 -4.067074347e-15 0)
(3 -4.002200452e-15 0)
(3 -3.937196929e-15 0)
(3 -3.532686111e-15 0)
(3 -3.626690766e-15 0)
(3 -4.02272791e-15 0)
(3 -4.149881206e-15 0)
(3 -3.304999652e-15 0)
(3 -3.183907843e-15 0)
(3 -2.87899314e-15 0)
(3 -3.361696882e-15 0)
(3 -3.020038145e-15 0)
(3 -2.636564955e-15 0)
(3 -2.711683019e-15 0)
(3 -3.971271518e-15 0)
(3 -4.457134755e-15 0)
(3 -3.875112718e-15 0)
(3 -3.719247196e-15 0)
(3 -3.703291254e-15 0)
(3 -4.572686734e-15 0)
(3 -5.312831431e-15 0)
(3 -5.774260994e-15 0)
(3 -5.377799473e-15 0)
(3 -4.508835397e-15 0)
(3 -3.43698419e-15 0)
(3 -2.561460479e-15 0)
(3 -2.205383004e-15 0)
(3 -3.099966234e-15 0)
(3 -3.203390659e-15 0)
(3 -3.59438415e-15 0)
(3 -3.987297916e-15 0)
(3 -4.192722158e-15 0)
(3 -9.798671143e-16 0)
(3 -9.318479307e-16 0)
(3 -2.357537147e-15 0)
(3 -3.340277583e-15 0)
(3 -2.19907005e-15 0)
(3 -4.779953441e-16 0)
(3 -4.362811048e-16 0)
(3 -1.004976176e-15 0)
(3 -1.609401606e-15 0)
(3 -1.03474676e-15 0)
(3 -9.750636035e-16 0)
(3 -7.114100946e-16 0)
(3 -5.263628775e-16 0)
(3 -6.33850447e-16 0)
(3 -4.287646211e-16 0)
(3 -7.001357573e-17 0)
(3 -2.125536184e-15 0)
(3 -2.32597927e-15 0)
(3 -2.656357326e-15 0)
(3 -3.865226843e-15 0)
(3 -4.753996687e-15 0)
(3 -4.170135012e-15 0)
(3 -4.190309728e-15 0)
(3 -3.855638688e-15 0)
(3 -2.837764767e-15 0)
(3 -1.884418401e-15 0)
(3 -1.182063548e-15 0)
(3 -1.681493786e-15 0)
(3 -3.507612185e-15 0)
(3 -4.339803973e-15 0)
(3 -4.921396359e-15 0)
(3 -5.201792315e-15 0)
(3 -5.454694727e-15 0)
(3 -5.154720448e-15 0)
(3 -5.26560273e-15 0)
(3 -4.885795815e-15 0)
(3 -4.332161152e-15 0)
(3 -4.387024925e-15 0)
(3 -4.379610112e-15 0)
(3 -3.793942544e-15 0)
(3 -3.050961555e-15 0)
(3 -1.061170056e-15 0)
(3 -6.757659454e-16 0)
(3 -1.638057094e-15 0)
(3 -2.41169743e-15 0)
(3 -2.28826221e-15 0)
(3 -3.087665992e-15 0)
(3 -3.763793959e-15 0)
(3 -4.486514873e-15 0)
(3 -4.730937511e-15 0)
(3 -4.59803211e-15 0)
(3 -4.534146184e-15 0)
(3 -4.660679497e-15 0)
(3 -5.002648022e-15 0)
(3 -5.267986803e-15 0)
(3 -5.463032059e-15 0)
(3 -5.062567735e-15 0)
(3 -4.981032739e-15 0)
(3 -4.605168629e-15 0)
(3 -3.735535546e-15 0)
(3 -3.111231976e-15 0)
(3 -2.681071965e-15 0)
(3 -3.177541302e-15 0)
(3 -3.376745272e-15 0)
(3 -4.283485545e-15 0)
(3 -4.638596793e-15 0)
(3 -1.369817435e-15 0)
(3 -2.033399649e-15 0)
(3 -2.310828507e-15 0)
(3 -2.499932392e-15 0)
(3 -2.972754324e-15 0)
(3 -2.686698747e-15 0)
(3 -2.283114544e-15 0)
(3 -2.210845316e-15 0)
(3 -1.502109843e-15 0)
(3 -1.146988129e-15 0)
(3 -6.255768318e-16 0)
(3 -2.573410556e-16 0)
(3 5.888712312e-17 0)
(3 1.134960226e-16 0)
(3 4.501642032e-16 0)
(3 5.187264647e-16 0)
(3 -8.865979372e-16 0)
(3 -2.255129297e-15 0)
(3 -2.548880389e-15 0)
(3 -2.562176192e-15 0)
(3 -2.524368979e-15 0)
(3 -3.039504991e-15 0)
(3 -3.64157314e-15 0)
(3 -3.252276428e-15 0)
(3 -2.905551162e-15 0)
(3 -2.418772896e-15 0)
(3 -2.793633226e-15 0)
(3 -4.1382344e-15 0)
(3 -5.1715811e-15 0)
(3 -6.080195783e-15 0)
(3 -5.789685098e-15 0)
(3 -6.04027736e-15 0)
(3 -6.643375117e-15 0)
(3 -6.475428063e-15 0)
(3 -6.243744145e-15 0)
(3 -5.451959414e-15 0)
(3 -4.129191439e-15 0)
(3 -3.317088678e-15 0)
(3 -2.488267471e-15 0)
(3 -1.975342877e-15 0)
(3 -1.390645641e-15 0)
(3 -2.308626811e-15 0)
(3 -3.047149628e-15 0)
(3 -2.671095935e-15 0)
(3 -2.116610949e-15 0)
(3 -2.394255365e-15 0)
(3 -3.139597773e-15 0)
(3 -3.440263193e-15 0)
(3 -2.909371087e-15 0)
(3 -3.452332299e-15 0)
(3 -5.471253719e-15 0)
(3 -5.986738333e-15 0)
(3 -5.836410616e-15 0)
(3 -5.227042166e-15 0)
(3 -4.859417972e-15 0)
(3 -4.827808713e-15 0)
(3 -4.92045014e-15 0)
(3 -4.919948857e-15 0)
(3 -4.980099007e-15 0)
(3 -4.997075278e-15 0)
(3 -4.412416654e-15 0)
(3 -4.370558163e-15 0)
(3 -4.298331715e-15 0)
(3 -3.753332128e-15 0)
(3 -3.049375687e-15 0)
(3 -3.394195791e-15 0)
(3 -4.125696603e-15 0)
(3 -4.023018709e-15 0)
(3 -3.110369447e-15 0)
(3 -2.169346811e-15 0)
(3 -2.795122093e-15 0)
(3 -2.82728291e-15 0)
(3 -2.476396255e-15 0)
(3 -2.134681718e-15 0)
(3 -2.526706339e-15 0)
(3 -2.254993918e-15 0)
(3 -8.72885939e-16 0)
(3 -1.570033233e-16 0)
(3 6.264394077e-16 0)
(3 9.189390702e-16 0)
(3 7.840838609e-16 0)
(3 5.128640621e-16 0)
(3 -1.693146024e-16 0)
(3 -1.571429314e-15 0)
(3 -3.752917771e-15 0)
(3 -4.229063536e-15 0)
(3 -4.039413135e-15 0)
(3 -2.775011932e-15 0)
(3 -2.47972159e-15 0)
(3 -2.767370296e-15 0)
(3 -3.409568638e-15 0)
(3 -4.061703809e-15 0)
(3 -4.600552797e-15 0)
(3 -4.880775358e-15 0)
(3 -4.432869558e-15 0)
(3 -5.256142219e-15 0)
(3 -5.096560751e-15 0)
(3 -5.293563745e-15 0)
(3 -4.632461125e-15 0)
(3 -4.426161236e-15 0)
(3 -4.09882905e-15 0)
(3 -2.873884854e-15 0)
(3 -1.343999889e-15 0)
(3 -9.829343172e-16 0)
(3 -4.153496062e-16 0)
(3 -4.722138845e-16 0)
(3 -1.040623367e-15 0)
(3 -1.553816092e-15 0)
(3 -1.944473329e-15 0)
(3 -1.488991089e-15 0)
(3 -1.697039017e-15 0)
(3 -1.739548644e-15 0)
(3 -1.713813716e-15 0)
(3 -1.298676324e-15 0)
(3 -6.343762429e-16 0)
(3 -4.587702006e-16 0)
(3 -2.325622869e-15 0)
(3 -4.30318825e-15 0)
(3 -4.520965648e-15 0)
(3 -4.820601211e-15 0)
(3 -5.108811711e-15 0)
(3 -5.353421905e-15 0)
(3 -5.513230305e-15 0)
(3 -5.917848577e-15 0)
(3 -6.121867346e-15 0)
(3 -6.510707872e-15 0)
(3 -6.602291675e-15 0)
(3 -5.537837758e-15 0)
(3 -4.06712331e-15 0)
(3 -2.528207453e-15 0)
(3 -2.072119367e-15 0)
(3 -2.199303115e-15 0)
(3 -3.863655628e-15 0)
(3 -3.622531966e-15 0)
(3 -3.073918416e-15 0)
(3 -2.412993439e-15 0)
(3 -1.86628128e-15 0)
(3 -2.196479092e-15 0)
(3 -2.147104299e-15 0)
(3 -2.165365471e-15 0)
(3 -2.09179834e-15 0)
(3 -2.171906931e-15 0)
(3 -2.889804198e-15 0)
(3 -2.874556062e-15 0)
(3 -3.044760796e-15 0)
(3 -2.122147603e-15 0)
(3 -1.158708763e-15 0)
(3 -1.673392133e-15 0)
(3 -1.727280052e-15 0)
(3 -1.601478864e-15 0)
(3 -2.403824524e-15 0)
(3 -2.768229227e-15 0)
(3 -3.25657278e-15 0)
(3 -2.977598925e-15 0)
(3 -8.350946236e-16 0)
(3 -5.254326499e-16 0)
(3 -1.480795297e-15 0)
(3 -3.665411994e-15 0)
(3 -4.502383644e-15 0)
(3 -4.959308301e-15 0)
(3 -4.23348187e-15 0)
(3 -3.134266875e-15 0)
(3 -3.04402535e-15 0)
(3 -3.214736211e-15 0)
(3 -3.223751313e-15 0)
(3 -2.758623933e-15 0)
(3 -1.985256315e-15 0)
(3 -8.951309249e-16 0)
(3 -2.573091967e-16 0)
(3 2.281864551e-17 0)
(3 -1.054493041e-15 0)
(3 -1.913577245e-15 0)
(3 -2.586953357e-15 0)
(3 -2.945326872e-15 0)
(3 -2.492080208e-15 0)
(3 -1.48879814e-15 0)
(3 -1.173228884e-15 0)
(3 -1.503235475e-15 0)
(3 -2.077624682e-15 0)
(3 -1.797412924e-15 0)
(3 -1.258715679e-15 0)
(3 -7.645751001e-16 0)
(3 -8.773647344e-16 0)
(3 -1.423460477e-15 0)
(3 -3.484592769e-15 0)
(3 -4.345102047e-15 0)
(3 -4.564404837e-15 0)
(3 -5.73765327e-15 0)
(3 -6.720126137e-15 0)
(3 -7.076196136e-15 0)
(3 -7.008220231e-15 0)
(3 -6.058002422e-15 0)
(3 -5.314530544e-15 0)
(3 -3.274732978e-15 0)
(3 -2.243402353e-15 0)
(3 -2.012487472e-15 0)
(3 -2.209938003e-15 0)
(3 -3.155111413e-15 0)
(3 -1.675222079e-15 0)
(3 -2.431324417e-15 0)
(3 -2.397414529e-15 0)
(3 -1.90112359e-15 0)
(3 -1.043799594e-15 0)
(3 -1.17582334e-15 0)
(3 -1.462284876e-15 0)
(3 -1.941701221e-15 0)
(3 -1.36235683e-15 0)
(3 -9.676287146e-16 0)
(3 -2.550932652e-15 0)
(3 -4.208334112e-15 0)
(3 -3.900711086e-15 0)
(3 -3.464055249e-15 0)
(3 -3.27581453e-15 0)
(3 -3.266214589e-15 0)
(3 -3.480627025e-15 0)
(3 -3.544313363e-15 0)
(3 -1.630934323e-15 0)
(3 -2.002255601e-16 0)
(3 -1.501026405e-16 0)
(3 -5.175244227e-16 0)
(3 -1.645502799e-15 0)
(3 -2.039720695e-15 0)
(3 -1.602598312e-15 0)
(3 -1.352525867e-15 0)
(3 -2.378312919e-15 0)
(3 -3.580025561e-15 0)
(3 -3.579001987e-15 0)
(3 -2.174438895e-15 0)
(3 -2.103912042e-15 0)
(3 -1.521639412e-15 0)
(3 -8.773121421e-16 0)
(3 -4.313417105e-16 0)
(3 -8.187534142e-16 0)
(3 -1.278020624e-15 0)
(3 -1.4987415e-15 0)
(3 -2.019562849e-15 0)
(3 -2.448310675e-15 0)
(3 -2.593515378e-15 0)
(3 -3.410793524e-15 0)
(3 -3.397181577e-15 0)
(3 -3.414596031e-15 0)
(3 -3.27924777e-15 0)
(3 -3.132074236e-15 0)
(3 -2.457913189e-15 0)
(3 -2.348566329e-15 0)
(3 -2.404533184e-15 0)
(3 -2.470714852e-15 0)
(3 -2.846691702e-15 0)
(3 -3.196910151e-15 0)
(3 -3.566691166e-15 0)
(3 -4.338305197e-15 0)
(3 -4.279981661e-15 0)
(3 -4.412408171e-15 0)
(3 -4.553583103e-15 0)
(3 -5.104289451e-15 0)
(3 -5.105004461e-15 0)
(3 -4.997322732e-15 0)
(3 -3.611847067e-15 0)
(3 -3.023400587e-15 0)
(3 -2.970379196e-15 0)
(3 -2.988757184e-15 0)
(3 -3.107972878e-15 0)
(3 -3.165394712e-15 0)
(3 -3.252385721e-15 0)
(3 -1.030752871e-15 0)
(3 -1.426613954e-15 0)
(3 -1.409250602e-15 0)
(3 -1.068542199e-15 0)
(3 -1.115202967e-15 0)
(3 -1.014889774e-15 0)
(3 -1.753430645e-15 0)
(3 -2.590928393e-15 0)
(3 -3.220126026e-15 0)
(3 -3.140122692e-15 0)
(3 -2.356207427e-15 0)
(3 -2.503937606e-15 0)
(3 -1.588322075e-15 0)
(3 -1.606320567e-15 0)
(3 -1.1074205e-15 0)
(3 -2.56014072e-16 0)
(3 -4.639243077e-16 0)
(3 -7.531332785e-16 0)
(3 -6.455472224e-17 0)
(3 2.923427683e-16 0)
(3 3.151136138e-16 0)
(3 -4.725829796e-16 0)