/*--------------------------------*- C++ -*----------------------------------*\
  =========                 |
  \\      /  F ield         | OpenFOAM: The Open Source CFD Toolbox
   \\    /   O peration     | Website:  https://openfoam.org
    \\  /    A nd           | Version:  7
     \\/     M anipulation  |
\*---------------------------------------------------------------------------*/
FoamFile
{
    version     2.0;
    format      ascii;
    class       volScalarField;
    location    "2.1";
    object      p;
}
// * * * * * * * * * * * * * * * * * * * * * * * * * * * * * * * * * * * * * //

dimensions      [1 -1 -2 0 0 0 0];

internalField   nonuniform List<scalar> 
22
(
1
1
1.000000634
1.000036301
1.000000001
1.00001962
1.000556639
1.000000302
1.000358553
1.005329488
1.034238097
1.000023924
1.004036618
1.031055015
1.089832303
1.000879107
1.026499903
1.101357017
1.14417809
1.014065036
1.096274747
1.173806667
)
;

boundaryField
{
    inlet
    {
        type            fixedValue;
        value           nonuniform 0();
    }
    outlet
    {
        type            zeroGradient;
    }
    bottom
    {
        type            slip;
    }
    top
    {
        type            slip;
    }
    obstacle
    {
        type            zeroGradient;
    }
    defaultFaces
    {
        type            empty;
    }
    procBoundary3to2
    {
        type            processor;
        value           nonuniform List<scalar> 5(1 0.9999999997 0.9999999997 0.999999999 0.9999999986);
    }
    procBoundary3to4
    {
        type            processor;
        value           nonuniform List<scalar> 6(1.000954713 1.007563758 1.007563758 1.092568024 1.141010649 1.143882037);
    }
    procBoundary3to8
    {
        type            processor;
        value           nonuniform List<scalar> 2(1.00000016 1.000085505);
    }
    procBoundary3to9
    {
        type            processor;
        value           nonuniform List<scalar> 5(1.168626578 1.09351891 1.185316163 1.168626578 1.180631165);
    }
}


// ************************************************************************* //
