/*--------------------------------*- C++ -*----------------------------------*\
  =========                 |
  \\      /  F ield         | OpenFOAM: The Open Source CFD Toolbox
   \\    /   O peration     | Website:  https://openfoam.org
    \\  /    A nd           | Version:  7
     \\/     M anipulation  |
\*---------------------------------------------------------------------------*/
FoamFile
{
    version     2.0;
    format      ascii;
    class       volVectorField;
    location    "4";
    object      U;
}
// * * * * * * * * * * * * * * * * * * * * * * * * * * * * * * * * * * * * * //

dimensions      [0 1 -1 0 0 0 0];

internalField   nonuniform List<vector> 
2223
(
(3 -3.510944662e-15 0)
(3 -1.22535942e-15 0)
(3 -6.662665355e-16 0)
(3 -3.744265271e-16 0)
(3 -7.5568988e-16 0)
(3 -1.03262035e-15 0)
(3 -1.083035486e-15 0)
(3 -1.692395046e-15 0)
(3 -2.31643573e-15 0)
(3 -2.513056273e-15 0)
(3 -3.333847755e-15 0)
(3 -4.676318385e-15 0)
(3 5.415287135e-16 0)
(3 7.35076769e-16 0)
(3 -1.743985899e-16 0)
(3 -1.062600909e-15 0)
(3 -4.258037237e-15 0)
(3 -4.404473736e-15 0)
(3 -3.374452363e-15 0)
(3 -2.747897143e-15 0)
(3 -1.488015346e-15 0)
(3 -2.014053375e-16 0)
(3 5.911828062e-16 0)
(3 2.16878662e-16 0)
(3 -7.016310363e-16 0)
(3 -1.703739632e-16 0)
(3 9.702830014e-16 0)
(3 2.060095605e-15 0)
(3 1.591081225e-15 0)
(3 1.457722549e-15 0)
(3 1.496972874e-15 0)
(3 2.872395654e-15 0)
(3 2.548698182e-15 0)
(3 1.755170612e-15 0)
(3 2.078254286e-15 0)
(3 2.316260218e-15 0)
(3 4.543816471e-15 0)
(3 4.340010998e-15 0)
(3 3.635171919e-15 0)
(3 3.145685022e-15 0)
(3 2.798824478e-15 0)
(3 -2.794077737e-19 0)
(3 -1.480632926e-16 0)
(3 -2.24960779e-15 0)
(3 -4.235327253e-15 0)
(3 -3.076084407e-15 0)
(3 -1.683532228e-15 0)
(3 1.440571221e-16 0)
(3 2.409317844e-15 0)
(3 3.28616286e-15 0)
(3 5.151688235e-15 0)
(3 4.903452329e-15 0)
(3 3.580464218e-15 0)
(3 4.243837561e-15 0)
(3 5.349474176e-15 0)
(3 6.113706409e-15 0)
(3 7.654834229e-15 0)
(3 8.053822454e-15 0)
(3 7.054064824e-15 0)
(3 5.659194797e-15 0)
(3 5.095491098e-15 0)
(3 1.792559632e-15 0)
(3 -1.614062143e-15 0)
(3 -6.188892236e-15 0)
(3 -8.462024918e-15 0)
(3 -8.890837784e-15 0)
(3 -7.491577135e-15 0)
(3 -5.666707111e-15 0)
(3 -4.61601068e-15 0)
(3 -3.974232718e-15 0)
(3 -2.555374567e-15 0)
(3 -2.070087413e-15 0)
(3 -2.699551632e-15 0)
(3 -2.07176338e-15 0)
(3 -3.102945122e-15 0)
(3 -3.65600746e-15 0)
(3 -4.024927577e-15 0)
(3 -4.358855845e-15 0)
(3 -5.370608602e-15 0)
(3 -7.139392322e-17 0)
(3 -7.532099642e-16 0)
(3 -9.368617354e-16 0)
(3 -2.3092602e-15 0)
(3 -3.98175694e-15 0)
(3 -4.13871075e-15 0)
(3 -4.946644811e-15 0)
(3 -4.919637542e-15 0)
(3 -4.574514433e-15 0)
(3 -1.171963052e-15 0)
(3 5.634418015e-16 0)
(3 6.101544871e-16 0)
(3 -3.217540663e-16 0)
(3 -1.683983815e-15 0)
(3 -5.194179027e-16 0)
(3 -1.193771956e-17 0)
(3 1.125759498e-15 0)
(3 1.657738146e-15 0)
(3 2.730094501e-15 0)
(3 3.476018581e-15 0)
(3 3.529920056e-15 0)
(3 1.929985932e-15 0)
(3 3.671680479e-16 0)
(3 -7.967675292e-16 0)
(3 -1.198519908e-15 0)
(3 -1.066267962e-16 0)
(3 7.270105048e-16 0)
(3 8.45907774e-16 0)
(3 1.907883117e-15 0)
(3 1.351565654e-15 0)
(3 6.93517811e-16 0)
(3 4.952509863e-17 0)
(3 -1.104704852e-15 0)
(3 -2.488315157e-15 0)
(3 -2.755830051e-15 0)
(3 -1.001300975e-15 0)
(3 8.782549378e-16 0)
(3 4.145481309e-15 0)
(3 5.701373413e-15 0)
(3 5.575514431e-15 0)
(3 3.848698329e-15 0)
(3 2.390778019e-15 0)
(3 3.815809748e-15 0)
(3 4.265077388e-15 0)
(3 5.604085825e-15 0)
(3 5.714422038e-15 0)
(3 6.270348183e-15 0)
(3 6.226495267e-15 0)
(3 5.044462628e-15 0)
(3 3.658694721e-15 0)
(3 1.880894044e-15 0)
(3 -8.512799691e-16 0)
(3 -5.77802398e-15 0)
(3 -7.880471956e-15 0)
(3 -7.948082863e-15 0)
(3 -6.072927074e-15 0)
(3 -4.773879707e-15 0)
(3 -4.798785952e-15 0)
(3 -5.117877081e-15 0)
(3 -5.098845617e-15 0)
(3 -5.106376893e-15 0)
(3 -4.713022333e-15 0)
(3 -4.196847642e-15 0)
(3 -2.6998403e-15 0)
(3 -1.262085969e-15 0)
(3 3.662865522e-16 0)
(3 -5.970966558e-16 0)
(3 -9.628916677e-17 0)
(3 1.402068353e-16 0)
(3 1.080797183e-15 0)
(3 1.340993996e-15 0)
(3 2.095227848e-15 0)
(3 1.980303698e-15 0)
(3 1.587001406e-15 0)
(3 1.323411236e-15 0)
(3 1.224666068e-15 0)
(3 6.218564062e-16 0)
(3 -2.480408371e-16 0)
(3 -1.333915346e-15 0)
(3 -1.775012822e-15 0)
(3 -2.309109739e-15 0)
(3 -1.278578517e-15 0)
(3 -3.525403389e-16 0)
(3 2.995171039e-16 0)
(3 7.36707106e-16 0)
(3 1.597832017e-15 0)
(3 2.290575621e-15 0)
(3 3.476810321e-15 0)
(3 3.139452555e-15 0)
(3 1.697946949e-15 0)
(3 -4.021389097e-16 0)
(3 -1.616379059e-15 0)
(3 -1.345281738e-15 0)
(3 -1.243018458e-15 0)
(3 4.913591795e-16 0)
(3 9.163459833e-16 0)
(3 1.816742288e-15 0)
(3 2.199441418e-15 0)
(3 2.337557247e-15 0)
(3 2.248084607e-15 0)
(3 9.836574445e-16 0)
(3 1.268191894e-15 0)
(3 1.036210746e-15 0)
(3 6.643398893e-16 0)
(3 1.235616174e-15 0)
(3 9.355711669e-16 0)
(3 1.371062536e-15 0)
(3 1.384085725e-15 0)
(3 5.898963816e-16 0)
(3 3.470154119e-16 0)
(3 3.370427538e-16 0)
(3 1.050007327e-15 0)
(3 1.779569586e-15 0)
(3 3.752743994e-15 0)
(3 6.77798962e-15 0)
(3 6.7771197e-15 0)
(3 3.737620493e-15 0)
(3 8.365289949e-16 0)
(3 -1.490367903e-15 0)
(3 -2.279439465e-15 0)
(3 -2.727563194e-15 0)
(3 -2.627572789e-15 0)
(3 -2.308202769e-15 0)
(3 -2.974614882e-15 0)
(3 -2.840213414e-15 0)
(3 -3.757754704e-15 0)
(3 -3.777561982e-15 0)
(3 -2.515973287e-15 0)
(3 -1.937506761e-15 0)
(3 -1.681249003e-15 0)
(3 -1.200567993e-15 0)
(3 -3.293086771e-16 0)
(3 5.535444862e-16 0)
(3 1.448581937e-15 0)
(3 8.941713804e-16 0)
(3 1.195946081e-15 0)
(3 1.472236108e-15 0)
(3 2.356183186e-15 0)
(3 3.004262138e-15 0)
(3 3.182539867e-15 0)
(3 4.161823234e-15 0)
(3 4.0755693e-15 0)
(3 3.634648697e-15 0)
(3 1.222913948e-15 0)
(3 -1.341648888e-15 0)
(3 -2.23473967e-15 0)
(3 -3.451043649e-15 0)
(3 -3.563161892e-15 0)
(3 -1.124373278e-15 0)
(3 2.093613477e-16 0)
(3 1.146403721e-15 0)
(3 2.433868676e-15 0)
(3 2.803306929e-15 0)
(3 2.4335627e-15 0)
(3 1.586384563e-15 0)
(3 1.84896832e-15 0)
(3 4.387892199e-16 0)
(3 -5.873065792e-16 0)
(3 -1.095389331e-15 0)
(3 -2.762531215e-15 0)
(3 -3.776695308e-15 0)
(3 -3.598702804e-15 0)
(3 -3.534871917e-15 0)
(3 -1.426464444e-15 0)
(3 -3.560195358e-16 0)
(3 1.205157362e-15 0)
(3 1.736478338e-15 0)
(3 2.439582119e-15 0)
(3 3.334225959e-15 0)
(3 3.939857254e-15 0)
(3 3.422313303e-15 0)
(3 2.756725438e-15 0)
(3 7.788873247e-17 0)
(3 -1.305564472e-15 0)
(3 -2.653483322e-15 0)
(3 -3.51846515e-15 0)
(3 -3.813036096e-15 0)
(3 -3.537754203e-15 0)
(3 -3.531188439e-15 0)
(3 -1.937244616e-15 0)
(3 1.536248604e-15 0)
(3 3.016743728e-15 0)
(3 2.00948351e-15 0)
(3 -2.332958124e-15 0)
(3 -3.581762265e-15 0)
(3 -5.407871706e-15 0)
(3 -4.458310318e-15 0)
(3 -3.147379546e-15 0)
(3 -1.86325206e-15 0)
(3 -1.999040921e-15 0)
(3 -2.400884534e-15 0)
(3 -8.955249744e-16 0)
(3 -2.727278782e-16 0)
(3 -7.691016156e-16 0)
(3 -1.471953592e-15 0)
(3 -1.873811778e-15 0)
(3 -8.196853141e-16 0)
(3 1.013161714e-15 0)
(3 1.864935061e-15 0)
(3 2.379733918e-15 0)
(3 3.257624771e-15 0)
(3 -6.584523879e-17 0)
(3 -1.034994431e-15 0)
(3 -8.157537196e-16 0)
(3 -4.904960046e-16 0)
(3 3.531792007e-16 0)
(3 3.88146198e-16 0)
(3 1.684001496e-16 0)
(3 -3.15024551e-16 0)
(3 -4.781649462e-16 0)
(3 -4.077493696e-17 0)
(3 -1.749397519e-16 0)
(3 1.041848747e-16 0)
(3 -3.486667767e-16 0)
(3 -5.593073232e-16 0)
(3 2.42792887e-16 0)
(3 2.917779783e-15 0)
(3 4.002523726e-15 0)
(3 3.926173866e-15 0)
(3 3.699379232e-15 0)
(3 2.298974542e-15 0)
(3 6.251113504e-16 0)
(3 -8.263974214e-16 0)
(3 -3.489856301e-15 0)
(3 -3.942286862e-15 0)
(3 -4.035253721e-15 0)
(3 -4.587588213e-15 0)
(3 -4.754864648e-15 0)
(3 -4.114210987e-15 0)
(3 -1.789504494e-15 0)
(3 -5.248248957e-16 0)
(3 6.668025024e-16 0)
(3 1.073307517e-15 0)
(3 2.251691071e-15 0)
(3 3.01042723e-15 0)
(3 1.908110238e-15 0)
(3 1.416325994e-15 0)
(3 5.733899302e-16 0)
(3 4.455863217e-16 0)
(3 -2.955645412e-16 0)
(3 -2.417564749e-15 0)
(3 -3.886241367e-15 0)
(3 -3.646651024e-15 0)
(3 -3.273705613e-15 0)
(3 -2.773442857e-15 0)
(3 -2.878571728e-15 0)
(3 -2.840238585e-15 0)
(3 -1.792123859e-15 0)
(3 -4.003818279e-15 0)
(3 -6.316141659e-15 0)
(3 -6.306979354e-15 0)
(3 -6.537633732e-15 0)
(3 -6.498673486e-15 0)
(3 -6.029417137e-15 0)
(3 -4.74816156e-15 0)
(3 -3.313139954e-15 0)
(3 -1.051955655e-15 0)
(3 1.219356504e-15 0)
(3 1.555762297e-15 0)
(3 1.782781572e-15 0)
(3 1.147457818e-15 0)
(3 -8.153926337e-16 0)
(3 -1.937468402e-15 0)
(3 -1.301258064e-15 0)
(3 1.130613549e-15 0)
(3 2.749945262e-15 0)
(3 2.568552629e-15 0)
(3 2.793460842e-15 0)
(3 -1.967744936e-16 0)
(3 -6.024658448e-16 0)
(3 -7.505870044e-16 0)
(3 -2.255933369e-16 0)
(3 1.488699648e-15 0)
(3 9.210497258e-16 0)
(3 -1.524811976e-16 0)
(3 -3.147604922e-17 0)
(3 8.093925206e-16 0)
(3 1.856101777e-15 0)
(3 2.539272278e-15 0)
(3 3.086025571e-15 0)
(3 3.011015594e-15 0)
(3 1.570289377e-15 0)
(3 -2.363399812e-16 0)
(3 -4.676780546e-16 0)
(3 -6.282271132e-16 0)
(3 -3.159388705e-16 0)
(3 -3.172432751e-16 0)
(3 -1.840225257e-16 0)
(3 -2.131594784e-16 0)
(3 -2.053807245e-15 0)
(3 -2.794549026e-15 0)
(3 -3.539484928e-15 0)
(3 -4.354096353e-15 0)
(3 -2.554154452e-15 0)
(3 -2.678070061e-15 0)
(3 -2.109479152e-15 0)
(3 -3.081545164e-16 0)
(3 1.119762199e-15 0)
(3 2.267259735e-16 0)
(3 5.204284498e-16 0)
(3 1.833258224e-15 0)
(3 1.527028995e-15 0)
(3 -4.382800301e-16 0)
(3 -3.853225575e-15 0)
(3 -3.645649841e-15 0)
(3 -2.328319995e-15 0)
(3 -1.095370859e-15 0)
(3 5.116046771e-16 0)
(3 1.533870723e-15 0)
(3 9.71709221e-16 0)
(3 -1.340167344e-15 0)
(3 -2.440509928e-15 0)
(3 -3.922164101e-15 0)
(3 -5.602606421e-15 0)
(3 -7.718307495e-15 0)
(3 -1.027045101e-14 0)
(3 -9.712715586e-15 0)
(3 -8.293605965e-15 0)
(3 -5.689978818e-15 0)
(3 -5.809116308e-16 0)
(3 2.341270827e-15 0)
(3 4.993846591e-15 0)
(3 6.784128587e-15 0)
(3 7.616297357e-15 0)
(3 9.525444911e-15 0)
(3 8.490270804e-15 0)
(3 6.083298917e-15 0)
(3 3.340162052e-15 0)
(3 1.92086142e-15 0)
(3 1.199062047e-15 0)
(3 6.200106758e-16 0)
(3 8.049933665e-16 0)
(3 9.020626776e-16 0)
(3 3.642722266e-16 0)
(3 -2.798666517e-16 0)
(3 4.057045552e-16 0)
(3 1.322343859e-15 0)
(3 1.125486155e-15 0)
(3 1.759103605e-15 0)
(3 1.370686656e-15 0)
(3 1.65894611e-15 0)
(3 1.701051065e-15 0)
(3 2.698435932e-15 0)
(3 2.51269671e-15 0)
(3 2.948793232e-15 0)
(3 2.478973535e-15 0)
(3 2.400689938e-15 0)
(3 2.789898835e-15 0)
(3 2.798828653e-15 0)
(3 5.926915235e-16 0)
(3 -1.300821062e-15 0)
(3 -1.824492011e-15 0)
(3 -2.210833962e-15 0)
(3 -3.153028e-15 0)
(3 -2.504100225e-15 0)
(3 -2.355658258e-15 0)
(3 -1.484110026e-15 0)
(3 -2.000359619e-16 0)
(3 -8.107078916e-17 0)
(3 -5.182403322e-16 0)
(3 -7.568790883e-16 0)
(3 -3.50683716e-16 0)
(3 3.455172541e-17 0)
(3 1.376238232e-16 0)
(3 8.338645001e-16 0)
(3 -1.493345248e-15 0)
(3 -2.153780645e-15 0)
(3 -1.238336035e-15 0)
(3 -9.531137196e-16 0)
(3 -2.538844965e-16 0)
(3 -1.212984859e-16 0)
(3 1.765930798e-15 0)
(3 1.809720228e-15 0)
(3 2.463256475e-15 0)
(3 3.31459035e-15 0)
(3 5.459445319e-15 0)
(3 4.080443439e-15 0)
(3 2.098456238e-15 0)
(3 -1.975282787e-15 0)
(3 -4.674943707e-15 0)
(3 -6.241877552e-15 0)
(3 -8.522206968e-15 0)
(3 -1.066929485e-14 0)
(3 -8.312400222e-15 0)
(3 -6.364804366e-15 0)
(3 -4.352196111e-15 0)
(3 -2.838729932e-15 0)
(3 3.447759609e-16 0)
(3 5.419671908e-15 0)
(3 8.178827208e-15 0)
(3 9.831132928e-15 0)
(3 1.064365496e-14 0)
(3 9.798042797e-15 0)
(3 6.125361863e-15 0)
(3 4.439014779e-15 0)
(3 3.048005613e-15 0)
(3 2.298895601e-15 0)
(3 4.179001112e-16 0)
(3 -2.1686312e-15 0)
(3 -2.181283322e-15 0)
(3 -1.776215648e-15 0)
(3 -6.325284083e-16 0)
(3 -7.385822441e-17 0)
(3 -2.488584356e-16 0)
(3 5.04876788e-16 0)
(3 2.438987154e-16 0)
(3 -4.397237784e-16 0)
(3 3.743930416e-16 0)
(3 1.545805193e-15 0)
(3 1.140215163e-15 0)
(3 2.371702415e-16 0)
(3 2.326349857e-16 0)
(3 8.152017989e-16 0)
(3 1.346081332e-16 0)
(3 6.773512853e-16 0)
(3 1.147484182e-15 0)
(3 1.115866242e-15 0)
(3 2.709478998e-16 0)
(3 1.790722826e-16 0)
(3 -6.801033066e-16 0)
(3 -1.352231779e-15 0)
(3 -1.418269266e-15 0)
(3 -3.538912193e-16 0)
(3 9.995221389e-16 0)
(3 1.54984787e-15 0)
(3 1.057778985e-15 0)
(3 8.895717464e-16 0)
(3 1.938938045e-16 0)
(3 1.133865451e-15 0)
(3 1.994961478e-15 0)
(3 7.571545423e-16 0)
(3 -1.232592562e-15 0)
(3 -4.110890239e-16 0)
(3 -4.53525262e-16 0)
(3 -1.757762467e-15 0)
(3 -1.528525803e-15 0)
(3 1.150408282e-15 0)
(3 3.016262688e-15 0)
(3 3.301731868e-15 0)
(3 2.791781424e-15 0)
(3 4.170955591e-15 0)
(3 5.665264659e-15 0)
(3 5.925758294e-15 0)
(3 5.488714278e-15 0)
(3 5.035409712e-15 0)
(3 3.168957311e-15 0)
(3 -5.072418624e-16 0)
(3 -3.725062806e-15 0)
(3 -4.442692777e-15 0)
(3 -3.222724895e-15 0)
(3 -3.124278767e-15 0)
(3 -3.823675572e-15 0)
(3 -4.935484373e-15 0)
(3 -3.613602587e-15 0)
(3 6.143318215e-16 0)
(3 1.920135082e-15 0)
(3 5.41910523e-15 0)
(3 7.715264515e-15 0)
(3 7.381852809e-15 0)
(3 7.280329778e-15 0)
(3 5.340821762e-15 0)
(3 4.836382526e-15 0)
(3 3.242751265e-15 0)
(3 4.730338838e-16 0)
(3 -1.73635675e-15 0)
(3 -3.732662155e-15 0)
(3 -2.575570669e-15 0)
(3 -1.905197275e-15 0)
(3 -2.010168901e-15 0)
(3 -9.09832178e-16 0)
(3 -1.052231756e-15 0)
(3 -9.924832548e-16 0)
(3 -1.664900365e-15 0)
(3 -8.835477506e-16 0)
(3 -1.435823518e-15 0)
(3 -1.647079474e-15 0)
(3 -1.479902885e-15 0)
(3 -1.104206503e-15 0)
(3 -9.439800516e-16 0)
(3 -3.598023682e-16 0)
(3 1.143827008e-16 0)
(3 5.311698698e-16 0)
(3 8.629351548e-16 0)
(3 1.034591236e-15 0)
(3 4.573350541e-16 0)
(3 -2.555000242e-16 0)
(3 2.272365667e-16 0)
(3 1.920380264e-15 0)
(3 1.165630611e-15 0)
(3 1.249531204e-15 0)
(3 1.394639367e-15 0)
(3 1.889813787e-15 0)
(3 2.086970649e-15 0)
(3 1.611910296e-15 0)
(3 1.025240298e-15 0)
(3 4.888315938e-16 0)
(3 -9.365555498e-16 0)
(3 -1.594760814e-15 0)
(3 -1.16796801e-15 0)
(3 -2.739380777e-19 0)
(3 -4.095839102e-17 0)
(3 -2.149166683e-16 0)
(3 -2.975931332e-18 0)
(3 9.027755965e-16 0)
(3 5.096106772e-16 0)
(3 7.651053921e-16 0)
(3 1.14827461e-15 0)
(3 1.853443878e-15 0)
(3 2.786829745e-15 0)
(3 3.666855502e-15 0)
(3 4.484215384e-15 0)
(3 4.570389161e-15 0)
(3 4.681127091e-15 0)
(3 2.036880657e-15 0)
(3 -1.157032322e-16 0)
(3 -1.062667545e-16 0)
(3 -1.053222985e-15 0)
(3 -2.324698957e-15 0)
(3 -4.589640753e-15 0)
(3 -4.544745834e-15 0)
(3 -2.309304371e-15 0)
(3 -3.532219618e-16 0)
(3 8.077315941e-16 0)
(3 1.611298756e-15 0)
(3 2.704643904e-15 0)
(3 2.397329342e-15 0)
(3 3.569333414e-15 0)
(3 4.633214219e-15 0)
(3 4.242693887e-15 0)
(3 3.077795123e-15 0)
(3 1.069495548e-15 0)
(3 -8.591524167e-16 0)
(3 -1.555087313e-15 0)
(3 -1.541378002e-15 0)
(3 -2.514501977e-15 0)
(3 -4.344565006e-15 0)
(3 -3.347965128e-17 0)
(3 -2.871571681e-16 0)
(3 -1.059489503e-15 0)
(3 -1.409494383e-15 0)
(3 -2.51361828e-16 0)
(3 -4.120223598e-16 0)
(3 -1.804705643e-15 0)
(3 -1.043824538e-15 0)
(3 -9.282842295e-16 0)
(3 -1.574613641e-15 0)
(3 -1.624548157e-15 0)
(3 5.30413599e-16 0)
(3 1.761462152e-15 0)
(3 2.101663093e-15 0)
(3 1.846234404e-15 0)
(3 1.48855071e-15 0)
(3 9.857513749e-16 0)
(3 1.331589813e-15 0)
(3 1.44451117e-15 0)
(3 -1.141164025e-16 0)
(3 -3.515614112e-16 0)
(3 -6.471709188e-17 0)
(3 -3.122440757e-16 0)
(3 -4.274292147e-16 0)
(3 -5.761959912e-16 0)
(3 -1.359048539e-15 0)
(3 -2.394149372e-15 0)
(3 -2.003531358e-15 0)
(3 -2.129255736e-15 0)
(3 1.399410485e-16 0)
(3 4.027206262e-16 0)
(3 1.762314302e-15 0)
(3 3.127367521e-15 0)
(3 3.2062332e-15 0)
(3 2.853999165e-15 0)
(3 1.024839435e-15 0)
(3 3.649751813e-16 0)
(3 -3.099254803e-16 0)
(3 6.445645708e-16 0)
(3 1.796149734e-15 0)
(3 2.108300667e-15 0)
(3 4.225757194e-15 0)
(3 4.574984928e-15 0)
(3 4.905593647e-15 0)
(3 5.310463002e-15 0)
(3 4.005087779e-15 0)
(3 2.764755733e-15 0)
(3 -1.434880917e-15 0)
(3 -2.86386817e-15 0)
(3 -2.578942174e-15 0)
(3 -1.414232953e-15 0)
(3 -1.588105859e-16 0)
(3 2.934531225e-16 0)
(3 -1.476040156e-15 0)
(3 -1.962980199e-15 0)
(3 -8.628152069e-16 0)
(3 4.380112569e-16 0)
(3 2.70320708e-15 0)
(3 2.358861044e-15 0)
(3 1.534670603e-15 0)
(3 1.367590985e-15 0)
(3 1.498895409e-15 0)
(3 9.826647441e-16 0)
(3 -4.597365095e-16 0)
(3 -2.500860975e-15 0)
(3 -6.04990692e-15 0)
(3 -6.624045032e-15 0)
(3 7.000877234e-16 0)
(3 2.625720672e-16 0)
(3 -5.16220702e-16 0)
(3 -2.261862887e-16 0)
(3 -5.959382446e-16 0)
(3 -1.039628183e-16 0)
(3 9.760841612e-16 0)
(3 3.620549033e-16 0)
(3 -4.029757018e-16 0)
(3 -1.726214988e-15 0)
(3 -1.582269189e-15 0)
(3 -5.149236262e-16 0)
(3 -4.903829927e-16 0)
(3 -7.660414992e-16 0)
(3 -6.179070063e-16 0)
(3 -2.557026898e-16 0)
(3 6.736270167e-16 0)
(3 -6.968232631e-17 0)
(3 -1.147296303e-15 0)
(3 -1.938167019e-15 0)
(3 -1.577102354e-15 0)
(3 -9.978793265e-16 0)
(3 -1.312702527e-15 0)
(3 -2.469413107e-15 0)
(3 -3.174091518e-15 0)
(3 -2.310150992e-15 0)
(3 -1.160849525e-15 0)
(3 -1.089410532e-15 0)
(3 9.054046022e-16 0)
(3 9.745460996e-16 0)
(3 2.471172409e-15 0)
(3 4.173808515e-15 0)
(3 4.455314462e-15 0)
(3 4.049131376e-15 0)
(3 4.38255072e-15 0)
(3 4.952314745e-15 0)
(3 4.147674779e-15 0)
(3 3.895189698e-15 0)
(3 4.378193562e-15 0)
(3 4.324133709e-15 0)
(3 2.829205952e-15 0)
(3 1.832818899e-15 0)
(3 2.376505723e-15 0)
(3 2.180301769e-15 0)
(3 2.640137092e-15 0)
(3 1.459104952e-15 0)
(3 -1.112898729e-15 0)
(3 -2.631552497e-15 0)
(3 -4.250684317e-15 0)
(3 -2.681590111e-15 0)
(3 -1.596804667e-15 0)
(3 -2.990318865e-15 0)
(3 -3.928965552e-15 0)
(3 -6.779743655e-15 0)
(3 -7.353462493e-15 0)
(3 -6.328973388e-15 0)
(3 -3.221888491e-15 0)
(3 -7.970631011e-16 0)
(3 -2.409512125e-16 0)
(3 8.428985085e-17 0)
(3 3.227703898e-16 0)
(3 1.231265522e-15 0)
(3 6.941728535e-16 0)
(3 7.52044202e-18 0)
(3 -3.078516712e-15 0)
(3 -6.539194421e-15 0)
(3 -6.593031787e-15 0)
(3 -3.697490514e-16 0)
(3 -4.62499427e-16 0)
(3 -2.427621226e-16 0)
(3 -3.706040249e-16 0)
(3 -1.860619502e-15 0)
(3 -1.657630593e-15 0)
(3 -4.142094101e-16 0)
(3 -3.547532391e-16 0)
(3 3.969007935e-16 0)
(3 3.28436688e-16 0)
(3 -6.209073747e-16 0)
(3 -1.691122216e-15 0)
(3 -3.361021489e-15 0)
(3 -3.499661683e-15 0)
(3 -1.762146262e-15 0)
(3 -7.162248805e-16 0)
(3 -1.200295311e-15 0)
(3 -3.068182046e-15 0)
(3 -1.874826187e-15 0)
(3 -1.29099816e-15 0)
(3 -2.185244395e-15 0)
(3 -2.762118992e-15 0)
(3 -1.020891779e-15 0)
(3 1.306523789e-15 0)
(3 1.280472414e-15 0)
(3 1.937209973e-15 0)
(3 3.155509895e-15 0)
(3 1.309610915e-15 0)
(3 7.179814655e-16 0)
(3 -7.642777127e-16 0)
(3 -8.956660467e-16 0)
(3 3.809245981e-16 0)
(3 1.383778618e-15 0)
(3 9.048022477e-16 0)
(3 2.472399845e-15 0)
(3 3.616365319e-15 0)
(3 3.91295529e-15 0)
(3 3.433109699e-15 0)
(3 1.385266636e-15 0)
(3 -8.069736737e-16 0)
(3 -5.253218133e-16 0)
(3 -9.998982334e-17 0)
(3 1.609416398e-15 0)
(3 2.380526165e-15 0)
(3 2.391348722e-15 0)
(3 5.389859022e-15 0)
(3 5.194611301e-15 0)
(3 4.075603421e-15 0)
(3 3.531186194e-15 0)
(3 4.418183871e-15 0)
(3 2.987396326e-15 0)
(3 1.022387695e-15 0)
(3 -1.583340926e-15 0)
(3 -3.166392074e-15 0)
(3 -4.569594571e-15 0)
(3 -4.693247822e-15 0)
(3 -5.344936056e-15 0)
(3 -5.617754466e-15 0)
(3 -2.460317143e-15 0)
(3 -2.92731622e-17 0)
(3 2.137740135e-15 0)
(3 2.666731932e-15 0)
(3 2.56458056e-15 0)
(3 1.757921727e-15 0)
(3 -3.624709671e-16 0)
(3 -1.232858383e-15 0)
(3 -3.058282283e-15 0)
(3 -2.335220819e-16 0)
(3 4.688051444e-17 0)
(3 6.990697976e-16 0)
(3 7.290902916e-16 0)
(3 -9.085966416e-17 0)
(3 -6.590551977e-16 0)
(3 -2.372736825e-15 0)
(3 -2.064666204e-15 0)
(3 -1.444840865e-15 0)
(3 3.572511935e-17 0)
(3 1.037686222e-16 0)
(3 -9.734337872e-16 0)
(3 -1.353927525e-15 0)
(3 -1.070240463e-15 0)
(3 -8.830372009e-16 0)
(3 -1.148463159e-15 0)
(3 -1.722575415e-15 0)
(3 -2.395130107e-15 0)
(3 -3.65108713e-15 0)
(3 -2.923327493e-15 0)
(3 -2.870232262e-15 0)
(3 -1.690949124e-15 0)
(3 -9.399757269e-17 0)
(3 2.724874419e-15 0)
(3 4.908325849e-15 0)
(3 3.784333898e-15 0)
(3 2.176706025e-15 0)
(3 -1.663029929e-16 0)
(3 -1.104576651e-15 0)
(3 -3.193193213e-15 0)
(3 -5.228636204e-15 0)
(3 -3.703601439e-15 0)
(3 -2.129047894e-15 0)
(3 8.021761403e-16 0)
(3 -3.377689618e-16 0)
(3 -5.629212155e-17 0)
(3 -5.887386209e-16 0)
(3 -1.961267797e-15 0)
(3 -3.134285493e-15 0)
(3 -1.715611754e-15 0)
(3 -5.048548645e-16 0)
(3 1.449029958e-15 0)
(3 3.343869899e-15 0)
(3 4.473052079e-15 0)
(3 6.764181521e-15 0)
(3 7.574386595e-15 0)
(3 7.173481971e-15 0)
(3 6.997484586e-15 0)
(3 7.038747717e-15 0)
(3 6.258619408e-15 0)
(3 5.230025626e-15 0)
(3 3.187135237e-15 0)
(3 1.092377378e-16 0)
(3 -9.55503292e-16 0)
(3 -1.609270344e-15 0)
(3 -3.839827159e-15 0)
(3 -6.466385374e-15 0)
(3 -7.138324955e-15 0)
(3 -5.13788546e-15 0)
(3 -2.484606835e-15 0)
(3 -1.16586369e-16 0)
(3 -3.957107925e-16 0)
(3 -4.5021199e-16 0)
(3 2.986194079e-16 0)
(3 4.586770144e-16 0)
(3 1.445316818e-15 0)
(3 1.655457144e-16 0)
(3 7.844154128e-16 0)
(3 3.334691857e-15 0)
(3 2.868317237e-15 0)
(3 3.156700392e-15 0)
(3 2.635618853e-15 0)
(3 9.346665992e-16 0)
(3 2.799502174e-16 0)
(3 -1.982783494e-16 0)
(3 -1.652974709e-16 0)
(3 -4.928819751e-16 0)
(3 -8.974851873e-17 0)
(3 -1.067006051e-15 0)
(3 -1.338015432e-15 0)
(3 -1.499140119e-15 0)
(3 -1.747637113e-15 0)
(3 -1.378590394e-15 0)
(3 -6.59822275e-16 0)
(3 -8.601527087e-17 0)
(3 -5.267974674e-16 0)
(3 -1.528641845e-16 0)
(3 2.617285959e-15 0)
(3 3.718366448e-15 0)
(3 3.314314848e-15 0)
(3 3.732510445e-15 0)
(3 3.837656584e-15 0)
(3 4.355867631e-15 0)
(3 1.964906387e-15 0)
(3 -3.044012761e-16 0)
(3 -1.984733051e-15 0)
(3 -2.278998163e-15 0)
(3 -2.592155545e-15 0)
(3 -4.598503476e-15 0)
(3 -3.932826322e-15 0)
(3 -1.390745072e-15 0)
(3 -1.827554043e-15 0)
(3 -2.376150659e-15 0)
(3 -1.915427045e-15 0)
(3 -1.283793378e-15 0)
(3 -3.879323082e-16 0)
(3 9.03749927e-16 0)
(3 5.764120089e-16 0)
(3 5.782313818e-16 0)
(3 3.099280245e-15 0)
(3 4.369836608e-15 0)
(3 7.472111972e-15 0)
(3 6.57310495e-15 0)
(3 5.056755116e-15 0)
(3 4.863961711e-15 0)
(3 5.468232301e-15 0)
(3 4.870736209e-15 0)
(3 4.887171905e-15 0)
(3 3.994970662e-15 0)
(3 2.165949695e-15 0)
(3 1.789540566e-15 0)
(3 6.741329038e-16 0)
(3 -2.131557239e-15 0)
(3 -5.666467001e-15 0)
(3 -7.024776686e-15 0)
(3 -5.272109042e-15 0)
(3 -4.497200811e-15 0)
(3 -2.461518704e-15 0)
(3 3.248150762e-16 0)
(3 7.392345747e-16 0)
(3 4.34882703e-16 0)
(3 4.365634812e-16 0)
(3 8.652824425e-16 0)
(3 8.496747027e-16 0)
(3 -5.668771928e-16 0)
(3 -2.075665681e-16 0)
(3 5.191976568e-17 0)
(3 5.216311445e-16 0)
(3 6.953191256e-17 0)
(3 1.076690027e-16 0)
(3 -3.63669243e-17 0)
(3 1.223214461e-15 0)
(3 3.411289541e-15 0)
(3 2.657554272e-15 0)
(3 1.496225305e-15 0)
(3 1.775806572e-15 0)
(3 1.796375251e-15 0)
(3 5.665430357e-16 0)
(3 4.411638174e-16 0)
(3 2.137096813e-16 0)
(3 8.073346942e-16 0)
(3 1.013813924e-15 0)
(3 1.04670682e-15 0)
(3 3.553924721e-15 0)
(3 5.647559179e-15 0)
(3 5.287696076e-15 0)
(3 4.140825537e-15 0)
(3 3.987706734e-15 0)
(3 3.0881947e-15 0)
(3 1.516558074e-15 0)
(3 -1.037341358e-16 0)
(3 -8.789770505e-16 0)
(3 -2.863985548e-15 0)
(3 -3.489082259e-15 0)
(3 -2.515308337e-15 0)
(3 -3.005599309e-15 0)
(3 -3.127895017e-15 0)
(3 -3.483464508e-15 0)
(3 -2.577466332e-15 0)
(3 -1.525167419e-15 0)
(3 -1.859937277e-15 0)
(3 -2.299983979e-15 0)
(3 -1.098851319e-15 0)
(3 -2.4414358e-15 0)
(3 -2.577797524e-15 0)
(3 -1.074257155e-15 0)
(3 -1.584195294e-15 0)
(3 -1.515831319e-15 0)
(3 5.476623179e-16 0)
(3 4.769111556e-15 0)
(3 6.894137214e-15 0)
(3 7.838189835e-15 0)
(3 6.943720847e-15 0)
(3 6.245264101e-15 0)
(3 5.432344494e-15 0)
(3 4.191142045e-15 0)
(3 3.581359028e-15 0)
(3 1.535542941e-15 0)
(3 -1.127455547e-15 0)
(3 -4.270378031e-15 0)
(3 -7.484731373e-15 0)
(3 -9.032200123e-15 0)
(3 -9.027534084e-15 0)
(3 -8.030606297e-15 0)
(3 -5.426838482e-15 0)
(3 1.259960325e-15 0)
(3 5.341976211e-15 0)
(3 4.847648898e-15 0)
(3 1.36492012e-15 0)
(3 -7.599428008e-16 0)
(3 2.147959409e-15 0)
(3 -7.017071007e-16 0)
(3 -2.325350427e-15 0)
(3 -1.971146158e-15 0)
(3 -1.878199754e-15 0)
(3 -1.29151301e-15 0)
(3 3.54848891e-16 0)
(3 9.909725561e-16 0)
(3 1.132674815e-15 0)
(3 1.143865626e-15 0)
(3 2.95013423e-15 0)
(3 3.032915088e-15 0)
(3 3.831858929e-15 0)
(3 4.569811857e-15 0)
(3 4.363141824e-15 0)
(3 3.310052104e-15 0)
(3 1.375542845e-15 0)
(3 5.66872512e-16 0)
(3 1.567540792e-15 0)
(3 2.331524522e-15 0)
(3 3.207450862e-15 0)
(3 4.372316561e-15 0)
(3 3.864286046e-15 0)
(3 1.922824365e-15 0)
(3 -5.628803697e-16 0)
(3 -3.038669867e-15 0)
(3 -4.934540167e-15 0)
(3 -5.693021621e-15 0)
(3 -5.46935355e-15 0)
(3 -4.978661266e-15 0)
(3 -5.831351456e-15 0)
(3 -4.58989911e-15 0)
(3 -3.004125957e-15 0)
(3 -4.372443062e-15 0)
(3 -5.13138607e-15 0)
(3 -3.939126988e-15 0)
(3 -2.271445189e-15 0)
(3 3.062926992e-16 0)
(3 -3.155557991e-17 0)
(3 7.673466573e-17 0)
(3 1.976876555e-16 0)
(3 -8.449161516e-16 0)
(3 -2.343302242e-15 0)
(3 -3.701365677e-15 0)
(3 -3.538165328e-15 0)
(3 -3.283668169e-15 0)
(3 5.714127376e-16 0)
(3 4.37677188e-15 0)
(3 4.821057291e-15 0)
(3 4.103539658e-15 0)
(3 3.720526018e-15 0)
(3 2.198374315e-15 0)
(3 1.308469247e-15 0)
(3 -1.230896632e-16 0)
(3 -2.039322149e-15 0)
(3 -4.388991547e-15 0)
(3 -7.136888751e-15 0)
(3 -9.865343215e-15 0)
(3 -1.159604108e-14 0)
(3 -1.255466993e-14 0)
(3 -8.656810082e-15 0)
(3 -6.136165067e-15 0)
(3 -4.870018497e-15 0)
(3 -5.919536206e-16 0)
(3 1.198343367e-15 0)
(3 2.500018827e-15 0)
(3 4.486284131e-15 0)
(3 5.213862978e-15 0)
(3 2.545056882e-16 0)
(3 -8.510643341e-16 0)
(3 -2.394361043e-16 0)
(3 -2.666928702e-16 0)
(3 8.892424473e-16 0)
(3 1.503677025e-15 0)
(3 1.867498221e-15 0)
(3 8.082272119e-16 0)
(3 -6.864615868e-16 0)
(3 -8.164838827e-18 0)
(3 1.277318078e-15 0)
(3 1.513056615e-15 0)
(3 1.499286497e-15 0)
(3 2.323280763e-15 0)
(3 2.605590752e-15 0)
(3 2.724774751e-15 0)
(3 2.426548981e-15 0)
(3 2.674117296e-15 0)
(3 3.138303306e-15 0)
(3 2.144364972e-15 0)
(3 1.194470534e-16 0)
(3 -9.74057981e-16 0)
(3 -2.295980655e-15 0)
(3 -3.233314379e-15 0)
(3 -4.696759596e-15 0)
(3 -5.930646739e-15 0)
(3 -6.348213904e-15 0)
(3 -2.934988428e-15 0)
(3 -5.30008228e-16 0)
(3 -1.366798241e-16 0)
(3 -4.69225885e-15 0)
(3 -5.248852059e-15 0)
(3 -6.235688151e-15 0)
(3 -7.098438871e-15 0)
(3 -6.669782203e-15 0)
(3 -4.437909998e-15 0)
(3 4.602904462e-16 0)
(3 3.387360956e-15 0)
(3 7.056451068e-16 0)
(3 -2.094688184e-16 0)
(3 -5.453472815e-16 0)
(3 -3.584805976e-15 0)
(3 -4.501985837e-15 0)
(3 -5.17443717e-15 0)
(3 -6.116711073e-15 0)
(3 -4.203721818e-15 0)
(3 -1.321102202e-15 0)
(3 6.611746599e-16 0)
(3 9.335525438e-16 0)
(3 7.583770553e-16 0)
(3 -3.178964672e-16 0)
(3 -3.571574445e-15 0)
(3 -4.511915728e-15 0)
(3 -5.313226819e-15 0)
(3 -6.529231652e-15 0)
(3 -6.282790417e-15 0)
(3 -7.255955291e-15 0)
(3 -5.899108019e-15 0)
(3 -7.10292661e-16 0)
(3 -1.420924949e-15 0)
(3 -3.976773993e-15 0)
(3 -3.423247549e-15 0)
(3 -2.897048489e-15 0)
(3 3.141958973e-16 0)
(3 7.296217608e-15 0)
(3 7.701620415e-15 0)
(3 5.909893193e-15 0)
(3 4.583380719e-16 0)
(3 -1.561783129e-17 0)
(3 2.71500487e-16 0)
(3 3.852472158e-16 0)
(3 1.887746929e-15 0)
(3 1.535252379e-15 0)
(3 1.772752778e-15 0)
(3 1.613888437e-15 0)
(3 5.888377759e-16 0)
(3 -6.06459486e-16 0)
(3 3.888576646e-16 0)
(3 4.495568326e-16 0)
(3 2.34666172e-16 0)
(3 4.066948417e-16 0)
(3 1.527817845e-15 0)
(3 3.022107143e-15 0)
(3 3.730592278e-15 0)
(3 2.442382002e-15 0)
(3 9.457443463e-16 0)
(3 -1.758318828e-15 0)
(3 -4.691149814e-15 0)
(3 -4.643986426e-15 0)
(3 -4.505918913e-15 0)
(3 -2.936900617e-15 0)
(3 -3.53816968e-15 0)
(3 -4.440558331e-15 0)
(3 -1.600410244e-15 0)
(3 2.80850097e-15 0)
(3 3.295008844e-15 0)
(3 4.854486981e-15 0)
(3 1.562864806e-15 0)
(3 -4.946912699e-16 0)
(3 -1.709403811e-15 0)
(3 -1.362630188e-15 0)
(3 -5.761828197e-16 0)
(3 -5.102680961e-17 0)
(3 -3.15792525e-16 0)
(3 1.34905883e-15 0)
(3 4.219690031e-16 0)
(3 -2.147381076e-15 0)
(3 -4.525278197e-15 0)
(3 -5.554585798e-15 0)
(3 -4.992409506e-15 0)
(3 -4.790997277e-15 0)
(3 -4.675338961e-15 0)
(3 -4.480617191e-15 0)
(3 -3.90275894e-15 0)
(3 -2.343334202e-15 0)
(3 -1.715388553e-16 0)
(3 -7.856166568e-16 0)
(3 -5.414267606e-16 0)
(3 -1.015942717e-15 0)
(3 -6.850396785e-16 0)
(3 -1.082665347e-15 0)
(3 -2.291479176e-15 0)
(3 -2.829775609e-15 0)
(3 3.208424302e-16 0)
(3 2.217407052e-15 0)
(3 2.189613262e-15 0)
(3 -1.693252446e-16 0)
(3 -9.53918835e-16 0)
(3 -1.557116457e-15 0)
(3 -3.078277182e-16 0)
(3 2.347792034e-15 0)
(3 3.715074672e-15 0)
(3 4.29888424e-15 0)
(3 3.320967751e-15 0)
(3 -5.196084284e-16 0)
(3 7.288654844e-16 0)
(3 3.279686052e-17 0)
(3 -8.141646091e-17 0)
(3 1.153854811e-17 0)
(3 2.157025168e-16 0)
(3 2.301115429e-16 0)
(3 6.067806319e-16 0)
(3 5.306697894e-16 0)
(3 -2.171599478e-16 0)
(3 -1.493354484e-15 0)
(3 -1.206563968e-15 0)
(3 -1.239689296e-15 0)
(3 -1.284145193e-15 0)
(3 -1.284002845e-15 0)
(3 2.46327475e-16 0)
(3 1.180615553e-15 0)
(3 9.347072977e-16 0)
(3 -4.037981382e-16 0)
(3 -1.388575521e-15 0)
(3 -1.132885147e-15 0)
(3 -2.377590471e-15 0)
(3 -3.228109617e-15 0)
(3 -4.401442673e-15 0)
(3 -5.062030007e-15 0)
(3 -2.86152511e-15 0)
(3 -1.889125648e-15 0)
(3 -4.237859405e-16 0)
(3 2.504385178e-16 0)
(3 1.541241723e-15 0)
(3 2.85962122e-15 0)
(3 2.448246993e-16 0)
(3 2.259474763e-15 0)
(3 5.20725046e-15 0)
(3 6.400437353e-15 0)
(3 4.006258584e-15 0)
(3 -7.01027855e-16 0)
(3 -1.958955863e-15 0)
(3 -1.798377786e-15 0)
(3 -2.01239633e-15 0)
(3 -2.219626149e-15 0)
(3 -1.477282179e-15 0)
(3 -2.114304873e-16 0)
(3 -9.678772604e-16 0)
(3 -1.55228762e-15 0)
(3 -2.906074392e-15 0)
(3 -3.200903755e-15 0)
(3 -2.093921928e-15 0)
(3 -5.532197221e-16 0)
(3 -2.700876804e-16 0)
(3 1.220406646e-15 0)
(3 3.743296368e-15 0)
(3 4.034708655e-15 0)
(3 2.437208077e-15 0)
(3 2.267976214e-15 0)
(3 3.453762167e-15 0)
(3 7.01677564e-15 0)
(3 8.911021594e-15 0)
(3 5.838796483e-15 0)
(3 2.516191921e-15 0)
(3 1.125020839e-15 0)
(3 -8.430887532e-16 0)
(3 -1.073551727e-15 0)
(3 -1.247633492e-15 0)
(3 3.283864268e-16 0)
(3 6.056026629e-16 0)
(3 -6.733965355e-16 0)
(3 -5.450229286e-16 0)
(3 3.96428941e-16 0)
(3 4.672725671e-16 0)
(3 4.430270431e-16 0)
(3 -8.655926854e-16 0)
(3 -6.824961862e-16 0)
(3 -8.675529249e-16 0)
(3 -9.828616574e-16 0)
(3 -1.008952019e-15 0)
(3 -1.223454703e-15 0)
(3 -1.73487404e-15 0)
(3 -1.382383519e-15 0)
(3 -1.519938433e-15 0)
(3 -1.639344029e-15 0)
(3 -1.645643446e-15 0)
(3 -1.513720936e-15 0)
(3 -6.668516433e-16 0)
(3 -1.533550914e-15 0)
(3 -2.618696696e-15 0)
(3 -2.285928015e-15 0)
(3 -2.308079675e-15 0)
(3 -2.651815955e-15 0)