/*--------------------------------*- C++ -*----------------------------------*\
  =========                 |
  \\      /  F ield         | OpenFOAM: The Open Source CFD Toolbox
   \\    /   O peration     | Website:  https://openfoam.org
    \\  /    A nd           | Version:  7
     \\/     M anipulation  |
\*---------------------------------------------------------------------------*/
FoamFile
{
    version     2.0;
    format      ascii;
    class       volScalarField;
    location    "5";
    object      T;
}
// * * * * * * * * * * * * * * * * * * * * * * * * * * * * * * * * * * * * * //

dimensions      [0 0 0 1 0 0 0];

internalField   nonuniform List<scalar> 
80000
(
1
1
1
1
1
1
1
1
1
1
1
1
1
1
1
1
1
1
1
1
1
1
1
1
1
1
1
1
1
1
1
1
1
1
1
1
1
1
1
1
1
1
1
1
1
1
1
1
1
1
1
1
1
1
1
1
1
1
1
1
1
1
1
1
1
1
1
1
1
1
1
1
1
1
1
1
1.776992673
2.617912883
2.686991564
2.687256319
2.688159395
2.689137679
2.690096644
2.690858148
2.691338592
2.69153805
2.691521929
2.691296951
2.690817245
2.690217309
2.689633558
2.689086347
2.688526731
2.687828482
2.686904805
2.685677634
2.684122017
2.68226967
2.680230247
2.678164801
1
1
1
1
1
1
1
1
1
1
1
1
1
1
1
1
1
1
1
1
1
1
1
1
1
1
1
1
1
1
1
1
1
1
1
1
1
1
1
1
1
1
1
1
1
1
1
1
1
1
1
1
1
1
1
1
1
1
1
1
1
1
1
1
1
1
1
1
1
1
1
1
1
1
1
1
1.776961236
2.617902321
2.687025428
2.687315037
2.688218109
2.689198024
2.690153903
2.690913877
2.691382739
2.69155871
2.691526153
2.691283182
2.69079472
2.690190508
2.689603936
2.689063682
2.688512171
2.687829278
2.686922513
2.685706998
2.684148326
2.682286883
2.680229259
2.678119798
1
1
1
1
1
1
1
1
1
1
1
1
1
1
1
1
1
1
1
1
1
1
1
1
1
1
1
1
1
1
1
1
1
1
1
1
1
1
1
1
1
1
1
1
1
1
1
1
1
1
1
1
1
1
1
1
1
1
1
1
1
1
1
1
1
1
1
1
1
1
1
1
1
1
1
1
1.776847487
2.617907313
2.687105386
2.687431071
2.688325283
2.689276486
2.690199047
2.690934147
2.6913854
2.691533665
2.691491391
2.69125172
2.690779987
2.69019593
2.689621305
2.68909605
2.688552424
2.687873724
2.686976038
2.685744459
2.684146952
2.682243846
2.680138368
2.677967499
1
1
1
1
1
1
1
1
1
1
1
1
1
1
1
1
1
1
1
1
1
1
1
1
1
1
1
1
1
1
1
1
1
1
1
1
1
1
1
1
1
1
1
1
1
1
1
1
1
1
1
1
1
1
1
1
1
1
1
1
1
1
1
1
1
1
1
1
1
1
1
1
1
1
1
1
1.77660164
2.617917064
2.687231116
2.687596686
2.688463559
2.689357502
2.690225403
2.690923179
2.691354782
2.691477591
2.691430664
2.691218131
2.690794015
2.690245724
2.689693145
2.689177699
2.688624184
2.68792445
2.687024002
2.68574736
2.684081554
2.682117879
2.679957991
2.67773341
1
1
1
1
1
1
1
1
1
1
1
1
1
1
1
1
1
1
1
1
1
1
1
1
1
1
1
1
1
1
1
1
1
1
1
1
1
1
1
1
1
1
1
1
1
1
1
1
1
1
1
1
1
1
1
1
1
1
1
1
1
1
1
1
1
1
1
1
1
1
1
1
1
1
1
1
1.776426653
2.618019442
2.687389736
2.687773727
2.688593471
2.689409778
2.690207902
2.690856257
2.691270448
2.691389115
2.691352189
2.691195311
2.690864445
2.690399391
2.689884395
2.68936423
2.688769695
2.688014954
2.687046914
2.685689065
2.68392485
2.68188731
2.67968342
2.67744637
1
1
1
1
1
1
1
1
1
1
1
1
1
1
1
1
1
1
1
1
1
1
1
1
1
1
1
1
1
1
1
1
1
1
1
1
1
1
1
1
1
1
1
1
1
1
1
1
1
1
1
1
1
1
1
1
1
1
1
1
1
1
1
1
1
1
1
1
1
1
1
1
1
1
1
1
1.776337249
2.618234906
2.687572687
2.687960185
2.688720828
2.689436127
2.690146798
2.690727983
2.691133074
2.691289143
2.691288083
2.691210187
2.691005465
2.690669258
2.69021928
2.689685213
2.689015902
2.688146236
2.68702777
2.685532299
2.683657016
2.681550354
2.679327621
2.67713489
1
1
1
1
1
1
1
1
1
1
1
1
1
1
1
1
1
1
1
1
1
1
1
1
1
1
1
1
1
1
1
1
1
1
1
1
1
1
1
1
1
1
1
1
1
1
1
1
1
1
1
1
1
1
1
1
1
1
1
1
1
1
1
1
1
1
1
1
1
1
1
1
1
1
1
1
1.776289251
2.618555194
2.687771642
2.68813289
2.688824362
2.689434554
2.690052428
2.690565616
2.690963485
2.691190622
2.691275658
2.691282921
2.691219377
2.691022696
2.690648586
2.690089537
2.689308527
2.688273793
2.686940571
2.685274545
2.683301312
2.681154638
2.678961737
2.676872924
1
1
1
1
1
1
1
1
1
1
1
1
1
1
1
1
1
1
1
1
1
1
1
1
1
1
1
1
1
1
1
1
1
1
1
1
1
1
1
1
1
1
1
1
1
1
1
1
1
1
1
1
1
1
1
1
1
1
1
1
1
1
1
1
1
1
1
1
1
1
1
1
1
1
1
1
1.776358728
2.618969372
2.687987218
2.688284071
2.688896174
2.689411597
2.689942593
2.690398439
2.690796952
2.691108805
2.691319022
2.691452459
2.691502945
2.691427367
2.691121783
2.690521286
2.689596873
2.688357462
2.686797518
2.684964485
2.682914225
2.680763695
2.678668789
2.676754505
1
1
1
1
1
1
1
1
1
1
1
1
1
1
1
1
1
1
1
1
1
1
1
1
1
1
1
1
1
1
1
1
1
1
1
1
1
1
1
1
1
1
1
1
1
1
1
1
1
1
1
1
1
1
1
1
1
1
1
1
1
1
1
1
1
1
1
1
1
1
1
1
1
1
1
1
1.776593279
2.619481736
2.688215776
2.688407943
2.688925079
2.689362898
2.689827209
2.690246431
2.690663407
2.691076851
2.691430805
2.691704845
2.691866718
2.691845832
2.691579155
2.690929752
2.689852208
2.688398332
2.686629926
2.684659981
2.682568669
2.68045891
2.67849906
2.676770982
1
1
1
1
1
1
1
1
1
1
1
1
1
1
1
1
1
1
1
1
1
1
1
1
1
1
1
1
1
1
1
1
1
1
1
1
1
1
1
1
1
1
1
1
1
1
1
1
1
1
1
1
1
1
1
1
1
1
1
1
1
1
1
1
1
1
1
1
1
1
1
1
1
1
1
1
1.776981852
2.620086305
2.688439852
2.688504466
2.688924337
2.689300513
2.689716416
2.690125506
2.690593705
2.691105662
2.69160962
2.692020575
2.692269354
2.69225661
2.691982816
2.691277127
2.690063006
2.688421676
2.686490354
2.684431189
2.682347912
2.680311464
2.678462356
2.676877807
1
1
1
1
1
1
1
1
1
1
1
1
1
1
1
1
1
1
1
1
1
1
1
1
1
1
1
1
1
1
1
1
1
1
1
1
1
1
1
1
1
1
1
1
1
1
1
1
1
1
1
1
1
1
1
1
1
1
1
1
1
1
1
1
1
1
1
1
1
1
1
1
1
1
1
1
1.777472727
2.620770746
2.688616281
2.688571084
2.68891064
2.689236858
2.689622439
2.690054581
2.690591462
2.691202729
2.691838366
2.69235949
2.692665002
2.692630874
2.692310014
2.691535841
2.690212602
2.688441471
2.686421926
2.68433777
2.682293426
2.680355478
2.678626954
2.677166497
1
1
1
1
1
1
1
1
1
1
1
1
1
1
1
1
1
1
1
1
1
1
1
1
1
1
1
1
1
1
1
1
1
1
1
1
1
1
1
1
1
1
1
1
1
1
1
1
1
1
1
1
1
1
1
1
1
1
1
1
1
1
1
1
1
1
1
1
1
1
1
1
1
1
1
1
1.778040882
2.621527984
2.688740159
2.688604759
2.688888342
2.689180378
2.689562575
2.690042479
2.690652669
2.691360111
2.69209029
2.692678546
2.693001958
2.692929944
2.692544832
2.691697347
2.690302321
2.688475451
2.68643112
2.68436861
2.682395879
2.680591971
2.679001485
2.677634438
1
1
1
1
1
1
1
1
1
1
1
1
1
1
1
1
1
1
1
1
1
1
1
1
1
1
1
1
1
1
1
1
1
1
1
1
1
1
1
1
1
1
1
1
1
1
1
1
1
1
1
1
1
1
1
1
1
1
1
1
1
1
1
1
1
1
1
1
1
1
1
1
1
1
1
1
1.778655973
2.622357334
2.688835137
2.6886127
2.688850282
2.68913342
2.689545891
2.690085756
2.690772296
2.691558583
2.692342065
2.692945783
2.693239645
2.693118622
2.692669438
2.691768043
2.690358278
2.688551804
2.686541865
2.684533774
2.682656183
2.680977321
2.679491179
2.678170279
1
1
1
1
1
1
1
1
1
1
1
1
1
1
1
1
1
1
1
1
1
1
1
1
1
1
1
1
1
1
1
1
1
1
1
1
1
1
1
1
1
1
1
1
1
1
1
1
1
1
1
1
1
1
1
1
1
1
1
1
1
1
1
1
1
1
1
1
1
1
1
1
1
1
1
1
1.779244278
2.623239921
2.688908175
2.688602701
2.688799868
2.689097184
2.689562588
2.690181825
2.690947115
2.691788507
2.692580474
2.693150137
2.693353595
2.693184013
2.692692923
2.691780581
2.69041541
2.68869078
2.686772278
2.68485053
2.683063517
2.681462267
2.680016141
2.678711171
1
1
1
1
1
1
1
1
1
1
1
1
1
1
1
1
1
1
1
1
1
1
1
1
1
1
1
1
1
1
1
1
1
1
1
1
1
1
1
1
1
1
1
1
1
1
1
1
1
1
1
1
1
1
1
1
1
1
1
1
1
1
1
1
1
1
1
1
1
1
1
1
1
1
1
1
1.779728194
2.624132838
2.688958611
2.688580189
2.688747213
2.689076573
2.689616082
2.690336281
2.691180551
2.692048148
2.692797115
2.693286872
2.693362313
2.693155521
2.692645271
2.691761593
2.690488146
2.688884896
2.687085761
2.685272963
2.68356209
2.681990557
2.680552313
2.679237944
1
1
1
1
1
1
1
1
1
1
1
1
1
1
1
1
1
1
1
1
1
1
1
1
1
1
1
1
1
1
1
1
1
1
1
1
1
1
1
1
1
1
1
1
1
1
1
1
1
1
1
1
1
1
1
1
1
1
1
1
1
1
1
1
1
1
1
1
1
1
1
1
1
1
1
1
1.780079302
2.62497681
2.688993298
2.688564364
2.688715626
2.689081108
2.689714676
2.690546246
2.691468338
2.692330386
2.692991255
2.693346076
2.693310032
2.693062113
2.692541826
2.691716849
2.690564094
2.68909324
2.687435528
2.685745582
2.684092447
2.68253618
2.681094853
2.67976643
1
1
1
1
1
1
1
1
1
1
1
1
1
1
1
1
1
1
1
1
1
1
1
1
1
1
1
1
1
1
1
1
1
1
1
1
1
1
1
1
1
1
1
1
1
1
1
1
1
1
1
1
1
1
1
1
1
1
1
1
1
1
1
1
1
1
1
1
1
1
1
1
1
1
1
1
1.780294385
2.625764442
2.689028527
2.688573158
2.68872164
2.689131406
2.689865868
2.690805711
2.691790325
2.692620089
2.693163802
2.693342927
2.693230639
2.692934308
2.692420935
2.69166755
2.690622037
2.689279467
2.687780357
2.686213518
2.684614398
2.683086931
2.681652175
2.680316531
1
1
1
1
1
1
1
1
1
1
1
1
1
1
1
1
1
1
1
1
1
1
1
1
1
1
1
1
1
1
1
1
1
1
1
1
1
1
1
1
1
1
1
1
1
1
1
1
1
1
1
1
1
1
1
1
1
1
1
1
1
1
1
1
1
1
1
1
1
1
1
1
1
1
1
1
1.780433934
2.626426231
2.68909742
2.688658223
2.688803722
2.689252212
2.690067898
2.691095468
2.692114468
2.69289358
2.693319173
2.693327929
2.693160114
2.692828342
2.692328974
2.691625996
2.69064894
2.689441605
2.68807487
2.686643104
2.685114556
2.683642419
2.682235057
2.6809039
1
1
1
1
1
1
1
1
1
1
1
1
1
1
1
1
1
1
1
1
1
1
1
1
1
1
1
1
1
1
1
1
1
1
1
1
1
1
1
1
1
1
1
1
1
1
1
1
1
1
1
1
1
1
1
1
1
1
1
1
1
1
1
1
1
1
1
1
1
1
1
1
1
1
1
1
1.780548692
2.626893927
2.689190146
2.688815427
2.688961064
2.689430767
2.690304184
2.691388487
2.692409618
2.693118849
2.693429073
2.693359082
2.693134293
2.692774127
2.692276981
2.691589656
2.690657696
2.689558662
2.688324229
2.687006723
2.685601785
2.684215305
2.682857746
2.681542596
1
1
1
1
1
1
1
1
1
1
1
1
1
1
1
1
1
1
1
1
1
1
1
1
1
1
1
1
1
1
1
1
1
1
1
1
1
1
1
1
1
1
1
1
1
1
1
1
1
1
1
1
1
1
1
1
1
1
1
1
1
1
1
1
1
1
1
1
1
1
1
1
1
1
1
1
1.780503112
2.627157525
2.68930586
2.689031176
2.68919184
2.689672029
2.690580139
2.691674404
2.692662941
2.693297101
2.693498064
2.693394485
2.693144754
2.692762674
2.692248329
2.69155368
2.690657963
2.689638025
2.688532062
2.68733194
2.686079762
2.684810861
2.683524526
2.682235652
1
1
1
1
1
1
1
1
1
1
1
1
1
1
1
1
1
1
1
1
1
1
1
1
1
1
1
1
1
1
1
1
1
1
1
1
1
1
1
1
1
1
1
1
1
1
1
1
1
1
1
1
1
1
1
1
1
1
1
1
1
1
1
1
1
1
1
1
1
1
1
1
1
1
1
1
1.78023896
2.627242445
2.6893837
2.689291655
2.689533361
2.690029869
2.690924489
2.691954352
2.6928654
2.693420008
2.693527245
2.693414124
2.693156636
2.692757801
2.69221517
2.691512203
2.690654225
2.689712253
2.688708941
2.687659982
2.686563043
2.685424475
2.684224091
2.682970995
1
1
1
1
1
1
1
1
1
1
1
1
1
1
1
1
1
1
1
1
1
1
1
1
1
1
1
1
1
1
1
1
1
1
1
1
1
1
1
1
1
1
1
1
1
1
1
1
1
1
1
1
1
1
1
1
1
1
1
1
1
1
1
1
1
1
1
1
1
1
1
1
1
1
1
1
1.779618387
2.627157822
2.689258976
2.689616838
2.690058808
2.690565578
2.691364149
2.692240303
2.693019069
2.693475271
2.693516674
2.693406842
2.693134105
2.692710413
2.69214409
2.691459505
2.690658298
2.689805235
2.688914531
2.688009484
2.68706204
2.686052283
2.684941568
2.683727921
1
1
1
1
1
1
1
1
1
1
1
1
1
1
1
1
1
1
1
1
1
1
1
1
1
1
1
1
1
1
1
1
1
1
1
1
1
1
1
1
1
1
1
1
1
1
1
1
1
1
1
1
1
1
1
1
1
1
1
1
1
1
1
1
1
1
1
1
1
1
1
1
1
1
1
1
1.778664913
2.626861979
2.688919137
2.690061176
2.690724
2.691226571
2.691873705
2.692544705
2.693144217
2.693474406
2.693474528
2.693350681
2.693049937
2.69259873
2.692027367
2.691398003
2.690689579
2.689947463
2.689174301
2.688402592
2.687588313
2.686691325
2.685660699
2.684484805
1
1
1
1
1
1
1
1
1
1
1
1
1
1
1
1
1
1
1
1
1
1
1
1
1
1
1
1
1
1
1
1
1
1
1
1
1
1
1
1
1
1
1
1
1
1
1
1
1
1
1
1
1
1
1
1
1
1
1
1
1
1
1
1
1
1
1
1
1
1
1
1
1
1
1
1
1.777591926
2.626496536
2.688571508
2.690524583
2.691395278
2.691912444
2.69241459
2.692870947
2.693260672
2.693433519
2.693395527
2.693232014
2.692895219
2.692428343
2.691886742
2.691352345
2.690769475
2.690158064
2.689498531
2.688848447
2.688146374
2.687338466
2.686371664
2.68523169
1
1
1
1
1
1
1
1
1
1
1
1
1
1
1
1
1
1
1
1
1
1
1
1
1
1
1
1
1
1
1
1
1
1
1
1
1
1
1
1
1
1
1
1
1
1
1
1
1
1
1
1
1
1
1
1
1
1
1
1
1
1
1
1
1
1
1
1
1
1
1
1
1
1
1
1
1.776809542
2.626223211
2.688461623
2.690833218
2.691930308
2.692526539
2.692928204
2.693194636
2.69336423
2.693372437
2.693285066
2.693062176
2.692689135
2.692236659
2.691763007
2.691346528
2.690908261
2.690435345
2.689881717
2.689334029
2.688721241
2.687981361
2.687067129
2.68596886
1
1
1
1
1
1
1
1
1
1
1
1
1
1
1
1
1
1
1
1
1
1
1
1
1
1
1
1
1
1
1
1
1
1
1
1
1
1
1
1
1
1
1
1
1
1
1
1
1
1
1
1
1
1
1
1
1
1
1
1
1
1
1
1
1
1
1
1
1
1
1
1
1
1
1
1
1.776477516
2.626146341
2.688510075
2.691036354
2.692332544
2.693011408
2.693347622
2.693447551
2.693425736
2.693328907
2.693149803
2.69286163
2.692473212
2.692072585
2.691695082
2.691403137
2.691103492
2.690764508
2.690317732
2.689846136
2.689295751
2.688607599
2.687743773
2.686702495
1
1
1
1
1
1
1
1
1
1
1
1
1
1
1
1
1
1
1
1
1
1
1
1
1
1
1
1
1
1
1
1
1
1
1
1
1
1
1
1
1
1
1
1
1
1
1
1
1
1
1
1
1
1
1
1
1
1
1
1
1
1
1
1
1
1
1
1
1
1
1
1
1
1
1
1
1.776484328
2.62622873
2.68866253
2.691185022
2.69262273
2.693332162
2.693613676
2.693590636
2.693463155
2.693269134
2.693007463
2.692662146
2.692291848
2.691952158
2.691684607
2.691525983
2.691352324
2.6911392
2.690806036
2.690388505
2.689867779
2.689215699
2.688404023
2.687438956
1
1
1
1
1
1
1
1
1
1
1
1
1
1
1
1
1
1
1
1
1
1
1
1
1
1
1
1
1
1
1
1
1
1
1
1
1
1
1
1
1
1
1
1
1
1
1
1
1
1
1
1
1
1
1
1
1
1
1
1
1
1
1
1
1
1
1
1
1
1
1
1
1
1
1
1
1.776947388
2.626417886
2.689119933
2.691413171
2.692825591
2.693514607
2.693715678
2.693646656
2.693461597
2.69319845
2.692871153
2.69249613
2.692151913
2.691888092
2.691728095
2.69170296
2.69165611
2.691566278
2.691346454
2.690978176
2.690458465
2.689824803
2.689062249
2.68818595
1
1
1
1
1
1
1
1
1
1
1
1
1
1
1
1
1
1
1
1
1
1
1
1
1
1
1
1
1
1
1
1
1
1
1
1
1
1
1
1
1
1
1
1
1
1
1
1
1
1
1
1
1
1
1
1
1
1
1
1
1
1
1
1
1
1
1
1
1
1
1
1
1
1
1
1
1.777960883
2.626859909
2.68977528
2.691765338
2.693042271
2.693617072
2.693740839
2.693644321
2.693431097
2.693119205
2.692751446
2.692364636
2.692049697
2.691872792
2.691828443
2.691894183
2.692000944
2.692042632
2.691926628
2.691614665
2.691089312
2.690460163
2.689739888
2.688955975
1
1
1
1
1
1
1
1
1
1
1
1
1
1
1
1
1
1
1
1
1
1
1
1
1
1
1
1
1
1
1
1
1
1
1
1
1
1
1
1
1
1
1
1
1
1
1
1
1
1
1
1
1
1
1
1
1
1
1
1
1
1
1
1
1
1
1
1
1
1
1
1
1
1
1
1
1.779130447
2.627466674
2.690562143
2.692284757
2.69331482
2.693698204
2.693737322
2.693617785
2.693374295
2.69302911
2.692626153
2.692237793
2.691980302
2.691882305
2.691920152
2.692096954
2.692381725
2.692579075
2.692529007
2.692280202
2.691770491
2.691141615
2.690456959
2.689764156
1
1
1
1
1
1
1
1
1
1
1
1
1
1
1
1
1
1
1
1
1
1
1
1
1
1
1
1
1
1
1
1
1
1
1
1
1
1
1
1
1
1
1
1
1
1
1
1
1
1
1
1
1
1
1
1
1
1
1
1
1
1
1
1
1
1
1
1
1
1
1
1
1
1
1
1
1.779982591
2.628075425
2.691212865
2.69290078
2.693641858
2.693765926
2.693745855
2.693577377
2.693289475
2.692893579
2.692451897
2.69207962
2.691909599
2.69188956
2.692005559
2.692330698
2.692793998
2.693131961
2.693141167
2.692959439
2.692492263
2.691873829
2.691224958
2.690626238
1
1
1
1
1
1
1
1
1
1
1
1
1
1
1
1
1
1
1
1
1
1
1
1
1
1
1
1
1
1
1
1
1
1
1
1
1
1
1
1
1
1
1
1
1
1
1
1
1
1
1
1
1
1
1
1
1
1
1
1
1
1
1
1
1
1
1
1
1
1
1
1
1
1
1
1
1.78024118
2.628513297
2.6919941
2.693352774
2.693807192
2.693801216
2.693739501
2.693522553
2.693168303
2.692694088
2.692191628
2.69186072
2.691806786
2.691858447
2.692112218
2.692610115
2.69322437
2.693668762
2.693748492
2.693628328
2.693231259
2.692650694
2.692047113
2.691551801
1
1
1
1
1
1
1
1
1
1
1
1
1
1
1
1
1
1
1
1
1
1
1
1
1
1
1
1
1
1
1
1
1
1
1
1
1
1
1
1
1
1
1
1
1
1
1
1
1
1
1
1
1
1
1
1
1
1
1
1
1
1
1
1
1
1
1
1
1
1
1
1
1
1
1
1
1.780190916
2.628841472
2.692851838
2.693591742
2.693794504
2.693783545
2.693712911
2.693451851
2.693001744
2.692422383
2.691846255
2.691603097
2.691643222
2.691821283
2.692271938
2.69294231
2.693664908
2.694176675
2.694332132
2.69427239
2.693965068
2.693459693
2.692919556
2.692538463
1
1
1
1
1
1
1
1
1
1
1
1
1
1
1
1
1
1
1
1
1
1
1
1
1
1
1
1
1
1
1
1
1
1
1
1
1
1
1
1
1
1
1
1
1
1
1
1
1
1
1
1
1
1
1
1
1
1
1
1
1
1
1
1
1
1
1
1
1
1
1
1
1
1
1
1
1.780063073
2.629232424
2.69355927
2.693689919
2.693777107
2.693747171
2.69365765
2.693330347
2.692779586
2.692099912
2.691508949
2.691395268
2.691494594
2.691832567
2.692499268
2.693327826
2.694120068
2.694669616
2.694896067
2.694901007
2.694697687
2.694300004
2.693842054
2.693573351
1
1
1
1
1
1
1
1
1
1
1
1
1
1
1
1
1
1
1
1
1
1
1
1
1
1
1
1
1
1
1
1
1
1
1
1
1
1
1
1
1
1
1
1
1
1
1
1
1
1
1
1
1
1
1
1
1
1
1
1
1
1
1
1
1
1
1
1
1
1
1
1
1
1
1
1
1.78014322
2.629741082
2.693939671
2.693820044
2.69378745
2.693686138
2.693542195
2.693139113
2.692529063
2.691824308
2.691328999
2.691285349
2.691449267
2.69194525
2.692802446
2.693764469
2.694600133
2.695172444
2.695465205
2.695554522
2.695445032
2.695177157
2.694813816
2.694636938
1
1
1
1
1
1
1
1
1
1
1
1
1
1
1
1
1
1
1
1
1
1
1
1
1
1
1
1
1
1
1
1
1
1
1
1
1
1
1
1
1
1
1
1
1
1
1
1
1
1
1
1
1
1
1
1
1
1
1
1
1
1
1
1
1
1
1
1
1
1
1
1
1
1
1
1
1.780012564
2.630420258
2.694116358
2.693867023
2.693759726
2.693576332
2.693371761
2.692908675
2.69228767
2.691655088
2.691267221
2.691266777
2.691521658
2.692168863
2.693173582
2.694239648
2.695109292
2.695712861
2.696078894
2.696267031
2.696238355
2.696101664
2.695835933
2.695712437
1
1
1
1
1
1
1
1
1
1
1
1
1
1
1
1
1
1
1
1
1
1
1
1
1
1
1
1
1
1
1
1
1
1
1
1
1
1
1
1
1
1
1
1
1
1
1
1
1
1
1
1
1
1
1
1
1
1
1
1
1
1
1
1
1
1
1
1
1
1
1
1
1
1
1
1
1.779435702
2.631140408
2.69422417
2.693916123
2.693751668
2.693486683
2.693200343
2.692712718
2.692153037
2.691594505
2.691297476
2.691340665
2.6917018
2.692493256
2.693612265
2.694750214
2.695649535
2.696303195
2.696754733
2.697045149
2.697104593
2.697075948
2.696895782
2.696793017
1
1
1
1
1
1
1
1
1
1
1
1
1
1
1
1
1
1
1
1
1
1
1
1
1
1
1
1
1
1
1
1
1
1
1
1
1
1
1
1
1
1
1
1
1
1
1
1
1
1
1
1
1
1
1
1
1
1
1
1
1
1
1
1
1
1
1
1
1
1
1
1
1
1
1
1
1.778583907
2.63179644
2.694219928
2.693933851
2.693746443
2.693444063
2.693123739
2.692662818
2.692153313
2.691671097
2.691454402
2.691543643
2.692001677
2.69290516
2.694093769
2.695272531
2.69620753
2.696943793
2.697492347
2.697877635
2.698050936
2.698102586
2.697980203
2.697883272
1
1
1
1
1
1
1
1
1
1
1
1
1
1
1
1
1
1
1
1
1
1
1
1
1
1
1
1
1
1
1
1
1
1
1
1
1
1
1
1
1
1
1
1
1
1
1
1
1
1
1
1
1
1
1
1
1
1
1
1
1
1
1
1
1
1
1
1
1
1
1
1
1
1
1
1
1.777195246
2.63221702
2.69425663
2.693928182
2.693738466
2.693434731
2.693109735
2.692751326
2.692314259
2.691940319
2.691800562
2.69192214
2.692449806
2.693408515
2.694622859
2.695796187
2.696755079
2.697627623
2.698287965
2.698769586
2.699053061
2.699183173
2.699083446
2.698980017
1
1
1
1
1
1
1
1
1
1
1
1
1
1
1
1
1
1
1
1
1
1
1
1
1
1
1
1
1
1
1
1
1
1
1
1
1
1
1
1
1
1
1
1
1
1
1
1
1
1
1
1
1
1
1
1
1
1
1
1
1
1
1
1
1
1
1
1
1
1
1
1
1
1
1
1
1.775055954
2.632392554
2.694368099
2.693927781
2.693700475
2.693377309
2.693068907
2.692858262
2.692585056
2.692390818
2.692360782
2.69252706
2.693083444
2.693998747
2.695148987
2.696288263
2.697290573
2.698314612
2.69910017
2.699702165
2.700095924
2.700294307
2.700208401
2.70008347
1
1
1
1
1
1
1
1
1
1
1
1
1
1
1
1
1
1
1
1
1
1
1
1
1
1
1
1
1
1
1
1
1
1
1
1
1
1
1
1
1
1
1
1
1
1
1
1
1
1
1
1
1
1
1
1
1
1
1
1
1
1
1
1
1
1
1
1
1
1
1
1
1
1
1
1
1.772828741
2.632501309
2.694590118
2.69391863
2.693552669
2.69312702
2.692912029
2.692870124
2.69283261
2.692915618
2.693087982
2.69337521
2.693904158
2.69469619
2.695687893
2.696735976
2.697791495
2.698945547
2.699887868
2.700653541
2.701166859
2.701430123
2.701348903
2.701191724
1
1
1
1
1
1
1
1
1
1
1
1
1
1
1
1
1
1
1
1
1
1
1
1
1
1
1
1
1
1
1
1
1
1
1
1
1
1
1
1
1
1
1
1
1
1
1
1
1
1
1
1
1
1
1
1
1
1
1
1
1
1
1
1
1
1
1
1
1
1
1
1
1
1
1
1
1.770964882
2.632795684
2.694698194
2.693765862
2.693217114
2.69268306
2.692577985
2.692653345
2.692918158
2.693418746
2.693965781
2.694432633
2.694882397
2.695462276
2.696207095
2.697132135
2.698224936
2.699488465
2.700622123
2.701602117
2.702250355
2.702581917
2.702493816
2.702302916
1
1
1
1
1
1
1
1
1
1
1
1
1
1
1
1
1
1
1
1
1
1
1
1
1
1
1
1
1
1
1
1
1
1
1
1
1
1
1
1
1
1
1
1
1
1
1
1
1
1
1
1
1
1
1
1
1
1
1
1
1
1
1
1
1
1
1
1
1
1
1
1
1
1
1
1
1.76854206
2.633195201
2.69472913
2.693471299
2.692653372
2.692012257
2.691996167
2.692246539
2.692936916
2.693945352
2.694922119
2.695561805
2.695899534
2.696220227
2.696664972
2.697453062
2.69859653
2.699979068
2.701327738
2.702550412
2.703339058
2.70373247
2.703624453
2.703405514
1
1
1
1
1
1
1
1
1
1
1
1
1
1
1
1
1
1
1
1
1
1
1
1
1
1
1
1
1
1
1
1
1
1
1
1
1
1
1
1
1
1
1
1
1
1
1
1
1
1
1
1
1
1
1
1
1
1
1
1
1
1
1
1
1
1
1
1
1
1
1
1
1
1
1
1
1.764275394
2.632987413
2.694584037
2.693152526
2.69204985
2.691281453
2.691301515
2.691819472
2.692973724
2.694497839
2.695869384
2.696622593
2.696811723
2.696866598
2.697032863
2.697715919
2.698923321
2.700457399
2.702042195
2.703505258
2.704422989
2.704851808
2.704712407
2.704473059
1
1
1
1
1
1
1
1
1
1
1
1
1
1
1
1
1
1
1
1
1
1
1
1
1
1
1
1
1
1
1
1
1
1
1
1
1
1
1
1
1
1
1
1
1
1
1
1
1
1
1
1
1
1
1
1
1
1
1
1
1
1
1
1
1
1
1
1
1
1
1
1
1
1
1
1
1.757833963
2.631834578
2.694440778
2.693055149
2.691712067
2.690804247
2.690855494
2.691594195
2.693136954
2.695069327
2.696698823
2.697475623
2.697514059
2.697356343
2.697352191
2.697975582
2.699272377
2.700997335
2.702825432
2.70448635
2.705492361
2.705903872
2.705722244
2.705466695
1
1
1
1
1
1
1
1
1
1
1
1
1
1
1
1
1
1
1
1
1
1
1
1
1
1
1
1
1
1
1
1
1
1
1
1
1
1
1
1
1
1
1
1
1
1
1
1
1
1
1
1
1
1
1
1
1
1
1
1
1
1
1
1
1
1
1
1
1
1
1
1
1
1
1
1
1.750127581
2.629574976
2.694354186
2.693154889
2.691829961
2.690787158
2.690807362
2.69163619
2.693433153
2.695599839
2.697299061
2.698013002
2.697960279
2.697672114
2.697643833
2.698292503
2.69972165
2.701665175
2.703718281
2.705504175
2.706532434
2.706852792
2.70662195
2.706355145
1
1
1
1
1
1
1
1
1
1
1
1
1
1
1
1
1
1
1
1
1
1
1
1
1
1
1
1
1
1
1
1
1
1
1
1
1
1
1
1
1
1
1
1
1
1
1
1
1
1
1
1
1
1
1
1
1
1
1
1
1
1
1
1
1
1
1
1
1
1
1
1
1
1
1
1
1.742824982
2.626331613
2.694557367
2.693350088
2.692223297
2.691118353
2.691143019
2.69202703
2.693911187
2.696106641
2.69770903
2.698319161
2.698225702
2.69792001
2.697931764
2.698686327
2.700315929
2.702497898
2.704731815
2.706556882
2.707521301
2.707674732
2.707397382
2.707126826
1
1
1
1
1
1
1
1
1
1
1
1
1
1
1
1
1
1
1
1
1
1
1
1
1
1
1
1
1
1
1
1
1
1
1
1
1
1
1
1
1
1
1
1
1
1
1
1
1
1
1
1
1
1
1
1
1
1
1
1
1
1
1
1
1
1
1
1
1
1
1
1
1
1
1
1
1.735972389
2.62358197
2.694233806
2.69326732
2.692711237
2.691805161
2.691884894
2.692802984
2.694552497
2.696550979
2.697944907
2.69845113
2.698373681
2.698166415
2.698273342
2.699222539
2.701097374
2.70350474
2.705839012
2.707601357
2.708411049
2.70837273
2.708054045
2.707802064
1
1
1
1
1
1
1
1
1
1
1
1
1
1
1
1
1
1
1
1
1
1
1
1
1
1
1
1
1
1
1
1
1
1
1
1
1
1
1
1
1
1
1
1
1
1
1
1
1
1
1
1
1
1
1
1
1
1
1
1
1
1
1
1
1
1
1
1
1
1
1
1
1
1
1
1
1.728229757
2.620666129
2.6940329
2.69314277
2.693045474
2.692576491
2.692843938
2.693812445
2.695273688
2.696929944
2.698075846
2.698497356
2.698476417
2.698409445
2.69871858
2.699961417
2.70209659
2.704670024
2.706996632
2.708578139
2.709144601
2.708981843
2.708636499
2.708451716
1
1
1
1
1
1
1
1
1
1
1
1
1
1
1
1
1
1
1
1
1
1
1
1
1
1
1
1
1
1
1
1
1
1
1
1
1
1
1
1
1
1
1
1
1
1
1
1
1
1
1
1
1
1
1
1
1
1
1
1
1
1
1
1
1
1
1
1
1
1
1
1
1
1
1
1
1.717347766
2.617131625
2.693590173
2.692736609
2.693022111
2.693201939
2.693860892
2.694889402
2.69602493
2.697246142
2.698122627
2.698495211
2.698552813
2.69867533
2.699344041
2.700944421
2.703302337
2.705925585
2.708121225
2.709441642
2.709726336
2.709507737
2.709224313
2.709177876
1
1
1
1
1
1
1
1
1
1
1
1
1
1
1
1
1
1
1
1
1
1
1
1
1
1
1
1
1
1
1
1
1
1
1
1
1
1
1
1
1
1
1
1
1
1
1
1
1
1
1
1
1
1
1
1
1
1
1
1
1
1
1
1
1
1
1
1
1
1
1
1
1
1
1
1
1.704540558
2.613279086
2.69347167
2.692405714
2.692879294
2.693682709
2.694838244
2.695860385
2.696671711
2.697450421
2.69804281
2.698401429
2.69861526
2.699070958
2.700201316
2.702164283
2.70466293
2.70719104
2.709132125
2.710145024
2.710197323
2.710026966
2.709904316
2.710101832
1
1
1
1
1
1
1
1
1
1
1
1
1
1
1
1
1
1
1
1
1
1
1
1
1
1
1
1
1
1
1
1
1
1
1
1
1
1
1
1
1
1
1
1
1
1
1
1
1
1
1
1
1
1
1
1
1
1
1
1
1
1
1
1
1
1
1
1
1
1
1
1
1
1
1
1
1.691787741
2.609592898
2.69308471
2.691986371
2.692858284
2.694281548
2.695796992
2.696718804
2.697203246
2.697565537
2.697879217
2.698274302
2.69874919
2.699674559
2.701299639
2.703567544
2.706085967
2.70837765
2.709959971
2.710675274
2.710649493
2.710601657
2.710719615
2.711238132
1
1
1
1
1
1
1
1
1
1
1
1
1
1
1
1
1
1
1
1
1
1
1
1
1
1
1
1
1
1
1
1
1
1
1
1
1
1
1
1
1
1
1
1
1
1
1
1
1
1
1
1
1
1
1
1
1
1
1
1
1
1
1
1
1
1
1
1
1
1
1
1
1
1
1
1
1.678444539
2.605832064
2.692557579
2.691732178
2.693141326
2.695034796
2.696651422
2.697366123
2.697528796
2.697541965
2.697665269
2.698168471
2.699020083
2.700490047
2.702570903
2.705034139
2.707436326
2.70939148
2.710586619
2.711090504
2.711116708
2.71129006
2.711736185
2.712597687
1
1
1
1
1
1
1
1
1
1
1
1
1
1
1
1
1
1
1
1
1
1
1
1
1
1
1
1
1
1
1
1
1
1
1
1
1
1
1
1
1
1
1
1
1
1
1
1
1
1
1
1
1
1
1
1
1
1
1
1
1
1
1
1
1
1
1
1
1
1
1
1
1
1
1
1
1.663535774
2.601332759
2.691961711
2.691557402
2.693596218
2.695808864
2.697368321
2.69784773
2.697735297
2.697445064
2.697513064
2.698156784
2.699460396
2.701471086
2.703913984
2.706445602
2.708613775
2.710182506
2.711037034
2.711470495
2.711661498
2.712124897
2.712928833
2.714090933
1
1
1
1
1
1
1
1
1
1
1
1
1
1
1
1
1
1
1
1
1
1
1
1
1
1
1
1
1
1
1
1
1
1
1
1
1
1
1
1
1
1
1
1
1
1
1
1
1
1
1
1
1
1
1
1
1
1
1
1
1
1
1
1
1
1
1
1
1
1
1
1
1
1
1
1
1.646986888
2.596158894
2.691337242
2.691497503
2.694095109
2.696482477
2.697911283
2.698186749
2.697876229
2.697382484
2.697474683
2.698307956
2.700070966
2.702540142
2.705220446
2.707712415
2.709580092
2.710784325
2.711418453
2.71187462
2.712280099
2.713068946
2.71421496
2.715593831
1
1
1
1
1
1
1
1
1
1
1
1
1
1
1
1
1
1
1
1
1
1
1
1
1
1
1
1
1
1
1
1
1
1
1
1
1
1
1
1
1
1
1
1
1
1
1
1
1
1
1
1
1
1
1
1
1
1
1
1
1
1
1
1
1
1
1
1
1
1
1
1
1
1
1
1
1.629217005
2.590645912
2.690516959
2.691559986
2.694569024
2.696984952
2.698278808
2.698422917
2.697982722
2.697419763
2.697594253
2.698667755
2.700828774
2.703636115
2.706436457
2.708822429
2.710386541
2.711298624
2.711817933
2.71231418
2.712948827
2.7140502
2.715503916
2.71703225
1
1
1
1
1
1
1
1
1
1
1
1
1
1
1
1
1
1
1
1
1
1
1
1
1
1
1
1
1
1
1
1
1
1
1
1
1
1
1
1
1
1
1
1
1
1
1
1
1
1
1
1
1
1
1
1
1
1
1
1
1
1
1
1
1
1
1
1
1
1
1
1
1
1
1
1
1.610017015
2.584861338
2.689569511
2.691628703
2.694973004
2.697377032
2.698565562
2.698632049
2.698131548
2.697609836
2.697909895
2.699210203
2.701673424
2.704705425
2.707543508
2.709800874
2.711104342
2.711817596
2.712268323
2.712798799
2.713653494
2.715041903
2.716764489
2.718403808
1
1
1
1
1
1
1
1
1
1
1
1
1
1
1
1
1
1
1
1
1
1
1
1
1
1
1
1
1
1
1
1
1
1
1
1
1
1
1
1
1
1
1
1
1
1
1
1
1
1
1
1
1
1
1
1
1
1
1
1
1
1
1
1
1
1
1
1
1
1
1
1
1
1
1
1
1.589438332
2.57843878
2.688639815
2.691678416
2.695293843
2.697676061
2.698814829
2.698850791
2.698359785
2.697973858
2.698390483
2.699870187
2.702547911
2.705729347
2.708562171
2.710694661
2.711799757
2.712389782
2.712769089
2.713340764
2.714401895
2.716057795
2.718015876
2.7197471
1
1
1
1
1
1
1
1
1
1
1
1
1
1
1
1
1
1
1
1
1
1
1
1
1
1
1
1
1
1
1
1
1
1
1
1
1
1
1
1
1
1
1
1
1
1
1
1
1
1
1
1
1
1
1
1
1
1
1
1
1
1
1
1
1
1
1
1
1
1
1
1
1
1
1
1
1.566937376
2.571205581
2.687688406
2.69157384
2.695488411
2.697875128
2.699010019
2.699053832
2.698637623
2.698423893
2.698944073
2.700597599
2.703453116
2.706750609
2.70954865
2.711543501
2.7124821
2.712977633
2.713305737
2.713969759
2.715274869
2.717202155
2.719343872
2.721104459
1
1
1
1
1
1
1
1
1
1
1
1
1
1
1
1
1
1
1
1
1
1
1
1
1
1
1
1
1
1
1
1
1
1
1
1
1
1
1
1
1
1
1
1
1
1
1
1
1
1
1
1
1
1
1
1
1
1
1
1
1
1
1
1
1
1
1
1
1
1
1
1
1
1
1
1
1.542155032
2.563102583
2.686799144
2.691275543
2.695542204
2.697955534
2.699109441
2.699166471
2.698874849
2.698840978
2.699511964
2.701397371
2.70443559
2.707824101
2.710546337
2.712379522
2.713151802
2.713555658
2.713905564
2.714745969
2.716339497
2.718532754
2.720793048
2.722484065
1
1
1
1
1
1
1
1
1
1
1
1
1
1
1
1
1
1
1
1
1
1
1
1
1
1
1
1
1
1
1
1
1
1
1
1
1
1
1
1
1
1
1
1
1
1
1
1
1
1
1
1
1
1
1
1
1
1
1
1
1
1
1
1
1
1
1
1
1
1
1
1
1
1
1
1
1.515072943
2.554181181
2.68607592
2.690869028
2.695422489
2.697847963
2.699037593
2.699162285
2.699029906
2.69918876
2.700124399
2.702332387
2.705567809
2.708981693
2.711528034
2.713140995
2.713742535
2.714109449
2.714603163
2.715751079
2.717685567
2.720097384
2.722358938
2.723879962
1
1
1
1
1
1
1
1
1
1
1
1
1
1
1
1
1
1
1
1
1
1
1
1
1
1
1
1
1
1
1
1
1
1
1
1
1
1
1
1
1
1
1
1
1
1
1
1
1
1
1
1
1
1
1
1
1
1
1
1
1
1
1
1
1
1
1
1
1
1
1
1
1
1
1
1
1.485972535
2.544341047
2.685621043
2.690490517
2.695126787
2.697496789
2.6987161
2.699015451
2.699128214
2.699564337
2.700883215
2.703477631
2.706868529
2.710195802
2.712480189
2.713836113
2.714291684
2.714729124
2.715486247
2.717025619
2.719294803
2.72184735
2.723988511
2.725275178
1
1
1
1
1
1
1
1
1
1
1
1
1
1
1
1
1
1
1
1
1
1
1
1
1
1
1
1
1
1
1
1
1
1
1
1
1
1
1
1
1
1
1
1
1
1
1
1
1
1
1
1
1
1
1
1
1
1
1
1
1
1
1
1
1
1
1
1
1
1
1
1
1
1
1
1
1.455014831
2.533227337
2.685533252
2.690253315
2.69475308
2.69697085
2.698192635
2.698737183
2.699199298
2.700046754
2.701894992
2.704875911
2.708287512
2.711337266
2.713266467
2.714369338
2.714788912
2.715427724
2.7165714
2.718546938
2.721101657
2.723692264
2.725636931
2.726679209
1
1
1
1
1
1
1
1
1
1
1
1
1
1
1
1
1
1
1
1
1
1
1
1
1
1
1
1
1
1
1
1
1
1
1
1
1
1
1
1
1
1
1
1
1
1
1
1
1
1
1
1
1
1
1
1
1
1
1
1
1
1
1
1
1
1
1
1
1
1
1
1
1
1
1
1
1.42163469
2.520317728
2.685786471
2.690203238
2.694410681
2.696396258
2.697603824
2.698428142
2.699313412
2.700734062
2.70319066
2.706461855
2.709729726
2.712374723
2.713929729
2.714815592
2.715352308
2.716308236
2.717876153
2.720230805
2.722962691
2.725487211
2.727207465
2.728046915
1
1
1
1
1
1
1
1
1
1
1
1
1
1
1
1
1
1
1
1
1
1
1
1
1
1
1
1
1
1
1
1
1
1
1
1
1
1
1
1
1
1
1
1
1
1
1
1
1
1
1
1
1
1
1
1
1
1
1
1
1
1
1
1
1
1
1
1
1
1
1
1
1
1
1
1
1.385187265
2.505204365
2.6864797
2.69034544
2.694034068
2.695764895
2.697021052
2.698217337
2.699637188
2.701736039
2.70469742
2.708020317
2.710948222
2.713141256
2.714393518
2.7151853
2.715960389
2.717303939
2.719286835
2.721935217
2.724742678
2.727167744
2.728703593
2.729444936
1
1
1
1
1
1
1
1
1
1
1
1
1
1
1
1
1
1
1
1
1
1
1
1
1
1
1
1
1
1
1
1
1
1
1
1
1
1
1
1
1
1
1
1
1
1
1
1
1
1
1
1
1
1
1
1
1
1
1
1
1
1
1
1
1
1
1
1
1
1
1
1
1
1
1
1
1.345593686
2.487871031
2.687663903
2.690528284
2.693466618
2.695055729
2.696468271
2.698100841
2.700166673
2.702942909
2.706230791
2.709415836
2.711927515
2.713703684
2.714753581
2.715603482
2.71667297
2.718392866
2.720712519
2.723543036
2.726347711
2.728695701
2.730138334
2.730916579
1
1
1
1
1
1
1
1
1
1
1
1
1
1
1
1
1
1
1
1
1
1
1
1
1
1
1
1
1
1
1
1
1
1
1
1
1
1
1
1
1
1
1
1
1
1
1
1
1
1
1
1
1
1
1
1
1
1
1
1
1
1
1
1
1
1
1
1
1
1
1
1
1
1
1
1
1.303811108
2.468965509
2.689281418
2.690808332
2.69286144
2.694325306
2.695957657
2.698054109
2.7007699
2.704082627
2.707497247
2.710448737
2.712604395
2.714089103
2.715081902
2.716092591
2.71745331
2.719471098
2.722028574
2.724963354
2.727777891
2.730139531
2.731628353
2.732577592
1
1
1
1
1
1
1
1
1
1
1
1
1