/*--------------------------------*- C++ -*----------------------------------*\
  =========                 |
  \\      /  F ield         | OpenFOAM: The Open Source CFD Toolbox
   \\    /   O peration     | Website:  https://openfoam.org
    \\  /    A nd           | Version:  7
     \\/     M anipulation  |
\*---------------------------------------------------------------------------*/
FoamFile
{
    version     2.0;
    format      ascii;
    class       volScalarField;
    location    "1.9";
    object      rho;
}
// * * * * * * * * * * * * * * * * * * * * * * * * * * * * * * * * * * * * * //

dimensions      [1 -3 0 0 0 0 0];

internalField   nonuniform List<scalar> 
2222
(
1.822932523
1.82132755
1.821488087
1.821026093
1.819849247
1.8193273
1.819417552
1.8086969
1.808897892
1.809787248
1.809257581
1.808988124
1.809272724
1.81043506
1.81264855
1.815233513
1.817687947
1.819708207
1.821691858
1.824018777
1.82557677
1.826264527
1.826845417
1.827213327
1.827197398
1.826740668
1.82582846
1.824576231
1.824084441
1.823992338
1.824026027
1.824103111
1.824068467
1.808696653
1.808897323
1.809787049
1.809257951
1.80898846
1.809272952
1.810435025
1.812648337
1.815233372
1.817687925
1.819708296
1.821691863
1.824018769
1.825576884
1.826264551
1.826845285
1.827213182
1.827197349
1.826740737
1.825828685
1.824576483
1.824084358
1.823992209
1.824025817
1.824102999
1.824068484
1.824007303
1.823933159
1.823890915
1.823820687
1.82377878
1.82381811
1.824108881
1.824592686
1.82479578
1.824741442
1.824589853
1.82434618
1.82417747
1.82412976
1.824133521
1.824353605
1.82464978
1.824642677
1.824508385
1.824253991
1.824015001
1.823940917
1.823917544
1.823952522
1.824174208
1.824362239
1.824331468
1.824204626
1.824004843
1.823859221
1.823821839
1.823807081
1.823845614
1.824000342
1.824077218
1.824047404
1.823990054
1.823944854
1.823926278
1.823921218
1.823969732
1.822932953
1.821327184
1.821487817
1.821026308
1.819849592
1.819327405
1.819417542
1.82009045
1.820895322
1.821025983
1.820862374
1.820670104
1.820154685
1.819632672
1.819422679
1.819553455
1.820410414
1.821618451
1.822001775
1.821896979
1.82179666
1.822010535
1.822437662
1.822908067
1.823447032
1.824182099
1.824756106
1.824829597
1.824782717
1.82457779
1.824172012
1.824031728
1.824023061
1.824153129
1.824394731
1.82444763
1.824426235
1.82430817
1.824045829
1.823922593
1.823922776
1.824000516
1.824208291
1.824384734
1.824398101
1.824366507
1.824269968
1.824101901
1.824009547
1.823995571
1.824048296
1.824203471
1.824263428
1.82422901
1.824149618
1.824026281
1.823918638
1.823896264
1.823898182
1.823955034
1.824071665
1.8241593
1.824170993
1.824160735
1.824147112
1.824140268
1.824152895
1.838251135
1.835399315
1.83219597
1.830033438
1.828617859
1.826906207
1.824248529
1.82307477
1.822156065
1.820276045
1.818233131
1.816790435
1.815241164
1.813740257
1.813638526
1.814068464
1.815561066
1.818126489
1.820686547
1.822392384
1.823319941
1.824007038
1.824461247
1.824717998
1.824955676
1.825322069
1.82542831
1.825334938
1.824925969
1.824306037
1.823728026
1.823548167
1.823549841
1.823613692
1.823854861
1.824093918
1.824178475
1.82424804
1.824259352
1.824226171
1.82426605
1.824307956
1.824361983
1.824476827
1.824529687
1.824548552
1.824543524
1.824459157
1.824311299
1.824229724
1.824226708
1.824238478
1.824276823
1.82431724
1.824331281
1.82432811
1.824284551
1.82424106
1.824249153
1.824274522
1.82432094
1.824396916
1.824442368
1.824454879
1.82445528
1.824421569
1.824391359
1.85416961
1.854965368
1.854370688
1.852666298
1.849939335
1.846532592
1.842334489
1.838155408
1.834877319
1.831151446
1.826533029
1.823413742
1.821752463
1.82002541
1.818085079
1.817794567
1.818189637
1.819393581
1.820505725
1.82082132
1.820897391
1.820854793
1.820984456
1.821422303
1.822031155
1.822771869
1.823286853
1.823403157
1.823343325
1.823350703
1.823631985
1.823960068
1.824164524
1.824373056
1.824642998
1.824793083
1.824794225
1.824773361
1.824721225
1.82464828
1.824576828
1.824514428
1.824485626
1.824456895
1.824420146
1.824393308
1.82438305
1.824369707
1.824332885
1.824294464
1.824323434
1.824381972
1.824458676
1.824566459
1.824637192
1.824665128
1.824670307
1.824628279
1.824600671
1.824606456
1.824617537
1.824647646
1.824667812
1.824679246
1.824679116
1.824637627
1.824578331
1.852516922
1.854249111
1.853864256
1.852992442
1.849823203
1.844193332
1.838451942
1.835861686
1.833704525
1.833740397
1.833474952
1.832757964
1.83175065
1.830753121
1.828799047
1.826853611
1.82516608
1.823531735
1.821910922
1.820427295
1.819404815
1.819103989
1.818744181
1.818621371
1.818743607
1.819203453
1.820035545
1.820882286
1.821641389
1.822270492
1.823054725
1.823580795
1.823728992
1.823882123
1.824094255
1.824355912
1.824426044
1.824448646
1.82455927
1.824603494
1.824591639
1.824545828
1.824475037
1.824454234
1.824478573
1.82456476
1.824677512
1.824711451
1.824724689
1.824708391
1.824712733
1.824774941
1.824858445
1.824954458
1.82500201
1.825007116
1.824981104
1.824927894
1.824900472
1.824886957
1.824862081
1.824790943
1.824745662
1.824714731
1.824689793
1.824654567
1.824609563
1.799887612
1.813558293
1.818081806
1.825339319
1.828937732
1.831004812
1.835784802
1.842154178
1.842942974
1.843451533
1.844959384
1.846871285
1.84669812
1.845871836
1.844256956
1.841653739
1.837849886
1.83379093
1.830555433
1.826716821
1.823560176
1.822467107
1.821743512
1.820902304
1.820148919
1.819915792
1.819960498
1.820272206
1.820865721
1.82175275
1.822792125
1.823351372
1.823387512
1.823224882
1.823094763
1.823245546
1.823420392
1.823571798
1.823876971
1.824121258
1.824180118
1.824199802
1.824276305
1.824386045
1.824533293
1.824773087
1.825030284
1.825102204
1.825113202
1.8250871
1.82502817
1.82503475
1.82506984
1.825095916
1.825091541
1.825077328
1.825059029
1.825005865
1.824889967
1.824798924
1.824819892
1.824892565
1.824934777
1.824942401
1.824930037
1.82490405
1.824858584
1.682481665
1.72280573
1.749991592
1.776023064
1.803992889
1.819696468
1.832066602
1.841699886
1.842213689
1.843398795
1.845590236
1.845461282
1.845501033
1.844329331
1.841516632
1.837486243
1.834256998
1.831897818
1.831028868
1.831141806
1.83121144
1.831229097
1.830907968
1.829786208
1.827653814
1.825716545
1.824617682
1.823984606
1.823124411
1.822585532
1.822338796
1.821972657
1.821417427
1.820727823
1.820338923
1.820414767
1.820761048
1.821432218
1.822469374
1.823404421
1.824006809
1.824294527
1.824468555
1.824597775
1.824727013
1.824938413
1.825280587
1.825475212
1.825485925
1.825445815
1.825250347
1.824965693
1.824808498
1.824786887
1.824798154
1.824821771
1.824837487
1.824835692
1.824816156
1.824777579
1.824793718
1.824851889
1.824947864
1.825080084
1.825144184
1.825144487
1.8251207
1.491893069
1.531836986
1.57394513
1.611086863
1.655874724
1.692831615
1.727951151
1.760882961
1.776109978
1.79220235
1.806626787
1.810667039
1.817304227
1.821819406
1.824617733
1.829508208
1.836197819
1.838231922
1.838788848
1.840271066
1.842933152
1.843313254
1.842637485
1.841065013
1.83875547
1.835437667
1.832301799
1.829016174
1.825812829
1.823329322
1.822705384
1.822518049
1.822154721
1.82159307
1.821286571
1.821322241
1.821571331
1.822073839
1.822843647
1.823608645
1.8236544
1.823597207
1.823451967
1.823369933
1.823466916
1.823671997
1.824037083
1.824384904
1.824518563
1.824591159
1.824613671
1.824628923
1.824644332
1.824689478
1.824838804
1.825074338
1.825208589
1.825218132
1.825190583
1.825112309
1.825065805
1.825067151
1.825114673
1.825242896
1.825352151
1.825357632
1.825332544
1.409371464
1.417766084
1.431701515
1.449629628
1.476439445
1.510912259
1.546530259
1.590185636
1.631547566
1.671720806
1.71429271
1.742875988
1.768242976
1.794058409
1.809291051
1.82187478
1.833651288
1.83477838
1.835975656
1.839420283
1.840393366
1.840284381
1.839483461
1.836767049
1.833360558
1.830520176
1.8296222
1.8299562
1.82963597
1.828975726
1.828594142
1.828977811
1.828886744
1.827767497
1.826577942
1.826097721
1.825456866
1.82485519
1.824415209
1.823894016
1.823176305
1.8224429
1.821876235
1.821788073
1.821871757
1.822079346
1.822481699
1.822933427
1.823266954
1.82354414
1.823916169
1.824254369
1.824480457
1.824683763
1.824994228
1.825400045
1.825572862
1.825566995
1.825484731
1.82532052
1.825158078
1.825074848
1.825073792
1.825160963
1.825328776
1.825378001
1.82534685
1.400200271
1.400536853
1.401370724
1.403110931
1.406517077
1.413025411
1.423054291
1.439259748
1.46264745
1.488852784
1.526220985
1.568792867
1.605525306
1.649865632
1.685935432
1.717596679
1.752472611
1.768720114
1.783491855
1.801770575
1.805871593
1.811124262
1.816966252
1.819169004
1.822621803
1.829532611
1.834352392
1.836246687
1.837712893
1.840090058
1.840226635
1.839571026
1.838213414
1.836338853
1.834058284
1.831580062
1.829611843
1.826886366
1.824573714
1.823487997
1.822963615
1.82247691
1.822276057
1.822268291
1.822319036
1.822576366
1.823194006
1.823850177
1.824230593
1.82420974
1.824038759
1.82382403
1.823763986
1.823834168
1.824035113
1.824359185
1.824636889
1.82473604
1.824757556
1.824802297
1.824885769
1.824954402
1.825072534
1.825247701
1.82539555
1.825429368
1.825398301
1.400005644
1.400007617
1.400015135
1.400040755
1.400116353
1.400331949
1.40086571
1.402031502
1.404596085
1.409157945
1.417113328
1.430890382
1.44861662
1.47397146
1.508122826
1.542570552
1.584978189
1.627594635
1.664405393
1.706879801
1.736980478
1.759604416
1.787163387
1.80372826
1.813856781
1.826481186
1.831181087
1.831537069
1.834251898
1.836679944
1.836446416
1.835853898
1.833751647
1.830642813
1.827686639
1.827339724
1.827663743
1.828120685
1.827884901
1.827795399
1.827754124
1.828080084
1.828193791
1.827616895
1.82646907
1.82578287
1.825431484
1.824975291
1.824444275
1.823881008
1.823258837
1.822969023
1.822843963
1.822852951
1.822927448
1.823108127
1.823391237
1.823730464
1.8240324
1.824264173
1.824623873
1.824926639
1.82510295
1.825228836
1.825354311
1.82543336
1.825429114
1.40000504
1.400005042
1.400005049
1.400005095
1.400005321
1.400006331
1.40001035
1.400024335
1.400069465
1.400199907
1.400531816
1.401352092
1.403102205
1.406417035
1.412810843
1.422845845
1.438178011
1.461812004
1.488134974
1.522082006
1.565836419
1.601864187
1.642773517
1.68263594
1.711080455
1.74582706
1.765141718
1.777392108
1.794875999
1.802175091
1.805854171
1.812563511
1.81617353
1.819082789
1.824349796
1.830268701
1.833700168
1.835095879
1.836814014
1.837242483
1.83687877
1.836193527
1.835073294
1.833203063
1.83071306
1.828807007
1.82663059
1.824603378
1.823616018
1.823177627
1.822994574
1.823101893
1.823204934
1.823219358
1.823298646
1.823655356
1.824146112
1.824553821
1.824683576
1.824639808
1.824456273
1.824417932
1.824394272
1.824351369
1.824401752
1.824564319
1.824863904
1.40000504
1.40000504
1.40000504
1.40000504
1.40000504
1.400005041
1.400005044
1.400005064
1.400005169
1.400005666
1.400007709
1.400015383
1.400041657
1.400118607
1.400333622
1.400878291
1.402041071
1.404571761
1.409279375
1.416857251
1.430349339
1.448794654
1.472416279
1.506587426
1.541737507
1.580440763
1.624409097
1.660518196
1.700539702
1.733580024
1.754945236
1.778403373
1.800373279
1.810213899
1.819233302
1.828836428
1.829257965
1.829969155
1.832856443
1.833185551
1.832816588
1.831415847
1.828978367
1.826297042
1.825530429
1.825997064
1.826824147
1.826802306
1.82689584
1.827197936
1.827607084
1.828037922
1.827882377
1.827078139
1.825977306
1.825541205
1.825099996
1.824646499
1.824298971
1.823915041
1.823631778
1.823622495
1.823596582
1.823532627
1.823565534
1.823741023
1.824145693
1.40000504
1.40000504
1.40000504
1.40000504
1.40000504
1.40000504
1.40000504
1.40000504
1.40000504
1.40000504
1.400005042
1.40000505
1.400005099
1.400005339
1.400006401
1.400010609
1.400025239
1.40007167
1.400206838
1.400547022
1.401366199
1.403181241
1.406522722
1.412787073
1.423226201
1.437924541
1.460946532
1.488902462
1.519895209
1.563130292
1.602643702
1.63796141
1.679654835
1.709055254
1.737439419
1.765137967
1.775540605
1.78741045
1.800135505
1.802898619
1.807836274
1.812840265
1.816679065
1.8213768
1.826882441
1.831407147
1.832968043
1.834357356
1.834991757
1.83478871
1.83445219
1.833724825
1.83225832
1.830076645
1.828163996
1.826250757
1.824503783
1.823723224
1.823470334
1.823518496
1.823705998
1.823972302
1.824133253
1.824168015
1.824302872
1.82455717
1.824889702
1.40000504
1.40000504
1.40000504
1.40000504
1.40000504
1.40000504
1.40000504
1.40000504
1.40000504
1.40000504
1.40000504
1.40000504
1.40000504
1.40000504
1.400005041
1.400005044
1.400005066
1.400005182
1.400005721
1.400007933
1.400016099
1.400044064
1.400126395
1.4003463
1.400914726
1.402128453
1.404611579
1.409546827
1.417273509
1.430116875
1.449762054
1.472731074
1.504986099
1.543184065
1.57941336
1.621961932
1.660171275
1.695148814
1.731712912
1.754749424
1.773846275
1.795466198
1.807683071
1.815757993
1.825477156
1.82748871
1.827754549
1.829402897
1.830815815
1.830578154
1.829461397
1.827243916
1.824603936
1.824432159
1.825037129
1.825763259
1.826092849
1.826440585
1.826686804
1.826987259
1.827509726
1.82771937
1.82746077
1.826651787
1.825894345
1.825242419
1.824639059
1.40000504
1.40000504
1.40000504
1.40000504
1.40000504
1.40000504
1.40000504
1.40000504
1.40000504
1.40000504
1.40000504
1.40000504
1.40000504
1.40000504
1.40000504
1.40000504
1.40000504
1.40000504
1.40000504
1.400005042
1.400005052
1.400005107
1.400005377
1.400006546
1.400011142
1.40002713
1.400076667
1.400220304
1.400587698
1.401422049
1.40331019
1.406846749
1.4129744
1.423845841
1.43898831
1.460736489
1.490689811
1.521339634
1.560565498
1.603868736
1.639685094
1.67756906
1.707973261
1.734577646
1.762488982
1.773728532
1.784909539
1.797802207
1.800962985
1.80559197
1.810495188
1.814502082
1.819170959
1.824399985
1.830205236
1.831713747
1.832890293
1.833490629
1.83316886
1.832677775
1.832037051
1.831036689
1.829594308
1.827915024
1.825890275
1.824425693
1.82355206
1.40000504
1.40000504
1.40000504
1.40000504
1.40000504
1.40000504
1.40000504
1.40000504
1.40000504
1.40000504
1.40000504
1.40000504
1.40000504
1.40000504
1.40000504
1.40000504
1.40000504
1.40000504
1.40000504
1.40000504
1.40000504
1.40000504
1.40000504
1.400005041
1.400005045
1.400005071
1.400005204
1.400005818
1.400008334
1.400017366
1.400047707
1.400138824
1.400373614
1.400969488
1.402297567
1.404831998
1.409921122
1.418150838
1.43097586
1.450846921
1.474905679
1.506318842
1.544154731
1.581533918
1.623540451
1.660953938
1.693556793
1.731124476
1.754780735
1.772850352
1.794300092
1.806098985
1.812851942
1.822586347
1.826779626
1.826751104
1.827547109
1.829117652
1.828817196
1.827791895
1.825734019
1.823446732
1.823477941
1.82392376
1.824947443
1.825691152
1.826081008
1.40000504
1.40000504
1.40000504
1.40000504
1.40000504
1.40000504
1.40000504
1.40000504
1.40000504
1.40000504
1.40000504
1.40000504
1.40000504
1.40000504
1.40000504
1.40000504
1.40000504
1.40000504
1.40000504
1.40000504
1.40000504
1.40000504
1.40000504
1.40000504
1.40000504
1.40000504
1.40000504
1.400005041
1.400005042
1.400005054
1.40000512
1.400005438
1.400006791
1.400012006
1.400030191
1.400085359
1.400242869
1.400644151
1.401558152
1.403524651
1.407296163
1.413881067
1.424807884
1.440463731
1.463020831
1.493627199
1.524254606
1.562451449
1.606502596
1.641326304
1.679578823
1.710801398
1.733575296
1.759989446
1.774736632
1.784470515
1.795571412
1.800305843
1.80448633
1.809110684
1.813749126
1.818180845
1.822420896
1.82763799
1.83168963
1.832014869
1.831856199
1.40000504
1.40000504
1.40000504
1.40000504
1.40000504
1.40000504
1.40000504
1.40000504
1.40000504
1.40000504
1.40000504
1.40000504
1.40000504
1.40000504
1.40000504
1.40000504
1.40000504
1.40000504
1.40000504
1.40000504
1.40000504
1.40000504
1.40000504
1.40000504
1.40000504
1.40000504
1.40000504
1.40000504
1.40000504
1.40000504
1.40000504
1.40000504
1.400005041
1.400005047
1.400005079
1.40000524
1.400005971
1.400008941
1.400019502
1.400053825
1.40015681
1.400424149
1.401068773
1.402521189
1.405300555
1.410684212
1.41939487
1.432740943
1.453437946
1.478452557
1.509291546
1.547837201
1.586601177
1.62681446
1.664758321
1.695131817
1.731813694
1.756811594
1.774476763
1.792905066
1.80695631
1.811476714
1.818071359
1.825977614
1.827333269
1.826601283
1.827206919
1.40000504
1.40000504
1.40000504
1.40000504
1.40000504
1.40000504
1.40000504
1.40000504
1.40000504
1.40000504
1.40000504
1.40000504
1.40000504
1.40000504
1.40000504
1.40000504
1.40000504
1.40000504
1.40000504
1.40000504
1.40000504
1.40000504
1.40000504
1.40000504
1.40000504
1.40000504
1.40000504
1.40000504
1.40000504
1.40000504
1.40000504
1.40000504
1.40000504
1.40000504
1.40000504
1.40000504
1.400005041
1.400005043
1.400005058
1.40000514
1.400005534
1.400007195
1.400013412
1.400034876
1.400099568
1.400280781
1.400732927
1.401762248
1.403921613
1.408060132
1.415096859
1.426864753
1.443111192
1.466413082
1.498263846
1.53038149
1.566602565
1.610485338
1.647806738
1.681576801
1.716945059
1.736761626
1.756053024
1.776947938
1.787897013
1.792552355
1.800710866
1.40000504
1.40000504
1.40000504
1.40000504
1.40000504
1.40000504
1.40000504
1.40000504
1.40000504
1.40000504
1.40000504
1.40000504
1.40000504
1.40000504
1.40000504
1.40000504
1.40000504
1.40000504
1.40000504
1.40000504
1.40000504
1.40000504
1.40000504
1.40000504
1.40000504
1.40000504
1.40000504
1.40000504
1.40000504
1.40000504
1.40000504
1.40000504
1.40000504
1.40000504
1.40000504
1.40000504
1.40000504
1.40000504
1.40000504
1.40000504
1.40000504
1.400005041
1.400005049
1.400005091
1.400005299
1.400006225
1.400009892
1.400022945
1.40006389
1.400187169
1.400495787
1.401250133
1.402851555
1.406070362
1.411736431
1.421570916
1.435476146
1.457342621
1.484091313
1.515364219
1.552797102
1.594618772
1.634348163
1.669077801
1.703152895
1.730504623
1.759885353
1.40000504
1.40000504
1.40000504
1.40000504
1.40000504
1.40000504
1.40000504
1.40000504
1.40000504
1.40000504
1.40000504
1.40000504
1.40000504
1.40000504
1.40000504
1.40000504
1.40000504
1.40000504
1.40000504
1.40000504
1.40000504
1.40000504
1.40000504
1.40000504
1.40000504
1.40000504
1.40000504
1.40000504
1.40000504
1.40000504
1.40000504
1.40000504
1.40000504
1.40000504
1.40000504
1.40000504
1.40000504
1.40000504
1.40000504
1.40000504
1.40000504
1.40000504
1.40000504
1.40000504
1.40000504
1.400005041
1.400005044
1.400005065
1.400005175
1.400005699
1.400007829
1.400015865
1.400042078
1.400123595
1.400334857
1.400887703
1.402053547
1.40460469
1.409070127
1.417390436
1.429222243
1.448180688
1.47182485
1.504225244
1.538703345
1.576979591
1.614993161
1.40000504
1.40000504
1.40000504
1.40000504
1.40000504
1.40000504
1.40000504
1.40000504
1.40000504
1.40000504
1.40000504
1.40000504
1.40000504
1.40000504
1.40000504
1.40000504
1.40000504
1.40000504
1.40000504
1.40000504
1.40000504
1.40000504
1.40000504
1.40000504
1.40000504
1.40000504
1.40000504
1.40000504
1.40000504
1.40000504
1.40000504
1.40000504
1.40000504
1.40000504
1.40000504
1.40000504
1.40000504
1.40000504
1.40000504
1.40000504
1.40000504
1.40000504
1.40000504
1.40000504
1.40000504
1.40000504
1.40000504
1.40000504
1.40000504
1.40000504
1.400005042
1.400005053
1.400005112
1.400005401
1.400006641
1.400011561
1.400028193
1.400082058
1.400229316
1.400628383
1.401485128
1.403505943
1.407005643
1.413954822
1.423889171
1.441759226
1.458903619
1.40000504
1.40000504
1.40000504
1.40000504
1.40000504
1.40000504
1.40000504
1.40000504
1.40000504
1.40000504
1.40000504
1.40000504
1.40000504
1.40000504
1.40000504
1.40000504
1.40000504
1.40000504
1.40000504
1.40000504
1.40000504
1.40000504
1.40000504
1.40000504
1.40000504
1.40000504
1.40000504
1.40000504
1.40000504
1.40000504
1.40000504
1.40000504
1.40000504
1.40000504
1.40000504
1.40000504
1.40000504
1.40000504
1.40000504
1.40000504
1.40000504
1.40000504
1.40000504
1.40000504
1.40000504
1.40000504
1.40000504
1.40000504
1.40000504
1.40000504
1.40000504
1.40000504
1.40000504
1.40000504
1.400005041
1.400005047
1.400005078
1.400005239
1.400005965
1.400009014
1.40001954
1.400056299
1.40015609
1.40045037
1.401064252
1.402961272
1.404326189
1.40000504
1.40000504
1.40000504
1.40000504
1.40000504
1.40000504
1.40000504
1.40000504
1.40000504
1.40000504
1.40000504
1.40000504
1.40000504
1.40000504
1.40000504
1.40000504
1.40000504
1.40000504
1.40000504
1.40000504
1.40000504
1.40000504
1.40000504
1.40000504
1.40000504
1.40000504
1.40000504
1.40000504
1.40000504
1.40000504
1.40000504
1.40000504
1.40000504
1.40000504
1.40000504
1.40000504
1.40000504
1.40000504
1.40000504
1.40000504
1.40000504
1.40000504
1.40000504
1.40000504
1.40000504
1.40000504
1.40000504
1.40000504
1.40000504
1.40000504
1.40000504
1.40000504
1.40000504
1.40000504
1.40000504
1.40000504
1.40000504
1.40000504
1.400005041
1.400005043
1.40000506
1.400005154
1.400005572
1.400007541
1.400013561
1.400070026
1.400033177
1.40000504
1.40000504
1.40000504
1.40000504
1.40000504
1.40000504
1.40000504
1.40000504
1.40000504
1.40000504
1.40000504
1.40000504
1.40000504
1.40000504
1.40000504
1.40000504
1.40000504
1.40000504
1.40000504
1.40000504
1.40000504
1.40000504
1.40000504
1.40000504
1.40000504
1.40000504
1.40000504
1.40000504
1.40000504
1.40000504
1.40000504
1.40000504
1.40000504
1.40000504
1.40000504
1.40000504
1.40000504
1.40000504
1.40000504
1.40000504
1.40000504
1.40000504
1.40000504
1.40000504
1.40000504
1.40000504
1.40000504
1.40000504
1.40000504
1.40000504
1.40000504
1.40000504
1.40000504
1.40000504
1.40000504
1.40000504
1.40000504
1.40000504
1.40000504
1.40000504
1.40000504
1.40000504
1.40000504
1.400005042
1.400005049
1.400005389
1.400004958
1.40000504
1.40000504
1.40000504
1.40000504
1.40000504
1.40000504
1.40000504
1.40000504
1.40000504
1.40000504
1.40000504
1.40000504
1.40000504
1.40000504
1.40000504
1.40000504
1.40000504
1.40000504
1.40000504
1.40000504
1.40000504
1.40000504
1.40000504
1.40000504
1.40000504
1.40000504
1.40000504
1.40000504
1.40000504
1.40000504
1.40000504
1.40000504
1.40000504
1.40000504
1.40000504
1.40000504
1.40000504
1.40000504
1.40000504
1.40000504
1.40000504
1.40000504
1.40000504
1.40000504
1.40000504
1.40000504
1.40000504
1.40000504
1.40000504
1.40000504
1.40000504
1.40000504
1.40000504
1.40000504
1.40000504
1.40000504
1.40000504
1.40000504
1.40000504
1.40000504
1.40000504
1.40000504
1.40000504
1.40000504
1.40000504
1.400005041
1.400005023
1.40000504
1.40000504
1.40000504
1.40000504
1.40000504
1.40000504
1.40000504
1.40000504
1.40000504
1.40000504
1.40000504
1.40000504
1.40000504
1.40000504
1.40000504
1.40000504
1.40000504
1.40000504
1.40000504
1.40000504
1.40000504
1.40000504
1.40000504
1.40000504
1.40000504
1.40000504
1.40000504
1.40000504
1.40000504
1.40000504
1.40000504
1.40000504
1.40000504
1.40000504
1.40000504
1.40000504
1.40000504
1.40000504
1.40000504
1.40000504
1.40000504
1.40000504
1.40000504
1.40000504
1.40000504
1.40000504
1.40000504
1.40000504
1.40000504
1.40000504
1.40000504
1.40000504
1.40000504
1.40000504
1.40000504
1.40000504
1.40000504
1.40000504
1.40000504
1.40000504
1.40000504
1.40000504
1.40000504
1.40000504
1.40000504
1.40000504
1.400005039
1.40000504
1.40000504
1.40000504
1.40000504
1.40000504
1.40000504
1.40000504
1.40000504
1.40000504
1.40000504
1.40000504
1.40000504
1.40000504
1.40000504
1.40000504
1.40000504
1.40000504
1.40000504
1.40000504
1.40000504
1.40000504
1.40000504
1.40000504
1.40000504
1.40000504
1.40000504
1.40000504
1.40000504
1.40000504
1.40000504
1.40000504
1.40000504
1.40000504
1.40000504
1.40000504
1.40000504
1.40000504
1.40000504
1.40000504
1.40000504
1.40000504
1.40000504
1.40000504
1.40000504
1.40000504
1.40000504
1.40000504
1.40000504
1.40000504
1.40000504
1.40000504
1.40000504
1.40000504
1.40000504
1.40000504
1.40000504
1.40000504
1.40000504
1.40000504
1.40000504
1.40000504
1.40000504
1.40000504
1.40000504
1.40000504
1.40000504
1.40000504
1.40000504
1.40000504
1.40000504
1.40000504
1.40000504
1.40000504
1.40000504
1.40000504
1.40000504
1.40000504
1.40000504
1.40000504
1.40000504
1.40000504
1.40000504
1.40000504
1.40000504
1.40000504
1.40000504
1.40000504
1.40000504
1.40000504
1.40000504
1.40000504
1.40000504
1.40000504
1.40000504
1.40000504
1.40000504
1.40000504
1.40000504
1.40000504
1.40000504
1.40000504
1.40000504
1.40000504
1.40000504
1.40000504
1.40000504
1.40000504
1.40000504
1.40000504
1.40000504
1.40000504
1.40000504
1.40000504
1.40000504
1.40000504
1.40000504
1.40000504
1.40000504
1.40000504
1.40000504
1.40000504
1.40000504
1.40000504
1.40000504
1.40000504
1.40000504
1.40000504
1.40000504
1.40000504
1.40000504
1.40000504
1.40000504
1.40000504
1.40000504
1.40000504
1.40000504
1.40000504
1.40000504
1.40000504
1.40000504
1.40000504
1.40000504
1.40000504
1.40000504
1.40000504
1.40000504
1.40000504
1.40000504
1.40000504
1.40000504
1.40000504
1.40000504
1.40000504
1.40000504
1.40000504
1.40000504
1.40000504
1.40000504
1.40000504
1.40000504
1.40000504
1.40000504
1.40000504
1.40000504
1.40000504
1.40000504
1.40000504
1.40000504
1.40000504
1.40000504
1.40000504
1.40000504
1.40000504
1.40000504
1.40000504
1.40000504
1.40000504
1.40000504
1.40000504
1.40000504
1.40000504
1.40000504
1.40000504
1.40000504
1.40000504
1.40000504
1.40000504
1.40000504
1.40000504
1.40000504
1.40000504
1.40000504
1.40000504
1.40000504
1.40000504
1.40000504
1.40000504
1.40000504
1.40000504
1.40000504
1.40000504
1.40000504
1.40000504
1.40000504
1.40000504
1.40000504
1.40000504
1.40000504
1.40000504
1.40000504
1.40000504
1.40000504
1.40000504
1.40000504
1.40000504
1.40000504
1.40000504
1.40000504
1.40000504
1.40000504
1.40000504
1.40000504
1.40000504
1.40000504
1.40000504
1.40000504
1.40000504
1.40000504
1.40000504
1.40000504
1.40000504
1.40000504
1.40000504
1.40000504
1.40000504
1.40000504
1.40000504
1.40000504
1.40000504
1.40000504
1.40000504
1.40000504
1.40000504
1.40000504
1.40000504
1.40000504
1.40000504
1.40000504
1.40000504
1.40000504
1.40000504
1.40000504
1.40000504
1.40000504
1.40000504
1.40000504
1.40000504
1.40000504
1.40000504
1.40000504
1.40000504
1.40000504
1.40000504
1.40000504
1.40000504
1.40000504
1.40000504
1.40000504
1.40000504
1.40000504
1.40000504
1.40000504
1.40000504
1.40000504
1.40000504
1.40000504
1.40000504
1.40000504
1.40000504
1.40000504
1.40000504
1.40000504
1.40000504
1.40000504
1.40000504
1.40000504
1.40000504
1.40000504
1.40000504
1.40000504
1.40000504
1.40000504
1.40000504
1.40000504
1.40000504
1.40000504
1.40000504
1.40000504
1.40000504
1.40000504
1.40000504
1.40000504
1.40000504
1.40000504
1.40000504
1.40000504
1.40000504
1.40000504
1.40000504
1.40000504
1.40000504
1.40000504
1.40000504
)
;

boundaryField
{
    inlet
    {
        type            calculated;
        value           nonuniform 0();
    }
    outlet
    {
        type            calculated;
        value           nonuniform 0();
    }
    bottom
    {
        type            calculated;
        value           nonuniform 0();
    }
    top
    {
        type            calculated;
        value           nonuniform 0();
    }
    obstacle
    {
        type            calculated;
        value           nonuniform List<scalar> 
93
(
1.808696653
1.808897323
1.809787049
1.809257951
1.80898846
1.809272952
1.810435025
1.812648337
1.815233372
1.817687925
1.819708296
1.821691863
1.824018769
1.825576884
1.826264551
1.826845285
1.827213182
1.827197349
1.826740737
1.825828685
1.824576483
1.824084358
1.823992209
1.824025817
1.824102999
1.824068484
1.824007303
1.823933159
1.823890915
1.823820687
1.82377878
1.82381811
1.824108881
1.824592686
1.82479578
1.824741442
1.824589853
1.82434618
1.82417747
1.82412976
1.824133521
1.824353605
1.82464978
1.824642677
1.824508385
1.824253991
1.824015001
1.823940917
1.823917544
1.823952522
1.824174208
1.824362239
1.824331468
1.824204626
1.824004843
1.823859221
1.823821839
1.823807081
1.823845614
1.824000342
1.824077218
1.824047404
1.823990054
1.823944854
1.823926278
1.823921218
1.823969732
1.8086969
1.808897892
1.809787248
1.809257581
1.808988124
1.809272724
1.81043506
1.81264855
1.815233513
1.817687947
1.819708207
1.821691858
1.824018777
1.82557677
1.826264527
1.826845417
1.827213327
1.827197398
1.826740668
1.82582846
1.824576231
1.824084441
1.823992338
1.824026027
1.824103111
1.824068467
)
;
    }
    defaultFaces
    {
        type            empty;
    }
    procBoundary20to13
    {
        type            processor;
        value           nonuniform List<scalar> 2(1.827134148 1.810386235);
    }
    procBoundary20to14
    {
        type            processor;
        value           nonuniform List<scalar> 
28
(
1.8382509
1.835398773
1.832195449
1.830033422
1.828617905
1.826906003
1.824248501
1.820090682
1.820090682
1.820895487
1.821026011
1.820862372
1.820669992
1.820154429
1.81963247
1.819422646
1.819553632
1.820410931
1.821618688
1.822001578
1.821896578
1.82179644
1.822010467
1.822437677
1.822908169
1.823447265
1.824182417
1.824007233
)
;
    }
    procBoundary20to19
    {
        type            processor;
        value           nonuniform List<scalar> 
33
(
1.810386565
1.827134275
1.840916749
1.853417806
1.850492138
1.782908998
1.638772091
1.464172952
1.404707945
1.400069664
1.400005165
1.40000504
1.40000504
1.40000504
1.40000504
1.40000504
1.40000504
1.40000504
1.40000504
1.40000504
1.40000504
1.40000504
1.40000504
1.40000504
1.40000504
1.40000504
1.40000504
1.40000504
1.40000504
1.40000504
1.40000504
1.40000504
1.40000504
)
;
    }
    procBoundary20to25
    {
        type            processor;
        value           nonuniform List<scalar> 2(1.40000504 1.40000504);
    }
    procBoundary20to26
    {
        type            processor;
        value           nonuniform List<scalar> 
69
(
1.40000504
1.40000504
1.40000504
1.40000504
1.40000504
1.40000504
1.40000504
1.40000504
1.40000504
1.40000504
1.40000504
1.40000504
1.40000504
1.40000504
1.40000504
1.40000504
1.40000504
1.40000504
1.40000504
1.40000504
1.40000504
1.40000504
1.40000504
1.40000504
1.40000504
1.40000504
1.40000504
1.40000504
1.40000504
1.40000504
1.40000504
1.40000504
1.40000504
1.40000504
1.40000504
1.40000504
1.40000504
1.40000504
1.40000504
1.40000504
1.40000504
1.40000504
1.40000504
1.40000504
1.40000504
1.40000504
1.40000504
1.40000504
1.40000504
1.40000504
1.40000504
1.40000504
1.40000504
1.40000504
1.40000504
1.40000504
1.40000504
1.40000504
1.40000504