/*--------------------------------*- C++ -*----------------------------------*\
  =========                 |
  \\      /  F ield         | OpenFOAM: The Open Source CFD Toolbox
   \\    /   O peration     | Website:  https://openfoam.org
    \\  /    A nd           | Version:  7
     \\/     M anipulation  |
\*---------------------------------------------------------------------------*/
FoamFile
{
    version     2.0;
    format      ascii;
    class       volVectorField;
    location    "0.8";
    object      U;
}
// * * * * * * * * * * * * * * * * * * * * * * * * * * * * * * * * * * * * * //

dimensions      [0 1 -1 0 0 0 0];

internalField   nonuniform List<vector> 
5000
(
(3 2.286324571e-16 0)
(3 -6.941446185e-16 0)
(3 9.960595658e-16 0)
(3 1.513890121e-15 0)
(3 1.168079542e-16 0)
(3 8.742754739e-16 0)
(3 4.904114983e-16 0)
(3 -1.289406793e-15 0)
(3 -1.81167109e-15 0)
(3 -1.394646639e-15 0)
(3 -1.137874256e-15 0)
(3 5.702172392e-16 0)
(3 3.312537571e-15 0)
(3 4.568759986e-15 0)
(3 4.781879467e-15 0)
(3 4.883999918e-15 0)
(3 2.12881286e-15 0)
(3 -2.507238838e-16 0)
(3 -4.681273376e-15 0)
(3 -5.911038376e-15 0)
(3 -7.665560016e-15 0)
(3 -1.109184667e-14 0)
(3 -9.77801017e-15 0)
(3 -1.178624525e-14 0)
(3 -1.290736571e-14 0)
(3 5.859973173e-17 0)
(3 -5.45287629e-16 0)
(3 1.782330811e-16 0)
(3 6.780824237e-16 0)
(3 -4.040822839e-16 0)
(3 -5.839117806e-16 0)
(3 -4.610738394e-16 0)
(3 -1.204998254e-15 0)
(3 -2.172330266e-15 0)
(3 -1.277748261e-16 0)
(3 1.738026953e-15 0)
(3 3.1847229e-15 0)
(3 7.67002633e-15 0)
(3 1.045079724e-14 0)
(3 9.334504607e-15 0)
(3 6.402493624e-15 0)
(3 1.648807831e-15 0)
(3 -1.615211541e-15 0)
(3 -6.825848264e-15 0)
(3 -1.232860714e-14 0)
(3 -1.284915285e-14 0)
(3 -1.584928863e-14 0)
(3 -1.71272085e-14 0)
(3 -1.634144581e-14 0)
(3 -1.864523657e-14 0)
(3 -6.527571664e-17 0)
(3 8.037715739e-16 0)
(3 5.29500901e-17 0)
(3 3.474228931e-16 0)
(3 -4.442779085e-16 0)
(3 -3.535579215e-15 0)
(3 -3.293452476e-15 0)
(3 -1.660169845e-16 0)
(3 1.739583265e-15 0)
(3 4.739938158e-15 0)
(3 6.903656853e-15 0)
(3 6.680436906e-15 0)
(3 6.088948288e-15 0)
(3 5.875104765e-15 0)
(3 5.256034277e-15 0)
(3 1.255091582e-15 0)
(3 1.731546668e-15 0)
(3 1.279390358e-15 0)
(3 1.028586499e-15 0)
(3 -1.819927406e-15 0)
(3 -4.488655106e-15 0)
(3 -7.037571067e-15 0)
(3 -9.598274562e-15 0)
(3 -1.231612299e-14 0)
(3 -1.707366725e-14 0)
(3 6.624693701e-16 0)
(3 2.179595333e-15 0)
(3 1.944183656e-15 0)
(3 1.631628322e-15 0)
(3 1.092238406e-15 0)
(3 2.006475725e-15 0)
(3 2.45301321e-15 0)
(3 4.115958532e-15 0)
(3 6.87826741e-15 0)
(3 9.41447646e-15 0)
(3 1.00957455e-14 0)
(3 1.187404518e-14 0)
(3 9.91974598e-15 0)
(3 6.284573626e-15 0)
(3 1.478473078e-15 0)
(3 1.678438019e-16 0)
(3 7.486818721e-16 0)
(3 3.059520407e-15 0)
(3 5.516448535e-15 0)
(3 5.424097387e-15 0)
(3 4.234949285e-15 0)
(3 3.808626843e-15 0)
(3 1.067246067e-16 0)
(3 -2.870533257e-15 0)
(3 -4.190970224e-15 0)
(3 1.327213861e-17 0)
(3 -7.662772329e-16 0)
(3 7.024474777e-16 0)
(3 9.472169125e-16 0)
(3 2.331924502e-15 0)
(3 2.562452433e-15 0)
(3 4.303934218e-15 0)
(3 7.326968265e-15 0)
(3 7.367535912e-15 0)
(3 8.664925545e-15 0)
(3 1.164316461e-14 0)
(3 1.068766285e-14 0)
(3 1.014315908e-14 0)
(3 1.012828863e-14 0)
(3 9.220345917e-15 0)
(3 9.034087644e-15 0)
(3 5.001408597e-15 0)
(3 5.118713505e-15 0)
(3 5.700721048e-15 0)
(3 8.023242249e-15 0)
(3 9.186619815e-15 0)
(3 9.239203631e-15 0)
(3 6.467623601e-15 0)
(3 9.417503407e-15 0)
(3 9.433423459e-15 0)
(3 -1.926416362e-15 0)
(3 -2.258114469e-15 0)
(3 4.969922269e-16 0)
(3 4.399478201e-16 0)
(3 1.693665138e-15 0)
(3 1.151524075e-15 0)
(3 3.558055202e-15 0)
(3 2.099211947e-15 0)
(3 3.789177982e-15 0)
(3 4.368044965e-15 0)
(3 8.302405443e-15 0)
(3 7.034927041e-15 0)
(3 7.478488299e-15 0)
(3 8.32275412e-15 0)
(3 9.999230918e-15 0)
(3 8.250600496e-15 0)
(3 8.234416181e-15 0)
(3 5.008996282e-15 0)
(3 5.081277975e-15 0)
(3 8.950096521e-15 0)
(3 1.005385692e-14 0)
(3 1.33447868e-14 0)
(3 1.344539932e-14 0)
(3 1.71726557e-14 0)
(3 1.878152057e-14 0)
(3 -6.104789064e-16 0)
(3 -8.590175502e-16 0)
(3 -1.232473387e-15 0)
(3 5.366321969e-16 0)
(3 2.244983868e-15 0)
(3 4.942040865e-15 0)
(3 4.966477651e-15 0)
(3 3.130061484e-15 0)
(3 1.065193413e-15 0)
(3 -1.716064045e-15 0)
(3 -2.588664849e-15 0)
(3 -6.104622618e-17 0)
(3 -1.026167784e-16 0)
(3 1.022592359e-15 0)
(3 2.761265612e-15 0)
(3 6.442946074e-15 0)
(3 7.573570111e-15 0)
(3 8.657220953e-15 0)
(3 8.744507088e-15 0)
(3 9.36584133e-15 0)
(3 9.189325228e-15 0)
(3 1.008321448e-14 0)
(3 1.027253818e-14 0)
(3 8.70526708e-15 0)
(3 1.181261824e-14 0)
(3 9.964128914e-16 0)
(3 -1.976549964e-15 0)
(3 -4.880831043e-15 0)
(3 -3.836127195e-15 0)
(3 -4.863267368e-15 0)
(3 -2.514445263e-15 0)
(3 -1.936855974e-15 0)
(3 -2.781799804e-15 0)
(3 -6.275194994e-15 0)
(3 -9.567466547e-15 0)
(3 -1.094424249e-14 0)
(3 -7.697046463e-15 0)
(3 -2.15439283e-15 0)
(3 -1.74712732e-15 0)
(3 -4.638416341e-18 0)
(3 8.36947601e-16 0)
(3 2.77599377e-15 0)
(3 3.823954973e-15 0)
(3 6.249755513e-15 0)
(3 5.586737217e-15 0)
(3 3.78089645e-15 0)
(3 1.80511268e-16 0)
(3 5.907394606e-16 0)
(3 -1.472987152e-15 0)
(3 -5.548921148e-16 0)
(3 1.012237529e-15 0)
(3 3.920115123e-16 0)
(3 -1.104064614e-16 0)
(3 -3.56773457e-15 0)
(3 -4.620720902e-15 0)
(3 -4.819019061e-15 0)
(3 -5.77467733e-15 0)
(3 -6.241479553e-15 0)
(3 -3.971707229e-15 0)
(3 -1.960311899e-15 0)
(3 -2.171265261e-15 0)
(3 -1.977378615e-15 0)
(3 1.292082421e-15 0)
(3 2.838611735e-15 0)
(3 -3.94113962e-16 0)
(3 -3.624918433e-15 0)
(3 -2.850091564e-15 0)
(3 -6.743895828e-16 0)
(3 2.256695014e-16 0)
(3 -5.57149606e-16 0)
(3 -1.503649612e-15 0)
(3 -2.800793692e-15 0)
(3 -2.989322157e-15 0)
(3 -3.664885308e-15 0)
(3 -5.482262582e-15 0)
(3 5.205297576e-16 0)
(3 2.110381501e-15 0)
(3 2.773391802e-15 0)
(3 2.346629011e-15 0)
(3 1.130191849e-15 0)
(3 -1.148152285e-15 0)
(3 -4.021789233e-15 0)
(3 -2.076850613e-15 0)
(3 8.252428488e-16 0)
(3 2.286344564e-15 0)
(3 3.997189918e-15 0)
(3 1.411186359e-15 0)
(3 -1.188768529e-15 0)
(3 -4.525642897e-16 0)
(3 1.382222719e-16 0)
(3 -2.096296436e-16 0)
(3 3.113610094e-15 0)
(3 3.073470498e-15 0)
(3 1.768812962e-15 0)
(3 1.79260047e-15 0)
(3 2.877382711e-15 0)
(3 2.649454776e-15 0)
(3 2.711595123e-15 0)
(3 2.001882515e-15 0)
(3 -3.812782017e-16 0)
(3 1.145161743e-15 0)
(3 1.582080653e-15 0)
(3 1.318198893e-15 0)
(3 1.421118731e-15 0)
(3 1.102324828e-15 0)
(3 4.91556579e-16 0)
(3 3.067822872e-16 0)
(3 3.439588704e-15 0)
(3 2.709251244e-15 0)
(3 1.50122471e-15 0)
(3 1.446983169e-15 0)
(3 2.301197131e-17 0)
(3 -4.267478911e-16 0)
(3 -1.054053272e-15 0)
(3 7.986057703e-16 0)
(3 6.0331292e-15 0)
(3 6.39505535e-15 0)
(3 6.237326105e-15 0)
(3 4.593140045e-15 0)
(3 4.285993727e-15 0)
(3 4.061694267e-15 0)
(3 5.17527156e-15 0)
(3 5.254873975e-15 0)
(3 6.565655095e-15 0)
(3 6.290035573e-15 0)
(3 -1.623159408e-15 0)
(3 -1.442097229e-15 0)
(3 -5.560822495e-16 0)
(3 -1.117292463e-15 0)
(3 6.338470393e-16 0)
(3 3.664562557e-15 0)
(3 6.426539892e-15 0)
(3 6.631677542e-15 0)
(3 5.264105851e-15 0)
(3 3.258724681e-15 0)
(3 1.134477627e-15 0)
(3 2.070641064e-15 0)
(3 3.746649427e-15 0)
(3 4.688011276e-15 0)
(3 4.821049521e-15 0)
(3 7.417163345e-15 0)
(3 5.973963259e-15 0)
(3 5.176274517e-15 0)
(3 4.268365007e-15 0)
(3 2.873487636e-15 0)
(3 2.356483335e-15 0)
(3 1.885639363e-15 0)
(3 1.540954461e-15 0)
(3 1.841094974e-15 0)
(3 2.964191639e-15 0)
(3 -8.633046314e-16 0)
(3 1.692093391e-15 0)
(3 3.080853916e-15 0)
(3 3.588789569e-15 0)
(3 4.403847374e-15 0)
(3 4.10590034e-15 0)
(3 4.178090758e-15 0)
(3 4.077815636e-15 0)
(3 5.812925912e-15 0)
(3 7.653287842e-15 0)
(3 5.130819418e-15 0)
(3 6.559095138e-15 0)
(3 5.260165971e-15 0)
(3 7.051310504e-15 0)
(3 7.356621183e-15 0)
(3 6.734794447e-15 0)
(3 4.850708433e-15 0)
(3 1.022709286e-15 0)
(3 2.365192255e-15 0)
(3 1.656460102e-15 0)
(3 6.211334036e-16 0)
(3 -8.607853296e-16 0)
(3 -1.897255448e-15 0)
(3 -2.709072119e-15 0)
(3 -3.518787726e-15 0)
(3 8.953397142e-16 0)
(3 3.455943198e-15 0)
(3 3.788540184e-15 0)
(3 8.469590721e-15 0)
(3 8.666572605e-15 0)
(3 7.085274197e-15 0)
(3 5.74822878e-15 0)
(3 3.285530294e-15 0)
(3 4.458163365e-15 0)
(3 3.708238036e-15 0)
(3 3.055665911e-15 0)
(3 2.033903152e-16 0)
(3 -1.756619766e-15 0)
(3 -1.157551572e-15 0)
(3 -1.294786099e-15 0)
(3 -3.326735071e-15 0)
(3 -4.528322888e-15 0)
(3 -5.86805883e-15 0)
(3 -6.510993636e-15 0)
(3 -6.514796311e-15 0)
(3 -5.427171281e-15 0)
(3 -4.373779372e-15 0)
(3 -5.307773724e-15 0)
(3 -6.708939345e-15 0)
(3 -7.947099042e-15 0)
(3 -2.770319816e-16 0)
(3 1.101713333e-15 0)
(3 2.166729981e-15 0)
(3 4.993309021e-15 0)
(3 6.627720887e-15 0)
(3 7.464482323e-15 0)
(3 5.594864794e-15 0)
(3 3.705181359e-15 0)
(3 1.654493862e-16 0)
(3 -3.146347888e-15 0)
(3 -2.939038036e-15 0)
(3 -5.356705971e-15 0)
(3 -6.198180778e-15 0)
(3 -9.371425343e-15 0)
(3 -1.315783409e-14 0)
(3 -1.363294569e-14 0)
(3 -1.218680439e-14 0)
(3 -9.05267003e-15 0)
(3 -9.269558967e-15 0)
(3 -8.573368222e-15 0)
(3 -6.865072087e-15 0)
(3 -5.08523273e-15 0)
(3 -5.070474275e-15 0)
(3 -5.661108049e-15 0)
(3 -4.433206349e-15 0)
(3 1.147708128e-16 0)
(3 1.402378615e-16 0)
(3 2.936020179e-17 0)
(3 -1.392978e-15 0)
(3 -1.260109055e-15 0)
(3 9.746181828e-16 0)
(3 1.40111657e-15 0)
(3 9.516171485e-17 0)
(3 -2.532345993e-15 0)
(3 -2.514120569e-15 0)
(3 -1.105262478e-15 0)
(3 -6.391655566e-16 0)
(3 -1.101853199e-15 0)
(3 -1.573472848e-15 0)
(3 -2.839970589e-15 0)
(3 -3.821309999e-15 0)
(3 -5.348931115e-15 0)
(3 -5.22427614e-15 0)
(3 -5.095249888e-15 0)
(3 -4.907378622e-15 0)
(3 -4.369749225e-15 0)
(3 -1.951661525e-15 0)
(3 -1.036053857e-15 0)
(3 6.250115332e-16 0)
(3 1.787015112e-15 0)
(3 6.749349086e-17 0)
(3 -4.726299677e-16 0)
(3 -3.503970479e-15 0)
(3 -5.333678469e-15 0)
(3 -4.89856371e-15 0)
(3 -4.897441792e-15 0)
(3 -3.902797033e-15 0)
(3 -4.858216071e-15 0)
(3 -4.052863598e-15 0)
(3 -3.070036857e-15 0)
(3 -1.234280576e-15 0)
(3 9.875865157e-16 0)
(3 3.427902761e-15 0)
(3 3.081448892e-15 0)
(3 2.272086816e-15 0)
(3 1.639654289e-15 0)
(3 3.16519164e-15 0)
(3 2.955414586e-15 0)
(3 3.214659586e-15 0)
(3 3.563219595e-15 0)
(3 4.157192631e-15 0)
(3 3.524085921e-15 0)
(3 3.480424434e-15 0)
(3 6.017298223e-15 0)
(3 6.468268393e-15 0)
(3 -6.174847857e-16 0)
(3 -2.409950881e-15 0)
(3 -4.159071989e-15 0)
(3 -2.815524767e-15 0)
(3 -1.490578625e-15 0)
(3 -3.172647574e-15 0)
(3 -5.439858746e-15 0)
(3 -5.208066304e-15 0)
(3 -3.721645438e-15 0)
(3 -3.249667223e-15 0)
(3 -2.436083305e-15 0)
(3 -2.26958841e-15 0)
(3 2.262876073e-15 0)
(3 4.46568497e-15 0)
(3 6.748606002e-15 0)
(3 8.52711465e-15 0)
(3 1.076901266e-14 0)
(3 1.03652407e-14 0)
(3 8.092698422e-15 0)
(3 8.253093309e-15 0)
(3 8.085156698e-15 0)
(3 7.008829166e-15 0)
(3 6.150018275e-15 0)
(3 4.865481777e-15 0)
(3 4.669616414e-15 0)
(3 -4.773701019e-16 0)
(3 -4.307956298e-16 0)
(3 3.599986867e-16 0)
(3 2.6365063e-15 0)
(3 2.230667824e-15 0)
(3 7.488983537e-16 0)
(3 -1.323695087e-15 0)
(3 2.945278426e-16 0)
(3 2.589889041e-15 0)
(3 3.073014885e-15 0)
(3 3.51451768e-15 0)
(3 2.799177106e-15 0)
(3 3.607907834e-15 0)
(3 4.84330734e-15 0)
(3 5.654669604e-15 0)
(3 6.896274803e-15 0)
(3 4.731753204e-15 0)
(3 3.298134534e-15 0)
(3 3.145981899e-15 0)
(3 1.330908411e-15 0)
(3 1.256503293e-15 0)
(3 -7.749933238e-16 0)
(3 -1.589054148e-15 0)
(3 -4.254145288e-15 0)
(3 -6.273813913e-15 0)
(3 4.458249386e-16 0)
(3 2.039964045e-15 0)
(3 3.919771459e-15 0)
(3 2.058801659e-15 0)
(3 2.089782485e-15 0)
(3 2.547601787e-15 0)
(3 2.256789597e-15 0)
(3 2.018450029e-15 0)
(3 3.264469461e-15 0)
(3 2.591876339e-15 0)
(3 3.453292431e-15 0)
(3 3.244941579e-15 0)
(3 7.003652093e-16 0)
(3 -1.676820128e-15 0)
(3 -3.494487279e-15 0)
(3 -3.470131117e-15 0)
(3 -3.285832482e-15 0)
(3 -2.608250707e-15 0)
(3 -7.959261668e-16 0)
(3 -1.694856356e-15 0)
(3 -5.266918076e-15 0)
(3 -1.030319847e-14 0)
(3 -1.111725619e-14 0)
(3 -8.591245301e-15 0)
(3 -8.961447329e-15 0)
(3 1.403295068e-17 0)
(3 -1.89429423e-15 0)
(3 -1.165789078e-16 0)
(3 8.310983586e-16 0)
(3 3.426746133e-16 0)
(3 9.410167359e-16 0)
(3 2.498748959e-15 0)
(3 2.229302219e-15 0)
(3 2.559465284e-15 0)
(3 1.501667852e-15 0)
(3 -1.163689793e-15 0)
(3 -3.695534709e-15 0)
(3 -6.709901726e-15 0)
(3 -7.670011798e-15 0)
(3 -6.640818687e-15 0)
(3 -4.759188985e-15 0)
(3 -1.93010737e-15 0)
(3 -3.163802018e-16 0)
(3 -5.776073182e-16 0)
(3 1.041080566e-16 0)
(3 7.867772263e-16 0)
(3 -4.129169851e-16 0)
(3 -2.582996242e-15 0)
(3 -1.878555732e-15 0)
(3 -4.910071208e-17 0)
(3 -2.364486144e-15 0)
(3 -1.448912439e-15 0)
(3 -1.608975736e-15 0)
(3 -1.189537573e-15 0)
(3 -5.7493533e-17 0)
(3 2.277000357e-16 0)
(3 2.039952303e-15 0)
(3 1.894158183e-15 0)
(3 1.247609357e-16 0)
(3 1.354702234e-15 0)
(3 2.507958966e-16 0)
(3 -2.093775807e-15 0)
(3 -2.827900844e-15 0)
(3 -4.383526246e-15 0)
(3 -5.256105805e-15 0)
(3 -5.029853477e-15 0)
(3 -3.703333425e-15 0)
(3 -2.680282377e-15 0)
(3 -8.376490604e-16 0)
(3 2.248954337e-15 0)
(3 6.675830659e-15 0)
(3 1.161589976e-14 0)
(3 1.200318117e-14 0)
(3 7.555641928e-15 0)
(3 7.141386107e-15 0)
(3 -7.430370074e-16 0)
(3 -1.628375873e-15 0)
(3 -3.400502101e-15 0)
(3 -4.371905098e-15 0)
(3 -3.128303247e-15 0)
(3 -3.215315284e-15 0)
(3 -3.154825589e-16 0)
(3 -1.531313385e-15 0)
(3 -1.123012186e-15 0)
(3 -8.691117506e-16 0)
(3 7.959909546e-16 0)
(3 1.206445706e-15 0)
(3 3.495089571e-15 0)
(3 3.309955002e-15 0)
(3 2.448576598e-15 0)
(3 1.237704146e-15 0)
(3 9.709982175e-17 0)
(3 1.150051049e-15 0)
(3 3.439545703e-15 0)
(3 4.777633046e-15 0)
(3 4.045547775e-15 0)
(3 8.994121306e-15 0)
(3 9.910211285e-15 0)
(3 8.395686812e-15 0)
(3 6.009450728e-15 0)
(3 -2.754378491e-17 0)
(3 -2.38333046e-15 0)
(3 -3.216311826e-15 0)
(3 -4.599085696e-15 0)
(3 -5.974104273e-15 0)
(3 -5.332341643e-15 0)
(3 -6.349076828e-15 0)
(3 -3.495712898e-15 0)
(3 -2.100750158e-15 0)
(3 3.957354846e-16 0)
(3 1.30268254e-15 0)
(3 2.685770613e-15 0)
(3 4.704298193e-15 0)
(3 5.47573426e-15 0)
(3 4.999096801e-15 0)
(3 4.500304362e-15 0)
(3 3.420254036e-15 0)
(3 4.134890282e-15 0)
(3 4.000502815e-15 0)
(3 3.339955323e-15 0)
(3 2.428588492e-15 0)
(3 2.370960304e-15 0)
(3 3.935641904e-15 0)
(3 7.305043705e-15 0)
(3 5.917222088e-15 0)
(3 -6.784659922e-17 0)
(3 1.08191113e-16 0)
(3 -3.606595996e-16 0)
(3 -1.097339353e-15 0)
(3 -3.215980281e-15 0)
(3 -2.755092728e-15 0)
(3 -2.949908065e-15 0)
(3 -1.718056386e-15 0)
(3 -2.743719744e-15 0)
(3 4.543649909e-16 0)
(3 1.106093277e-15 0)
(3 1.455825432e-15 0)
(3 2.243467468e-15 0)
(3 2.974381867e-15 0)
(3 4.039760961e-15 0)
(3 3.231172974e-15 0)
(3 2.255589895e-15 0)
(3 2.020882337e-15 0)
(3 -8.245098828e-16 0)
(3 -3.01344705e-15 0)
(3 -1.659999927e-15 0)
(3 -1.579802261e-15 0)
(3 -2.710578867e-17 0)
(3 3.111521512e-15 0)
(3 5.081009421e-15 0)
(3 -1.20414949e-14 0)
(3 -1.224795769e-14 0)
(3 -1.224824456e-14 0)
(3 -1.034790723e-14 0)
(3 -7.907762935e-15 0)
(3 -5.308275076e-15 0)
(3 -4.448564192e-15 0)
(3 -5.231254428e-15 0)
(3 -6.653099268e-15 0)
(3 -6.694838254e-15 0)
(3 -6.774333535e-15 0)
(3 -6.242976755e-15 0)
(3 -5.675125231e-15 0)
(3 -4.72887238e-15 0)
(3 -3.333160907e-15 0)
(3 -2.103323622e-15 0)
(3 1.77071096e-16 0)
(3 1.228185676e-15 0)
(3 1.349078669e-15 0)
(3 1.963323351e-15 0)
(3 4.048030253e-15 0)
(3 4.619707174e-15 0)
(3 4.555503598e-15 0)
(3 3.735730858e-15 0)
(3 3.575292404e-15 0)
(3 -1.839311382e-14 0)
(3 -1.793240935e-14 0)
(3 -1.708559305e-14 0)
(3 -1.390000227e-14 0)
(3 -9.481971732e-15 0)
(3 -5.886684596e-15 0)
(3 -4.158832288e-15 0)
(3 -3.280459702e-15 0)
(3 -4.310199761e-15 0)
(3 -5.486943171e-15 0)
(3 -6.691229167e-15 0)
(3 -6.6960496e-15 0)
(3 -5.610659618e-15 0)
(3 -4.259752465e-15 0)
(3 -1.130797903e-15 0)
(3 1.097161475e-15 0)
(3 2.344541563e-15 0)
(3 3.82642203e-15 0)
(3 5.131085705e-15 0)
(3 4.620886598e-15 0)
(3 5.459604289e-15 0)
(3 6.521986528e-15 0)
(3 8.488984282e-15 0)
(3 8.62218671e-15 0)
(3 7.978306248e-15 0)
(3 -1.956002952e-14 0)
(3 -2.047961052e-14 0)
(3 -1.869655354e-14 0)
(3 -1.56624721e-14 0)
(3 -1.325379522e-14 0)
(3 -1.139235529e-14 0)
(3 -6.374810276e-15 0)
(3 -5.35516231e-15 0)
(3 -6.252162421e-15 0)
(3 -7.350963258e-15 0)
(3 -9.839391973e-15 0)
(3 -8.84904877e-15 0)
(3 -8.146634307e-15 0)
(3 -7.549260833e-15 0)
(3 -4.995908381e-15 0)
(3 -1.335895641e-17 0)
(3 2.322784531e-15 0)
(3 3.613704491e-15 0)
(3 6.52141823e-15 0)
(3 7.353408452e-15 0)
(3 7.075156323e-15 0)
(3 5.415141917e-15 0)
(3 5.595667572e-15 0)
(3 6.066490903e-15 0)
(3 6.544378549e-15 0)
(3 -4.831713621e-15 0)
(3 -4.463383244e-15 0)
(3 -4.272404045e-15 0)
(3 -3.273472784e-15 0)
(3 -2.875953491e-15 0)
(3 -3.050108391e-15 0)
(3 -3.018728882e-15 0)
(3 -5.327195048e-15 0)
(3 -8.448236159e-15 0)
(3 -7.57059362e-15 0)
(3 -6.469065929e-15 0)
(3 -6.726527599e-15 0)
(3 -7.501187923e-15 0)
(3 -7.799147019e-15 0)
(3 -6.899390432e-15 0)
(3 -5.574317287e-15 0)
(3 -5.77275242e-15 0)
(3 -5.017140148e-15 0)
(3 -2.546347623e-15 0)
(3 -1.471884403e-15 0)
(3 -3.651269715e-16 0)
(3 -4.226261581e-16 0)
(3 2.047574376e-15 0)
(3 2.773201267e-15 0)
(3 3.10537745e-15 0)
(3 9.988435127e-15 0)
(3 1.211724533e-14 0)
(3 1.037640423e-14 0)
(3 8.027105065e-15 0)
(3 6.024692601e-15 0)
(3 4.061862386e-15 0)
(3 -1.66935453e-15 0)
(3 -2.463716262e-15 0)
(3 -1.746886446e-15 0)
(3 4.753139764e-16 0)
(3 1.84380227e-15 0)
(3 2.079387541e-15 0)
(3 7.306445955e-16 0)
(3 -2.472557545e-15 0)
(3 -4.137331909e-15 0)
(3 -5.422380481e-15 0)
(3 -8.189609203e-15 0)
(3 -9.436849998e-15 0)
(3 -7.762062494e-15 0)
(3 -6.241638088e-15 0)
(3 -3.9487102e-15 0)
(3 -2.721518365e-15 0)
(3 1.60038303e-15 0)
(3 3.120230775e-15 0)
(3 4.407588539e-15 0)
(3 1.827570993e-14 0)
(3 1.744844752e-14 0)
(3 1.562241928e-14 0)
(3 1.239397503e-14 0)
(3 8.929000758e-15 0)
(3 5.56088147e-15 0)
(3 4.726382206e-15 0)
(3 6.298743673e-15 0)
(3 6.347868653e-15 0)
(3 5.43981755e-15 0)
(3 4.018730491e-15 0)
(3 3.871711948e-15 0)
(3 2.772855143e-15 0)
(3 5.373560315e-16 0)
(3 -3.039485524e-15 0)
(3 -6.447361313e-15 0)
(3 -6.950654041e-15 0)
(3 -5.441651938e-15 0)
(3 -4.847827419e-15 0)
(3 -5.220534332e-15 0)
(3 -5.158282788e-15 0)
(3 -3.289645378e-15 0)
(3 -1.204146881e-15 0)
(3 1.862663258e-15 0)
(3 4.5218749e-15 0)
(3 1.383181184e-14 0)
(3 1.463091491e-14 0)
(3 1.55240659e-14 0)
(3 1.647105514e-14 0)
(3 1.730878298e-14 0)
(3 1.623525965e-14 0)
(3 1.495329083e-14 0)
(3 1.181863016e-14 0)
(3 8.869200801e-15 0)
(3 8.126439761e-15 0)
(3 4.74856137e-15 0)
(3 4.303577275e-15 0)
(3 3.298520563e-15 0)
(3 2.890522231e-15 0)
(3 8.361208154e-17 0)
(3 -1.196792079e-15 0)
(3 -5.08246868e-16 0)
(3 -3.511379296e-16 0)
(3 -1.300229373e-15 0)
(3 -5.6596941e-16 0)
(3 -1.423957464e-15 0)
(3 -3.150282663e-15 0)
(3 -1.282842125e-15 0)
(3 4.90943195e-16 0)
(3 1.334167286e-15 0)
(3 8.146813443e-16 0)
(3 1.8556949e-15 0)
(3 2.724026577e-15 0)
(3 3.30668268e-15 0)
(3 4.139658635e-15 0)
(3 6.257806982e-15 0)
(3 9.335789083e-15 0)
(3 8.03974646e-15 0)
(3 7.435578643e-15 0)
(3 6.534571268e-15 0)
(3 5.34320896e-15 0)
(3 3.515636555e-15 0)
(3 3.509813907e-15 0)
(3 4.328097849e-15 0)
(3 5.40259891e-15 0)
(3 7.242109144e-15 0)
(3 8.012573536e-15 0)
(3 4.65635104e-15 0)
(3 2.513795498e-15 0)
(3 3.092053027e-15 0)
(3 -4.973429598e-16 0)
(3 -2.121004909e-15 0)
(3 -4.09114866e-15 0)
(3 -3.987484215e-15 0)
(3 -3.439192625e-15 0)
(3 -5.581282708e-15 0)
(3 -5.302396641e-15 0)
(3 -4.386817513e-15 0)
(3 -4.858213691e-15 0)
(3 -4.742343648e-15 0)
(3 -1.942312241e-15 0)
(3 2.441266906e-15 0)
(3 4.243127973e-15 0)
(3 4.638501783e-15 0)
(3 3.561419201e-15 0)
(3 3.844906313e-15 0)
(3 3.746157352e-15 0)
(3 2.978266566e-15 0)
(3 1.756349915e-15 0)
(3 1.902735378e-15 0)
(3 2.445342478e-15 0)
(3 2.845188889e-16 0)
(3 -1.588640753e-15 0)
(3 -3.371308005e-15 0)
(3 -5.61805674e-15 0)
(3 -5.861648237e-15 0)
(3 -5.312629622e-15 0)
(3 -5.469094679e-15 0)
(3 -6.41669467e-15 0)
(3 -7.563205912e-15 0)
(3 -1.799761546e-15 0)
(3 -2.605855845e-15 0)
(3 -3.422357172e-15 0)
(3 -3.177770689e-15 0)
(3 -2.938486553e-15 0)
(3 -1.615214171e-15 0)
(3 7.064799868e-16 0)
(3 1.75106756e-15 0)
(3 7.854238774e-16 0)
(3 2.635523168e-15 0)
(3 9.100684195e-15 0)
(3 1.166873152e-14 0)
(3 1.341542844e-14 0)
(3 1.15953044e-14 0)
(3 7.623161008e-15 0)
(3 4.473827414e-15 0)
(3 2.382716839e-15 0)
(3 2.200679724e-15 0)
(3 3.190253426e-15 0)
(3 4.894906099e-15 0)
(3 3.255047721e-15 0)
(3 8.99878828e-16 0)
(3 -2.802432497e-15 0)
(3 -1.894340524e-15 0)
(3 -5.180361501e-15 0)
(3 6.132347555e-15 0)
(3 5.669606165e-15 0)
(3 3.931049881e-15 0)
(3 3.459402151e-15 0)
(3 3.421025562e-15 0)
(3 3.253271008e-15 0)
(3 2.427609327e-15 0)
(3 -1.302397946e-16 0)
(3 -1.951418094e-15 0)
(3 -1.562880226e-16 0)
(3 3.820431392e-15 0)
(3 6.04218346e-15 0)
(3 7.620656763e-15 0)
(3 7.097463743e-15 0)
(3 3.780368481e-15 0)
(3 8.416725084e-16 0)
(3 -4.505613836e-16 0)
(3 -1.082593237e-15 0)
(3 1.441401199e-15 0)
(3 6.070991479e-15 0)
(3 4.349589098e-15 0)
(3 2.936367877e-15 0)
(3 1.594479336e-15 0)
(3 5.312701457e-15 0)
(3 4.379373109e-15 0)
(3 3.668626367e-15 0)
(3 4.666054545e-15 0)
(3 4.570169969e-15 0)
(3 4.223143995e-15 0)
(3 3.296512876e-15 0)
(3 2.881503206e-15 0)
(3 2.344826904e-15 0)
(3 3.442397019e-16 0)
(3 -1.709041809e-15 0)
(3 -4.06765692e-15 0)
(3 -5.671583454e-15 0)
(3 -4.060700644e-15 0)
(3 -2.961128548e-15 0)
(3 -2.97062277e-15 0)
(3 -4.352567769e-15 0)
(3 -4.23618807e-15 0)
(3 -4.224877041e-15 0)
(3 -5.048206373e-15 0)
(3 -3.141088312e-15 0)
(3 6.920575766e-15 0)
(3 1.683464791e-14 0)
(3 2.833475974e-14 0)
(3 4.610019984e-14 0)
(3 1.312206024e-13 0)
(3 1.213581529e-13 0)
(3 -5.556257148e-15 0)
(3 -4.997547677e-15 0)
(3 -4.974981582e-15 0)
(3 -5.910671418e-15 0)
(3 -7.562605794e-15 0)
(3 -7.433447066e-15 0)
(3 -6.970072831e-15 0)
(3 -7.336102736e-15 0)
(3 -8.142790861e-15 0)
(3 -8.503678666e-15 0)
(3 -8.321245997e-15 0)
(3 -8.091602666e-15 0)
(3 -7.929448994e-15 0)
(3 -3.089652417e-15 0)
(3 2.144468025e-15 0)
(3 3.536474891e-15 0)
(3 7.606535871e-15 0)
(3 1.875306699e-14 0)
(3 4.043314257e-14 0)
(3 8.744951505e-14 0)
(3 2.044080106e-13 0)
(3 4.765127827e-13 0)
(3 8.467111313e-13 0)
(3 1.321596199e-12 0)
(3 2.534053938e-12 0)
(3 -8.604162711e-15 0)
(3 -9.906775948e-15 0)
(3 -1.010399231e-14 0)
(3 -1.08343981e-14 0)
(3 -1.171365395e-14 0)
(3 -1.257849276e-14 0)
(3 -1.219398415e-14 0)
(3 -1.249067775e-14 0)
(3 -1.274567868e-14 0)
(3 -1.168021174e-14 0)
(3 -1.26252758e-14 0)
(3 -1.519555468e-14 0)
(3 -1.08507622e-14 0)
(3 -1.652916709e-15 0)
(3 8.787766281e-15 0)
(3 3.616834204e-14 0)
(3 1.248120728e-13 0)
(3 3.836889845e-13 0)
(3 8.861349201e-13 0)
(3 1.59434488e-12 0)
(3 2.703892577e-12 0)
(3 4.094237087e-12 0)
(3 5.38788585e-12 0)
(3 6.835139185e-12 0)
(3 1.501749403e-10 0)
(3 -4.529055727e-15 0)
(3 -5.023426341e-15 0)
(3 -5.56377733e-15 0)
(3 -7.270922925e-15 0)
(3 -5.939152068e-15 0)
(3 -6.801680053e-15 0)
(3 -8.261070934e-15 0)
(3 -9.551408433e-15 0)
(3 -8.850750854e-15 0)
(3 -9.113373752e-15 0)
(3 2.557698186e-15 0)
(3 3.630175567e-14 0)
(3 1.395916576e-13 0)
(3 3.211671104e-13 0)
(3 7.407102711e-13 0)
(3 1.527246442e-12 0)
(3 2.88816524e-12 0)
(3 4.623035958e-12 0)
(3 6.182690112e-12 0)
(3 7.439460279e-12 0)
(3 9.294825249e-12 0)
(3 9.32900349e-12 0)
(3 1.504344224e-11 0)
(3 1.389742004e-11 0)
(3.000000006 1.220704549e-08 0)
(3 2.142213296e-15 0)
(3 2.85319235e-15 0)
(3 2.786929911e-15 0)
(3 2.013802238e-15 0)
(3 3.55836932e-15 0)
(3 6.271120747e-15 0)
(3 7.944957041e-15 0)
(3 2.224709367e-14 0)
(3 5.87436341e-14 0)
(3 2.455580249e-13 0)
(3 6.439305874e-13 0)
(3 1.669026906e-12 0)
(3 2.719962843e-12 0)
(3 5.070109197e-12 0)
(3 7.708347189e-12 0)
(3 1.090746953e-11 0)
(3 1.455596094e-11 0)
(3 1.34730251e-11 0)
(3 1.428078797e-11 0)
(3 1.40014773e-11 0)
(3 1.466522767e-11 0)
(3 1.042845772e-11 0)
(3 3.903705965e-11 0)
(2.999999998 -3.460568157e-09 0)
(3.000000135 2.239893645e-07 0)
(3 6.240741415e-15 0)
(3 5.61556766e-15 0)
(3 6.691249822e-15 0)
(3 8.46223484e-15 0)
(3 1.28946352e-14 0)
(3 4.603480415e-14 0)
(3 3.303754197e-13 0)
(3 9.425804371e-13 0)
(3 2.640291027e-12 0)
(3 4.955810659e-12 0)
(3 8.401550271e-12 0)
(3 1.062734501e-11 0)
(3 1.267198185e-11 0)
(3 2.044501946e-11 0)
(3 2.087545541e-11 0)
(3 1.968434794e-11 0)
(3 2.408727962e-11 0)
(3 -6.221590669e-12 0)
(3 1.254139692e-10 0)
(3 -5.731555596e-10 0)
(2.999999999 -6.404212291e-10 0)
(2.999999991 -1.564526231e-08 0)
(2.999999953 -6.773825651e-08 0)
(2.999999168 -1.891520716e-06 0)
(3.000000797 1.488521626e-06 0)
(3 4.431123496e-15 0)
(3 4.652608336e-15 0)
(3 1.80441242e-14 0)
(3 2.350398712e-13 0)
(3 8.250622069e-13 0)
(3 3.117582741e-12 0)
(3 7.503532803e-12 0)
(3 1.214495292e-11 0)
(3 1.960409506e-11 0)
(3 1.927676754e-11 0)
(3 1.914733101e-11 0)
(3 1.96613103e-11 0)
(3 1.722974398e-11 0)
(3 7.920284102e-11 0)
(3 -5.546151712e-10 0)
(3 5.848707668e-10 0)
(2.999999996 -8.411030713e-09 0)
(2.999999986 -1.764017938e-08 0)
(2.999999889 -1.966136509e-07 0)
(2.999999588 -6.26244203e-07 0)
(2.999997801 -3.857533424e-06 0)
(2.999993016 -1.14157044e-05 0)
(2.999972167 -4.913060659e-05 0)
(2.999918582 -0.0002013129047 0)
(2.999868579 -0.0002516687741 0)
(3 2.321674275e-15 0)
(3 4.628553238e-14 0)
(3 2.949243928e-12 0)
(3 1.051244858e-11 0)
(3 1.360025771e-11 0)
(3 2.554661786e-11 0)
(3 3.050560097e-11 0)
(3 3.176072013e-11 0)
(3 4.325819964e-11 0)
(3 -6.177456618e-11 0)
(3 2.752056406e-10 0)
(2.999999999 -2.106320696e-09 0)
(2.999999993 -8.696926302e-09 0)
(2.999999952 -7.501278089e-08 0)
(2.999999781 -3.31075825e-07 0)
(2.999999021 -1.595343517e-06 0)
(2.999996465 -5.681348434e-06 0)
(2.999987618 -2.124751746e-05 0)
(2.999961781 -6.401818814e-05 0)
(2.999888195 -0.0001982081625 0)
(2.999697068 -0.0005282843418 0)
(2.999275767 -0.00135297434 0)
(2.998363715 -0.003035563603 0)
(2.996721951 -0.006602924418 0)
(2.994339234 -0.01099952191 0)
(3 3.944865242e-13 0)
(3 4.602431789e-13 0)
(3 4.944993403e-11 0)
(3 5.207599203e-11 0)
(3 3.056640667e-11 0)
(3 1.596253147e-10 0)
(3 -4.879037952e-10 0)
(2.999999999 -1.286651649e-09 0)
(2.999999984 -2.309980304e-08 0)
(2.999999907 -1.339481745e-07 0)
(2.999999528 -7.422253498e-07 0)
(2.999998102 -3.00615875e-06 0)
(2.999992907 -1.183762223e-05 0)
(2.99997785 -3.747627114e-05 0)
(2.999934475 -0.0001145573517 0)
(2.999832121 -0.0002992039909 0)
(2.999572239 -0.0007762747561 0)
(2.999077287 -0.001712590564 0)
(2.997902929 -0.004031660514 0)
(2.996217582 -0.007460482384 0)
(2.99237283 -0.01550292205 0)
(2.988864186 -0.02356078034 0)
(2.979801022 -0.04483328533 0)
(2.975785012 -0.05641771786 0)
(2.960450003 -0.09070541514 0)
(3 2.807702625e-12 0)
(3 -2.180245816e-11 0)
(3 5.093731388e-10 0)
(2.999999999 -2.151135928e-09 0)
(2.999999984 -2.008015263e-08 0)
(2.999999864 -2.144615971e-07 0)
(2.999999291 -1.104971281e-06 0)
(2.999996683 -5.539255806e-06 0)
(2.999987944 -2.022124367e-05 0)
(2.999961252 -6.974025187e-05 0)
(2.999893978 -0.0001920663271 0)
(2.999726953 -0.0005225398335 0)
(2.999381501 -0.00118583939 0)
(2.998696274 -0.002665413903 0)
(2.997447557 -0.005307834762 0)
(2.995569316 -0.009610636216 0)
(2.991947148 -0.01774042649 0)
(2.987619118 -0.028667828 0)
(2.980413608 -0.04738979729 0)
(2.9754893 -0.06233698207 0)
(2.962317313 -0.09746152121 0)
(2.957606675 -0.113811028 0)
(2.944052495 -0.1499544758 0)
(2.940878201 -0.1623783129 0)
(2.925790985 -0.1973849861 0)
(2.999999996 -6.078262657e-09 0)
(2.99999994 -8.911316337e-08 0)
(2.999999392 -1.00393545e-06 0)
(2.999996226 -6.42800143e-06 0)
(2.999982849 -3.03204825e-05 0)
(2.999943193 -0.0001084287119 0)
(2.999836502 -0.0003346075528 0)
(2.999593214 -0.0008280973213 0)
(2.999045001 -0.002019303774 0)
(2.99817405 -0.004158715952 0)
(2.996509858 -0.00830495489 0)
(2.994380802 -0.013786093 0)
(2.990030348 -0.02529543353 0)
(2.986756093 -0.03624210643 0)
(2.978999668 -0.05913220882 0)
(2.975483407 -0.07675521821 0)
(2.963182528 -0.114592399 0)
(2.961375992 -0.1322648705 0)
(2.947409757 -0.1794815202 0)
(2.946254481 -0.191302405 0)
(2.932614381 -0.225188896 0)
(2.93160056 -0.2321370008 0)
(2.915832874 -0.2607538543 0)
(2.911805285 -0.2641691517 0)
(2.904467028 -0.2788412933 0)
(2.999990161 -1.572603874e-05 0)
(2.999946091 -9.426106535e-05 0)
(2.999794356 -0.0003740809432 0)
(2.999409178 -0.001128455051 0)
(2.998528164 -0.002998719027 0)
(2.99725277 -0.006161334079 0)
(2.995497214 -0.01094620031 0)
(2.992530931 -0.01859414731 0)
(2.987955908 -0.03102094978 0)
(2.984869597 -0.04238834317 0)
(2.979698454 -0.06045519154 0)
(2.974755486 -0.07716943154 0)
(2.967392321 -0.1027797832 0)
(2.964519331 -0.1192830344 0)
(2.957622135 -0.1494849101 0)
(2.957197465 -0.1635086498 0)
(2.947481183 -0.1892057951 0)
(2.939205992 -0.2092847074 0)
(2.931035845 -0.2273629916 0)
(2.927894386 -0.2364234332 0)
(2.91238839 -0.2535612927 0)
(2.905899714 -0.2600635419 0)
(2.902955627 -0.2609332107 0)
(2.899859497 -0.2635826057 0)
(2.898810348 -0.2667087502 0)
(2.998524503 -0.002340463602 0)
(2.995575836 -0.007461988418 0)
(2.989960187 -0.01846662994 0)
(2.982755157 -0.03395894468 0)
(2.974125577 -0.05400623134 0)
(2.965206114 -0.07912830729 0)
(2.952507104 -0.1132742098 0)
(2.947239159 -0.1322019039 0)
(2.930802759 -0.1701562995 0)
(2.922838682 -0.2000083033 0)
(2.910436022 -0.2334850451 0)
(2.905393145 -0.2507186258 0)
(2.890371182 -0.2806190837 0)
(2.88356403 -0.2946427784 0)
(2.874777584 -0.3157679631 0)
(2.868785718 -0.3126695859 0)
(2.865076959 -0.3105003982 0)
(2.861887631 -0.304545098 0)
(2.858349709 -0.3002429385 0)
(2.857229796 -0.2903182455 0)
(2.858931677 -0.2857109812 0)
(2.861127809 -0.2821666974 0)
(2.867775661 -0.2785522356 0)
(2.870861768 -0.2746566667 0)
(2.873977041 -0.2721308177 0)
(2.987352871 -0.003382233931 0)
(2.973709312 -0.007622081836 0)
(2.959740716 -0.01622999196 0)
(2.948413701 -0.02481820395 0)
(2.935276849 -0.05341136057 0)
(2.925672229 -0.05997216448 0)
(2.917032953 -0.06907863454 0)
(2.90850129 -0.09174672263 0)
(2.898300359 -0.1201786633 0)
(2.895676855 -0.1241094529 0)
(2.888805802 -0.1392836355 0)
(2.879769665 -0.160307316 0)
(2.873812363 -0.1777228333 0)
(2.87069337 -0.1938532122 0)
(2.865179948 -0.210482753 0)
(2.858848973 -0.2257887771 0)
(2.855013009 -0.2354648735 0)
(2.854750986 -0.2448231644 0)
(2.855614516 -0.2573528921 0)
(2.85598011 -0.2613015697 0)
(2.857172793 -0.2645084095 0)
(2.860021135 -0.2615995305 0)