/*--------------------------------*- C++ -*----------------------------------*\
  =========                 |
  \\      /  F ield         | OpenFOAM: The Open Source CFD Toolbox
   \\    /   O peration     | Website:  https://openfoam.org
    \\  /    A nd           | Version:  7
     \\/     M anipulation  |
\*---------------------------------------------------------------------------*/
FoamFile
{
    version     2.0;
    format      ascii;
    class       volScalarField;
    location    "1.3";
    object      p;
}
// * * * * * * * * * * * * * * * * * * * * * * * * * * * * * * * * * * * * * //

dimensions      [1 -1 -2 0 0 0 0];

internalField   nonuniform List<scalar> 
2222
(
1.913939412
1.88116792
1.855686199
1.836376157
1.813806211
1.784776187
1.766144357
1.751481457
1.732263889
1.706740328
1.687848442
1.670733551
1.649798228
1.626498448
1.60810142
1.59076316
1.572533754
1.539527325
2.391635112
2.367733806
2.302141411
2.24924939
2.210648022
2.191157827
2.167635852
2.138245009
2.109089937
2.087471069
2.060554556
2.020877462
1.982603182
1.951491319
1.922165439
1.888156634
1.863604631
1.846448147
1.825290646
1.797942775
1.781066627
1.767332198
1.747539482
1.720552286
1.700316623
1.68248221
1.661173764
1.63790953
1.618679738
1.600066418
1.58059099
1.545476926
2.381880535
2.363576521
2.325482764
2.266125622
2.2190025
2.196059718
2.172497823
2.143457013
2.115279184
2.090342614
2.063675383
2.028242967
1.99702083
1.96859634
1.938560965
1.904235433
1.880699679
1.86473977
1.843657705
1.815755497
1.795956364
1.77904692
1.756576958
1.728279416
1.708075815
1.69095022
1.66998685
1.646948858
1.627094603
1.607210441
1.586532767
1.549776362
2.383277531
2.36245364
2.333934311
2.286235818
2.238222606
2.203854943
2.178990766
2.148176575
2.119436222
2.093250299
2.065989513
2.03211717
2.007652853
1.986084653
1.958915471
1.925459449
1.902083161
1.884587983
1.861168391
1.830367743
1.806391586
1.786251407
1.761513964
1.732942034
1.713090249
1.696728559
1.675992906
1.653131141
1.632954161
1.612245381
1.590847729
1.553285316
2.393667266
2.364743763
2.338002494
2.300879026
2.25980479
2.220376444
2.18973167
2.154501513
2.125477869
2.098589293
2.070283441
2.036831312
2.015015791
1.997452454
1.973195244
1.940932692
1.916945794
1.89682614
1.871122587
1.838824365
1.813707524
1.792577023
1.767261676
1.739487593
1.719430274
1.702764819
1.681227064
1.657981895
1.637617434
1.616426729
1.594849988
1.557346723
2.413860827
2.372737662
2.343409585
2.304547953
2.274000948
2.241072317
2.205914115
2.165800574
2.136349278
2.110699409
2.081276608
2.046183375
2.022194731
2.004081644
1.980149337
1.94802148
1.924098793
1.903225075
1.877207045
1.845487594
1.821463381
1.801217586
1.776596156
1.750026984
1.729206044
1.71124085
1.687976526
1.663834709
1.643033846
1.621387778
1.599673944
1.562382029
2.433396483
2.388768751
2.351957745
2.308527836
2.281839205
2.258464416
2.225541675
2.183951407
2.15433751
2.131362007
2.100539903
2.060997026
2.031060358
2.009954313
1.985109035
1.953170605
1.929911518
1.909147586
1.883592604
1.853548365
1.831874403
1.813524326
1.790030273
1.76425007
1.741738669
1.721606426
1.696268598
1.671145966
1.649458034
1.627074951
1.60491269
1.567621997
2.446617913
2.408474268
2.364863064
2.314874989
2.287366877
2.268280669
2.241014583
2.202971776
2.173878122
2.152053675
2.120445246
2.077355357
2.042365518
2.017450242
1.991091483
1.95954802
1.937623184
1.917630028
1.89313745
1.865326387
1.84564586
1.827856648
1.803607722
1.776815524
1.752797647
1.731165635
1.704477346
1.679046029
1.656158319
1.633128882
1.609455027
1.571415711
2.454813129
2.425331725
2.382112158
2.328457641
2.294595225
2.274483868
2.248349804
2.213314378
2.185518511
2.163425497
2.132762105
2.090427597
2.055608953
2.028803986
2.000994006
1.969903383
1.949461292
1.930585847
1.907160199
1.880712876
1.860252818
1.840216336
1.813385388
1.784361409
1.759611809
1.737565113
1.710189397
1.685564738
1.662597588
1.639073603
1.613461749
1.574534393
2.461393581
2.436638882
2.399722771
2.348759796
2.307811389
2.28254861
2.254423962
2.21913283
2.191866333
2.169258685
2.1394364
2.099862957
2.069298225
2.043950258
2.015816193
1.985308618
1.965356121
1.946732521
1.923200575
1.895609699
1.871376749
1.846863973
1.81623803
1.785327337
1.762039438
1.741071424
1.714366196
1.688694372
1.664485639
1.64078265
1.614181518
1.57620113
2.469113242
2.444613284
2.413355396
2.369452168
2.327145687
2.295133827
2.263138711
2.226242764
2.198814231
2.175117957
2.145271891
2.107487239
2.08166805
2.059333462
2.032124227
2.001859307
1.980675528
1.960887647
1.935661542
1.906196328
1.878797723
1.851193644
1.818720889
1.78755892
1.764098506
1.742887752
1.716426652
1.690705836
1.66627311
1.64297461
1.615148877
1.579562978
2.480816228
2.452152179
2.423286535
2.384398783
2.346563277
2.311766305
2.276332418
2.237845533
2.209829495
2.184107792
2.153038878
2.115847005
2.092553383
2.071165331
2.043311758
2.012711272
1.990306799
1.969538477
1.942621162
1.912183964
1.883569951
1.854992844
1.8223034
1.791580829
1.767914836
1.745815933
1.718894922
1.69009743
1.665832864
1.642861965
1.616098347
1.586024633
2.496179549
2.461713912
2.431906504
2.393614441
2.361314946
2.329450847
2.293959726
2.255533747
2.227182144
2.198771746
2.164746098
2.126788002
2.102819087
2.080234799
2.050644177
2.020018433
1.996379402
1.973847291
1.946184761
1.91661278
1.888590709
1.860648465
1.828881035
1.798529008
1.774504157
1.750312664
1.72231855
1.692477166
1.669475793
1.646181524
1.622905442
1.599754765
2.510544409
2.475420854
2.441762027
2.40122692
2.371603329
2.344489108
2.312338903
2.276689878
2.248927777
2.218298687
2.18075007
2.140691253
2.113729317
2.089170225
2.057994832
2.027397618
2.002587914
1.978599919
1.949757673
1.920667377
1.894717861
1.870049589
1.841776355
1.813290687
1.785452134
1.757223199
1.725351712
1.69693982
1.675650762
1.653082383
1.636897487
1.626617092
2.522073043
2.49104789
2.45375119
2.410650961
2.380799055
2.35625255
2.326291996
2.292922794
2.266607527
2.236180712
2.197293452
2.155883141
2.125820181
2.09916537
2.066969313
2.036315111
2.010594776
1.985305501
1.955571226
1.926272428
1.900237091
1.875917451
1.846635138
1.814016988
1.78707703
1.760534321
1.729224291
1.699759062
1.682174499
1.665370698
1.661198971
1.661871847
2.531808617
2.505699246
2.467962799
2.423838124
2.391128142
2.365897204
2.337450865
2.304872129
2.27816829
2.247903368
2.209824845
2.16953897
2.138037909
2.109884913
2.077191155
2.047356434
2.021497524
1.99474188
1.963279814
1.93584881
1.911930928
1.883353069
1.848290899
1.813776808
1.787999002
1.762969693
1.733384924
1.705398915
1.692632042
1.69118171
1.694590856
1.693864205
2.541817735
2.519283188
2.48384311
2.441385893
2.405752942
2.375769758
2.340391881
2.305721309
2.280113548
2.253261433
2.218152223
2.180930282
2.149436803
2.121068064
2.0896267
2.061507599
2.035298164
2.007175233
1.973730092
1.942047839
1.911197178
1.880214225
1.845516397
1.811819882
1.787324888
1.764466484
1.740220269
1.720735186
1.71995824
1.724491855
1.729540636
1.720535228
2.554185826
2.532084915
2.499626153
2.461011853
2.424388649
2.389307906
2.347869718
2.310778212
2.283738486
2.257063011
2.223760074
2.189665935
2.159631773
2.132155017
2.100956233
2.073044213
2.045940676
2.016358899
1.979118319
1.94220759
1.909477578
1.877760678
1.843656347
1.811063447
1.788161805
1.771089846
1.75672423
1.751040141
1.755146531
1.7564942
1.756911435
1.742150078
2.568515933
2.545073226
2.514034602
2.479523849
2.443795119
2.405756542
2.359975336
2.320994277
2.291151479
2.261738356
2.227926883
2.195301247
2.167449765
2.140003601
2.107538289
2.075394703
2.045520709
2.014364671
1.977002823
1.940177785
1.907965894
1.877311666
1.845452173
1.81550827
1.796787624
1.789623641
1.787038476
1.785305687
1.788386617
1.787119033
1.778813188
1.756790436
2.585671887
2.560549846
2.528407737
2.494635504
2.460956403
2.423574572
2.376915802
2.337508795
2.304139584
2.270204611
2.233905726
2.202890469
2.176170307
2.146251739
2.111344184
2.07689562
2.044592062
2.011430576
1.974739672
1.939416526
1.908902122
1.880566888
1.852066235
1.827807479
1.820711198
1.821444256
1.822869763
1.819357362
1.817632684
1.811509142
1.79591181
1.766166839
2.60437875
2.577112043
2.542515031
2.505807481
2.473383088
2.439384013
2.395970262
2.357551465
2.32101522
2.282579418
2.242079787
2.208332739
2.178253819
2.147735162
2.112564865
2.078113104
2.045015064
2.010774073
1.972372212
1.937999497
1.910743142
1.886933438
1.863945039
1.854613866
1.860026799
1.861170765
1.857585281
1.851409715
1.842426526
1.827482531
1.80731708
1.773244029
2.619055154
2.592030318
2.555568764
2.515502671
2.481816172
2.449670367
2.409458369
2.373258842
2.336760968
2.296227383
2.251780623
2.21438801
2.182159433
2.150111674
2.114674024
2.079392086
2.045827535
2.012044681
1.973671312
1.940556632
1.917699318
1.898386764
1.892161633
1.890324683
1.902133446
1.901408959
1.888310847
1.876132625
1.85939939
1.83881447
1.815599665
1.779040147
2.632878576
2.60770335
2.569960506
2.525658374
2.487562054
2.452900615
2.413175897
2.382517573
2.347425618
2.307500627
2.261812476
2.221415495
2.186661163
2.150715577
2.117301767
2.083576666
2.049893673
2.016626503
1.978884693
1.948170691
1.931749423
1.928172309
1.932198768
1.927450283
1.935646714
1.93113553
1.910442725
1.891589346
1.870454221
1.847706687
1.82380334
1.785788019
2.642400805
2.622196544
2.585757307
2.536838909
2.492279882
2.450877751
2.407590588
2.375523936
2.347800489
2.313621466
2.270890099
2.229241964
2.192180624
2.153394865
2.116377947
2.085109306
2.05508904
2.023500696
1.989455036
1.969274019
1.966366076
1.971726853
1.968161854
1.959140128
1.958632341
1.949906044
1.924633005
1.901136574
1.878340286
1.854939281
1.831216269
1.792888279
2.656643585
2.639021767
2.601515502
2.549534931
2.500378297
2.452288353
2.403079133
2.370654144
2.34598405
2.314798672
2.274943147
2.235497532
2.198375321
2.156285184
2.11331708
2.083843544
2.058796406
2.033807579
2.014939505
2.010344147
2.013856017
2.016781122
2.003605033
1.986511943
1.97637027
1.961506454
1.933653933
1.908571195
1.885199749
1.861131441
1.838198811
1.800695704
2.667401487
2.650819763
2.61358702
2.559613131
2.510227251
2.459986984
2.406586342
2.369711997
2.342721063
2.315290634
2.280936744
2.240695447
2.202794363
2.159449026
2.11520832
2.086396787
2.066852152
2.056481221
2.053660543
2.049628009
2.05611303
2.051911338
2.031892495
2.005777669
1.988634347
1.96917923
1.94055538
1.915662611
1.892393434
1.867720709
1.845975151
1.810138751
2.681584166
2.650673171
2.612081339
2.56702374
2.521494334
2.473879023
2.419467389
2.376364758
2.340955239
2.305955042
2.268231544
2.234944636
2.203437046
2.164395067
2.12132986
2.094248794
2.089004493
2.092150942
2.09315379
2.086883238
2.087929037
2.078045278
2.050583288
2.017242236
1.996289166
1.975753766
1.947650133
1.923113728
1.900464571
1.874199884
1.854168124
1.820970065
2.694991333
2.652143571
2.610456085
2.568949081
2.530211166
2.487828581
2.435263179
2.386800717
2.3427437
2.300130741
2.260378307
2.229625466
2.203017364
2.172763083
2.138902206
2.128115172
2.126490647
2.133829143
2.129003189
2.119580991
2.111369835
2.098372758
2.06854426
2.027868341
2.003714179
1.983019784
1.955189429
1.929527985
1.907359083
1.880846889
1.863149348
1.832486381
2.70472231
2.65788473
2.614339404
2.573510461
2.541687071
2.503352056
2.454595392
2.40430682
2.350859588
2.30294737
2.262389012
2.231286152
2.209234149
2.190041381
2.177198582
2.171368038
2.172592557
2.17639686
2.165200082
2.144783092
2.125224774
2.105974995
2.072880447
2.035925902
2.010507732
1.990060882
1.964934131
1.937832974
1.914031743
1.889935685
1.873639897
1.843468087
2.715219805
2.675771322
2.626484849
2.575802275
2.5282371
2.483044053
2.438002859
2.3963513
2.356631551
2.312815635
2.273210111
2.245353782
2.231735106
2.228860222
2.222883664
2.212839115
2.211052277
2.20805162
2.191383467
2.159905301
2.133559378
2.110791608
2.078463086
2.043418676
2.017022484
1.993827739
1.965228507
1.941743053
1.922266719
1.901462034
1.884018675
1.852137869
2.730695687
2.693288789
2.642941458
2.580887803
2.525704724
2.472210898
2.419927458
2.383803976
2.364820912
2.336671016
2.306545193
2.292877193
2.293787611
2.292528012
2.278477041
2.257083925
2.245342705
2.228191645
2.203822516
2.172227429
2.145313632
2.118437437
2.089956101
2.053476302
2.025776855
2.001338213
1.972088709
1.949149629
1.93413955
1.914619976
1.89591733
1.863799454
2.728536581
2.695675301
2.644721424
2.581159481
2.520078433
2.460155042
2.404440055
2.370380295
2.355689081
2.343210601
2.323362789
2.316089221
2.320721755
2.321377298
2.304169198
2.273653199
2.251367359
2.236194773
2.199320228
2.167010941
2.14059933
2.121639744
2.095566125
2.058216321
2.020947389
1.99450743
1.968745182
1.952700515
1.94021423
1.92152065
1.896215357
1.862533761
2.727069039
2.69322427
2.641588385
2.576834187
2.515007467
2.455180727
2.400534231
2.368511883
2.354808394
2.34431853
2.326330992
2.320209651
2.325182377
2.325043779
2.30603773
2.274776382
2.252018615
2.235899625
2.198541801
2.166390048
2.14035457
2.12144524
2.095214491
2.057811905
2.020681411
1.994663861
1.969064122
1.953056257
1.940617424
1.921499002
1.896460568
1.862753866
2.724756285
2.691351151
2.638921613
2.574075809
2.511938811
2.451422821
2.397493455
2.367161121
2.354315602
2.345266167
2.329871918
2.324923191
2.330397514
2.328092652
2.308105102
2.276046513
2.252698897
2.235790186
2.197894738
2.16590042
2.140250313
2.121385639
2.095191697
2.057701409
2.020714821
1.994982779
1.969643904
1.953571728
1.941223352
1.921755976
1.896830333
1.86316308
2.722051985
2.688713087
2.635723153
2.572011544
2.50821789
2.447226592
2.39437081
2.365786398
2.353967468
2.345390095
2.333653423
2.330023141
2.335287209
2.331882497
2.309863013
2.277376595
2.253309034
2.235650194
2.197232024
2.165464347
2.140277241
2.121460774
2.095321591
2.05768081
2.02084114
1.995433405
1.970308412
1.95420765
1.941945087
1.922107613
1.897197979
1.863666779
2.719142518
2.685696108
2.63253176
2.569215605
2.504368113
2.443459157
2.391759793
2.36480418
2.353412048
2.346415075
2.337659455
2.333826192
2.33805939
2.334425759
2.310909412
2.278417654
2.253855989
2.235401684
2.196752459
2.1650846
2.14058368
2.121697212
2.095542024
2.057757416
2.021038202
1.996003755
1.971096554
1.955006052
1.94263764
1.922535257
1.897618304
1.864258119
2.716123599
2.682446277
2.628713553
2.564553777
2.500936321
2.439657634
2.38936211
2.363854305
2.354238525
2.347956831
2.340593819
2.337211076
2.341871682
2.335486692
2.311945437
2.279230505
2.254410644
2.235295174
2.19726784
2.164950705
2.141153928
2.122224539
2.095923697
2.057949138
2.021341252
1.996683284
1.972099412
1.955889918
1.943306127
1.922884654
1.898052095
1.864807557
2.713092828
2.678968293
2.625235279
2.560789817
2.498176233
2.436124363
2.387352382
2.363759942
2.354950125
2.349049856
2.343306961
2.342532592
2.34837259
2.337203422
2.313339137
2.280156539
2.254993482
2.235258315
2.198833408
2.165022354
2.141836421
2.123051204
2.096529664
2.058265585
2.021800237
1.9974549
1.973158067
1.956867063
1.943915867
1.923199881
1.898468233
1.86534618
2.710101802
2.67535804
2.62170759
2.558930235
2.494718041
2.432761805
2.38558028
2.363428874
2.355558654
2.350464878
2.347344583
2.348402539
2.352049443
2.340304518
2.314598127
2.281278624
2.255570534
2.235043215
2.199871842
2.165229583
2.142619041
2.123925384
2.097223515
2.0586744
2.022401085
1.998239074
1.974148774
1.957885188
1.944583045
1.923574345
1.899252883
1.866090079
2.70713286
2.671551082
2.617418206
2.558172674
2.490024329
2.42961749
2.38410606
2.363101569
2.356005893
2.353173033
2.351489157
2.351441199
2.352440611
2.342548722
2.315389815
2.281963926
2.256123092
2.234903277
2.199955371
2.165569886
2.143416639
2.124600605
2.097779794
2.059203453
2.023124998
1.998990968
1.975001917
1.958817148
1.945351247
1.924023359
1.899300219
1.866700308
2.704116352
2.66744729
2.612996072
2.555126779
2.486497421
2.42670454
2.382877973
2.362892809
2.356888998
2.356517909
2.354156247
2.352116667
2.353236531
2.343342061
2.315691065
2.28221302
2.256533013
2.234781434
2.199514037
2.165789805
2.144116307
2.125131523
2.098144549
2.0597168
2.023881324
1.999706686
1.97577581
1.959652634
1.946144196
1.924599483
1.899753706
1.867223402
2.700982122
2.663206099
2.609651488
2.549166521
2.484786505
2.424080687
2.381882141
2.363214733
2.358363424
2.358476906
2.355313656
2.353813068
2.356845765
2.343042045
2.316398706
2.282857012
2.25680297
2.234384638
2.199166751
2.165898591
2.14472225
2.125477657
2.098308048
2.060194656
2.024618821
2.000435774
1.97654829
1.960501439
1.946967482
1.925301789
1.900398165
1.867675822
2.697831068
2.659295155
2.606236591
2.544949212
2.482768289
2.421720564
2.381108423
2.363457893
2.359385989
2.35889448
2.356473478
2.35850436
2.362299268
2.343887575
2.317702286
2.283873031
2.256897843
2.233447698
2.197986758
2.165754048
2.145186201
2.125659584
2.098497411
2.060598906
2.025319844
2.001209587
1.977373243
1.96154442
1.947799847
1.926100147
1.901103663
1.868130347
2.694717213
2.6551636
2.601039868
2.543625214
2.478757625
2.419567959
2.380616145
2.3641366
2.359684721
2.359478681
2.359578801
2.365480392
2.364208923
2.346323653
2.319123856
2.284637772
2.256797625
2.23177959
2.196682193
2.165402739
2.145500977
2.125730758
2.098459156
2.060857677
2.025966785
2.00198595
1.978283674
1.962687977
1.948626548
1.926958052
1.901917959
1.86864084
2.691494807
2.649540699
2.595228232
2.54368855
2.47370401
2.417538366
2.379848127
2.364930457
2.360379532
2.362207338
2.364312756
2.368503057
2.364255403
2.34851215
2.320051086
2.285083613
2.256253572
2.230015752
2.195105093
2.165040051
2.145723057
2.125713429
2.098384211
2.061116603
2.026590148
2.002734141
1.979127469
1.963511949
1.949301378
1.92784822
1.902827062
1.869143531
2.688130258
2.644953461
2.592183283
2.541099396
2.471865644
2.415826393
2.380188993
2.36591098
2.362332719
2.366668803
2.367833581
2.369626745
2.36383675
2.349254327
2.320210681
2.285507272
2.255820309
2.229112561
2.194132873
2.164820093
2.145945378
2.125649774
2.098202037
2.06133989
2.027190385
2.003454903
1.979874163
1.964080361
1.949847245
1.928654993
1.903790016
1.869818233
2.684739296
2.642661082
2.590833138
2.533953275
2.47181889
2.414545003
2.379638365
2.367196792
2.36519062
2.369726528
2.370043937
2.368902394
2.365711297
2.349043657
2.320320641
2.28586561
2.255251905
2.22774333
2.193511137
2.164822129
2.146155032
2.125595579
2.097922845
2.06157384
2.027816767
2.004175905
1.980692841
1.964700916
1.950293305
1.929474178
1.904909455
1.870684967
2.710450151
2.681400281
2.639992283
2.588482679
2.528055491
2.471116948
2.413958084
2.381064337
2.369057767
2.367407525
2.371695553
2.371061172
2.371553642
2.369647824
2.349001811
2.32148488
2.286160846
2.254662105
2.226219751
2.192506904
2.164708114
2.146313054
2.125621067
2.097636942
2.061817365
2.028482497
2.004936853
1.981686652
1.965498679
1.950781611
1.93053187
1.906390702
1.871717125
2.7067103
2.677954907
2.634947543
2.582866842
2.526310386
2.4682496
2.412844089
2.382069972
2.371007086
2.368946631
2.372273263
2.372357412
2.378423092
2.372025701
2.350247552
2.323130751
2.286409988
2.254651279
2.225874384
2.191787652
2.1645782
2.146439752
2.125732299
2.097411681
2.062082992
2.029159635
2.005725173
1.982709738
1.966501072
1.951325268
1.931825827
1.908096543
1.87307087
2.703041154
2.674182083
2.627165861
2.575133449
2.527355188
2.46410926
2.413324176
2.383698887
2.373057011
2.371057637
2.3735374
2.376661962
2.3855657
2.373265172
2.352382206
2.323965995
2.286666635
2.254557483
2.225830512
2.191742883
2.164722786
2.146649809
2.125919794
2.097295744
2.062396153
2.029790945
2.006506709
1.983551887
1.967438851
1.951949736
1.931873396
1.909071
1.874380309
2.699175937
2.670242646
2.623082464
2.570945534
2.527706197
2.463364067
2.413432314
2.385671902
2.37517338
2.374535436
2.378295023
2.38457278
2.388431473
2.373226637
2.353868928
2.324275747
2.28677444
2.253956805
2.225056769
2.191763289
2.165267349
2.147108897
2.126183846
2.09734557
2.062856158
2.030482935
2.007326471
1.984251949
1.968167037
1.952609018
1.931796001
1.909470011
1.875382704
2.695062632
2.66680308
2.621210082
2.569155184
2.524325248
2.463496956
2.413924516
2.387003182
2.377865826
2.379760288
2.386045414
2.391199812
2.388752488
2.373350753
2.354776496
2.323946051
2.286778722
2.253357769
2.223457694
2.191429069
2.165618475
2.147720402
2.1265418
2.097577972
2.063688889
2.031643048
2.008326794
1.984874745
1.968744099
1.9532283
1.931731321
1.909850174
1.876228454
2.690750528
2.663485845
2.618481036
2.568429975
2.516367491
2.463406315
2.414646943
2.389227301
2.381866198
2.385827283
2.391223591
2.394322339
2.388794254
2.375083191
2.354931055
2.324502475
2.286892326
2.252890722
2.222537642
2.190555956
2.165836028
2.148062931
2.12695934
2.097859455
2.064598092
2.033145015
2.009513023
1.985516231
1.969279139
1.953852471
1.931805472
1.910307342
1.877086105
2.686321519
2.658916905
2.612085845
2.565012637
2.512004045
2.462439091
2.415383822
2.392207401
2.385636097
2.389614331
2.393619728
2.393755595
2.391801754
2.378342575
2.355342988
2.325655763
2.286947055
2.252355787
2.222123872
2.190003965
2.165881412
2.148305738
2.12741461
2.098116637
2.064828308
2.033895704
2.010514084
1.986336854
1.969898297
1.954422507
1.932002288
1.910789901
1.878001612
2.681937471
2.652277079
2.603477271
2.557617094
2.511128904
2.459772132
2.416309259
2.394521783
2.38785091
2.391041054
2.393684145
2.395169167
2.397644098
2.379961658
2.356776888
2.326418852
2.286651478
2.251200328
2.221429622
2.190006444
2.166208046
2.148763055
2.127905206
2.098383335
2.064647332
2.034276532
2.011194763
1.987637744
1.970775856
1.955052321
1.932275273
1.91128467
1.878917755
2.677746781
2.648027301
2.599587787
2.54969591
2.512153569
2.457766902
2.417193134
2.395692404
2.388205967
2.390535202
2.396996675
2.400566677
2.400058508
2.380587862
2.358308822
2.326808022
2.286162335
2.249700676
2.21969962
2.190153383
2.166806486
2.149603971
2.128419108
2.098677207
2.064284345
2.034586422
2.011813808
1.989707682
1.972088255
1.955688583
1.932535269
1.911797674
1.879789512
2.67364959
2.644948385
2.597601422
2.546174021
2.510598031
2.457312103
2.417499777
2.396788837
2.390250272
2.393801804
2.403806359
2.408237987
2.40092495
2.380380349
2.359387203
2.326902933
2.28609933
2.249207747
2.218135018
2.190181215
2.167463018
2.150553212
2.128899746
2.09894708
2.063840094
2.034884809
2.012509735
1.991852693
1.973501134
1.956292327
1.932730666
1.912404803
1.88067586
2.669257539
2.639903517
2.592887804
2.546456417
2.504696996
2.457507195
2.418500953
2.399770786
2.394840086
2.400743847
2.409252247
2.411178722
2.400311091
2.379768165
2.360217627
2.32656695
2.286210849
2.249343596
2.217958968
2.189902603
2.167924797
2.150782342
2.129219346
2.099135606
2.063451662
2.035218428
2.013307565
1.993180226
1.974493481
1.956789053
1.932953649
1.913215157
1.881694714
2.664215418
2.630453877
2.58457688
2.547726416
2.500243392
2.457692399
2.420135185
2.403848127
2.399701142
2.405931485
2.411715196
2.41187888
2.399421242
2.38025298
2.360758695
2.325777904
2.28576616
2.248761689
2.21788383
2.189561505
2.168253805
2.150714361
2.129348848
2.099221419
2.06311991
2.035645887
2.014222245
1.994050661
1.975151324
1.957210847
1.93331114
1.914220001
1.882884811
2.658686257
2.624163397
2.579607436
2.544151614
2.499630203
2.45744447
2.421557806
2.406862563
2.402619966
2.408487643
2.411022506
2.410817558
2.400396341
2.381556025
2.360581651
2.325382112
2.284481828
2.247118875
2.217204353
2.189800253
2.168444311
2.150394171
2.129284273
2.09920195
2.062853556
2.036207748
2.0152312
1.994853942
1.975729387
1.957674574
1.933891746
1.915199689
1.884082839
2.653490465
2.621222572
2.578016753
2.536109157
2.500964161
2.455515107
2.422763949
2.408373698
2.403432806
2.408214119
2.412482507
2.412677634
2.403193504
2.383050921
2.360261355
2.325369179
2.283706434
2.246027987
2.21562133
2.190271659
2.168352816
2.149880991
2.129111852
2.099159411
2.062843043
2.036919592
2.016188648
1.995685473
1.97639095
1.958251892
1.934606505
1.915988613
1.885083006
2.648480962
2.61702383
2.57543898
2.532617409
2.501931869
2.455595543
2.424091996
2.409083766
2.403511783
2.410843262
2.418138847
2.418847532
2.405624358
2.383550698
2.360978554
2.325340547
2.283419237
2.245451105
2.214746883
2.190649286
2.1679606
2.149559789
2.128950406
2.099603282
2.063058838
2.037658243
2.016991346
1.996553163
1.977217916
1.958992261
1.93518742
1.916671044
1.885941294
2.641739814
2.608062726
2.56880326
2.531846231
2.50109461
2.456749859
2.426637038
2.41246851
2.407443525
2.418035856
2.42596953
2.423668908
2.406185954
2.383605973
2.362052716
2.325169675
2.2830043
2.245326513
2.214330552
2.190848442
2.168140586
2.149401091
2.128841844
2.099097431
2.063489617
2.038395386
2.017790846
1.997529207
1.978246854
1.95985166
1.935660555
1.917423371
1.886853092
2.692380124
2.632415482
2.596776845
2.560149856
2.534387039
2.497216377
2.458304154
2.430147554
2.418480723
2.415059531
2.426518091
2.429729579
2.424870712
2.406421473
2.383091209
2.363160303
2.324521163
2.281667278
2.24454383
2.214032553
2.190711344
2.168521376
2.14946394
2.128902979
2.098868989
2.064059901
2.039261955
2.018856999
1.998753456
1.979493503
1.960703876
1.936175609
1.918405842
1.88796945
2.689125121
2.62803552
2.592248217
2.556240368
2.53393766
2.495337871
2.459376853
2.432765426
2.42335088
2.421076562
2.430607107
2.430736001
2.42458624
2.405670703
2.383564507
2.363840098
2.322648049
2.279792058
2.24293303
2.213560298
2.190523645
2.169511528
2.150446825
2.129117909
2.098790264
2.064624057
2.040414991
2.020343972
2.000247295
1.980847216
1.961528882
1.936900749
1.919795084
1.889297637
2.686621142
2.626323371
2.592056853
2.555667259
2.53018121
2.495524598
2.459351661
2.433657275
2.42601241
2.424039597
2.430825263
2.429665546
2.423860855
2.406091362
2.384624756
2.363956741
2.321201416
2.278217302
2.241510932
2.212857286
2.190705582
2.171744614
2.151829738
2.129326207
2.098787037
2.065242617
2.041831753
2.021997398
2.00178406
1.982141976
1.962412323
1.938086857
1.921540939
1.890679999
2.68366534
2.623705169
2.590383011
2.556834993
2.526564978
2.496167792
2.459009934
2.433798312
2.42548101
2.423333596
2.431606356
2.432467271
2.425490989
2.407751542
2.386043909
2.363488892
2.320412309
2.276708544
2.240205523
2.211691338
2.191009473
2.173302104
2.15234101
2.129436414
2.098917881
2.065939303
2.043177598
2.023411944
2.00313082
1.983246475
1.963444404
1.939447114
1.922984742
1.891974513
2.679866279
2.617414762
2.583191287
2.55410262
2.525684332
2.49652657
2.460356024
2.436645239
2.427518403
2.423916608
2.437198363
2.440073771
2.429438063
2.410479174
2.387295934
2.363505831
2.319919119
2.275429373
2.239159368
2.210867434
2.191499676
2.173966532
2.152549681
2.129523091
2.099200472
2.066762126
2.044207671
2.024470406
2.004145703
1.984149177
1.964459192
1.94014727
1.923789312
1.893201852
2.67537603
2.61026566
2.570838846
2.546604138
2.525968496
2.496682174
2.462538099
2.441844772
2.433866061
2.429647343
2.446243333
2.445632249
2.431738207
2.411416844
2.388056611
2.3638732
2.319189039
2.274503987
2.238509797
2.210739682
2.192066873
2.174606587
2.15284582
2.12966444
2.099537347
2.067662463
2.045050509
2.025315174
2.004887103
1.984893517
2.671501585
2.608390805
2.566368273
2.540757152
)
;

boundaryField
{
    inlet
    {
        type            fixedValue;
        value           nonuniform 0();
    }
    outlet
    {
        type            zeroGradient;
    }
    bottom
    {
        type            slip;
    }
    top
    {
        type            slip;
    }
    obstacle
    {
        type            zeroGradient;
    }
    defaultFaces
    {
        type            empty;
    }
    procBoundary11to5
    {
        type            processor;
        value           nonuniform List<scalar> 
33
(
1.911310049
1.87973917
1.853979082
1.833320423
1.809413946
1.77849405
1.756009188
1.73780604
1.716773676
1.691114536
1.673751198
1.658394001
1.638668458
1.615610374
1.597764055
1.581053942
1.563546776
1.532032664
2.361834181
2.32550852
2.274932074
2.241073091
2.208695172
2.189308812
2.161438895
2.123436345
2.091606018
2.074629378
2.045913987
2.003759315
1.966259642
1.939887675
1.939887675
)
;
    }
    procBoundary11to10
    {
        type            processor;
        value           nonuniform List<scalar> 
70
(
2.405659851
2.413652271
2.427203751
2.447902706
2.466224665
2.476031922
2.482465666
2.489318483
2.49877417
2.511435506
2.526236857
2.542157588
2.548905676
2.554741172
2.560129158
2.56760715
2.582338129
2.602250689
2.622176395
2.639379286
2.652585767
2.659994667
2.666431841
2.676241595
2.695250624
2.720536453
2.75158667
2.758685432
2.764796545
2.772595947
2.766067675
2.764271873
2.761580901
2.75851006
2.755248201
2.751874202
2.748362954
2.744828257
2.741200182
2.737551412
2.733817472
2.730058272
2.726291103
2.72243443
2.71844776
2.714386026
2.714386026
2.763945163
2.761237495
2.758313413
2.755277736
2.751890894
2.747813618
2.743045517
2.738235094
2.733738517
2.729559723
2.725452951
2.721277574
2.716454569
2.710452135
2.703623129
2.697349535
2.697349535
2.742436093
2.739883504
2.740792774
2.7431547
2.74397683
2.743061862
)
;
    }
    procBoundary11to16
    {
        type            processor;
        value           uniform 2.741572467;
    }
    procBoundary11to17
    {
        type            processor;
        value           nonuniform List<scalar> 
36
(
1.965225426
1.940430499
1.924319557
1.894399877
2.527550292
2.495991577
2.464335482
2.446002199
2.440583456
2.43895599
2.450818766
2.447134147
2.432586849
2.41192411
2.387916598
2.363726218
2.31777031
2.27422877
2.238600646
2.21130125
2.192759187
2.175427356
2.153304004
2.129889437
2.09985237
2.068519756
2.04592141
2.026167136
2.005554172
1.965225426
1.985545902
2.669487235
2.608892231
2.567117908
2.527550292
2.539079681
)
;
    }
}


// ************************************************************************* //
