/*--------------------------------*- C++ -*----------------------------------*\
  =========                 |
  \\      /  F ield         | OpenFOAM: The Open Source CFD Toolbox
   \\    /   O peration     | Website:  https://openfoam.org
    \\  /    A nd           | Version:  7
     \\/     M anipulation  |
\*---------------------------------------------------------------------------*/
FoamFile
{
    version     2.0;
    format      ascii;
    class       volVectorField;
    location    "5";
    object      U;
}
// * * * * * * * * * * * * * * * * * * * * * * * * * * * * * * * * * * * * * //

dimensions      [0 1 -1 0 0 0 0];

internalField   nonuniform List<vector> 
2222
(
(3 -2.899894927e-15 0)
(3 -2.356406568e-15 0)
(3 -8.391303421e-16 0)
(3 1.175720784e-15 0)
(3 1.850569451e-15 0)
(3 2.425609474e-15 0)
(3 1.105960337e-15 0)
(3 1.154731384e-15 0)
(3 3.122596038e-15 0)
(3 3.553887539e-15 0)
(3 4.482878799e-15 0)
(3 4.78992125e-15 0)
(3 4.187427966e-15 0)
(3 3.590930156e-15 0)
(3 9.861480233e-16 0)
(3 -1.963710181e-15 0)
(3 -3.487508561e-15 0)
(3 -6.003150796e-15 0)
(3 -7.833745774e-15 0)
(3 -8.790309794e-15 0)
(3 -6.536766873e-15 0)
(3 -4.90533229e-15 0)
(3 -3.449000431e-15 0)
(3 -1.800587392e-15 0)
(3 1.182120187e-15 0)
(3 5.361538457e-15 0)
(3 7.076056907e-15 0)
(3 3.400901602e-15 0)
(3 -7.627171909e-16 0)
(3 -1.574153287e-15 0)
(3 -3.303967846e-15 0)
(3 -4.548875292e-15 0)
(3 -6.576338474e-15 0)
(3 -8.4201122e-15 0)
(3 -5.70958518e-15 0)
(3 -3.053474658e-15 0)
(3 -5.506405993e-16 0)
(3 2.998328465e-15 0)
(3 3.535214924e-15 0)
(3 5.240830379e-15 0)
(3 5.237468344e-15 0)
(3 4.614156344e-15 0)
(3 2.742207919e-15 0)
(3 2.205071543e-15 0)
(3 3.096201565e-15 0)
(3 2.836232414e-15 0)
(3 2.633265889e-15 0)
(3 1.661100353e-15 0)
(3 -1.410113288e-15 0)
(3 -5.425283982e-15 0)
(3 -5.83886928e-15 0)
(3 -6.893890101e-15 0)
(3 -8.722436562e-15 0)
(3 -1.104593746e-14 0)
(3 -1.147520103e-14 0)
(3 -1.028122638e-14 0)
(3 -2.075473023e-15 0)
(3 1.709989939e-15 0)
(3 2.973088462e-15 0)
(3 6.724451197e-15 0)
(3 8.275531841e-15 0)
(3 6.723935633e-15 0)
(3 1.130658561e-15 0)
(3 -6.140455642e-17 0)
(3 -2.779804529e-15 0)
(3 -5.28397206e-15 0)
(3 -7.261160234e-15 0)
(3 -7.885910981e-15 0)
(3 -6.677238047e-15 0)
(3 -3.515116173e-15 0)
(3 -1.770189446e-16 0)
(3 1.952871261e-15 0)
(3 5.137400738e-15 0)
(3 7.995183107e-15 0)
(3 8.40755158e-15 0)
(3 6.096532492e-15 0)
(3 3.611235303e-15 0)
(3 3.327901336e-15 0)
(3 3.09761814e-15 0)
(3 4.268496935e-16 0)
(3 -1.449815808e-15 0)
(3 -2.316824319e-15 0)
(3 -2.605814303e-15 0)
(3 -3.079913889e-15 0)
(3 -4.889334071e-15 0)
(3 -7.144464388e-15 0)
(3 -8.188996244e-15 0)
(3 -9.452075794e-15 0)
(3 -9.204983078e-15 0)
(3 -8.687089183e-15 0)
(3 3.498237741e-15 0)
(3 4.93526581e-15 0)
(3 5.717303139e-15 0)
(3 5.055696226e-15 0)
(3 4.51834661e-15 0)
(3 3.486438171e-15 0)
(3 -1.56095676e-16 0)
(3 -4.677526908e-15 0)
(3 -5.272283276e-15 0)
(3 -4.494809877e-15 0)
(3 -4.040597378e-15 0)
(3 -3.886487654e-15 0)
(3 -5.987911977e-15 0)
(3 -4.643334231e-15 0)
(3 -1.242249049e-15 0)
(3 -5.433836014e-16 0)
(3 8.668764927e-16 0)
(3 2.461314154e-15 0)
(3 4.241724036e-15 0)
(3 4.601240869e-15 0)
(3 3.542537545e-15 0)
(3 2.171997505e-15 0)
(3 1.02823468e-15 0)
(3 -1.309700153e-15 0)
(3 -3.478597816e-15 0)
(3 -3.807918341e-15 0)
(3 -2.355827534e-15 0)
(3 -2.340675495e-15 0)
(3 -4.073175784e-15 0)
(3 -8.23287034e-15 0)
(3 -8.347909467e-15 0)
(3 -8.064206223e-15 0)
(3 -6.406164349e-15 0)
(3 -5.972072972e-15 0)
(3 3.728230063e-15 0)
(3 2.457188341e-15 0)
(3 1.1300167e-15 0)
(3 -7.518258298e-16 0)
(3 -9.136211969e-16 0)
(3 -2.847153536e-16 0)
(3 -1.008646714e-15 0)
(3 -1.798204694e-15 0)
(3 -1.576937476e-15 0)
(3 -1.335785454e-15 0)
(3 -6.917269549e-16 0)
(3 3.569836877e-16 0)
(3 -4.403405258e-16 0)
(3 -1.826461116e-15 0)
(3 -1.409270656e-15 0)
(3 -8.537009089e-16 0)
(3 -8.233190033e-16 0)
(3 -7.29155329e-16 0)
(3 1.107023811e-15 0)
(3 3.149523985e-15 0)
(3 3.040131167e-15 0)
(3 2.421266518e-15 0)
(3 1.506083611e-15 0)
(3 -6.846910228e-16 0)
(3 -3.51975537e-15 0)
(3 -5.934577513e-15 0)
(3 -7.288338556e-15 0)
(3 -7.23844065e-15 0)
(3 -7.052259451e-15 0)
(3 -6.558803275e-15 0)
(3 -6.72933631e-15 0)
(3 -5.790156843e-15 0)
(3 -5.023470932e-15 0)
(3 -2.7550065e-15 0)
(3 -1.45311338e-15 0)
(3 -2.831598704e-15 0)
(3 -4.701243609e-15 0)
(3 -4.613681742e-15 0)
(3 -3.602127561e-15 0)
(3 -2.586025361e-15 0)
(3 -3.585220825e-16 0)
(3 2.929366176e-15 0)
(3 3.487911001e-15 0)
(3 1.741434175e-15 0)
(3 1.636665087e-15 0)
(3 2.483322511e-15 0)
(3 4.061711123e-15 0)
(3 3.78159092e-15 0)
(3 1.494038439e-15 0)
(3 1.328223073e-15 0)
(3 2.246119592e-15 0)
(3 3.763217726e-15 0)
(3 4.804147097e-15 0)
(3 4.928367535e-15 0)
(3 4.953302528e-15 0)
(3 5.3860923e-15 0)
(3 3.217474287e-15 0)
(3 1.544962344e-15 0)
(3 -1.76774876e-15 0)
(3 -4.952766987e-15 0)
(3 -6.538435073e-15 0)
(3 -7.350319288e-15 0)
(3 -7.668943181e-15 0)
(3 -6.332224926e-15 0)
(3 -5.152444686e-15 0)
(3 -4.097898861e-15 0)
(3 -2.634366525e-15 0)
(3 -9.764763868e-16 0)
(3 -6.491694789e-15 0)
(3 -5.545418279e-15 0)
(3 -4.356812808e-15 0)
(3 -3.409033124e-15 0)
(3 -2.717957876e-15 0)
(3 -1.667046076e-15 0)
(3 4.109949074e-16 0)
(3 1.790778371e-15 0)
(3 3.168362071e-15 0)
(3 3.546896523e-15 0)
(3 3.997772468e-15 0)
(3 4.763565012e-15 0)
(3 5.962699889e-15 0)
(3 5.004427612e-15 0)
(3 3.808794886e-15 0)
(3 3.2078132e-15 0)
(3 4.372264392e-15 0)
(3 5.592847349e-15 0)
(3 6.616370659e-15 0)
(3 5.776033756e-15 0)
(3 4.655874718e-15 0)
(3 3.030836201e-15 0)
(3 2.603253693e-15 0)
(3 3.380597897e-15 0)
(3 2.856419812e-15 0)
(3 -1.538624922e-16 0)
(3 -1.616128773e-15 0)
(3 -4.675771808e-15 0)
(3 -5.231523168e-15 0)
(3 -5.465558421e-15 0)
(3 -5.270207285e-15 0)
(3 -3.732673753e-15 0)
(3 -3.450231338e-15 0)
(3 -3.373234282e-15 0)
(3 -4.273228281e-15 0)
(3 -3.387353105e-15 0)
(3 -9.513553249e-16 0)
(3 9.939832033e-16 0)
(3 2.673455113e-15 0)
(3 3.626241879e-15 0)
(3 3.275203457e-15 0)
(3 2.020502717e-15 0)
(3 1.979638296e-15 0)
(3 2.823701347e-15 0)
(3 4.159204055e-15 0)
(3 5.202494399e-15 0)
(3 5.457172858e-15 0)
(3 4.606122248e-15 0)
(3 4.14318645e-15 0)
(3 4.22918236e-15 0)
(3 4.246785048e-15 0)
(3 4.399103486e-15 0)
(3 4.935892731e-15 0)
(3 5.114851679e-15 0)
(3 4.533978537e-15 0)
(3 4.32045594e-15 0)
(3 3.599835788e-15 0)
(3 3.19257368e-15 0)
(3 9.363747003e-16 0)
(3 -2.58188233e-16 0)
(3 -2.913608689e-15 0)
(3 -5.799769166e-15 0)
(3 -7.141931456e-15 0)
(3 -8.38789271e-15 0)
(3 -8.428018593e-15 0)
(3 -6.665492299e-15 0)
(3 -5.281709881e-15 0)
(3 -3.684844482e-15 0)
(3 -3.136665338e-15 0)
(3 -3.61865802e-16 0)
(3 3.453518903e-16 0)
(3 5.437681106e-16 0)
(3 2.437224848e-15 0)
(3 2.966557707e-15 0)
(3 2.395088743e-15 0)
(3 1.075959727e-15 0)
(3 1.168407353e-15 0)
(3 1.704023584e-15 0)
(3 1.667657459e-15 0)
(3 1.295976462e-15 0)
(3 1.535881294e-15 0)
(3 3.741498045e-15 0)
(3 5.187712657e-15 0)
(3 5.874655249e-15 0)
(3 6.393811476e-15 0)
(3 6.959343725e-15 0)
(3 7.089590106e-15 0)
(3 7.187417848e-15 0)
(3 3.896076892e-15 0)
(3 2.576474618e-15 0)
(3 2.125335398e-16 0)
(3 -1.9906847e-15 0)
(3 -3.340032421e-15 0)
(3 -4.25257308e-15 0)
(3 -4.977768322e-15 0)
(3 -4.908701972e-15 0)
(3 -5.766244644e-15 0)
(3 -6.353255792e-15 0)
(3 -6.096921766e-15 0)
(3 -5.191660632e-15 0)
(3 -3.331563428e-15 0)
(3 2.129849606e-15 0)
(3 -3.76278424e-16 0)
(3 5.407854151e-17 0)
(3 -8.409431885e-16 0)
(3 -9.28190715e-16 0)
(3 -1.06471292e-15 0)
(3 -3.831246609e-15 0)
(3 -4.144359106e-15 0)
(3 -1.554474417e-15 0)
(3 3.395967593e-16 0)
(3 8.678682639e-16 0)
(3 8.828104338e-17 0)
(3 -2.352064484e-15 0)
(3 -2.641000904e-15 0)
(3 -4.873485572e-16 0)
(3 3.680376266e-15 0)
(3 5.98513896e-15 0)
(3 7.888120413e-15 0)
(3 8.0505791e-15 0)
(3 7.975552435e-15 0)
(3 7.538365542e-15 0)
(3 4.023086488e-15 0)
(3 3.726280738e-15 0)
(3 2.166940764e-15 0)
(3 1.236271839e-16 0)
(3 -1.725252284e-15 0)
(3 -2.802059235e-15 0)
(3 -2.354862347e-15 0)
(3 -4.031242298e-15 0)
(3 -3.437078178e-15 0)
(3 -2.748094406e-15 0)
(3 -2.090508195e-15 0)
(3 5.015955867e-16 0)
(3 2.528475764e-15 0)
(3 3.365258124e-15 0)
(3 9.038239358e-17 0)
(3 -1.14671794e-15 0)
(3 -4.029530276e-16 0)
(3 -1.667246039e-15 0)
(3 -6.142207084e-15 0)
(3 -9.754108381e-15 0)
(3 -9.044395268e-15 0)
(3 -6.438052089e-15 0)
(3 -5.106500348e-15 0)
(3 -4.116938671e-15 0)
(3 -4.198725561e-15 0)
(3 -4.272955472e-15 0)
(3 -3.268359466e-15 0)
(3 -2.189423223e-15 0)
(3 6.292538585e-16 0)
(3 5.021007507e-15 0)
(3 6.807446281e-15 0)
(3 6.100971818e-15 0)
(3 4.051658929e-15 0)
(3 3.064249981e-15 0)
(3 3.675529079e-15 0)
(3 3.231363351e-15 0)
(3 2.811273436e-15 0)
(3 1.690447079e-15 0)
(3 6.802440501e-16 0)
(3 -6.880601991e-16 0)
(3 2.712595589e-16 0)
(3 -7.129103863e-16 0)
(3 -3.642570978e-16 0)
(3 2.686827698e-15 0)
(3 3.873982984e-15 0)
(3 3.663739112e-15 0)
(3 2.605187422e-15 0)
(3 -5.637263569e-16 0)
(3 1.768678989e-15 0)
(3 9.083422851e-16 0)
(3 -5.547120721e-16 0)
(3 -4.560952928e-15 0)
(3 -7.455329199e-15 0)
(3 -5.732398055e-15 0)
(3 -5.992409433e-15 0)
(3 -6.235986587e-15 0)
(3 -7.215808522e-15 0)
(3 -6.597499186e-15 0)
(3 -2.990367371e-15 0)
(3 -1.159364195e-15 0)
(3 -5.328425329e-16 0)
(3 1.236376254e-16 0)
(3 8.017647797e-16 0)
(3 1.909371584e-15 0)
(3 3.923387978e-15 0)
(3 3.648316225e-15 0)
(3 1.045042743e-15 0)
(3 6.250287763e-16 0)
(3 3.550353063e-16 0)
(3 -6.996566848e-16 0)
(3 -1.653307806e-15 0)
(3 -1.629394192e-15 0)
(3 -1.180671131e-15 0)
(3 -5.912972599e-16 0)
(3 5.154179014e-16 0)
(3 2.665017401e-15 0)
(3 4.019432113e-15 0)
(3 8.206754118e-15 0)
(3 1.086940414e-14 0)
(3 8.841088918e-15 0)
(3 4.823478441e-15 0)
(3 1.990678086e-15 0)
(3 6.67795595e-15 0)
(3 5.183245263e-15 0)
(3 1.933904104e-15 0)
(3 -2.89233478e-15 0)
(3 -4.58295561e-15 0)
(3 -4.752298135e-15 0)
(3 -5.3223083e-15 0)
(3 -5.517857796e-15 0)
(3 -5.445626268e-15 0)
(3 -5.64456665e-15 0)
(3 -4.16869056e-15 0)
(3 -7.956209802e-16 0)
(3 2.137813524e-16 0)
(3 7.608269542e-16 0)
(3 3.605177916e-16 0)
(3 -6.855548407e-16 0)
(3 -1.130665236e-15 0)
(3 -1.769797613e-15 0)
(3 -2.172791488e-15 0)
(3 -2.50130742e-15 0)
(3 -2.985912552e-15 0)
(3 -2.794570512e-15 0)
(3 -3.888274994e-15 0)
(3 -3.834691424e-15 0)
(3 -4.182153273e-15 0)
(3 -1.960835093e-15 0)
(3 1.911554396e-15 0)
(3 3.765035859e-15 0)
(3 6.135134845e-15 0)
(3 8.98547878e-15 0)
(3 1.061964621e-14 0)
(3 9.549589543e-15 0)
(3 7.965384699e-15 0)
(3 7.174440957e-15 0)
(3 4.56539275e-15 0)
(3 3.010617123e-15 0)
(3 1.372284892e-15 0)
(3 -7.583524319e-16 0)
(3 -2.535494982e-15 0)
(3 -4.758192856e-15 0)
(3 -4.742720846e-15 0)
(3 -3.147092628e-15 0)
(3 -3.266471168e-15 0)
(3 -4.852973576e-15 0)
(3 -7.480769381e-15 0)
(3 -8.287994386e-15 0)
(3 -3.924119733e-15 0)
(3 -1.907264658e-15 0)
(3 -1.055348341e-15 0)
(3 -1.68589163e-15 0)
(3 -4.19230711e-15 0)
(3 -4.365502843e-15 0)
(3 -4.611656583e-15 0)
(3 -5.429423606e-15 0)
(3 -5.267491397e-15 0)
(3 -4.331206082e-15 0)
(3 -3.209070072e-15 0)
(3 -1.367017217e-15 0)
(3 -5.353381608e-16 0)
(3 7.930244446e-16 0)
(3 2.316792942e-15 0)
(3 4.481621765e-15 0)
(3 7.695062006e-15 0)
(3 9.157092356e-15 0)
(3 9.44668176e-15 0)
(3 9.148668923e-15 0)
(3 8.111191763e-15 0)
(3 8.599516877e-15 0)
(3 2.974487837e-15 0)
(3 2.519226207e-15 0)
(3 1.792274429e-15 0)
(3 -2.057724771e-17 0)
(3 -2.793833322e-15 0)
(3 -3.804066149e-15 0)
(3 -3.55444816e-15 0)
(3 -3.199025678e-15 0)
(3 -3.583595238e-15 0)
(3 -5.49878811e-15 0)
(3 -7.411567815e-15 0)
(3 -9.239773611e-15 0)
(3 -7.071152987e-15 0)
(3 -6.228567584e-15 0)
(3 -6.623803838e-15 0)
(3 -6.596738475e-15 0)
(3 -7.164152719e-15 0)
(3 -6.66176714e-15 0)
(3 -6.565333061e-15 0)
(3 -6.877237802e-15 0)
(3 -7.21331872e-15 0)
(3 -7.190505257e-15 0)
(3 -4.096657516e-15 0)
(3 -1.660131745e-15 0)
(3 4.084560677e-16 0)
(3 3.060725162e-15 0)
(3 3.278864127e-15 0)
(3 3.764165396e-15 0)
(3 4.716861104e-15 0)
(3 6.287015491e-15 0)
(3 7.062074631e-15 0)
(3 8.718423867e-15 0)
(3 9.481589e-15 0)
(3 1.036333425e-14 0)
(3 6.52474983e-15 0)
(3 6.20268667e-15 0)
(3 5.550832583e-15 0)
(3 2.462759108e-15 0)
(3 2.635206897e-16 0)
(3 -1.029238754e-15 0)
(3 -4.743272313e-15 0)
(3 -5.814074406e-15 0)
(3 -6.741646512e-15 0)
(3 -9.273822677e-15 0)
(3 -7.836176045e-15 0)
(3 -7.13718282e-15 0)
(3 -9.164441597e-15 0)
(3 -1.093142241e-14 0)
(3 -1.117614678e-14 0)
(3 -8.725708783e-15 0)
(3 -6.80657244e-15 0)
(3 -6.902942365e-15 0)
(3 -6.49515419e-15 0)
(3 -5.448216416e-15 0)
(3 -4.521373578e-15 0)
(3 -2.673671232e-15 0)
(3 -5.162131566e-16 0)
(3 1.607026219e-15 0)
(3 3.488834706e-15 0)
(3 4.150720015e-15 0)
(3 4.506651961e-15 0)
(3 4.309408268e-15 0)
(3 4.036921959e-15 0)
(3 4.939120253e-15 0)
(3 6.622667059e-15 0)
(3 9.631018888e-15 0)
(3 1.210685548e-14 0)
(3 1.433315456e-14 0)
(3 1.162649861e-14 0)
(3 1.030261231e-14 0)
(3 5.896813823e-15 0)
(3 5.103099331e-15 0)
(3 6.241236166e-15 0)
(3 3.943146515e-15 0)
(3 -2.576056039e-15 0)
(3 -4.604672887e-15 0)
(3 -9.25361557e-15 0)
(3 -1.086152456e-14 0)
(3 -9.820031568e-15 0)
(3 -7.741874936e-15 0)
(3 -7.748408776e-15 0)
(3 -8.502441104e-15 0)
(3 -6.955231705e-15 0)
(3 -4.923821899e-15 0)
(3 -3.455143935e-15 0)
(3 -2.328205679e-15 0)
(3 -1.39241764e-15 0)
(3 5.530400269e-17 0)
(3 2.047640867e-15 0)
(3 2.568002667e-15 0)
(3 2.186859597e-15 0)
(3 2.290185759e-15 0)
(3 3.264719223e-15 0)
(3 4.034561145e-15 0)
(3 5.376801032e-15 0)
(3 4.910924389e-15 0)
(3 2.884170147e-15 0)
(3 3.260826562e-15 0)
(3 4.916915808e-15 0)
(3 7.676071712e-15 0)
(3 1.057365566e-14 0)
(3 1.396544449e-14 0)
(3 1.049226338e-14 0)
(3 7.486083342e-15 0)
(3 6.021323524e-15 0)
(3 4.124935747e-15 0)
(3 3.31888637e-15 0)
(3 2.633353015e-16 0)
(3 -5.883073843e-15 0)
(3 -1.038001409e-14 0)
(3 -1.285135236e-14 0)
(3 -1.275432909e-14 0)
(3 -1.253920994e-14 0)
(3 -1.200730556e-14 0)
(3 -1.123750209e-14 0)
(3 -1.012760066e-14 0)
(3 -1.014426309e-14 0)
(3 -1.112248928e-14 0)
(3 -9.298743064e-15 0)
(3 -5.452346616e-15 0)
(3 -3.617753119e-15 0)
(3 -1.565963973e-15 0)
(3 1.420489335e-16 0)
(3 1.28478251e-15 0)
(3 1.588084282e-15 0)
(3 1.370894878e-15 0)
(3 3.832156034e-16 0)
(3 4.741350176e-16 0)
(3 4.939529798e-16 0)
(3 1.032186985e-15 0)
(3 2.002558662e-15 0)
(3 1.899300257e-15 0)
(3 3.103616389e-15 0)
(3 5.040587027e-15 0)
(3 8.311268946e-15 0)
(3 1.056606822e-14 0)
(3 4.065830227e-15 0)
(3 4.524666385e-15 0)
(3 5.566010021e-15 0)
(3 5.266929544e-15 0)
(3 4.566714867e-15 0)
(3 2.261722051e-15 0)
(3 4.91886295e-16 0)
(3 -4.430642315e-15 0)
(3 -6.534742037e-15 0)
(3 -8.612709403e-15 0)
(3 -1.181583142e-14 0)
(3 -1.312203532e-14 0)
(3 -1.314225978e-14 0)
(3 -1.283156705e-14 0)
(3 -1.323149358e-14 0)
(3 -1.318207855e-14 0)
(3 -1.212976676e-14 0)
(3 -9.319254479e-15 0)
(3 -6.936082387e-15 0)
(3 -4.316945008e-15 0)
(3 -3.831038362e-15 0)
(3 -1.944944706e-15 0)
(3 -1.795037061e-15 0)
(3 -1.473970413e-15 0)
(3 -1.565610553e-15 0)
(3 -9.050720623e-16 0)
(3 -9.137373184e-17 0)
(3 2.123951545e-15 0)
(3 4.124016097e-15 0)
(3 4.854140304e-15 0)
(3 6.231295819e-15 0)
(3 7.210989077e-15 0)
(3 7.938081259e-15 0)
(3 5.573488949e-15 0)
(3 -9.927035584e-16 0)
(3 1.485424476e-16 0)
(3 1.295391587e-15 0)
(3 2.278674089e-15 0)
(3 3.352297398e-15 0)
(3 5.742330325e-15 0)
(3 6.06748363e-15 0)
(3 4.713149747e-15 0)
(3 5.259687526e-16 0)
(3 -6.579086485e-15 0)
(3 -7.8199624e-15 0)
(3 -1.053212255e-14 0)
(3 -1.312768005e-14 0)
(3 -1.395231054e-14 0)
(3 -1.24704189e-14 0)
(3 -1.055019295e-14 0)
(3 -1.031673174e-14 0)
(3 -1.044457482e-14 0)
(3 -9.454344282e-15 0)
(3 -6.437627906e-15 0)
(3 -5.025588344e-15 0)
(3 -6.09854715e-15 0)
(3 -6.375726803e-15 0)
(3 -5.410147823e-15 0)
(3 -2.698419057e-15 0)
(3 6.317651302e-17 0)
(3 3.703330435e-15 0)
(3 6.066537464e-15 0)
(3 7.771655588e-15 0)
(3 8.292798811e-15 0)
(3 1.055993322e-14 0)
(3 1.136081545e-14 0)
(3 7.801155727e-15 0)
(3 1.959037493e-15 0)
(3 -3.863577177e-15 0)
(3 -2.704530531e-15 0)
(3 -2.212480232e-15 0)
(3 -1.687611721e-16 0)
(3 2.088833238e-15 0)
(3 3.683693781e-15 0)
(3 6.111403093e-15 0)
(3 5.02555273e-15 0)
(3 3.242056887e-15 0)
(3 -2.458831261e-16 0)
(3 -2.10955436e-15 0)
(3 -6.580086144e-15 0)
(3 -8.729175573e-15 0)
(3 -8.149460443e-15 0)
(3 -8.942146375e-15 0)
(3 -9.451734418e-15 0)
(3 -9.531662561e-15 0)
(3 -7.989198976e-15 0)
(3 -7.960517829e-15 0)
(3 -8.439442367e-15 0)
(3 -8.025265417e-15 0)
(3 -5.271515249e-15 0)
(3 -5.095220275e-15 0)
(3 -4.216909203e-15 0)
(3 -2.697993466e-15 0)
(3 -1.003021879e-15 0)
(3 1.728552611e-15 0)
(3 3.953762868e-15 0)
(3 4.74366205e-15 0)
(3 2.990791767e-15 0)
(3 3.395853481e-15 0)
(3 3.591309058e-15 0)
(3 1.265641976e-15 0)
(3 1.395011271e-16 0)
(3 -3.824147912e-15 0)
(3 -3.262298907e-15 0)
(3 -1.446159633e-15 0)
(3 4.741923442e-16 0)
(3 4.783282984e-16 0)
(3 -8.863240778e-16 0)
(3 -8.035677778e-16 0)
(3 4.352343604e-17 0)
(3 -1.054316553e-16 0)
(3 -1.285195479e-15 0)
(3 -1.869286331e-15 0)
(3 -1.12419056e-15 0)
(3 -3.169480306e-15 0)
(3 -2.171198285e-15 0)
(3 -1.501448636e-15 0)
(3 -3.764462246e-15 0)
(3 -4.513431982e-15 0)
(3 -3.87984534e-15 0)
(3 -5.232864264e-15 0)
(3 -9.176449224e-15 0)
(3 -1.103475483e-14 0)
(3 -6.309272566e-15 0)
(3 -3.531162978e-15 0)
(3 -1.718760756e-15 0)
(3 -1.294857059e-15 0)
(3 -1.76010816e-15 0)
(3 -2.020647503e-15 0)
(3 -3.988709492e-18 0)
(3 1.283160563e-15 0)
(3 7.093972183e-16 0)
(3 -2.948437275e-16 0)
(3 -3.402164232e-16 0)
(3 7.91848004e-17 0)
(3 7.859855846e-16 0)
(3 -1.805483832e-15 0)
(3 -3.660396972e-15 0)
(3 -3.183397904e-15 0)
(3 -3.29755368e-15 0)
(3 -3.597857933e-15 0)
(3 -4.864130994e-15 0)
(3 -6.908105694e-15 0)
(3 -4.73018192e-15 0)
(3 -3.697558628e-15 0)
(3 -3.116909733e-15 0)
(3 -1.868586603e-15 0)
(3 2.679087093e-15 0)
(3 4.378435145e-15 0)
(3 3.747931117e-15 0)
(3 4.472226645e-15 0)
(3 3.749151729e-15 0)
(3 1.402894854e-15 0)
(3 -1.079460043e-15 0)
(3 -3.277496432e-15 0)
(3 -6.980164007e-15 0)
(3 -7.55429063e-15 0)
(3 -6.198227524e-15 0)
(3 -4.478757334e-15 0)
(3 -2.854221812e-15 0)
(3 -3.982978551e-15 0)
(3 -3.399896701e-15 0)
(3 -3.34657517e-15 0)
(3 -1.227039359e-15 0)
(3 -1.346693731e-15 0)
(3 -5.997405214e-16 0)
(3 -1.006472919e-15 0)
(3 -7.720298175e-17 0)
(3 5.152759675e-16 0)
(3 2.48118143e-15 0)
(3 -2.515504693e-15 0)
(3 -2.508003022e-15 0)
(3 -3.91318861e-15 0)
(3 -4.751146442e-15 0)
(3 -5.517507427e-15 0)
(3 -5.620199945e-15 0)
(3 -6.721424907e-15 0)
(3 -6.501587896e-15 0)
(3 -6.124159661e-15 0)
(3 -4.742373031e-15 0)
(3 -6.602737302e-16 0)
(3 4.132580186e-15 0)
(3 7.354195033e-15 0)
(3 7.16335194e-15 0)
(3 4.730890614e-15 0)
(3 1.39894671e-15 0)
(3 -6.527419278e-17 0)
(3 -1.701142317e-16 0)
(3 -1.963227324e-15 0)
(3 -3.570741048e-15 0)
(3 -4.646340875e-15 0)
(3 -4.049553748e-15 0)
(3 -4.145453903e-15 0)
(3 -3.960815171e-15 0)
(3 -3.387500091e-15 0)
(3 -2.425535717e-15 0)
(3 -1.451193368e-15 0)
(3 -2.084006526e-15 0)
(3 -3.424000083e-15 0)
(3 -3.258339138e-15 0)
(3 -3.103727481e-15 0)
(3 -2.061296927e-15 0)
(3 -1.635459497e-16 0)
(3 3.217327779e-15 0)
(3 -3.71067965e-15 0)
(3 -1.263947607e-15 0)
(3 -1.700518963e-15 0)
(3 -4.119927794e-15 0)
(3 -5.919512802e-15 0)
(3 -6.862228636e-15 0)
(3 -7.059157067e-15 0)
(3 -7.466053183e-15 0)
(3 -6.424842972e-15 0)
(3 -3.461982045e-15 0)
(3 9.846217828e-16 0)
(3 3.306181949e-15 0)
(3 6.113558123e-15 0)
(3 7.535894915e-15 0)
(3 6.853765459e-15 0)
(3 5.445762741e-15 0)
(3 2.856007348e-15 0)
(3 2.047173209e-15 0)
(3 2.908755782e-16 0)
(3 -5.161647226e-16 0)
(3 -1.571596006e-15 0)
(3 -2.636667319e-15 0)
(3 -3.356582553e-15 0)
(3 -4.456555447e-15 0)
(3 -4.139099248e-15 0)
(3 -3.127441985e-15 0)
(3 -2.496798868e-15 0)
(3 -3.436425659e-15 0)
(3 -4.965914515e-15 0)
(3 -6.108367051e-15 0)
(3 -5.640740373e-15 0)
(3 -4.166382825e-15 0)
(3 -2.042676356e-15 0)
(3 2.61526488e-16 0)
(3 8.071097911e-16 0)
(3 3.854862072e-16 0)
(3 -1.261759758e-15 0)
(3 -3.584789056e-15 0)
(3 -4.300710924e-15 0)
(3 -4.27638622e-15 0)
(3 -3.682162241e-15 0)
(3 -4.686624129e-15 0)
(3 -1.940585416e-15 0)
(3 3.6564366e-16 0)
(3 1.476368268e-15 0)
(3 2.913610559e-15 0)
(3 4.027022966e-15 0)
(3 3.824578762e-15 0)
(3 4.591670714e-15 0)
(3 5.492941581e-15 0)
(3 4.303012044e-15 0)
(3 2.427783439e-15 0)
(3 9.275434189e-16 0)
(3 -3.967530611e-16 0)
(3 -1.760494112e-15 0)
(3 -3.000564005e-15 0)
(3 -4.184358562e-15 0)
(3 -4.485805234e-15 0)
(3 -4.159347112e-15 0)
(3 -4.28875446e-15 0)
(3 -3.957935169e-15 0)
(3 -3.649964048e-15 0)
(3 -3.909487081e-15 0)
(3 -5.313452661e-15 0)
(3 -5.762221342e-15 0)
(3 -4.549009526e-15 0)
(3 -4.213488625e-15 0)
(3 -5.28751919e-15 0)
(3 2.370706972e-16 0)
(3 -4.587183759e-16 0)
(3 -1.570792214e-15 0)
(3 -2.291063723e-15 0)
(3 -1.781483288e-15 0)
(3 -2.530101427e-16 0)
(3 3.491151771e-16 0)
(3 1.352381963e-15 0)
(3 2.554893244e-15 0)
(3 3.661369002e-15 0)
(3 4.14795789e-15 0)
(3 4.556593169e-15 0)
(3 3.845978326e-15 0)
(3 2.676674289e-15 0)
(3 3.443034631e-15 0)
(3 4.290571763e-15 0)
(3 5.639995244e-15 0)
(3 4.096186493e-15 0)
(3 1.736097371e-15 0)
(3 -3.215618611e-15 0)
(3 -4.149528522e-15 0)
(3 -4.133572412e-15 0)
(3 -2.201920162e-15 0)
(3 -8.749436701e-16 0)
(3 -1.973894089e-16 0)
(3 -6.045119062e-16 0)
(3 -1.403439038e-15 0)
(3 -2.127112571e-15 0)
(3 -2.891823144e-15 0)
(3 -3.648058682e-15 0)
(3 -4.652845587e-15 0)
(3 -5.766930482e-15 0)
(3 -6.192258481e-15 0)
(3 -6.573775903e-15 0)
(3 -2.975625317e-15 0)
(3 -3.582978759e-15 0)
(3 -2.771504997e-15 0)
(3 -4.935423232e-16 0)
(3 1.627964803e-15 0)
(3 2.999762283e-15 0)
(3 3.25373214e-15 0)
(3 4.502219531e-15 0)
(3 6.220125978e-15 0)
(3 6.274133275e-15 0)
(3 6.22395235e-15 0)
(3 7.421668558e-15 0)
(3 7.786908753e-15 0)
(3 7.19225378e-15 0)
(3 7.677222455e-15 0)
(3 7.68798441e-15 0)
(3 7.033249959e-15 0)
(3 5.045426577e-15 0)
(3 5.645662179e-16 0)
(3 -3.823979736e-15 0)
(3 -4.257964557e-15 0)
(3 -4.046475049e-15 0)
(3 -2.468124711e-15 0)
(3 -1.238142253e-15 0)
(3 -1.318374264e-15 0)
(3 -1.544615891e-15 0)
(3 -1.489301641e-15 0)
(3 -2.755973403e-15 0)
(3 -3.773827207e-15 0)
(3 -3.940228621e-15 0)
(3 -3.271351615e-15 0)
(3 -3.15421434e-15 0)
(3 -3.891120256e-15 0)
(3 -8.0725603e-15 0)
(3 -3.807726001e-15 0)
(3 -3.116309652e-15 0)
(3 -1.975945347e-15 0)
(3 -9.112787994e-16 0)
(3 -3.594646085e-16 0)
(3 1.814677427e-16 0)
(3 2.92663408e-15 0)
(3 4.522076252e-15 0)
(3 7.615839015e-15 0)
(3 8.510912668e-15 0)
(3 9.809855374e-15 0)
(3 9.52998402e-15 0)
(3 9.548558772e-15 0)
(3 1.042234442e-14 0)
(3 9.368613655e-15 0)
(3 7.955310025e-15 0)
(3 4.688487091e-15 0)
(3 2.596697233e-15 0)
(3 9.785523972e-16 0)
(3 -1.785831945e-15 0)
(3 -3.503801238e-15 0)
(3 -5.298652708e-15 0)
(3 -6.183075796e-15 0)
(3 -5.672483226e-15 0)
(3 -5.886475739e-15 0)
(3 -4.626260957e-15 0)
(3 -3.544298335e-15 0)
(3 -2.074560054e-15 0)
(3 -1.334561396e-15 0)
(3 1.35227401e-16 0)
(3 4.571656223e-16 0)
(3 2.483125633e-16 0)
(3 -1.787130985e-15 0)
(3 -2.733624943e-15 0)
(3 -2.07521556e-15 0)
(3 -8.663829029e-16 0)
(3 -1.728519957e-15 0)
(3 -2.094091763e-15 0)
(3 -1.772522645e-15 0)
(3 -4.743522161e-16 0)
(3 3.905047961e-15 0)
(3 7.500203719e-15 0)
(3 9.084139439e-15 0)
(3 1.160271636e-14 0)
(3 1.199801105e-14 0)
(3 1.094554909e-14 0)
(3 9.707097655e-15 0)
(3 9.345639021e-15 0)
(3 7.716400892e-15 0)
(3 4.214973104e-15 0)
(3 2.062134113e-15 0)
(3 6.333586261e-16 0)
(3 7.679498867e-16 0)
(3 -8.776135465e-16 0)
(3 -4.166702262e-15 0)
(3 -6.658805689e-15 0)
(3 -7.144724628e-15 0)
(3 -6.67401668e-15 0)
(3 -4.946437759e-15 0)
(3 -2.947659255e-15 0)
(3 -1.184373157e-15 0)
(3 -8.547550502e-16 0)
(3 -3.355426863e-16 0)
(3 1.813071425e-15 0)
(3 3.08767779e-15 0)
(3 2.506436941e-15 0)
(3 1.302890766e-15 0)
(3 9.0719814e-16 0)
(3 -1.629354992e-15 0)
(3 -1.494910854e-15 0)
(3 -9.324601153e-16 0)
(3 -3.978140409e-16 0)
(3 1.507381047e-15 0)
(3 3.320675174e-15 0)
(3 5.311860904e-15 0)
(3 7.73527035e-15 0)
(3 9.644460792e-15 0)
(3 1.022424452e-14 0)
(3 9.922750984e-15 0)
(3 9.216588688e-15 0)
(3 9.486046595e-15 0)
(3 8.864616858e-15 0)
(3 5.673421275e-15 0)
(3 1.886194298e-15 0)
(3 -1.06347797e-15 0)
(3 -1.503279688e-15 0)
(3 -5.161928883e-16 0)
(3 -8.760617136e-16 0)
(3 -3.143671622e-15 0)
(3 -2.511891115e-15 0)
(3 -3.195021498e-15 0)
(3 -2.841413904e-15 0)
(3 -1.539391154e-15 0)
(3 -1.602672759e-15 0)
(3 -1.294794314e-15 0)
(3 -1.576668354e-15 0)
(3 -1.402958715e-15 0)
(3 -9.148683951e-16 0)
(3 -3.339321461e-16 0)
(3 3.388747718e-16 0)
(3 6.255987853e-16 0)
(3 -1.529784556e-17 0)
(3 -1.241826084e-15 0)
(3 -8.254283864e-16 0)
(3 1.036800492e-15 0)
(3 2.743357035e-15 0)
(3 2.747204406e-15 0)
(3 2.635922934e-15 0)
(3 2.583523257e-15 0)
(3 4.077467651e-15 0)
(3 5.898667068e-15 0)
(3 6.102805534e-15 0)
(3 6.438631318e-15 0)
(3 6.553166994e-15 0)
(3 6.430415986e-15 0)
(3 5.145714667e-15 0)
(3 1.3314237e-15 0)
(3 -6.51873098e-16 0)
(3 -3.571850978e-15 0)
(3 -3.323739654e-15 0)
(3 -2.226140054e-15 0)
(3 -8.71248377e-17 0)
(3 4.13097791e-16 0)
(3 1.409423076e-15 0)
(3 2.256443549e-16 0)
(3 -1.473430208e-15 0)
(3 -1.805111889e-15 0)
(3 -2.110680141e-15 0)
(3 -2.514629323e-15 0)
(3 -2.066023757e-15 0)
(3 -1.150412447e-15 0)
(3 -2.694384175e-15 0)
(3 -3.016732923e-15 0)
(3 -4.151334763e-15 0)
(3 -3.162406263e-15 0)
(3 -2.692208272e-15 0)
(3 -2.59346487e-15 0)
(3 -1.523782486e-15 0)
(3 -1.723304196e-15 0)
(3 -3.444050007e-17 0)
(3 2.67089852e-15 0)
(3 3.294919203e-15 0)
(3 4.496912346e-15 0)
(3 3.85165856e-15 0)
(3 3.386013056e-15 0)
(3 3.198228595e-15 0)
(3 3.447832764e-15 0)
(3 4.574411662e-15 0)
(3 3.808122496e-15 0)
(3 9.020293296e-16 0)
(3 -1.934870802e-15 0)
(3 -2.090111058e-15 0)
(3 -1.194848551e-15 0)
(3 -2.075456537e-15 0)
(3 -2.244103762e-15 0)
(3 2.919049765e-16 0)
(3 3.17796392e-15 0)
(3 3.314801136e-15 0)
(3 3.696145318e-15 0)
(3 2.076426061e-15 0)
(3 1.932492996e-16 0)
(3 -1.566367371e-15 0)
(3 -1.308751633e-15 0)
(3 -5.040568977e-16 0)
(3 -4.960731225e-16 0)
(3 -1.294305661e-15 0)
(3 -3.54520901e-15 0)
(3 -4.500955016e-15 0)
(3 -5.396874174e-15 0)
(3 -5.454288873e-15 0)
(3 -8.148796712e-15 0)
(3 -7.209226537e-15 0)
(3 -7.064291079e-15 0)
(3 -5.446102149e-15 0)
(3 -5.011044824e-15 0)
(3 -4.457092192e-15 0)
(3 -3.130867972e-15 0)
(3 -9.606625254e-17 0)
(3 9.539725615e-16 0)
(3 1.253701593e-15 0)
(3 1.676104502e-15 0)
(3 1.866263198e-15 0)
(3 -8.027113596e-15 0)
(3 -8.436132393e-15 0)
(3 -9.070107107e-15 0)
(3 -8.60527639e-15 0)
(3 -8.140314937e-15 0)
(3 -6.386435674e-15 0)
(3 -4.079704355e-15 0)
(3 -1.720713968e-15 0)
(3 -5.391024491e-16 0)
(3 2.185419842e-15 0)
(3 3.512384891e-15 0)
(3 3.180970514e-15 0)
(3 1.488283478e-15 0)
(3 1.601353722e-15 0)
(3 2.089437916e-15 0)
(3 2.008004509e-15 0)
(3 1.066214312e-15 0)
(3 2.705825111e-16 0)
(3 -2.841780742e-16 0)
(3 -2.180542676e-16 0)
(3 2.578247474e-16 0)
(3 2.910363805e-16 0)
(3 -7.056393141e-15 0)
(3 -6.73440576e-15 0)
(3 -7.12600506e-15 0)
(3 -7.10934157e-15 0)
(3 -5.993830916e-15 0)
(3 -5.304373506e-15 0)
(3 -4.459293452e-15 0)
(3 -4.494392325e-15 0)
(3 -1.245387698e-15 0)
(3 2.568310691e-15 0)
(3 3.541746043e-15 0)
(3 3.182207668e-15 0)
(3 2.322061324e-15 0)
(3 2.186294349e-15 0)
(3 1.890215313e-15 0)
(3 2.106343139e-15 0)
(3 2.594693342e-15 0)
(3 2.67763545e-15 0)
(3 2.382248654e-15 0)
(3 1.570618821e-15 0)
(3 1.240178622e-15 0)
(3 1.230837595e-15 0)
(3 1.084463633e-15 0)
(3 1.824525127e-15 0)
(3 1.871548682e-15 0)
(3 2.175903204e-15 0)
(3 1.679535472e-15 0)
(3 7.757874986e-16 0)
(3 4.898715357e-16 0)
(3 3.368677977e-16 0)
(3 1.236291247e-15 0)
(3 2.283171298e-15 0)
(3 -2.166547892e-15 0)
(3 -1.838697394e-15 0)
(3 -2.66286461e-15 0)
(3 -2.124124049e-15 0)
(3 -6.507474074e-16 0)
(3 -4.591276635e-16 0)
(3 -1.527751897e-15 0)
(3 -1.741100197e-15 0)
(3 -6.020306936e-16 0)
(3 7.972772089e-16 0)
(3 1.023371217e-15 0)
(3 3.159841545e-15 0)
(3 4.678172034e-15 0)
(3 3.729557081e-15 0)
(3 3.074465871e-15 0)
(3 3.952220067e-15 0)
(3 4.15466655e-15 0)
(3 4.475756551e-15 0)
(3 4.283046842e-15 0)
(3 3.695432969e-15 0)
(3 3.238917741e-15 0)
(3 2.003744353e-15 0)
(3 1.542693425e-15 0)
(3 2.282678026e-15 0)
(3 2.924590145e-15 0)
(3 2.880126254e-15 0)
(3 2.723155221e-15 0)
(3 2.378512484e-15 0)
(3 2.129024248e-15 0)
(3 1.183075236e-15 0)
(3 2.384656083e-15 0)
(3 4.280567316e-15 0)
(3 4.178938922e-15 0)
(3 -1.821906958e-16 0)
(3 3.69580727e-16 0)
(3 5.107759238e-16 0)
(3 1.423992366e-16 0)
(3 -8.692217648e-16 0)
(3 -1.345033091e-15 0)
(3 -2.116326963e-15 0)
(3 -2.243436909e-15 0)
(3 -1.751960579e-15 0)
(3 -2.049888628e-15 0)
(3 -1.639806473e-15 0)
(3 5.494544578e-16 0)
(3 1.936329807e-15 0)
(3 2.091367409e-15 0)
(3 2.556095647e-15 0)
(3 3.21667657e-15 0)
(3 2.886858008e-15 0)
(3 3.011363787e-15 0)
(3 3.154276923e-15 0)
(3 3.443085364e-15 0)
(3 2.578937294e-15 0)
(3 2.233508806e-15 0)
(3 2.939382117e-15 0)
(3 3.404928782e-15 0)
(3 4.536853075e-15 0)
(3 4.959626603e-15 0)
(3 4.477287222e-15 0)
(3 4.452248302e-15 0)
(3 3.520602082e-15 0)
(3 3.301604131e-15 0)
(3 3.136758221e-15 0)
(3 4.581192074e-15 0)
(3 5.695583372e-15 0)
(3 -3.281767712e-15 0)
(3 -3.079787774e-15 0)
(3 -2.22067078e-15 0)
(3 -1.99052257e-15 0)
(3 -2.556920964e-15 0)
(3 -2.591193317e-15 0)
(3 -2.827206848e-15 0)
(3 -3.173015868e-15 0)
(3 -4.357744113e-15 0)
(3 -4.238767777e-15 0)
(3 -3.045809357e-15 0)
(3 -1.28931521e-15 0)
(3 1.451324636e-16 0)
(3 2.036046156e-15 0)
(3 2.276884888e-15 0)
(3 2.751774209e-15 0)
(3 4.024250849e-15 0)
(3 4.264037732e-15 0)
(3 3.674642992e-15 0)
(3 3.995827094e-15 0)
(3 4.265860148e-15 0)
(3 3.84077855e-15 0)
(3 4.603653793e-15 0)
(3 5.091133344e-15 0)
(3 5.351068969e-15 0)
(3 5.474852571e-15 0)
(3 5.047150112e-15 0)
(3 4.820838769e-15 0)
(3 6.146383261e-15 0)
(3 7.53765847e-15 0)
(3 7.227855918e-15 0)
(3 6.54394913e-15 0)
(3 5.877827266e-15 0)
(3 -3.768270043e-15 0)
(3 -4.236940907e-15 0)
(3 -3.666808814e-15 0)
(3 -2.613247226e-15 0)
(3 -2.901210244e-15 0)
(3 -3.303211988e-15 0)
(3 -2.495054795e-15 0)
(3 -1.052445845e-15 0)
(3 -1.627469633e-15 0)
(3 -1.787609561e-15 0)
(3 -1.758024194e-15 0)
(3 -1.662114662e-15 0)
(3 -5.34520847e-16 0)
(3 4.943172623e-17 0)
(3 4.05468466e-16 0)
(3 1.040641004e-15 0)
(3 1.192677591e-15 0)
(3 1.142831942e-15 0)
(3 1.07908447e-15 0)
(3 9.5168032e-16 0)
(3 2.630515276e-15 0)
(3 3.625871642e-15 0)
(3 4.160244639e-15 0)
(3 4.188708924e-15 0)
(3 4.810334323e-15 0)
(3 4.748946299e-15 0)
(3 5.084509888e-15 0)
(3 6.336137774e-15 0)
(3 7.814626131e-15 0)
(3 8.559942943e-15 0)
(3 9.522185696e-15 0)
(3 8.175182225e-15 0)
(3 7.19301673e-15 0)