/*--------------------------------*- C++ -*----------------------------------*\
  =========                 |
  \\      /  F ield         | OpenFOAM: The Open Source CFD Toolbox
   \\    /   O peration     | Website:  https://openfoam.org
    \\  /    A nd           | Version:  7
     \\/     M anipulation  |
\*---------------------------------------------------------------------------*/
FoamFile
{
    version     2.0;
    format      ascii;
    class       volScalarField;
    location    "0.8";
    object      rho;
}
// * * * * * * * * * * * * * * * * * * * * * * * * * * * * * * * * * * * * * //

dimensions      [1 -3 0 0 0 0 0];

internalField   nonuniform List<scalar> 
2222
(
1.006225314
1.000600621
0.9932619568
0.9837761434
0.9758745402
0.9700184609
1.35678005
1.332903366
1.314712315
1.287063441
1.262575082
1.248467945
1.229505004
1.204301065
1.190612719
1.178340591
1.158455677
1.142976403
1.131679562
1.115751882
1.099958921
1.089624116
1.07886747
1.064845457
1.05469392
1.047054326
1.036399367
1.025348527
1.017141431
1.009635997
0.9992667255
0.9928661978
0.9866388442
0.9783682997
0.9660693772
0.9581241777
0.9522616203
1.324501212
1.302246938
1.282922012
1.256247491
1.235356892
1.221517975
1.201230608
1.178148724
1.165330746
1.151806417
1.130905061
1.117742751
1.108506337
1.094418733
1.080667623
1.071208448
1.060327822
1.0462049
1.035958303
1.027674276
1.016347599
1.00608479
0.9998830596
0.9932995196
0.9836787663
0.9752018236
0.9679779419
0.9581783079
0.9469901091
0.9471845032
0.9455079694
1.293845258
1.27119448
1.25091423
1.225872345
1.206793409
1.192924759
1.17324771
1.153596153
1.141647161
1.127067255
1.107159045
1.094862433
1.084948119
1.069854735
1.056766237
1.048541461
1.038249868
1.025053297
1.015941717
1.009183462
0.9992041127
0.9903109206
0.9837616147
0.9756146675
0.96344293
0.9565385146
0.9531259059
0.9454627179
0.9420966324
0.9431423986
0.9499046217
1.26197812
1.239718467
1.221242435
1.198982393
1.179886693
1.164378794
1.14415967
1.126051626
1.114911526
1.101525294
1.084943772
1.074709208
1.06476042
1.049233708
1.03684859
1.028464203
1.017869446
1.005482531
0.9979425028
0.9912509245
0.9797349712
0.9712115568
0.9655728521
0.9587169345
0.9483961801
0.9460772163
0.9438272949
0.9397463293
0.9407449894
0.9587443849
1.015205931
1.229031281
1.207480721
1.190899525
1.169939024
1.152160164
1.138358473
1.120512744
1.103608242
1.090953609
1.076038367
1.059801034
1.049878746
1.040241851
1.026099972
1.015655911
1.008372228
0.9984803262
0.987140729
0.9806383151
0.9737046342
0.9638281127
0.95673087
0.9521018877
0.9430118253
0.9354740811
0.9365005438
0.9377023199
0.9456044791
0.9811151192
1.075551486
1.190764118
1.197068785
1.17760301
1.161856574
1.139893085
1.121972573
1.109473581
1.093114344
1.078445091
1.06803849
1.0549025
1.040269243
1.029645663
1.019390297
1.005826675
0.9961887404
0.9890202809
0.9777937501
0.968011812
0.962980767
0.9569209513
0.9462994772
0.9413553978
0.9368721787
0.9318490159
0.9320726588
0.9357491841
0.9585733832
1.029176824
1.138446685
1.253044634
1.344512902
1.161334125
1.148706156
1.136382581
1.115054866
1.098127451
1.085163219
1.067126103
1.051647014
1.042035746
1.03016583
1.016607626
1.007167206
0.998037497
0.986237306
0.9783156769
0.9720433885
0.9627581118
0.95393417
0.9483463101
0.9391558162
0.929004295
0.9295180879
0.9313360739
0.9317394263
0.9427676799
0.9857999298
1.091691619
1.220073841
1.325082877
1.342603975
1.366957188
1.129914249
1.119080555
1.105211473
1.081904955
1.068828995
1.059112444
1.042859561
1.030226935
1.021596793
1.009648412
0.996175229
0.9872722003
0.9782945823
0.9670880028
0.9601722854
0.9543704518
0.9436609527
0.9359903237
0.9323772672
0.9263984522
0.9260334971
0.9275672086
0.9328243875
0.9566275684
1.036281783
1.154954574
1.261657442
1.311834578
1.35907255
1.366008394
1.372183066
1.103574332
1.094301232
1.076949566
1.053446334
1.04372943
1.034426384
1.017423454
1.006374575
0.999495953
0.9880069801
0.9757881936
0.9684249523
0.959850187
0.9488010486
0.9430554102
0.9379093116
0.9288613707
0.928361988
0.9273281001
0.9252597601
0.9263260926
0.9401745827
0.9931586939
1.09202314
1.220935595
1.336226171
1.368296724
1.368372506
1.377907127
1.384764282
1.383825339
1.071313006
1.06440767
1.045093227
1.026411474
1.021173708
1.011923255
0.9943542879
0.9849085906
0.9781283609
0.9653259106
0.9554811686
0.9506621248
0.9415626317
0.9324646107
0.9310110157
0.9274583287
0.9228921182
0.9240210278
0.9241906873
0.9304303589
0.9628619986
1.053917635
1.164707002
1.282096757
1.318123794
1.362955953
1.383695932
1.38152828
1.383759346
1.38772715
1.38831044
1.047767583
1.038667972
1.014902915
1.001033918
0.9968577958
0.9863971726
0.9703854154
0.9654378959
0.9596829859
0.9458181273
0.9400949205
0.9372483214
0.9295491307
0.9252613229
0.9240350805
0.9200699199
0.9189699979
0.9218121627
0.9401336274
1.009705186
1.120872653
1.244936219
1.329325906
1.3794017
1.379016167
1.379157116
1.381048091
1.380500409
1.381983413
1.384200021
1.386579578
1.022952388
1.012430006
0.9894839374
0.9813218826
0.9766640177
0.9618830549
0.9503745788
0.9473115964
0.9407861287
0.9289850406
0.9281765504
0.9256954416
0.918440669
0.9163993922
0.9167388335
0.9173131273
0.926792833
0.9687790623
1.06281597
1.203322734
1.321621787
1.348035449
1.363751589
1.386962748
1.390072071
1.388603401
1.385614721
1.383019402
1.381377936
1.381261995
1.382755787
0.9972303235
0.9807952164
0.9613971119
0.9591912985
0.9544320139
0.9382294228
0.934291064
0.9340221174
0.9277728594
0.9207439286
0.9194720881
0.9156096751
0.9136507207
0.9142686951
0.9198650125
0.9450999853
1.02314184
1.132052076
1.257268302
1.30783189
1.354556552
1.370464034
1.373757409
1.380928004
1.387561266
1.389126581
1.388167518
1.386160883
1.383004258
1.381759252
1.382561245
0.9730190931
0.9529314729
0.9451492899
0.9450506139
0.938658091
0.9278997207
0.9258854263
0.924165457
0.9158947004
0.91158204
0.9118641405
0.9122601083
0.9137786523
0.9271515746
0.986358766
1.089078975
1.216995848
1.319601639
1.374621809
1.372255411
1.377912495
1.384491965
1.386828246
1.386621869
1.38781417
1.388181247
1.387669394
1.386770071
1.386010343
1.385225957
1.385054555
0.948565232
0.9342142094
0.9340003703
0.9329589181
0.9237110978
0.9169140208
0.9155303473
0.9122829677
0.9093216138
0.9098376312
0.9113252965
0.9189796972
0.9509854206
1.036753881
1.175041808
1.296606428
1.326412894
1.354266532
1.386983799
1.385342597
1.384891486
1.387368315
1.389987973
1.390052352
1.388779145
1.387038679
1.386004334
1.385920854
1.386072101
1.386408939
1.386533498
0.9302741554
0.9233880151
0.922529254
0.9186909455
0.910266292
0.9089293767
0.9094228395
0.9093512879
0.9092411971
0.9121772617
0.9295267458
0.995752631
1.10224563
1.226129537
1.295594951
1.361291619
1.37170059
1.374015059
1.381506367
1.383565281
1.383966471
1.385767009
1.387557539
1.388396182
1.387604444
1.386127993
1.385554272
1.385095565
1.385394393
1.385854546
1.386251456
0.914207783
0.911201667
0.9110837418
0.9088500335
0.9076019465
0.9082411518
0.9092431931
0.9102340673
0.918490226
0.9607916135
1.048713927
1.184394129
1.305121045
1.365463921
1.369980695
1.380055109
1.387713858
1.388768041
1.387839967
1.386257351
1.384197142
1.383382486
1.383992074
1.38541008
1.385953161
1.385670879
1.385449381
1.385128546
1.384837698
1.384919314
1.385223917
0.9078605492
0.9080485373
0.9088415645
0.9080259495
0.9082936005
0.9090021287
0.9139811658
0.9369748309
1.008557856
1.12425937
1.252538831
1.303225819
1.345675301
1.384916639
1.382059711
1.383663585
1.387498489
1.38991784
1.389504496
1.388224646
1.385890742
1.38421475
1.384370194
1.384875991
1.385457363
1.385591971
1.385687623
1.385548895
1.385300398
1.385355171
1.385566402
0.9080583135
0.908237885
0.9077636457
0.9068120313
0.9084965406
0.9210284165
0.977645906
1.075103458
1.207936224
1.306968766
1.372549004
1.376587993
1.372249074
1.378465027
1.379181587
1.37921782
1.381421791
1.38526076
1.38763706
1.387570154
1.387217797
1.386592446
1.386191952
1.385810622
1.385733035
1.385768685
1.3860171
1.386213301
1.386285143
1.386429709
1.386608341
0.9067673535
0.9065843157
0.9065034575
0.9122425206
0.9441746102
1.026569031
1.162485064
1.281569788
1.324493242
1.345638706
1.381880245
1.388381444
1.38689806
1.385035644
1.382848677
1.380880776
1.381453958
1.383313651
1.385441137
1.3860933
1.386266308
1.386177745
1.386123228
1.385906384
1.385578894
1.385672793
1.385924349
1.38630651
1.386656234
1.386946302
1.387146632
0.9049652987
0.9083715479
0.9255494314
0.9893334563
1.093480515
1.217942537
1.291726589
1.364427846
1.378830689
1.37064916
1.376274674
1.383134464
1.387817394
1.387099658
1.38609282
1.384616303
1.384082166
1.384824162
1.385409506
1.385219961
1.385063904
1.385008137
1.385188684
1.385337553
1.385340372
1.385561987
1.385946454
1.386281858
1.386605716
1.386902906
1.387162504
0.9142664768
0.9581954497
1.046881482
1.18083281
1.294446335
1.36111649
1.366520002
1.378480462
1.389184117
1.388261209
1.38388756
1.385218914
1.386335917
1.38672605
1.386306672
1.386262001
1.386844129
1.386853346
1.386300042
1.385268973
1.384351609
1.384139931
1.384312133
1.384689617
1.385140764
1.385674954
1.386165062
1.386321423
1.386443295
1.386585836
1.386773009
1.00112653
1.129084636
1.26625259
1.310850988
1.342495216
1.380885136
1.379209195
1.380285709
1.385275553
1.38947725
1.388513382
1.387374305
1.386664643
1.38549346
1.385363847
1.385073305
1.385743783
1.386027528
1.385784519
1.385094492
1.384369764
1.384067155
1.384343585
1.384935177
1.385625056
1.386362942
1.38674253
1.386709123
1.386676984
1.386686149
1.386723123
1.187524045
1.275384396
1.362349823
1.374382611
1.370894309
1.37650033
1.378480733
1.378274088
1.380576493
1.385827895
1.387970425
1.387740681
1.386966599
1.385566261
1.384235556
1.383149208
1.38330414
1.383844462
1.384085193
1.38414792
1.384283851
1.384479589
1.38508608
1.38575982
1.386321041
1.386829034
1.386990401
1.386893523
1.386775016
1.386791204
1.386857531
1.352373192
1.363199748
1.37763254
1.38713246
1.386120576
1.384201868
1.383719879
1.382670259
1.382983638
1.385528914
1.387022512
1.387016645
1.386808509
1.385618388
1.383443571
1.382385652
1.382392315
1.382635559
1.38328326
1.384055629
1.384330934
1.384703249
1.385345933
1.385912464
1.386289027
1.386599485
1.386734721
1.386685547
1.386649722
1.386742665
1.386854882
1.37788233
1.375498308
1.375314132
1.380914708
1.384582609
1.385213708
1.385587123
1.386275617
1.386536098
1.386697822
1.386606128
1.386143704
1.385454199
1.384587112
1.382940338
1.382193049
1.382300338
1.382674559
1.383263472
1.383701384
1.383878887
1.384212649
1.384791398
1.38535712
1.385771177
1.386091141
1.386231485
1.386203129
1.386199545
1.38631924
1.386484952
1.377758795
1.377813192
1.377104707
1.37970703
1.383215337
1.384478401
1.384741529
1.385179024
1.385401474
1.385224559
1.384622813
1.383936116
1.38349806
1.383154121
1.382718057
1.382485975
1.382566949
1.382707724
1.382964792
1.383184905
1.383309437
1.383588923
1.384081112
1.384475793
1.384825109
1.385130388
1.385244548
1.385213067
1.385210709
1.385326833
1.385559166
1.38256722
1.382066834
1.381590102
1.382631557
1.383691344
1.383829602
1.383480873
1.38328318
1.383473218
1.383479356
1.383218772
1.382873464
1.38263946
1.382485568
1.382300604
1.382394276
1.382552718
1.382577874
1.382570927
1.382526113
1.382544231
1.382755793
1.383150591
1.383517
1.38373952
1.383921548
1.384039087
1.38404463
1.384024214
1.384080942
1.384182878
1.383014427
1.382859999
1.382629996
1.383425024
1.384167697
1.383877468
1.382871252
1.382134014
1.382069927
1.382113544
1.382302134
1.382187811
1.381988666
1.381868176
1.381413879
1.381225348
1.381402532
1.381649518
1.381852856
1.381929523
1.382085476
1.382440643
1.382795908
1.383047518
1.383141982
1.383125921
1.383093431
1.383040302
1.382989514
1.38306327
1.383167951
1.379249284
1.381148434
1.382326218
1.383494935
1.383959957
1.383562776
1.382373613
1.381675732
1.381310406
1.381146014
1.381114907
1.381068523
1.381047043
1.381059062
1.380753229
1.380214012
1.380003623
1.380082264
1.38039844
1.380804466
1.38124433
1.381746022
1.382227856
1.38252943
1.382527446
1.382227537
1.381912035
1.381645638
1.3815208
1.381552553
1.381768612
1.374598339
1.378824343
1.381781015
1.383504032
1.384228523
1.38391975
1.383207659
1.38191404
1.381292461
1.380827705
1.380676724
1.380789527
1.381233942
1.381554906
1.38175741
1.382716884
1.383296308
1.383011566
1.38257037
1.381535896
1.379638501
1.378773104
1.37869074
1.379178812
1.38030275
1.382615733
1.384944854
1.385284751
1.38484149
1.383588665
1.381077785
1.379435002
1.374012446
1.378056785
1.381920432
1.384442453
1.385172813
1.384529
1.382996167
1.381551846
1.380947968
1.380532841
1.380475914
1.381056739
1.381872887
1.382289005
1.382544018
1.382934874
1.383757455
1.384266098
1.384614362
1.384837917
1.383691301
1.380194323
1.378526525
1.378431351
1.378390515
1.379137478
1.381655863
1.38486432
1.385226059
1.385031783
1.384037558
1.381371754
1.373680668
1.377597405
1.381210151
1.383719592
1.384509572
1.38413154
1.383132595
1.381505018
1.380660504
1.380307509
1.380393179
1.380960942
1.381678171
1.382170658
1.382451435
1.382798157
1.38373278
1.3843076
1.384764001
1.38526149
1.385365849
1.383887891
1.380560417
1.378221209
1.378230741
1.378319352
1.37897248
1.381559506
1.384674662
1.384925759
1.384561703
1.383619395
1.375086796
1.378041777
1.380289958
1.382109874
1.383196688
1.382993637
1.38211031
1.380656851
1.379449225
1.379084852
1.379484734
1.380200813
1.380819525
1.381137153
1.381091905
1.381230379
1.381732821
1.382406449
1.384027419
1.384915567
1.384866478
1.38552735
1.384176939
1.380682238
1.378130251
1.377921315
1.378023898
1.378892565
1.381704121
1.384356697
1.384291043
1.384165254
1.376941646
1.379450709
1.380722663
1.381694691
1.38233612
1.381884557
1.380932531
1.37968263
1.378236475
1.377675378
1.378108898
1.378762478
1.379356803
1.379688239
1.379590969
1.379424906
1.378635498
1.379113772
1.380016504
1.382504677
1.384586911
1.38471623
1.384835339
1.384223461
1.380829513
1.377717084
1.377513509
1.37788369
1.378897842
1.381813385
1.383754407
1.383869283
1.378168698
1.380919049
1.381371328
1.381834786
1.382156068
1.381618795
1.380495664
1.379253468
1.377970982
1.376975129
1.377213041
1.377432905
1.377998123
1.378366349
1.378327684
1.37834083
1.377301766
1.376738725
1.377200506
1.378677442
1.381860965
1.384382107
1.385454382
1.385431338
1.384200359
1.380153186
1.377491907
1.377350522
1.377911648
1.379099674
1.381987123
1.383587902
1.378567443
1.381757982
1.382359505
1.382434259
1.382362673
1.381787805
1.380641199
1.379476704
1.378296511
1.377190668
1.377199097
1.377209956
1.377383719
1.377476852
1.37730151
1.377435223
1.376312151
1.375401478
1.375656715
1.376310728
1.377671129
1.381721788
1.38496591
1.385178127
1.384918292
1.383494183
1.379089589
1.377251129
1.377330012
1.378092868
1.379434122
1.382221706
1.378458933
1.381600229
1.383037022
1.383425038
1.383215371
1.382668514
1.381630586
1.380779207
1.380164598
1.379259458
1.378499608
1.378067574
1.377801082
1.377577398
1.377092759
1.377116514
1.375703427
1.374725154
1.374542969
1.374996658
1.376159533
1.377660378
1.381333279
1.384676369
1.385293079
1.384837986
1.382276355
1.378264506
1.376996763
1.377651066
1.378343793
1.379743106
1.378178035
1.381409421
1.383231108
1.383991842
1.38401681
1.38368502
1.382972126
1.382542033
1.382257752
1.381601738
1.3806619
1.379860959
1.379348269
1.379031154
1.378711068
1.378374166
1.376635036
1.375225692
1.374417825
1.374782572
1.375549133
1.376375028
1.37793168
1.382042392
1.384616393
1.384117373
1.383481071
1.381266634
1.377967316
1.377443961
1.377924972
1.378726194
1.374821449
1.378586721
1.381414195
1.383367159
1.38434601
1.384667721
1.384375952
1.383936015
1.384169684
1.38370545
1.382890896
1.38220779
1.381783909
1.381499029
1.381222394
1.380942474
1.380787297
1.379475486
1.377547759
1.375920425
1.375374294
1.375480176
1.375940734
1.377055343
1.378291692
1.381916208
1.383755144
1.384068548
1.382794722
1.380761069
1.378183329
1.378017876
1.378281234
1.375768356
1.378912433
1.380956941
1.382258858
1.384204754
1.384916735
1.384683251
1.384248718
1.383914201
1.383360641
1.382812258
1.382503909
1.382399236
1.382466137
1.382497805
1.382341109
1.382367904
1.381601159
1.379943556
1.378920907
1.37752829
1.376392243
1.376294815
1.376392539
1.377340231
1.378644459
1.382888968
1.38364129
1.383703318
1.382608156
1.380345084
1.378193586
1.378275213
1.377108477
1.379665829
1.381064403
1.381937128
1.382747864
1.383614767
1.383317372
1.383187742
1.383190867
1.383134995
1.382946818
1.382774898
1.382919852
1.383190418
1.383419827
1.38351192
1.382904124
1.382182972
1.381436782
1.380475467
1.380155418
1.379374346
1.377842637
1.376566019
1.376969505
1.378009687
1.379550265
1.382896696
1.383405203
1.38345274
1.382410523
1.379826917
1.378495804
1.378282686
1.381140646
1.381881211
1.382111247
1.382679301
1.38251007
1.381493419
1.380390168
1.38016854
1.380747013
1.381554033
1.382173829
1.382798447
1.383156835
1.38335353
1.383404248
1.383032905
1.382171978
1.381378965
1.381724527
1.381557184
1.381420585
1.380477839
1.379159337
1.377515873
1.377672832
1.378323455
1.380917622
1.382837831
1.383253339
1.382948708
1.382124254
1.38009836
1.378773102
1.381910356
1.382993098
1.382995526
1.383026666
1.382738303
1.38120165
1.379190967
1.378241297
1.378042744
1.378427428
1.37927109
1.380646904
1.382047614
1.382926145
1.38322055
1.382885757
1.382404133
1.381688794
1.381779777
1.381704283
1.38148621
1.381894979
1.381415335
1.38002085
1.378067834
1.378256171
1.379338027
1.382532971
1.383009328
1.382980513
1.38283732
1.382135514
1.378900987
1.382094871
1.383270569
1.383643074
1.383680506
1.383229869
1.38137605
1.379567959
1.378199496
1.377487818
1.377552481
1.377664923
1.378540755
1.379763976
1.381062078
1.381670607
1.381556434
1.381855386
1.381865604
1.381618434
1.381810553
1.381916767
1.382095904
1.382047636
1.381691597
1.379967753
1.378504384
1.378565136
1.380596629
1.382926981
1.382888972
1.383275585
1.382929176
1.378442532
1.381819316
1.383356246
1.383782898
1.383912529
1.383386063
1.382038252
1.380079073
1.378209757
1.377393626
1.377505896
1.378038025
1.378389245
1.37916028
1.379967293
1.380158091
1.379827165
1.379729353
1.38038714
1.381131202
1.38184361
1.382084162
1.382192973
1.382386107
1.382192549
1.381203057
1.379336086
1.378593766
1.378921667
1.381523085
1.382757873
1.383335787
1.382987708
1.378163682
1.380882901
1.382730424
1.383577222
1.383931811
1.383352621
1.38244099
1.381297827
1.379759385
1.378175115
1.378170944
1.378325137
1.37860252
1.379350136
1.379849489
1.379765224
1.379370536
1.378829714
1.37852387
1.379245369
1.38025174
1.381510187
1.382260892
1.382603926
1.382410258
1.381564011
1.380501467
1.379095283
1.378614635
1.379012437
1.38118509
1.382998526
1.376237161
1.378510115
1.380455685
1.381358336
1.381761973
1.382443318
1.382943975
1.382546311
1.381913205
1.381284112
1.380407253
1.379564265
1.379246703
1.379420958
1.379830295
1.380055596
1.379897264
1.379779286
1.378713847
1.378081972
1.378356521
1.378472719
1.37938241
1.381001021
1.382117238
1.382146671
1.381861206
1.381091254
1.379856145
1.3783656
1.378098686
1.378375051
1.381179036
1.37679225
1.379147285
1.380659641
1.381003957
1.380634832
1.380502975
1.380658552
1.381786275
1.382208044
1.381668929
1.381191686
1.380906233
1.380606123
1.380368934
1.380209475
1.380192062
1.380105513
1.380242203
1.378697984
1.378023263
1.377868974
1.377943782
1.378292982
1.379300615
1.380969695
1.381967476
1.382053533
1.381451681
1.380330301
1.378763753
1.377588294
1.377607456
1.378494245
1.377416411
1.380064462
1.381404181
1.380884
1.380326352
1.379914801
1.379131614
1.379430152
1.38131908
1.381724071
1.381564862
1.38131461
1.381223072
1.380711125
1.380347522
1.380132732
1.379887339
1.379742196
1.378647729
1.378031494
1.377881078
1.378032977
1.378329516
1.379012157
1.380110856
1.381242083
1.381786094
1.38166314
1.380753708
1.379538751
1.377879235
1.377262591
1.377648133
1.377780376
1.380374393
1.381981113
1.382091392
1.381739153
1.380698923
1.379313478
1.37807263
1.378896432
1.380886136
1.381627932
1.381712475
1.381584894
1.381120058
1.380580277
1.380119692
1.379573007
1.379053211
1.378357722
1.378106773
1.378343148
1.378508322
1.378867886
1.379609678
1.380321678
1.380852043
1.381302751
1.381425162
1.381174402
1.380067507
1.378991895
1.377654407
1.377587943
1.377630005
1.380589258
1.382479492
1.382615377
1.382671314
1.382276968
1.380508347
1.37861015
1.377344388
1.378187799
1.380476422
1.381843713
1.381805419
1.381325236
1.380555099
1.379968224
1.379305921
1.378334719
1.377748738
1.377866866
1.378333167
1.378954047
1.379455431
1.380401426
1.380823752
1.381041044
1.381222164
1.381258015
1.381485066
1.38077635
1.379984433
1.379244041
1.378245876
1.376417909
1.37956711
1.382508039
1.383073171
1.383336885
1.383056242
1.381965458
1.379670165
1.377297208
1.376504805
1.377409399
1.380016377
1.381797034
1.381825825
1.380969343
1.380246927
1.379423346
1.378161368
1.377661961
1.377741862
1.378032173
1.37867469
1.37957412
1.380654372
1.381273934
1.381515288
1.381520941
1.381450793
1.381587197
1.381382236
1.380897575
1.380491477
1.380067545
1.375721095
1.377697
1.380533201
1.38265862
1.38346941
1.383642321
1.38284176
1.3809823
1.378127355
1.376180584
1.375916144
1.377075256
1.379833577
1.381761362
1.381523915
1.380801195
1.379684619
1.378467611
1.378082685
1.378368774
1.378537292
1.378451822
1.379158577
1.379956718
1.381260841
1.381895415
1.381775407
1.381780257
1.381721018
1.381883678
1.381623974
1.381333544
1.381161352
1.375919374
1.377262143
1.378165525
1.379584223
1.381540646
1.383147661
1.383333644
1.381836568
1.379793541
1.377472593
1.376630389
1.376373536
1.377294875
1.380335597
1.381895232
1.381624139
1.380578313
1.379514892
1.379038321
1.379380293
1.379459478
1.379017112
1.379101725
1.379204263
1.379787169
1.380837296
1.381437489
1.381783395
1.38184937
1.382047079
1.382028053
1.381998132
1.381876016
1.377632609
1.376610486
1.377865556
1.378114618
1.377252633
1.37785757
1.379438965
1.381734657
1.382279416
1.380742371
1.379004196
1.377646596
1.376943864
1.376811924
1.378298281
1.381680783
1.382279298
1.381390584
1.380582811
1.380213619
1.380381494
1.3804703
1.380526938
1.379607114
1.379202328
1.378494288
1.378062361
1.378458006
1.379403529
1.380405381
1.381195434
1.38174767
1.382381583
1.3824087
1.378301334
1.377869706
1.378700007
1.378817803
1.377703055
1.376858334
1.376664503
1.377757942
1.380428616
1.381123029
1.379869566
1.378039029
1.377887356
1.377499132
1.377753199
1.379930962
1.382090934
1.38189278
1.381249219
1.381016434
1.381081064
1.381407445
1.381473088
1.381157034
1.379774692
1.378312819
1.377054614
1.37589688
1.375753015
1.376260747
1.377413792
1.378928545
1.381254142
1.382405657
1.378726156
1.378591203
1.379459252
1.378911495
1.377529806
1.376647131
1.376331606
1.376075792
1.377139541
1.379868437
1.38000641
1.379772223
1.378609018
1.378577178
1.378058817
1.378231988
1.379659232
1.380991733
1.381095573
1.381386475
1.38154454
1.381922018
1.381959628
1.381950119
1.38145472
1.379552433
1.37696186
1.37531586
1.374774902
1.374541363
1.374493023
1.375313432
1.377426268
1.380378197
1.377627363
1.378526524
1.379894758
1.379735492
1.378368807
1.376824648
1.375536666
1.375201525
1.3759065
1.378010489
1.380284213
1.380510954
1.380096809
1.378641619
1.378484412
1.378081304
1.377830754
1.377994209
1.378577078
1.379509154
1.380091762
1.380908986
1.3822377
1.38245382
1.382031557
1.381209101
1.379215922
1.376473192
1.374619751
1.373967751
1.374778281
1.374168672
1.375168801
1.376776809
1.376347891
1.377541752
1.379711726
1.380400464
1.379317025
1.378441144
1.37701058
1.375856793
1.376287427
1.37699866
1.379625338
1.380848113
1.380842507
1.380380656
1.378955054
1.377873696
1.377177171
1.376113284
1.376441863
1.376280778
1.376183525
1.376853064
1.379824673
1.382064444
1.382369867
1.38202131
1.381100088
1.379566873
1.376638761
1.374798128
1.374872782
1.374600209
1.375661649
1.375980074
1.376645559
1.376897094
1.378837835
1.379972975
1.38005068
1.379412023
1.378477317
1.37759586
1.376646215
1.376551615
1.378347231
1.38071447
1.381466819
1.381419931
1.380789435
1.379435342
1.377441427
1.376495096
1.375421848
1.374593935
1.374706737
1.374368493
1.375463894
1.378492052
1.38171323
1.382321456
1.382077648
1.380993772
1.379893801
1.377831998
1.375620728
1.375541711
1.376009013
1.375717117
1.377208152
1.377287109
1.378351952
1.379612993
1.379737339
1.379995555
1.379518125
1.378607216
1.377450083
1.376996552
1.377168906
1.379443972
1.38175516
1.382220849
1.381825297
1.380997767
1.379742044
1.377982261
1.376499865
1.375436443
1.374356732
1.373494499
1.374080632
1.375096759
1.378350457
1.381674247
1.382304361
1.381940717
1.381202975
1.379789837
1.377597554
1.376862135
1.376567084
1.37673843
1.377497297
1.377989809
1.378837536
1.379204231
1.379293651
1.379971458
1.379535699
1.37894639
1.378322971
1.377433537
1.376475834
1.377085204
1.380011077
1.382533548
1.38264067
1.382200539
1.380972271
1.380027073
1.379690692
1.377902155
1.375821424
1.374572679
1.374267757
1.374342997
1.375996339
1.378610873
1.381687556
1.382502913
1.382114537
1.38108185
1.379875639
1.378560567
1.377944365
1.378478775
1.378250079
1.378571689
1.379365129
1.378855835
1.378277313
1.378706342
1.378741257
1.378550277
1.378407674
1.377378786
1.376252451
1.376079085
1.377011948
1.380486172
1.382858643
1.382821693
1.382200048
1.381411305
1.38090447
1.380077635
1.379161367
1.377761132
1.375837189
1.37550135
1.375495903
1.376587577
1.379240732
1.381893058
1.382691355
1.382169042
1.38089287
1.380013516
1.379816866
1.378203601
1.378649231
1.378927086
1.379417142
1.37878098
1.377459844
1.376757596
1.377055613
1.377192536
1.377043789
1.377061019
1.376634062
1.376203038
1.376159799
1.377263417
1.380465468
1.382493881
1.382806546
1.382493069
1.381934572
1.381543918
1.380559764
1.379773375
1.379210315
1.37834301
1.376828625
1.377428506
1.377624151
1.379744078
1.381889966
1.382609799
1.381466393
1.381141697
1.380793403
1.377971044
1.378080743
1.37876744
1.379372891
1.378964411
1.377217346
1.375925074
1.375763882
1.37591004
1.376161666
1.376967705
1.377412763
1.377302441
1.376927624
1.376435119
1.377413933
1.379393556
1.381628831
1.382327666
1.382650143
1.38243842
1.381593787
1.381095874
1.381028454
1.380701777
1.380363308
1.378440614
1.378610162
1.378746982
1.380085411
1.381763102
1.381908216
1.381969077
1.381453707
1.378051546
1.378043982
1.378786635
1.379408206
1.379398379
1.378259719
1.37657452
1.375319051
1.375955702
1.37633774
1.377131828
1.378072282
1.378580886
1.378090617
1.377437624
1.377491991
1.377088663
1.377806281
1.379183763
1.381268364
1.38189292
1.38206142
1.382246889
1.382336818
1.382306413
1.381937574
1.381135273
1.379933604
1.379233347
1.379518453
1.380302431
1.381423539
1.38197027
1.381928681
1.37882643
1.378650582
1.379163584
1.37982745
1.380033524
1.379623549
1.378096019
1.376328487
1.376046492
1.376577204
1.377212725
1.37834296
1.37843313
1.379093266
1.379063091
1.378231691
1.377514613
1.376186147
1.376114015
1.37670681
1.37828971
1.380609025
1.382267404
1.383141588
1.383583226
1.3832406
1.382912931
1.381701144
1.380686859
1.380331208
1.380260914
1.380533941
1.381377062
1.381714816
1.379614437
1.379060465
1.379478618
1.380196946
1.380482462
1.380428441
1.379274079
1.377845165
1.376527088
1.376878631
1.377399703
1.378203719
1.379093482
1.379574732
1.379242355
1.378605686
1.378406975
1.376962635
1.375577302
1.374756592
1.37485462
1.376554732
1.379173504
1.38200474
1.383675923
1.384322733
1.384247823
1.383117155
1.378737917
1.378039233
)
;

boundaryField
{
    inlet
    {
        type            calculated;
        value           nonuniform 0();
    }
    outlet
    {
        type            calculated;
        value           nonuniform 0();
    }
    bottom
    {
        type            calculated;
        value           nonuniform 0();
    }
    top
    {
        type            calculated;
        value           nonuniform 0();
    }
    obstacle
    {
        type            calculated;
        value           nonuniform 0();
    }
    defaultFaces
    {
        type            empty;
    }
    procBoundary10to4
    {
        type            processor;
        value           nonuniform List<scalar> 
32
(
1.025867654
1.018548647
1.010465834
0.9991088219
0.9917866818
0.9850450711
1.3907956
1.362888109
1.345408322
1.319220806
1.291354909
1.276271352
1.258731424
1.232988268
1.216667034
1.203216311
1.182419456
1.16568938
1.15448676
1.139454528
1.123252607
1.112615378
1.101511054
1.086870592
1.075687752
1.067187452
1.055824012
1.044368705
1.03582426
1.027291609
1.015003263
1.015003263
)
;
    }
    procBoundary10to5
    {
        type            processor;
        value           uniform 0.9607848155;
    }
    procBoundary10to9
    {
        type            processor;
        value           nonuniform List<scalar> 
55
(
1.390692301
1.354741674
1.320886043
1.287889268
1.255976513
1.225480389
1.189816477
1.156425678
1.123974051
1.083944052
1.055283064
1.026064516
1.002079083
0.9794810623
0.957688905
0.9428883695
0.9268876225
0.9123239012
0.9083175071
0.9065776807
0.9047253652
0.9055883367
0.9319120937
1.06634431
1.277638337
1.337017527
1.371512629
1.383273631
1.382006576
1.376336635
1.376336635
1.370662222
1.370236193
1.369890033
1.371288514
1.372844191
1.373930734
1.374422428
1.374788456
1.374651464
1.374651464
1.373506266
1.373943167
1.375092102
1.376026965
1.37648629
1.376669292
1.376277738
1.376017846
1.376017846
1.376158355
1.376727016
1.377185818
1.377375335
1.376833277
)
;
    }
    procBoundary10to11
    {
        type            processor;
        value           nonuniform List<scalar> 
70
(
0.9470669379
0.9461429782
0.9808712009
1.12413716
1.287968141
1.375420563
1.3853731
1.380373331
1.384005935
1.387526864
1.386698382
1.384853249
1.384409063
1.385528542
1.386570328
1.386540127
1.385869738
1.386146254
1.387053667
1.387419268
1.387313523
1.386900879
1.386791319
1.386857039
1.386878305
1.386539557
1.385743771
1.384225806
1.383236001
1.382040015
1.379400117
1.379626364
1.381915838
1.383747152
1.383428935
1.383419223
1.383436516
1.381982516
1.379716112
1.37897452
1.378516779
1.378224136
1.378777074
1.38054121
1.381981272