/*--------------------------------*- C++ -*----------------------------------*\
  =========                 |
  \\      /  F ield         | OpenFOAM: The Open Source CFD Toolbox
   \\    /   O peration     | Website:  https://openfoam.org
    \\  /    A nd           | Version:  7
     \\/     M anipulation  |
\*---------------------------------------------------------------------------*/
FoamFile
{
    version     2.0;
    format      ascii;
    class       volVectorField;
    location    "1";
    object      U;
}
// * * * * * * * * * * * * * * * * * * * * * * * * * * * * * * * * * * * * * //

dimensions      [0 1 -1 0 0 0 0];

internalField   nonuniform List<vector> 5((3.010330828 0.1129509919 0) (2.924955317 0.2365101305 0) (3.003865189 0.108651065 0) (2.866741084 0.208316838 0) (2.833197985 0.1432179182 0));

boundaryField
{
    inlet
    {
        type            fixedValue;
        value           nonuniform 0();
    }
    outlet
    {
        type            inletOutlet;
        inletValue      nonuniform 0();
        value           nonuniform 0();
    }
    bottom
    {
        type            slip;
    }
    top
    {
        type            slip;
    }
    obstacle
    {
        type            slip;
    }
    defaultFaces
    {
        type            empty;
    }
    procBoundary15to4
    {
        type            processor;
        value           uniform (3.008217138 0.07875873216 0);
    }
    procBoundary15to9
    {
        type            processor;
        value           nonuniform List<vector> 3((2.979946705 -0.04223927755 0) (2.960537959 -0.01298729408 0) (2.960537959 -0.01298729408 0));
    }
    procBoundary15to10
    {
        type            processor;
        value           nonuniform List<vector> 4((3.002791559 0.03523428913 0) (2.968965508 0.07862726988 0) (2.968965508 0.07862726988 0) (2.901673647 0.05333461693 0));
    }
    procBoundary15to21
    {
        type            processor;
        value           uniform (2.752122934 0.09507365419 0);
    }
}


// ************************************************************************* //
