/*--------------------------------*- C++ -*----------------------------------*\
  =========                 |
  \\      /  F ield         | OpenFOAM: The Open Source CFD Toolbox
   \\    /   O peration     | Website:  https://openfoam.org
    \\  /    A nd           | Version:  7
     \\/     M anipulation  |
\*---------------------------------------------------------------------------*/
FoamFile
{
    version     2.0;
    format      ascii;
    class       volVectorField;
    location    "3.4";
    object      U;
}
// * * * * * * * * * * * * * * * * * * * * * * * * * * * * * * * * * * * * * //

dimensions      [0 1 -1 0 0 0 0];

internalField   nonuniform List<vector> 
2222
(
(3 -1.598796183e-14 0)
(3 -1.6583824e-14 0)
(3 -1.645643082e-14 0)
(3 -1.795291549e-14 0)
(3 -1.852166512e-14 0)
(3 -1.773401706e-14 0)
(3 -1.716699538e-14 0)
(3 -1.517388843e-14 0)
(3 -1.433632345e-14 0)
(3 -1.594718877e-14 0)
(3 -1.962852401e-14 0)
(3 -2.216211314e-14 0)
(3 -2.359867385e-14 0)
(3 -2.42010566e-14 0)
(3 -2.423651061e-14 0)
(3 -2.472561536e-14 0)
(3 -2.314351668e-14 0)
(3 -2.241592068e-14 0)
(3 -1.96485116e-14 0)
(3 -1.460377451e-14 0)
(3 -1.354398537e-14 0)
(3 -1.327174164e-14 0)
(3 -1.179555314e-14 0)
(3 -7.639590426e-15 0)
(3 -5.556486375e-15 0)
(3 -5.429056303e-15 0)
(3 -4.729785943e-15 0)
(3 -2.906882469e-15 0)
(3 -1.4981801e-15 0)
(3 1.439525717e-15 0)
(3 4.357118974e-15 0)
(3 5.829809004e-15 0)
(3 7.752034729e-15 0)
(3 1.030703825e-14 0)
(3 1.165499939e-14 0)
(3 1.262830042e-14 0)
(3 1.243933219e-14 0)
(3 9.678246479e-15 0)
(3 1.046478001e-14 0)
(3 1.149385578e-14 0)
(3 1.378959339e-14 0)
(3 1.5357085e-14 0)
(3 1.508117418e-14 0)
(3 1.429006775e-14 0)
(3 1.337863532e-14 0)
(3 1.159489402e-14 0)
(3 1.138453744e-14 0)
(3 1.181370382e-14 0)
(3 1.030045146e-14 0)
(3 8.008981364e-15 0)
(3 5.672567796e-15 0)
(3 2.52648679e-15 0)
(3 2.951905088e-15 0)
(3 1.523901626e-15 0)
(3 -7.790757438e-16 0)
(3 -2.128961894e-14 0)
(3 -2.401275632e-14 0)
(3 -2.594812014e-14 0)
(3 -2.375696896e-14 0)
(3 -2.146023019e-14 0)
(3 -2.007612657e-14 0)
(3 -1.789515876e-14 0)
(3 -1.573882945e-14 0)
(3 -1.485643561e-14 0)
(3 -1.427800261e-14 0)
(3 -1.452448841e-14 0)
(3 -1.55906547e-14 0)
(3 -1.698571678e-14 0)
(3 -1.687938322e-14 0)
(3 -1.777318959e-14 0)
(3 -1.773020524e-14 0)
(3 -1.67331569e-14 0)
(3 -1.487627241e-14 0)
(3 -1.048831653e-14 0)
(3 -7.897307225e-15 0)
(3 -7.492294053e-15 0)
(3 -7.683210285e-15 0)
(3 -6.374754344e-15 0)
(3 -5.207145352e-15 0)
(3 -3.674869825e-15 0)
(3 -3.267110709e-15 0)
(3 -2.73165475e-15 0)
(3 -3.70016555e-15 0)
(3 -4.514342852e-15 0)
(3 -2.995082416e-15 0)
(3 1.222471564e-15 0)
(3 3.662680286e-15 0)
(3 4.900145945e-15 0)
(3 5.974026588e-15 0)
(3 5.745123088e-15 0)
(3 6.252044473e-15 0)
(3 5.675421506e-15 0)
(3 5.903567007e-15 0)
(3 7.196192619e-15 0)
(3 8.052169662e-15 0)
(3 1.081530138e-14 0)
(3 1.339195977e-14 0)
(3 1.35866949e-14 0)
(3 1.324903616e-14 0)
(3 1.154398141e-14 0)
(3 8.240002723e-15 0)
(3 6.663620813e-15 0)
(3 3.9025611e-15 0)
(3 3.147557476e-15 0)
(3 1.310463298e-15 0)
(3 -1.632902346e-15 0)
(3 -4.557514987e-15 0)
(3 -4.767032196e-15 0)
(3 -4.255937732e-15 0)
(3 -6.175837998e-15 0)
(3 -9.396390447e-15 0)
(3 -1.274825812e-14 0)
(3 -1.340522687e-14 0)
(3 -1.302454504e-14 0)
(3 -9.394396406e-15 0)
(3 -7.143001161e-15 0)
(3 -7.111366668e-15 0)
(3 -6.339978168e-15 0)
(3 -5.089264512e-15 0)
(3 -4.592325579e-15 0)
(3 -3.163980263e-15 0)
(3 -2.784481071e-15 0)
(3 -2.178816637e-14 0)
(3 -2.246849252e-14 0)
(3 -2.320833506e-14 0)
(3 -2.455950109e-14 0)
(3 -2.398376753e-14 0)
(3 -2.238667787e-14 0)
(3 -2.078969073e-14 0)
(3 -1.914689087e-14 0)
(3 -1.808892945e-14 0)
(3 -1.658498703e-14 0)
(3 -1.58063262e-14 0)
(3 -1.726826282e-14 0)
(3 -1.669173647e-14 0)
(3 -1.668894072e-14 0)
(3 -1.5208868e-14 0)
(3 -1.346733698e-14 0)
(3 -1.281089655e-14 0)
(3 -1.123371828e-14 0)
(3 -8.827444782e-15 0)
(3 -7.374351231e-15 0)
(3 -6.626846979e-15 0)
(3 -5.938545111e-15 0)
(3 -4.599190142e-15 0)
(3 -2.207567485e-15 0)
(3 -2.744539797e-15 0)
(3 -2.423202865e-15 0)
(3 -3.327371003e-15 0)
(3 -4.993494788e-15 0)
(3 -6.628588403e-15 0)
(3 -9.327545145e-16 0)
(3 1.906354932e-15 0)
(3 2.958312313e-15 0)
(3 2.712667906e-15 0)
(3 -2.401043463e-16 0)
(3 -5.417609616e-16 0)
(3 1.478990968e-15 0)
(3 2.231489165e-15 0)
(3 2.145566151e-15 0)
(3 2.386415721e-15 0)
(3 3.488607088e-15 0)
(3 6.783724045e-15 0)
(3 9.015157226e-15 0)
(3 8.530460667e-15 0)
(3 6.467511263e-15 0)
(3 3.890103674e-15 0)
(3 1.392850365e-16 0)
(3 -9.630668763e-16 0)
(3 -2.358069438e-15 0)
(3 -3.328777753e-15 0)
(3 -4.126134524e-15 0)
(3 -6.103239512e-15 0)
(3 -8.749010941e-15 0)
(3 -9.260845282e-15 0)
(3 -8.864842218e-15 0)
(3 -9.626884833e-15 0)
(3 -1.372702164e-14 0)
(3 -1.554171708e-14 0)
(3 -1.678870627e-14 0)
(3 -1.727932705e-14 0)
(3 -1.48529056e-14 0)
(3 -1.186165029e-14 0)
(3 -1.05154053e-14 0)
(3 -1.014054492e-14 0)
(3 -9.805405759e-15 0)
(3 -9.302234758e-15 0)
(3 -7.357252392e-15 0)
(3 -5.051097781e-15 0)
(3 -1.918447476e-14 0)
(3 -1.925472062e-14 0)
(3 -1.883920889e-14 0)
(3 -2.00824034e-14 0)
(3 -2.116607826e-14 0)
(3 -1.924913243e-14 0)
(3 -1.810952802e-14 0)
(3 -1.645278633e-14 0)
(3 -1.616691746e-14 0)
(3 -1.603966379e-14 0)
(3 -1.413918695e-14 0)
(3 -1.178432534e-14 0)
(3 -1.019648968e-14 0)
(3 -5.13713097e-15 0)
(3 -2.963355151e-15 0)
(3 -2.233429295e-15 0)
(3 -2.115578742e-15 0)
(3 -2.107498283e-15 0)
(3 -2.186181405e-15 0)
(3 -2.465349641e-15 0)
(3 -2.818767968e-15 0)
(3 -3.139858748e-15 0)
(3 -3.800511259e-15 0)
(3 -3.194621989e-15 0)
(3 -1.483085828e-15 0)
(3 -1.517562323e-17 0)
(3 -3.963010112e-17 0)
(3 -7.486959356e-16 0)
(3 -2.00791862e-15 0)
(3 -1.581593522e-15 0)
(3 -2.01465943e-15 0)
(3 -3.196040517e-15 0)
(3 -2.15620063e-15 0)
(3 -4.137469319e-16 0)
(3 1.098148561e-15 0)
(3 1.978459097e-15 0)
(3 1.302612697e-15 0)
(3 -1.17811367e-15 0)
(3 9.270927562e-16 0)
(3 1.928080993e-15 0)
(3 5.488811013e-15 0)
(3 4.334592688e-15 0)
(3 5.287595998e-15 0)
(3 1.867254117e-15 0)
(3 -1.340126742e-15 0)
(3 -3.123132006e-15 0)
(3 -4.720213141e-15 0)
(3 -5.366606586e-15 0)
(3 -7.530108061e-15 0)
(3 -8.897335627e-15 0)
(3 -1.31470049e-14 0)
(3 -1.44447615e-14 0)
(3 -1.496568296e-14 0)
(3 -1.478776423e-14 0)
(3 -1.437259125e-14 0)
(3 -1.522531314e-14 0)
(3 -1.601919448e-14 0)
(3 -1.622098188e-14 0)
(3 -1.816502664e-14 0)
(3 -1.754825383e-14 0)
(3 -1.477257601e-14 0)
(3 -1.232017116e-14 0)
(3 -1.128771746e-14 0)
(3 -1.158402029e-14 0)
(3 -1.00547485e-14 0)
(3 -8.413092744e-15 0)
(3 -5.062297205e-15 0)
(3 -1.233086074e-14 0)
(3 -1.163110843e-14 0)
(3 -1.062693412e-14 0)
(3 -7.926490762e-15 0)
(3 -7.62387612e-15 0)
(3 -7.143410765e-15 0)
(3 -7.03902178e-15 0)
(3 -8.399799703e-15 0)
(3 -8.326632623e-15 0)
(3 -8.470755746e-15 0)
(3 -7.123687358e-15 0)
(3 -5.20523327e-15 0)
(3 -2.405225721e-15 0)
(3 2.065479294e-16 0)
(3 1.901647454e-15 0)
(3 3.109686136e-15 0)
(3 4.95757634e-15 0)
(3 5.435480809e-15 0)
(3 4.71986759e-15 0)
(3 3.052866942e-15 0)
(3 -4.907949817e-16 0)
(3 -1.553521088e-15 0)
(3 -1.38184833e-15 0)
(3 -9.355909477e-16 0)
(3 -8.658759805e-16 0)
(3 -1.271500698e-15 0)
(3 -1.951169434e-15 0)
(3 -5.777801454e-16 0)
(3 -7.635238989e-16 0)
(3 -2.141296483e-15 0)
(3 -3.817549475e-15 0)
(3 -3.77831825e-15 0)
(3 -3.468340958e-15 0)
(3 -2.396584035e-15 0)
(3 -1.53757609e-15 0)
(3 -2.514315077e-15 0)
(3 -3.334300968e-15 0)
(3 -2.690178376e-15 0)
(3 -4.042983759e-16 0)
(3 8.677985562e-17 0)
(3 -1.862562156e-15 0)
(3 -1.98801425e-15 0)
(3 5.713470748e-17 0)
(3 3.863745375e-16 0)
(3 -2.044586197e-15 0)
(3 -4.234857743e-15 0)
(3 -7.733294899e-15 0)
(3 -9.574191216e-15 0)
(3 -1.450434334e-14 0)
(3 -1.644339285e-14 0)
(3 -1.722659258e-14 0)
(3 -2.073555905e-14 0)
(3 -2.242821126e-14 0)
(3 -2.43029585e-14 0)
(3 -2.636555482e-14 0)
(3 -2.478158854e-14 0)
(3 -2.245110176e-14 0)
(3 -2.146298077e-14 0)
(3 -2.214649178e-14 0)
(3 -2.230865509e-14 0)
(3 -1.862908191e-14 0)
(3 -1.456045458e-14 0)
(3 -1.457067735e-14 0)
(3 -1.417200984e-14 0)
(3 -1.360640348e-14 0)
(3 -1.127964795e-14 0)
(3 -8.856574347e-16 0)
(3 -2.832736955e-15 0)
(3 -2.327990111e-15 0)
(3 -2.231896753e-15 0)
(3 1.313320244e-15 0)
(3 1.093035487e-15 0)
(3 2.796651301e-16 0)
(3 -3.317048758e-16 0)
(3 -1.30252534e-15 0)
(3 -1.776360579e-15 0)
(3 -7.581935105e-16 0)
(3 1.130777658e-15 0)
(3 2.700883657e-15 0)
(3 3.42079061e-15 0)
(3 3.990206356e-15 0)
(3 4.905064117e-15 0)
(3 6.500054272e-15 0)
(3 7.746508452e-15 0)
(3 7.724494653e-15 0)
(3 5.293378875e-15 0)
(3 4.034229714e-15 0)
(3 2.163832863e-15 0)
(3 8.676200142e-17 0)
(3 -5.454905772e-17 0)
(3 -3.453463659e-15 0)
(3 -4.481639106e-15 0)
(3 -5.272775237e-15 0)
(3 -5.120164187e-15 0)
(3 -4.113704593e-15 0)
(3 -3.57387709e-15 0)
(3 -3.317442717e-15 0)
(3 -3.8748825e-15 0)
(3 -4.032770937e-15 0)
(3 -4.134630372e-15 0)
(3 -2.36357543e-15 0)
(3 -5.293413472e-16 0)
(3 -9.870307802e-16 0)
(3 -4.303561023e-15 0)
(3 -5.843260578e-15 0)
(3 -6.150895672e-15 0)
(3 -7.561907526e-15 0)
(3 -8.803454302e-15 0)
(3 -8.559724066e-15 0)
(3 -9.536073711e-15 0)
(3 -1.066936121e-14 0)
(3 -1.064232491e-14 0)
(3 -1.100774405e-14 0)
(3 -1.494003353e-14 0)
(3 -1.633212269e-14 0)
(3 -2.03978462e-14 0)
(3 -2.419378859e-14 0)
(3 -2.39427674e-14 0)
(3 -2.535515759e-14 0)
(3 -2.857459637e-14 0)
(3 -2.995676673e-14 0)
(3 -3.040060692e-14 0)
(3 -2.829715261e-14 0)
(3 -2.619315525e-14 0)
(3 -2.557709979e-14 0)
(3 -2.542599069e-14 0)
(3 -2.564337959e-14 0)
(3 -2.384624085e-14 0)
(3 -1.851952618e-14 0)
(3 -1.701364727e-14 0)
(3 -1.764886981e-14 0)
(3 -1.738705279e-14 0)
(3 -8.053207888e-15 0)
(3 -9.380210044e-16 0)
(3 1.166604255e-14 0)
(3 9.112166825e-15 0)
(3 8.71597171e-15 0)
(3 6.810555414e-15 0)
(3 5.044141092e-15 0)
(3 4.962315302e-15 0)
(3 4.571070761e-15 0)
(3 4.597077832e-15 0)
(3 5.011267906e-15 0)
(3 5.752826306e-15 0)
(3 6.286052969e-15 0)
(3 5.962321928e-15 0)
(3 6.041859537e-15 0)
(3 5.774852168e-15 0)
(3 6.405411862e-15 0)
(3 7.346256765e-15 0)
(3 7.60473546e-15 0)
(3 6.530288686e-15 0)
(3 4.906434266e-15 0)
(3 4.521255814e-15 0)
(3 3.773104201e-15 0)
(3 3.036327798e-15 0)
(3 1.123106336e-15 0)
(3 -5.672781597e-15 0)
(3 -7.815344861e-15 0)
(3 -8.525102776e-15 0)
(3 -7.744903794e-15 0)
(3 -6.703538747e-15 0)
(3 -4.977027856e-15 0)
(3 -4.242060499e-15 0)
(3 -4.44937901e-15 0)
(3 -5.246159778e-15 0)
(3 -6.104123896e-15 0)
(3 -5.768548598e-15 0)
(3 -6.440604443e-15 0)
(3 -6.265056808e-15 0)
(3 -8.541590148e-15 0)
(3 -9.761362678e-15 0)
(3 -1.262048113e-14 0)
(3 -1.556482758e-14 0)
(3 -1.599134018e-14 0)
(3 -1.572866665e-14 0)
(3 -1.507861355e-14 0)
(3 -1.776302854e-14 0)
(3 -2.007272742e-14 0)
(3 -2.134431223e-14 0)
(3 -2.112294067e-14 0)
(3 -2.038262263e-14 0)
(3 -2.051811272e-14 0)
(3 -2.147185023e-14 0)
(3 -2.374772902e-14 0)
(3 -2.560457849e-14 0)
(3 -2.8017267e-14 0)
(3 -2.925833295e-14 0)
(3 -2.946724644e-14 0)
(3 -2.875115908e-14 0)
(3 -2.670885553e-14 0)
(3 -2.547659707e-14 0)
(3 -2.349200069e-14 0)
(3 -2.221947629e-14 0)
(3 -2.071488294e-14 0)
(3 -1.382230626e-14 0)
(3 -9.62594296e-15 0)
(3 -8.056750256e-15 0)
(3 -5.920267512e-15 0)
(3 -2.991457911e-15 0)
(3 3.573700547e-16 0)
(3 1.107516729e-14 0)
(3 9.247761134e-15 0)
(3 7.438961805e-15 0)
(3 7.406086284e-15 0)
(3 8.914934314e-15 0)
(3 9.508994849e-15 0)
(3 7.980935107e-15 0)
(3 7.725511666e-15 0)
(3 7.695515255e-15 0)
(3 8.60466552e-15 0)
(3 9.808484844e-15 0)
(3 1.100050054e-14 0)
(3 1.104447955e-14 0)
(3 1.096573159e-14 0)
(3 1.053408732e-14 0)
(3 9.51739192e-15 0)
(3 8.383313458e-15 0)
(3 7.756983437e-15 0)
(3 7.321812959e-15 0)
(3 6.981521581e-15 0)
(3 8.564210543e-15 0)
(3 9.682452498e-15 0)
(3 8.899429422e-15 0)
(3 7.565334842e-15 0)
(3 6.237065947e-15 0)
(3 1.715869478e-15 0)
(3 -8.548453899e-16 0)
(3 -1.662159904e-15 0)
(3 -3.045126948e-15 0)
(3 -3.917201895e-15 0)
(3 -5.642805054e-15 0)
(3 -8.410312397e-15 0)
(3 -1.237967538e-14 0)
(3 -1.447784338e-14 0)
(3 -1.850220677e-14 0)
(3 -2.062529127e-14 0)
(3 -1.965759231e-14 0)
(3 -2.06122923e-14 0)
(3 -2.16320332e-14 0)
(3 -2.349347694e-14 0)
(3 -2.462652182e-14 0)
(3 -2.865927757e-14 0)
(3 -2.984389298e-14 0)
(3 -3.214745752e-14 0)
(3 -3.404358827e-14 0)
(3 -3.751169888e-14 0)
(3 -3.795026482e-14 0)
(3 -3.770113156e-14 0)
(3 -3.744244212e-14 0)
(3 -3.752303461e-14 0)
(3 -3.644720713e-14 0)
(3 -3.454659827e-14 0)
(3 -3.301905518e-14 0)
(3 -3.308922866e-14 0)
(3 -3.307724174e-14 0)
(3 -3.301347143e-14 0)
(3 -3.191186287e-14 0)
(3 -2.94585617e-14 0)
(3 -2.860757012e-14 0)
(3 -2.719064715e-14 0)
(3 -2.497393986e-14 0)
(3 -1.937871741e-14 0)
(3 -1.43676332e-14 0)
(3 -9.698911268e-15 0)
(3 -8.277142418e-15 0)
(3 -4.915713533e-15 0)
(3 -8.783955366e-16 0)
(3 5.999596509e-15 0)
(3 6.158393451e-15 0)
(3 6.613934378e-15 0)
(3 8.504857805e-15 0)
(3 1.010919053e-14 0)
(3 8.527480574e-15 0)
(3 6.74133251e-15 0)
(3 6.685673763e-15 0)
(3 6.331468034e-15 0)
(3 6.329570004e-15 0)
(3 7.701722052e-15 0)
(3 1.083426516e-14 0)
(3 1.140565816e-14 0)
(3 1.171367158e-14 0)
(3 1.123132752e-14 0)
(3 1.038509157e-14 0)
(3 9.33016565e-15 0)
(3 9.531074935e-15 0)
(3 1.033823208e-14 0)
(3 1.258699678e-14 0)
(3 1.469721034e-14 0)
(3 1.680466303e-14 0)
(3 1.78795387e-14 0)
(3 1.76025633e-14 0)
(3 1.665661686e-14 0)
(3 1.388556725e-14 0)
(3 8.073692113e-15 0)
(3 5.673647714e-15 0)
(3 4.219755387e-16 0)
(3 -3.641371332e-15 0)
(3 -6.196498909e-15 0)
(3 -1.202889595e-14 0)
(3 -1.932992419e-14 0)
(3 -2.501769503e-14 0)
(3 -2.516049416e-14 0)
(3 -2.665398487e-14 0)
(3 -2.935727028e-14 0)
(3 -3.115012501e-14 0)
(3 -3.189565115e-14 0)
(3 -3.268996574e-14 0)
(3 -3.388605755e-14 0)
(3 -3.842287708e-14 0)
(3 -4.140561596e-14 0)
(3 -4.303051939e-14 0)
(3 -4.408137398e-14 0)
(3 -4.532850193e-14 0)
(3 -4.537449026e-14 0)
(3 -4.416279014e-14 0)
(3 -4.353263811e-14 0)
(3 -4.021413429e-14 0)
(3 -3.8177323e-14 0)
(3 -3.600072259e-14 0)
(3 -3.279588952e-14 0)
(3 -3.109632184e-14 0)
(3 -3.135766666e-14 0)
(3 -3.175707342e-14 0)
(3 -3.075995755e-14 0)
(3 -2.900407175e-14 0)
(3 -2.632541789e-14 0)
(3 -2.505755025e-14 0)
(3 -2.230571474e-14 0)
(3 -1.807278158e-14 0)
(3 -1.206943148e-14 0)
(3 -9.195089322e-15 0)
(3 -3.732738691e-15 0)
(3 -1.693892961e-15 0)
(3 2.605167272e-16 0)
(3 1.72065984e-15 0)
(3 2.924839442e-15 0)
(3 3.839340757e-15 0)
(3 6.038182252e-15 0)
(3 6.759817446e-15 0)
(3 7.381798727e-15 0)
(3 7.052975283e-15 0)
(3 6.217452909e-15 0)
(3 5.976762373e-15 0)
(3 6.752351406e-15 0)
(3 7.74268945e-15 0)
(3 1.075146909e-14 0)
(3 1.139271649e-14 0)
(3 1.177963151e-14 0)
(3 1.169293049e-14 0)
(3 1.175395957e-14 0)
(3 1.211482921e-14 0)
(3 1.313674095e-14 0)
(3 1.378026018e-14 0)
(3 1.348879113e-14 0)
(3 1.288232553e-14 0)
(3 1.584898703e-14 0)
(3 1.594109383e-14 0)
(3 1.574425024e-14 0)
(3 1.55794265e-14 0)
(3 1.476724565e-14 0)
(3 1.313794986e-14 0)
(3 1.137521397e-14 0)
(3 7.475579278e-15 0)
(3 -1.183995226e-15 0)
(3 -6.104735939e-15 0)
(3 -1.553027176e-14 0)
(3 -2.043727243e-14 0)
(3 -2.250842962e-14 0)
(3 -2.460887159e-14 0)
(3 -2.583893768e-14 0)
(3 -2.972615478e-14 0)
(3 -3.59411913e-14 0)
(3 -3.775681072e-14 0)
(3 -3.88981221e-14 0)
(3 -3.922382012e-14 0)
(3 -3.93285781e-14 0)
(3 -4.047105086e-14 0)
(3 -4.405953109e-14 0)
(3 -4.609574376e-14 0)
(3 -4.77412011e-14 0)
(3 -4.980905515e-14 0)
(3 -4.997988425e-14 0)
(3 -4.822932816e-14 0)
(3 -4.491259808e-14 0)
(3 -4.006830905e-14 0)
(3 -3.427477069e-14 0)
(3 -2.970569989e-14 0)
(3 -2.905714105e-14 0)
(3 -2.544308284e-14 0)
(3 -2.37417687e-14 0)
(3 -2.270528634e-14 0)
(3 -2.233892114e-14 0)
(3 -2.149042007e-14 0)
(3 -1.832919864e-14 0)
(3 -1.564036941e-14 0)
(3 -1.103378458e-14 0)
(3 -7.576196924e-15 0)
(3 -4.37930483e-15 0)
(3 -1.101842157e-15 0)
(3 4.484908849e-16 0)
(3 4.736861361e-15 0)
(3 -2.174191569e-15 0)
(3 2.228332675e-15 0)
(3 3.20170105e-15 0)
(3 4.084750886e-15 0)
(3 4.121052028e-15 0)
(3 5.018289463e-15 0)
(3 6.465205273e-15 0)
(3 7.63639145e-15 0)
(3 8.063135548e-15 0)
(3 9.634239342e-15 0)
(3 9.369109573e-15 0)
(3 9.391734577e-15 0)
(3 1.013157621e-14 0)
(3 1.093558947e-14 0)
(3 1.190898652e-14 0)
(3 1.269478317e-14 0)
(3 1.396948434e-14 0)
(3 1.582712855e-14 0)
(3 1.683969048e-14 0)
(3 1.611096691e-14 0)
(3 1.259284069e-14 0)
(3 9.641299182e-15 0)
(3 9.880646629e-15 0)
(3 1.081783079e-14 0)
(3 1.231629292e-14 0)
(3 1.212644e-14 0)
(3 1.338904153e-14 0)
(3 1.315999898e-14 0)
(3 1.208243247e-14 0)
(3 6.351041044e-15 0)
(3 -1.576832414e-15 0)
(3 -7.088322191e-15 0)
(3 -1.287480445e-14 0)
(3 -1.853567597e-14 0)
(3 -2.381453287e-14 0)
(3 -2.755496615e-14 0)
(3 -2.949936185e-14 0)
(3 -3.098779095e-14 0)
(3 -3.34902497e-14 0)
(3 -3.508312818e-14 0)
(3 -3.86982937e-14 0)
(3 -3.912091168e-14 0)
(3 -3.929464705e-14 0)
(3 -3.984010561e-14 0)
(3 -3.994075049e-14 0)
(3 -4.029532333e-14 0)
(3 -4.104697259e-14 0)
(3 -4.206098834e-14 0)
(3 -4.225457735e-14 0)
(3 -4.104246074e-14 0)
(3 -3.970710412e-14 0)
(3 -3.650398388e-14 0)
(3 -3.278954143e-14 0)
(3 -3.014199065e-14 0)
(3 -2.588048021e-14 0)
(3 -2.444055135e-14 0)
(3 -2.370237644e-14 0)
(3 -2.120964283e-14 0)
(3 -1.815203816e-14 0)
(3 -1.519063437e-14 0)
(3 -1.217287638e-14 0)
(3 -9.709000381e-15 0)
(3 -7.133320786e-15 0)
(3 -4.423829983e-15 0)
(3 -1.354850636e-15 0)
(3 2.697660027e-15 0)
(3 6.798180751e-15 0)
(3 -7.679673321e-16 0)
(3 3.419503279e-15 0)
(3 4.340154838e-15 0)
(3 4.077114009e-15 0)
(3 4.197364991e-15 0)
(3 4.817931027e-15 0)
(3 8.717281651e-15 0)
(3 1.048417641e-14 0)
(3 1.173822096e-14 0)
(3 1.121266589e-14 0)
(3 1.001685017e-14 0)
(3 7.930613606e-15 0)
(3 8.187853828e-15 0)
(3 8.254633374e-15 0)
(3 1.027699849e-14 0)
(3 1.303092538e-14 0)
(3 1.633495997e-14 0)
(3 1.861316024e-14 0)
(3 1.968565106e-14 0)
(3 1.839004309e-14 0)
(3 1.298014627e-14 0)
(3 9.529135275e-15 0)
(3 9.927843393e-15 0)
(3 1.173016746e-14 0)
(3 1.247691355e-14 0)
(3 1.166957114e-14 0)
(3 1.078463167e-14 0)
(3 9.746598062e-15 0)
(3 6.631811757e-15 0)
(3 2.916496443e-15 0)
(3 5.483885001e-16 0)
(3 -1.552365251e-15 0)
(3 -2.814489237e-15 0)
(3 -1.009602591e-14 0)
(3 -1.615522832e-14 0)
(3 -2.205452132e-14 0)
(3 -2.59949076e-14 0)
(3 -2.811327471e-14 0)
(3 -3.13721559e-14 0)
(3 -3.373106498e-14 0)
(3 -3.518248209e-14 0)
(3 -3.420285295e-14 0)
(3 -3.303052306e-14 0)
(3 -3.133631216e-14 0)
(3 -3.112105807e-14 0)
(3 -3.014178933e-14 0)
(3 -2.994526178e-14 0)
(3 -3.159747901e-14 0)
(3 -3.248204493e-14 0)
(3 -3.369790109e-14 0)
(3 -3.3726869e-14 0)
(3 -3.344515509e-14 0)
(3 -3.214547024e-14 0)
(3 -2.974587163e-14 0)
(3 -2.879595566e-14 0)
(3 -2.645603884e-14 0)
(3 -2.36221891e-14 0)
(3 -1.830632301e-14 0)
(3 -1.228835632e-14 0)
(3 -1.048480731e-14 0)
(3 -8.177566617e-15 0)
(3 -5.960685928e-15 0)
(3 -4.367679714e-15 0)
(3 -3.116263581e-15 0)
(3 -2.350801418e-15 0)
(3 -1.445305247e-15 0)
(3 2.904978858e-15 0)
(3 -3.468537391e-15 0)
(3 -1.213007847e-15 0)
(3 -6.452098238e-16 0)
(3 -2.009650794e-16 0)
(3 3.60085672e-15 0)
(3 6.277157375e-15 0)
(3 8.443349825e-15 0)
(3 9.514957075e-15 0)
(3 1.027449739e-14 0)
(3 9.699846734e-15 0)
(3 9.708361705e-15 0)
(3 9.593593677e-15 0)
(3 9.855862258e-15 0)
(3 1.000982184e-14 0)
(3 1.090333474e-14 0)
(3 1.134792573e-14 0)
(3 1.283074821e-14 0)
(3 1.463256711e-14 0)
(3 1.553338578e-14 0)
(3 1.361816786e-14 0)
(3 9.121464038e-15 0)
(3 8.743974476e-15 0)
(3 8.491155112e-15 0)
(3 7.917304195e-15 0)
(3 7.085284301e-15 0)
(3 2.880564542e-15 0)
(3 -2.336079273e-15 0)
(3 -4.630814531e-15 0)
(3 -5.920511588e-15 0)
(3 -6.515827455e-15 0)
(3 -4.471422123e-15 0)
(3 -4.785867739e-15 0)
(3 -5.632052187e-15 0)
(3 -9.10835918e-15 0)
(3 -1.465214295e-14 0)
(3 -1.846751706e-14 0)
(3 -2.136215252e-14 0)
(3 -2.50510467e-14 0)
(3 -2.589936969e-14 0)
(3 -2.713388986e-14 0)
(3 -2.632991291e-14 0)
(3 -2.813120163e-14 0)
(3 -2.686802685e-14 0)
(3 -2.44946892e-14 0)
(3 -2.254567597e-14 0)
(3 -2.101845306e-14 0)
(3 -2.019836558e-14 0)
(3 -1.866714838e-14 0)
(3 -1.842058651e-14 0)
(3 -2.037167108e-14 0)
(3 -2.193598967e-14 0)
(3 -2.420598904e-14 0)
(3 -2.501236411e-14 0)
(3 -2.477712854e-14 0)
(3 -2.406338764e-14 0)
(3 -2.215263346e-14 0)
(3 -1.825122489e-14 0)
(3 -1.417961717e-14 0)
(3 -1.066400252e-14 0)
(3 -8.456338383e-15 0)
(3 -7.736580127e-15 0)
(3 -5.503484048e-15 0)
(3 -3.971692874e-15 0)
(3 -4.057235268e-15 0)
(3 -4.885331613e-15 0)
(3 -4.148452148e-15 0)
(3 -2.110262151e-15 0)
(3 -4.482649449e-15 0)
(3 -4.014391431e-15 0)
(3 -2.77162619e-15 0)
(3 -5.057183505e-16 0)
(3 5.760683703e-15 0)
(3 9.521046704e-15 0)
(3 1.059298654e-14 0)
(3 9.30388443e-15 0)
(3 9.3147205e-15 0)
(3 1.042720276e-14 0)
(3 1.170767857e-14 0)
(3 1.336688311e-14 0)
(3 1.321070989e-14 0)
(3 1.234843147e-14 0)
(3 1.023399941e-14 0)
(3 9.002115872e-15 0)
(3 8.373050622e-15 0)
(3 8.85757506e-15 0)
(3 6.238241136e-15 0)
(3 4.689543084e-15 0)
(3 9.489592946e-15 0)
(3 7.693416153e-15 0)
(3 3.879559905e-15 0)
(3 1.027644948e-15 0)
(3 -1.522765315e-15 0)
(3 -5.201401037e-15 0)
(3 -1.011155327e-14 0)
(3 -1.422509359e-14 0)
(3 -1.595464277e-14 0)
(3 -1.549250743e-14 0)
(3 -1.365423594e-14 0)
(3 -9.919702253e-15 0)
(3 -7.929655484e-15 0)
(3 -7.996871795e-15 0)
(3 -1.102557148e-14 0)
(3 -1.418943379e-14 0)
(3 -1.493676928e-14 0)
(3 -1.536922899e-14 0)
(3 -1.605274023e-14 0)
(3 -1.857786948e-14 0)
(3 -1.954804885e-14 0)
(3 -2.038660744e-14 0)
(3 -1.892450537e-14 0)
(3 -1.798598349e-14 0)
(3 -1.659199758e-14 0)
(3 -1.339716396e-14 0)
(3 -1.082880295e-14 0)
(3 -8.771683652e-15 0)
(3 -9.33180629e-15 0)
(3 -1.001296961e-14 0)
(3 -1.112364314e-14 0)
(3 -1.31644483e-14 0)
(3 -1.545793275e-14 0)
(3 -1.63599318e-14 0)
(3 -1.529803273e-14 0)
(3 -1.33891333e-14 0)
(3 -1.224215403e-14 0)
(3 -1.067459056e-14 0)
(3 -9.94436928e-15 0)
(3 -9.621532826e-15 0)
(3 -9.112318279e-15 0)
(3 -7.619657088e-15 0)
(3 -6.157631923e-15 0)
(3 -5.107062878e-15 0)
(3 -3.716814257e-15 0)
(3 -3.243989151e-15 0)
(3 -2.313449774e-15 0)
(3 -2.155875159e-15 0)
(3 2.24393216e-17 0)
(3 1.691805673e-15 0)
(3 5.525029541e-15 0)
(3 8.618539374e-15 0)
(3 9.704164552e-15 0)
(3 1.059323189e-14 0)
(3 1.135008466e-14 0)
(3 1.016470734e-14 0)
(3 9.906840546e-15 0)
(3 9.513757681e-15 0)
(3 8.544216587e-15 0)
(3 7.262414156e-15 0)
(3 5.883637044e-15 0)
(3 3.020814227e-15 0)
(3 1.248396092e-15 0)
(3 2.200677671e-16 0)
(3 1.252286753e-16 0)
(3 -1.052962354e-15 0)
(3 4.598343424e-16 0)
(3 3.111448544e-15 0)
(3 1.730713473e-15 0)
(3 -1.455560793e-15 0)
(3 -4.877052559e-15 0)
(3 -6.607197462e-15 0)
(3 -9.678905323e-15 0)
(3 -1.119069736e-14 0)
(3 -1.315928788e-14 0)
(3 -1.449319407e-14 0)
(3 -1.522452688e-14 0)
(3 -1.582965566e-14 0)
(3 -1.467361275e-14 0)
(3 -1.397815288e-14 0)
(3 -1.222452217e-14 0)
(3 -1.156263076e-14 0)
(3 -1.179261553e-14 0)
(3 -1.225317983e-14 0)
(3 -1.052229958e-14 0)
(3 -9.788708065e-15 0)
(3 -8.06911047e-15 0)
(3 -8.419057016e-15 0)
(3 -7.961026094e-15 0)
(3 -7.539353863e-15 0)
(3 -7.47962971e-15 0)
(3 -4.994795461e-15 0)
(3 -3.355637914e-15 0)
(3 -1.910351835e-15 0)
(3 -8.029008585e-16 0)
(3 1.509638835e-15 0)
(3 2.487451954e-15 0)
(3 2.374617522e-15 0)
(3 1.050479624e-15 0)
(3 -7.981169824e-16 0)
(3 -1.491040589e-15 0)
(3 -3.674819915e-15 0)
(3 -4.063895841e-15 0)
(3 -3.846370624e-15 0)
(3 -4.315104498e-15 0)
(3 -4.940644649e-15 0)
(3 -5.032665599e-15 0)
(3 -4.347348944e-15 0)
(3 -4.009191231e-15 0)
(3 -3.072208075e-15 0)
(3 -1.868083738e-15 0)
(3 9.941807066e-17 0)
(3 5.005090383e-16 0)
(3 -6.940129313e-16 0)
(3 2.55818985e-15 0)
(3 4.614680887e-15 0)
(3 5.509145333e-15 0)
(3 7.126730086e-15 0)
(3 7.502238488e-15 0)
(3 5.958413509e-15 0)
(3 7.261866098e-15 0)
(3 8.422778987e-15 0)
(3 9.032766375e-15 0)
(3 8.901134338e-15 0)
(3 8.761587996e-15 0)
(3 6.981566974e-15 0)
(3 4.928527234e-15 0)
(3 2.580738906e-15 0)
(3 1.594314301e-15 0)
(3 -2.047218696e-16 0)
(3 -3.662858175e-15 0)
(3 -9.414503791e-15 0)
(3 -1.145389258e-14 0)
(3 -1.039327947e-14 0)
(3 -9.90408579e-15 0)
(3 -1.150004871e-14 0)
(3 -1.196001537e-14 0)
(3 -1.288355728e-14 0)
(3 -1.366962677e-14 0)
(3 -1.305897877e-14 0)
(3 -1.322598517e-14 0)
(3 -1.321813886e-14 0)
(3 -1.424375569e-14 0)
(3 -1.582101463e-14 0)
(3 -1.969730159e-14 0)
(3 -2.153938112e-14 0)
(3 -2.065409498e-14 0)
(3 -1.927621084e-14 0)
(3 -1.532272312e-14 0)
(3 -1.226453451e-14 0)
(3 -1.028519066e-14 0)
(3 -6.665391293e-15 0)
(3 -4.864751465e-15 0)
(3 -1.704569492e-15 0)
(3 -1.111369423e-15 0)
(3 1.013217691e-15 0)
(3 5.432384908e-15 0)
(3 7.852993372e-15 0)
(3 7.615395378e-15 0)
(3 6.482010532e-15 0)
(3 5.913596609e-15 0)
(3 5.299478028e-15 0)
(3 4.344638898e-15 0)
(3 4.811166825e-15 0)
(3 4.614284637e-15 0)
(3 3.956225634e-15 0)
(3 3.618159638e-15 0)
(3 2.892152351e-15 0)
(3 3.534536551e-15 0)
(3 4.443564373e-15 0)
(3 4.354639628e-15 0)
(3 1.205418049e-15 0)
(3 -2.199762474e-15 0)
(3 -2.342259371e-15 0)
(3 -2.20342838e-15 0)
(3 -1.58491154e-15 0)
(3 -4.834865297e-16 0)
(3 9.141204542e-16 0)
(3 2.459686906e-15 0)
(3 3.515623472e-15 0)
(3 3.521708617e-15 0)
(3 8.922786093e-15 0)
(3 6.333015603e-15 0)
(3 5.442536986e-15 0)
(3 3.79060406e-15 0)
(3 2.71437935e-15 0)
(3 1.862383243e-15 0)
(3 1.281550987e-15 0)
(3 1.261022882e-15 0)
(3 -7.478405726e-16 0)
(3 -1.333809901e-15 0)
(3 -9.801881992e-16 0)
(3 -5.983361677e-17 0)
(3 1.518715846e-15 0)
(3 1.71404536e-15 0)
(3 7.579212751e-16 0)
(3 -1.497608658e-15 0)
(3 -4.796860538e-15 0)
(3 -9.882905312e-15 0)
(3 -1.548658863e-14 0)
(3 -2.084819929e-14 0)
(3 -2.254622604e-14 0)
(3 -2.142331869e-14 0)
(3 -1.863047652e-14 0)
(3 -1.704040495e-14 0)
(3 -1.606668642e-14 0)
(3 -1.463504611e-14 0)
(3 -1.41691721e-14 0)
(3 -1.458177433e-14 0)
(3 -1.465835763e-14 0)
(3 -1.633627646e-14 0)
(3 -1.710010736e-14 0)
(3 -1.693759927e-14 0)
(3 -1.697512032e-14 0)
(3 -1.862040283e-14 0)
(3 -1.468825865e-14 0)
(3 -8.02883334e-15 0)
(3 -7.145684189e-15 0)
(3 -5.393959659e-15 0)
(3 -1.05116588e-15 0)
(3 3.854047389e-15 0)
(3 4.545729529e-15 0)
(3 8.25505267e-15 0)
(3 1.321472489e-14 0)
(3 1.468424665e-14 0)
(3 1.549164395e-14 0)
(3 1.567290535e-14 0)
(3 1.700250493e-14 0)
(3 1.660199062e-14 0)
(3 1.596000011e-14 0)
(3 1.56712121e-14 0)
(3 1.560851129e-14 0)
(3 1.51202024e-14 0)
(3 1.351244264e-14 0)
(3 1.209174153e-14 0)
(3 1.233024095e-14 0)
(3 1.275820333e-14 0)
(3 1.064694906e-14 0)
(3 3.441839755e-15 0)
(3 7.907908983e-16 0)
(3 7.489089699e-16 0)
(3 1.291189905e-15 0)
(3 1.364954165e-15 0)
(3 1.342438694e-15 0)
(3 1.150120631e-15 0)
(3 1.22000739e-15 0)
(3 1.79770606e-16 0)
(3 1.387498139e-15 0)
(3 1.375769594e-14 0)
(3 1.192877015e-14 0)
(3 1.013294032e-14 0)
(3 8.894027022e-15 0)
(3 7.591234539e-15 0)
(3 2.236899356e-15 0)
(3 -2.364711214e-15 0)
(3 -4.127964688e-15 0)
(3 -6.013571563e-15 0)
(3 -8.606426923e-15 0)
(3 -1.06702365e-14 0)
(3 -1.098970339e-14 0)
(3 -1.073766388e-14 0)
(3 -1.014030954e-14 0)
(3 -1.074459377e-14 0)
(3 -1.19937768e-14 0)
(3 -1.421326299e-14 0)
(3 -1.604644996e-14 0)
(3 -1.843274914e-14 0)
(3 -1.992704702e-14 0)
(3 -2.202189803e-14 0)
(3 -2.254136446e-14 0)
(3 -2.258256422e-14 0)
(3 -2.073590271e-14 0)
(3 -1.941441895e-14 0)
(3 -1.865257215e-14 0)
(3 -1.658086308e-14 0)
(3 -1.593645009e-14 0)
(3 -1.513953854e-14 0)
(3 -1.227371639e-14 0)
(3 -1.145775725e-14 0)
(3 -8.55552458e-15 0)
(3 -5.952398234e-15 0)
(3 -4.926873591e-15 0)
(3 -5.474477951e-15 0)
(3 -1.849904722e-15 0)
(3 4.749887054e-17 0)
(3 1.90493697e-15 0)
(3 6.413102169e-15 0)
(3 1.373642458e-14 0)
(3 1.752742875e-14 0)
(3 1.965609471e-14 0)
(3 2.158148231e-14 0)
(3 2.221883271e-14 0)
(3 2.303108368e-14 0)
(3 2.479164445e-14 0)
(3 2.57566223e-14 0)
(3 2.670814307e-14 0)
(3 2.65454828e-14 0)
(3 2.411926314e-14 0)
(3 2.223925533e-14 0)
(3 2.017512538e-14 0)
(3 1.694096242e-14 0)
(3 1.381974445e-14 0)
(3 1.201586979e-14 0)
(3 1.10497675e-14 0)
(3 9.588029217e-15 0)
(3 4.949292476e-15 0)
(3 2.381813214e-15 0)
(3 2.559204506e-15 0)
(3 2.433934336e-15 0)
(3 1.543551467e-15 0)
(3 -2.373815181e-16 0)
(3 -2.330708288e-15 0)
(3 -2.580992933e-15 0)
(3 -2.672131841e-15 0)
(3 -2.003686106e-15 0)
(3 1.579121123e-14 0)
(3 1.435509702e-14 0)
(3 1.128296638e-14 0)
(3 9.653430317e-15 0)
(3 7.466259911e-15 0)
(3 4.940476251e-15 0)
(3 9.010894425e-16 0)
(3 -3.404970382e-15 0)
(3 -7.293564004e-15 0)
(3 -1.066588805e-14 0)
(3 -1.232446756e-14 0)
(3 -1.495447948e-14 0)
(3 -1.833676941e-14 0)
(3 -1.934106551e-14 0)
(3 -1.982248128e-14 0)
(3 -2.235335074e-14 0)
(3 -2.164115406e-14 0)
(3 -2.21099708e-14 0)
(3 -2.211443366e-14 0)
(3 -2.2946163e-14 0)
(3 -2.483197142e-14 0)
(3 -2.634339996e-14 0)
(3 -2.718691373e-14 0)
(3 -2.834773437e-14 0)
(3 -2.980987148e-14 0)
(3 -2.720817019e-14 0)
(3 -2.30145253e-14 0)
(3 -2.156038645e-14 0)
(3 -1.917829286e-14 0)
(3 -1.370358136e-14 0)
(3 -6.961887799e-15 0)
(3 -4.882971246e-15 0)
(3 -2.668628096e-15 0)
(3 -1.401571696e-16 0)
(3 2.664278165e-15 0)
(3 7.345030099e-15 0)
(3 1.021842201e-14 0)
(3 1.650764096e-14 0)
(3 2.19455394e-14 0)
(3 2.512296591e-14 0)
(3 2.831280372e-14 0)
(3 2.938917583e-14 0)
(3 2.934949526e-14 0)
(3 2.829523128e-14 0)
(3 2.596258566e-14 0)
(3 2.566458559e-14 0)
(3 2.584471602e-14 0)
(3 2.555942085e-14 0)
(3 2.43222788e-14 0)
(3 2.206821517e-14 0)
(3 1.905449533e-14 0)
(3 1.733059529e-14 0)
(3 1.569731031e-14 0)
(3 1.335289507e-14 0)
(3 1.060074422e-14 0)
(3 9.355693784e-15 0)
(3 8.703727946e-15 0)
(3 4.431076574e-15 0)
(3 2.613708255e-15 0)
(3 -1.7010143e-16 0)
(3 -1.128451955e-15 0)
(3 -3.24953185e-15 0)
(3 -5.304706828e-15 0)
(3 -6.667014994e-15 0)
(3 -6.078167984e-15 0)
(3 -5.554668652e-15 0)
(3 -4.749883871e-15 0)
(3 1.411850583e-14 0)
(3 1.237024776e-14 0)
(3 8.925808984e-15 0)
(3 6.418654384e-15 0)
(3 4.338342648e-15 0)
(3 1.430910429e-15 0)
(3 -3.502745059e-15 0)
(3 -6.407081541e-15 0)
(3 -8.618439217e-15 0)
(3 -1.140572585e-14 0)
(3 -1.410703025e-14 0)
(3 -1.619560814e-14 0)
(3 -1.702360448e-14 0)
(3 -2.07204713e-14 0)
(3 -2.30846136e-14 0)
(3 -2.29025022e-14 0)
(3 -2.318866106e-14 0)
(3 -2.326858198e-14 0)
(3 -2.289485264e-14 0)
(3 -2.301458715e-14 0)
(3 -2.358017649e-14 0)
(3 -2.434895086e-14 0)
(3 -2.467247869e-14 0)
(3 -2.537895929e-14 0)
(3 -2.676468608e-14 0)
(3 -2.645806103e-14 0)
(3 -2.493183314e-14 0)
(3 -2.30099066e-14 0)
(3 -2.077976761e-14 0)
(3 -1.771648403e-14 0)
(3 -1.186296284e-14 0)
(3 -5.040172735e-15 0)
(3 -8.921339622e-16 0)
(3 2.304331325e-15 0)
(3 7.626588474e-15 0)
(3 1.425113564e-14 0)
(3 1.8584146e-14 0)
(3 2.290167178e-14 0)
(3 2.626502421e-14 0)
(3 2.751037968e-14 0)