/*--------------------------------*- C++ -*----------------------------------*\
  =========                 |
  \\      /  F ield         | OpenFOAM: The Open Source CFD Toolbox
   \\    /   O peration     | Website:  https://openfoam.org
    \\  /    A nd           | Version:  7
     \\/     M anipulation  |
\*---------------------------------------------------------------------------*/
FoamFile
{
    version     2.0;
    format      ascii;
    class       volVectorField;
    location    "1.7";
    object      U;
}
// * * * * * * * * * * * * * * * * * * * * * * * * * * * * * * * * * * * * * //

dimensions      [0 1 -1 0 0 0 0];

internalField   nonuniform List<vector> 
2222
(
(3 3.405797436e-15 0)
(3 -1.302540716e-15 0)
(3 -1.312498129e-15 0)
(3 4.32356491e-16 0)
(3 1.027883433e-15 0)
(3 1.886137155e-15 0)
(3 2.080409088e-15 0)
(3 2.005037775e-15 0)
(3 1.528408696e-15 0)
(3 1.473311652e-15 0)
(3 1.165530951e-15 0)
(3 7.931214573e-16 0)
(3 7.274671635e-16 0)
(3 7.48785456e-16 0)
(3 3.759647564e-16 0)
(3 1.844881062e-16 0)
(3 1.078322491e-15 0)
(3 1.097346296e-15 0)
(3 7.041516628e-16 0)
(3 2.586634006e-16 0)
(3 2.468392584e-16 0)
(3 -1.295850621e-16 0)
(3 -9.919144607e-16 0)
(3 -8.783589723e-16 0)
(3 -8.0659828e-16 0)
(3 -9.095005627e-16 0)
(3 -2.961498023e-16 0)
(3 6.936682454e-16 0)
(3 1.958348598e-15 0)
(3 2.849137251e-15 0)
(3 2.342506846e-15 0)
(3 -4.642925363e-16 0)
(3 -1.300755294e-15 0)
(3 -1.338339004e-15 0)
(3 -1.187486058e-15 0)
(3 -4.778074805e-16 0)
(3 5.506062088e-16 0)
(3 1.840930019e-15 0)
(3 3.146594772e-15 0)
(3 3.812395664e-15 0)
(3 3.233984002e-15 0)
(3 1.878322421e-15 0)
(3 1.628531876e-17 0)
(3 -9.046968103e-16 0)
(3 -1.480172086e-15 0)
(3 -1.561470343e-15 0)
(3 -1.693925327e-15 0)
(3 -1.623858458e-15 0)
(3 -8.731910089e-16 0)
(3 -5.289455506e-16 0)
(3 -6.520241282e-16 0)
(3 -5.547942459e-16 0)
(3 -7.661012809e-16 0)
(3 -8.789358989e-16 0)
(3 -9.416385867e-16 0)
(3 -1.259927569e-15 0)
(3 -1.376278576e-15 0)
(3 -5.798018994e-16 0)
(3 -3.221930514e-16 0)
(3 1.099889663e-15 0)
(3 1.764116206e-15 0)
(3 2.984890302e-15 0)
(3 3.393769879e-15 0)
(3 2.820307148e-15 0)
(3 2.555516088e-15 0)
(3 9.012893157e-16 0)
(3 2.721303183e-17 0)
(3 -1.569500076e-15 0)
(3 -1.459717362e-15 0)
(3 -2.28236459e-16 0)
(3 7.202275433e-16 0)
(3 1.092931458e-15 0)
(3 1.187179146e-15 0)
(3 1.332362755e-15 0)
(3 1.499128218e-15 0)
(3 1.59499753e-15 0)
(3 2.212070685e-15 0)
(3 1.330302262e-15 0)
(3 9.10817578e-16 0)
(3 6.051347158e-16 0)
(3 1.338935355e-15 0)
(3 2.639999425e-15 0)
(3 1.792320955e-15 0)
(3 -1.863019232e-16 0)
(3 4.662719467e-16 0)
(3 1.864768999e-15 0)
(3 1.057997506e-15 0)
(3 1.092051238e-15 0)
(3 9.51266736e-16 0)
(3 1.659772583e-15 0)
(3 3.422693496e-15 0)
(3 3.557800426e-15 0)
(3 3.099744965e-15 0)
(3 2.520196729e-15 0)
(3 2.056006254e-15 0)
(3 3.080830435e-15 0)
(3 3.341770279e-15 0)
(3 4.667160694e-15 0)
(3 5.519810089e-15 0)
(3 3.723433133e-15 0)
(3 -2.671238468e-15 0)
(3 -2.531727074e-15 0)
(3 -2.110334604e-15 0)
(3 -1.550244382e-15 0)
(3 -2.164768417e-15 0)
(3 -3.372896085e-15 0)
(3 -2.287261466e-15 0)
(3 -4.420658136e-16 0)
(3 1.800374438e-15 0)
(3 2.26752022e-15 0)
(3 1.388681921e-15 0)
(3 1.10462557e-15 0)
(3 1.952814583e-15 0)
(3 2.70010424e-15 0)
(3 2.522651891e-15 0)
(3 1.5811029e-15 0)
(3 -3.583262698e-16 0)
(3 -8.251916763e-16 0)
(3 6.482460942e-16 0)
(3 3.109625576e-15 0)
(3 4.897467062e-15 0)
(3 4.321487809e-15 0)
(3 4.064870045e-15 0)
(3 3.523984895e-15 0)
(3 3.328227418e-15 0)
(3 2.401725685e-15 0)
(3 2.090137883e-15 0)
(3 2.138059254e-15 0)
(3 2.786456213e-15 0)
(3 3.047921415e-15 0)
(3 3.286062717e-15 0)
(3 3.496174112e-15 0)
(3 2.557560759e-15 0)
(3 -4.704246838e-15 0)
(3 -4.953098453e-15 0)
(3 -5.102171493e-15 0)
(3 -5.94688328e-15 0)
(3 -6.314236478e-15 0)
(3 -5.553651655e-15 0)
(3 -3.924236407e-15 0)
(3 -2.06110814e-15 0)
(3 -3.618810924e-16 0)
(3 6.705965792e-16 0)
(3 2.523040024e-15 0)
(3 5.461420095e-15 0)
(3 6.268433148e-15 0)
(3 6.543415395e-15 0)
(3 6.77011485e-15 0)
(3 6.660764927e-15 0)
(3 5.974620901e-15 0)
(3 4.404879906e-15 0)
(3 3.039418672e-15 0)
(3 2.953115989e-15 0)
(3 2.348882084e-15 0)
(3 2.001199929e-15 0)
(3 1.390285496e-15 0)
(3 9.779577299e-16 0)
(3 8.395364076e-16 0)
(3 6.754201996e-16 0)
(3 1.361124589e-15 0)
(3 2.650380941e-15 0)
(3 3.263411798e-15 0)
(3 3.98152391e-15 0)
(3 3.75675595e-15 0)
(3 3.228460899e-15 0)
(3 2.196263908e-15 0)
(3 -5.78217538e-15 0)
(3 -5.757516243e-15 0)
(3 -5.678075485e-15 0)
(3 -5.052198322e-15 0)
(3 -4.099812926e-15 0)
(3 -3.909227521e-15 0)
(3 -3.393101185e-15 0)
(3 -2.365828375e-15 0)
(3 -1.108651441e-15 0)
(3 -5.260146097e-16 0)
(3 1.211493117e-15 0)
(3 2.547703431e-15 0)
(3 3.938661979e-15 0)
(3 4.712062871e-15 0)
(3 5.283247746e-15 0)
(3 5.784681763e-15 0)
(3 5.297599606e-15 0)
(3 4.386468201e-15 0)
(3 2.979640759e-15 0)
(3 1.44788878e-15 0)
(3 1.633322818e-16 0)
(3 1.329277912e-15 0)
(3 2.959657134e-15 0)
(3 3.13563372e-15 0)
(3 2.618807426e-15 0)
(3 2.365915262e-15 0)
(3 2.563528607e-15 0)
(3 3.235067567e-15 0)
(3 3.266441689e-15 0)
(3 3.943923369e-15 0)
(3 4.42228958e-15 0)
(3 4.000469524e-15 0)
(3 3.919867163e-15 0)
(3 -1.420044257e-15 0)
(3 -1.344692345e-15 0)
(3 -9.661502731e-16 0)
(3 -4.781841161e-16 0)
(3 -1.38582495e-16 0)
(3 1.568542229e-16 0)
(3 1.170946812e-15 0)
(3 1.762205423e-15 0)
(3 1.164651839e-15 0)
(3 1.167003476e-15 0)
(3 2.090565291e-15 0)
(3 3.14755033e-15 0)
(3 3.110726484e-15 0)
(3 2.071755077e-15 0)
(3 2.015499617e-15 0)
(3 2.361973287e-15 0)
(3 3.165170188e-15 0)
(3 3.491862155e-15 0)
(3 2.978585422e-15 0)
(3 2.450215423e-15 0)
(3 2.66434564e-15 0)
(3 3.034130946e-15 0)
(3 3.227575064e-15 0)
(3 3.205171967e-15 0)
(3 3.25131643e-15 0)
(3 3.470003541e-15 0)
(3 3.395152214e-15 0)
(3 2.628481819e-15 0)
(3 3.428684257e-15 0)
(3 3.456154117e-15 0)
(3 3.317098742e-15 0)
(3 2.716764198e-15 0)
(3 3.55964606e-15 0)
(3 -1.571257787e-15 0)
(3 -6.471616073e-16 0)
(3 -5.004803416e-16 0)
(3 -5.431882765e-16 0)
(3 -6.199957728e-16 0)
(3 -4.846309879e-16 0)
(3 -7.302287276e-16 0)
(3 -7.609258331e-16 0)
(3 -7.989638008e-16 0)
(3 5.656493113e-16 0)
(3 2.56559642e-15 0)
(3 2.963514108e-15 0)
(3 3.549638352e-15 0)
(3 4.091303582e-15 0)
(3 4.124640928e-15 0)
(3 3.808044088e-15 0)
(3 3.935589378e-15 0)
(3 4.650890353e-15 0)
(3 4.231929997e-15 0)
(3 3.34324813e-15 0)
(3 2.308882443e-15 0)
(3 9.940940188e-16 0)
(3 4.036209679e-16 0)
(3 1.613218411e-15 0)
(3 2.234827265e-15 0)
(3 3.425669522e-15 0)
(3 3.260556327e-15 0)
(3 2.69670336e-15 0)
(3 2.027376531e-15 0)
(3 1.421031576e-15 0)
(3 4.559761923e-16 0)
(3 1.10474751e-16 0)
(3 4.960164503e-16 0)
(3 -2.1939196e-15 0)
(3 -1.452694607e-15 0)
(3 -6.001825076e-16 0)
(3 2.345461742e-18 0)
(3 -1.948606737e-17 0)
(3 -5.666612184e-16 0)
(3 -9.611646784e-16 0)
(3 -7.688972974e-16 0)
(3 -3.144018466e-16 0)
(3 2.772143172e-15 0)
(3 4.096638012e-15 0)
(3 4.616945714e-15 0)
(3 5.276150267e-15 0)
(3 5.347070706e-15 0)
(3 5.165644749e-15 0)
(3 3.783771864e-15 0)
(3 3.292481946e-15 0)
(3 3.128463504e-15 0)
(3 3.117952036e-15 0)
(3 3.362043783e-15 0)
(3 2.795900992e-15 0)
(3 2.736707737e-15 0)
(3 2.60782647e-15 0)
(3 2.125476724e-15 0)
(3 2.132004257e-15 0)
(3 1.440428827e-15 0)
(3 1.717337501e-15 0)
(3 1.096076805e-15 0)
(3 7.030367329e-16 0)
(3 6.749460867e-17 0)
(3 -4.481547421e-16 0)
(3 -2.114313622e-15 0)
(3 -2.157955606e-15 0)
(3 8.087317749e-17 0)
(3 2.994688493e-16 0)
(3 3.251339416e-16 0)
(3 -5.953395554e-16 0)
(3 -9.508949346e-16 0)
(3 -1.390840376e-15 0)
(3 -1.276733888e-15 0)
(3 -7.353268718e-16 0)
(3 7.551195321e-17 0)
(3 1.235437433e-15 0)
(3 2.182901929e-15 0)
(3 2.709849373e-15 0)
(3 2.737941739e-15 0)
(3 1.595847361e-15 0)
(3 2.536200761e-15 0)
(3 2.249370047e-15 0)
(3 1.153413168e-15 0)
(3 9.724408903e-16 0)
(3 1.288644542e-15 0)
(3 6.567254419e-16 0)
(3 6.874562213e-16 0)
(3 9.468111372e-16 0)
(3 1.431353199e-15 0)
(3 -6.50265848e-16 0)
(3 -1.158159483e-15 0)
(3 -6.662278443e-16 0)
(3 1.659412798e-16 0)
(3 7.082471175e-16 0)
(3 2.372034225e-16 0)
(3 -1.643050513e-15 0)
(3 -2.375215346e-15 0)
(3 -1.860155767e-15 0)
(3 -1.410691615e-15 0)
(3 -1.747023666e-15 0)
(3 -1.522843351e-15 0)
(3 -1.967286459e-15 0)
(3 -2.069263197e-15 0)
(3 -1.729367267e-15 0)
(3 -9.44890388e-16 0)
(3 -9.997241917e-17 0)
(3 1.70477045e-15 0)
(3 2.493212556e-15 0)
(3 1.894064505e-15 0)
(3 1.944223598e-15 0)
(3 1.968381412e-15 0)
(3 1.356822907e-15 0)
(3 4.888363812e-16 0)
(3 3.225050754e-17 0)
(3 3.143713436e-16 0)
(3 6.470429076e-16 0)
(3 1.238364791e-15 0)
(3 1.148764243e-15 0)
(3 1.22505205e-16 0)
(3 -4.580675974e-16 0)
(3 -1.036788402e-15 0)
(3 -1.551360815e-15 0)
(3 -2.275730164e-15 0)
(3 -2.174158867e-15 0)
(3 -1.065448102e-15 0)
(3 -2.008062587e-16 0)
(3 -2.288895009e-16 0)
(3 -3.084540885e-15 0)
(3 -3.711219662e-15 0)
(3 -3.398427945e-15 0)
(3 -1.78493569e-15 0)
(3 -1.339808762e-15 0)
(3 -2.546212296e-15 0)
(3 -3.044652667e-15 0)
(3 -2.716824516e-15 0)
(3 -1.199217841e-15 0)
(3 -3.827279408e-16 0)
(3 -2.077087376e-17 0)
(3 8.825535224e-16 0)
(3 1.521291788e-15 0)
(3 1.26687263e-15 0)
(3 4.471274269e-16 0)
(3 -6.233074757e-16 0)
(3 -1.347131924e-15 0)
(3 -1.557622574e-15 0)
(3 2.279785096e-16 0)
(3 6.698523433e-16 0)
(3 1.40497449e-15 0)
(3 2.147884037e-15 0)
(3 2.082263174e-15 0)
(3 1.249594104e-15 0)
(3 3.053117872e-16 0)
(3 -1.753040807e-16 0)
(3 -7.985819074e-16 0)
(3 -1.590524123e-15 0)
(3 -2.217857831e-15 0)
(3 -3.324208866e-15 0)
(3 -4.178773204e-15 0)
(3 -4.621819896e-15 0)
(3 -4.64528012e-15 0)
(3 -3.798113498e-15 0)
(3 -3.403112905e-15 0)
(3 -3.338640979e-15 0)
(3 -2.084457859e-15 0)
(3 -2.19166249e-15 0)
(3 -3.302043015e-15 0)
(3 -4.127784375e-15 0)
(3 -3.614879834e-15 0)
(3 -3.133566624e-15 0)
(3 -1.809141193e-15 0)
(3 -1.304278305e-15 0)
(3 -2.240424469e-16 0)
(3 2.26106298e-16 0)
(3 4.913335872e-16 0)
(3 -4.911910254e-16 0)
(3 -1.860074413e-15 0)
(3 -3.382567621e-15 0)
(3 -3.483802142e-15 0)
(3 -2.390566302e-15 0)
(3 -1.348929255e-15 0)
(3 -5.174995699e-16 0)
(3 2.360294048e-17 0)
(3 7.557341318e-16 0)
(3 2.106224375e-16 0)
(3 -2.541419437e-16 0)
(3 -6.385796335e-16 0)
(3 -2.322959406e-16 0)
(3 4.095344119e-16 0)
(3 5.971963688e-16 0)
(3 -3.186989911e-17 0)
(3 -2.18738436e-15 0)
(3 -3.987626335e-15 0)
(3 -5.303585048e-15 0)
(3 -5.448815753e-15 0)
(3 -4.22745988e-15 0)
(3 -3.289024094e-15 0)
(3 -2.159812523e-15 0)
(3 -1.138739544e-15 0)
(3 -3.485926988e-15 0)
(3 -4.178336703e-15 0)
(3 -4.097062199e-15 0)
(3 -3.65976405e-15 0)
(3 -3.32085013e-15 0)
(3 -1.993074373e-15 0)
(3 -9.705481343e-16 0)
(3 -1.843679457e-15 0)
(3 -1.752143847e-15 0)
(3 -2.381824376e-15 0)
(3 -2.308360118e-15 0)
(3 -1.634901494e-15 0)
(3 -1.749016173e-15 0)
(3 -2.081550018e-15 0)
(3 -2.403474911e-15 0)
(3 -2.528068237e-15 0)
(3 -2.493682662e-15 0)
(3 -1.854986455e-15 0)
(3 -1.412012731e-15 0)
(3 -3.177654538e-16 0)
(3 2.72651377e-16 0)
(3 1.737227838e-15 0)
(3 1.562841281e-15 0)
(3 1.668697885e-15 0)
(3 8.637977983e-16 0)
(3 -7.568450282e-16 0)
(3 -1.456120954e-15 0)
(3 -2.780120786e-15 0)
(3 -3.339677577e-15 0)
(3 -2.639802456e-15 0)
(3 -1.411296915e-15 0)
(3 -1.235582607e-15 0)
(3 -1.327848257e-15 0)
(3 -3.564930667e-15 0)
(3 -4.075212536e-15 0)
(3 -4.170027165e-15 0)
(3 -4.078792638e-15 0)
(3 -3.969330322e-15 0)
(3 -3.760439286e-15 0)
(3 -3.675539479e-15 0)
(3 -4.358000751e-15 0)
(3 -5.214856691e-15 0)
(3 -4.262760935e-15 0)
(3 -2.125361887e-15 0)
(3 -1.037644499e-15 0)
(3 -1.167518101e-15 0)
(3 -1.887912102e-15 0)
(3 -1.880062221e-15 0)
(3 -2.119916272e-15 0)
(3 -2.029129141e-15 0)
(3 -1.935289944e-15 0)
(3 -7.828399318e-16 0)
(3 9.240124987e-17 0)
(3 1.242152109e-15 0)
(3 1.094452014e-15 0)
(3 9.870309137e-16 0)
(3 -3.334665143e-17 0)
(3 -7.482995596e-16 0)
(3 -9.203530396e-16 0)
(3 -4.330219323e-16 0)
(3 -5.906934594e-16 0)
(3 -1.293397068e-15 0)
(3 -1.038800586e-15 0)
(3 -4.453062544e-16 0)
(3 -8.525827781e-17 0)
(3 -9.800754549e-17 0)
(3 -4.612606531e-15 0)
(3 -4.235915989e-15 0)
(3 -2.317673503e-15 0)
(3 -1.736436097e-15 0)
(3 -1.198291816e-15 0)
(3 -1.386600754e-15 0)
(3 -1.897902671e-15 0)
(3 -3.175878086e-15 0)
(3 -4.382041223e-15 0)
(3 -4.360101147e-15 0)
(3 -3.692422075e-15 0)
(3 -3.657098164e-15 0)
(3 -3.097438001e-15 0)
(3 -2.34129545e-15 0)
(3 -1.249718656e-15 0)
(3 -9.656259264e-16 0)
(3 -7.778898755e-16 0)
(3 -8.693233162e-16 0)
(3 -4.633855205e-16 0)
(3 -7.228638155e-17 0)
(3 3.556412898e-20 0)
(3 -9.773271247e-16 0)
(3 -1.91620058e-15 0)
(3 -3.478860842e-15 0)
(3 -3.791235414e-15 0)
(3 -2.490026723e-15 0)
(3 -1.973813583e-15 0)
(3 -1.276835678e-15 0)
(3 -3.027172654e-16 0)
(3 2.757648075e-17 0)
(3 1.324140266e-16 0)
(3 1.488895344e-16 0)
(3 1.09113883e-15 0)
(3 -4.996831675e-15 0)
(3 -3.796459627e-15 0)
(3 -1.414894724e-15 0)
(3 -2.678665183e-16 0)
(3 1.489303882e-16 0)
(3 5.031337971e-16 0)
(3 7.313859287e-16 0)
(3 -4.749787563e-16 0)
(3 -1.041817307e-15 0)
(3 -5.832067942e-16 0)
(3 -9.342034613e-16 0)
(3 -1.913088617e-15 0)
(3 -2.320845143e-15 0)
(3 -2.45730705e-15 0)
(3 -2.484526091e-15 0)
(3 -2.445241764e-15 0)
(3 -2.288163144e-15 0)
(3 -1.629477809e-15 0)
(3 -1.868033587e-15 0)
(3 -2.302971509e-15 0)
(3 -1.877023036e-15 0)
(3 -1.501637054e-15 0)
(3 -2.082189245e-15 0)
(3 -2.317914626e-15 0)
(3 -3.544774635e-15 0)
(3 -4.22576633e-15 0)
(3 -4.06177921e-15 0)
(3 -2.791297176e-15 0)
(3 9.227217029e-16 0)
(3 3.187182121e-15 0)
(3 2.294400928e-15 0)
(3 6.441432509e-16 0)
(3 6.116128889e-16 0)
(3 5.130288604e-16 0)
(3 -3.476919547e-16 0)
(3 -5.461814835e-16 0)
(3 -5.187017262e-16 0)
(3 4.040979848e-16 0)
(3 3.427997918e-16 0)
(3 1.055663665e-15 0)
(3 1.54677961e-15 0)
(3 1.323907013e-15 0)
(3 1.411627034e-15 0)
(3 1.494627038e-15 0)
(3 1.364592948e-15 0)
(3 8.702876024e-16 0)
(3 -1.57988652e-16 0)
(3 -8.970706856e-16 0)
(3 -2.014169734e-15 0)
(3 -2.398132884e-15 0)
(3 -2.247678493e-15 0)
(3 -2.366358853e-15 0)
(3 -2.414682237e-15 0)
(3 -2.217178173e-15 0)
(3 -1.45433838e-15 0)
(3 -4.089503905e-16 0)
(3 6.103731314e-16 0)
(3 5.40709784e-16 0)
(3 4.009923506e-16 0)
(3 2.58168235e-16 0)
(3 5.727313004e-16 0)
(3 1.645538289e-15 0)
(3 2.50611359e-15 0)
(3 2.584428669e-15 0)
(3 2.372357313e-15 0)
(3 1.392016814e-15 0)
(3 1.893626095e-15 0)
(3 1.592784587e-15 0)
(3 4.86017592e-16 0)
(3 2.160745479e-17 0)
(3 -7.569321041e-17 0)
(3 7.299229472e-17 0)
(3 -2.475364623e-16 0)
(3 2.270862505e-16 0)
(3 6.134599933e-16 0)
(3 -2.167887616e-16 0)
(3 -2.984264981e-15 0)
(3 -2.99744806e-15 0)
(3 -2.682598716e-15 0)
(3 -2.648135686e-15 0)
(3 -3.061942091e-15 0)
(3 -3.373640861e-15 0)
(3 -3.790369188e-15 0)
(3 -4.342490273e-15 0)
(3 -4.110210503e-15 0)
(3 -3.512055539e-15 0)
(3 -2.308047598e-15 0)
(3 -1.955758952e-15 0)
(3 -2.449552299e-15 0)
(3 -8.229240632e-19 0)
(3 2.115695068e-15 0)
(3 3.551322277e-15 0)
(3 3.656689129e-15 0)
(3 2.831382011e-15 0)
(3 1.797962347e-15 0)
(3 6.343925809e-16 0)
(3 2.670754393e-16 0)
(3 6.793823591e-16 0)
(3 7.158446476e-16 0)
(3 1.73299436e-15 0)
(3 1.414929646e-15 0)
(3 5.889975674e-16 0)
(3 -8.693644037e-16 0)
(3 -1.470052198e-15 0)
(3 -9.292232909e-16 0)
(3 -4.236888403e-16 0)
(3 3.391825113e-16 0)
(3 6.624128793e-16 0)
(3 9.942386858e-16 0)
(3 6.065044118e-16 0)
(3 -1.101608856e-15 0)
(3 -3.158311713e-15 0)
(3 -5.229863354e-15 0)
(3 -5.117925034e-15 0)
(3 -3.35206488e-15 0)
(3 -1.458768355e-15 0)
(3 -3.104008328e-15 0)
(3 -4.689215342e-15 0)
(3 -6.014602848e-15 0)
(3 -4.446274212e-15 0)
(3 -3.165789967e-15 0)
(3 -2.004180665e-15 0)
(3 -1.762488611e-15 0)
(3 -8.602792592e-17 0)
(3 9.679135667e-16 0)
(3 2.24186568e-15 0)
(3 3.156880427e-15 0)
(3 2.820172562e-15 0)
(3 2.07583143e-15 0)
(3 1.108570564e-15 0)
(3 7.703659101e-16 0)
(3 1.425941882e-15 0)
(3 1.30969129e-15 0)
(3 1.125936743e-15 0)
(3 8.258476084e-16 0)
(3 7.090073665e-16 0)
(3 -2.510188241e-16 0)
(3 -5.456668449e-16 0)
(3 -1.674172146e-16 0)
(3 -3.311313697e-16 0)
(3 -3.107597556e-16 0)
(3 8.678559186e-16 0)
(3 1.56819081e-15 0)
(3 7.538300268e-16 0)
(3 -1.414566468e-16 0)
(3 -1.160486044e-15 0)
(3 -1.652391271e-15 0)
(3 -1.894899506e-15 0)
(3 -1.400378685e-15 0)
(3 -8.203765281e-16 0)
(3 -1.016033973e-15 0)
(3 -2.755179137e-16 0)
(3 -1.653795514e-15 0)
(3 -3.540291616e-15 0)
(3 -3.87837412e-15 0)
(3 -3.657085314e-15 0)
(3 -3.353755245e-15 0)
(3 -2.065395116e-15 0)
(3 -5.161035054e-16 0)
(3 5.310119834e-16 0)
(3 2.610698701e-15 0)
(3 3.823647379e-15 0)
(3 4.280874626e-15 0)
(3 2.510097646e-15 0)
(3 2.373792314e-15 0)
(3 -1.518704404e-15 0)
(3 -4.973004184e-16 0)
(3 1.228156016e-16 0)
(3 5.344477969e-16 0)
(3 5.374890835e-16 0)
(3 1.522015227e-17 0)
(3 -3.490594718e-16 0)
(3 -5.319120724e-16 0)
(3 -5.342154766e-16 0)
(3 -4.233195177e-16 0)
(3 -7.235084886e-16 0)
(3 7.367696986e-16 0)
(3 1.29614532e-15 0)
(3 2.345671022e-15 0)
(3 2.466862783e-15 0)
(3 1.277542837e-15 0)
(3 2.399709313e-17 0)
(3 1.559330353e-16 0)
(3 7.810901708e-17 0)
(3 -2.184689121e-16 0)
(3 -2.508476173e-16 0)
(3 -6.051382988e-16 0)
(3 -5.504006776e-16 0)
(3 -6.397370023e-16 0)
(3 -1.10131288e-15 0)
(3 -8.934953051e-16 0)
(3 -5.71260053e-16 0)
(3 -6.495004881e-16 0)
(3 -1.301163031e-16 0)
(3 5.922170972e-16 0)
(3 9.31857571e-16 0)
(3 1.947339111e-15 0)
(3 2.504318126e-15 0)
(3 -1.439574718e-15 0)
(3 -3.987258529e-16 0)
(3 2.651040547e-17 0)
(3 -2.686844443e-16 0)
(3 -1.012025723e-16 0)
(3 -1.950578012e-17 0)
(3 1.251381896e-16 0)
(3 5.114585568e-16 0)
(3 2.765412357e-16 0)
(3 -2.436698666e-18 0)
(3 4.601668664e-16 0)
(3 1.416748098e-15 0)
(3 2.227017788e-15 0)
(3 2.638472381e-15 0)
(3 2.952819633e-15 0)
(3 2.685017196e-15 0)
(3 1.136272256e-15 0)
(3 1.485163096e-16 0)
(3 5.823360878e-16 0)
(3 7.250876132e-16 0)
(3 9.142204299e-17 0)
(3 -1.221265736e-15 0)
(3 -1.498016257e-15 0)
(3 -1.159729532e-15 0)
(3 -9.926091595e-16 0)
(3 -1.22237863e-15 0)
(3 -1.952537433e-15 0)
(3 -2.071864121e-15 0)
(3 -2.3203891e-15 0)
(3 -1.791395179e-15 0)
(3 -2.407367661e-15 0)
(3 5.847931276e-16 0)
(3 4.141526113e-15 0)
(3 1.632552392e-15 0)
(3 2.261603816e-15 0)
(3 2.074580512e-15 0)
(3 1.472665086e-15 0)
(3 1.328054526e-15 0)
(3 1.559827016e-15 0)
(3 1.140689272e-15 0)
(3 3.329900533e-16 0)
(3 -1.466420668e-16 0)
(3 -8.778791921e-16 0)
(3 -8.17415182e-16 0)
(3 -7.919818928e-16 0)
(3 -3.041235197e-16 0)
(3 5.804348652e-16 0)
(3 5.755476806e-16 0)
(3 1.341958161e-16 0)
(3 -7.523742e-16 0)
(3 -1.172747987e-15 0)
(3 -7.665155465e-16 0)
(3 -6.353850594e-16 0)
(3 -2.032894598e-15 0)
(3 -3.521791939e-15 0)
(3 -3.347697417e-15 0)
(3 -1.776632283e-15 0)
(3 -1.271753268e-15 0)
(3 -1.921907244e-15 0)
(3 -3.093079063e-15 0)
(3 -4.138047953e-15 0)
(3 -4.565691436e-15 0)
(3 -3.13162494e-15 0)
(3 -1.240815048e-15 0)
(3 -4.413191812e-16 0)
(3 -1.761373328e-16 0)
(3 6.57385044e-15 0)
(3 6.326892133e-15 0)
(3 4.933155032e-15 0)
(3 4.378453736e-15 0)
(3 4.611222232e-15 0)
(3 5.040828785e-15 0)
(3 4.58006977e-15 0)
(3 3.129078983e-15 0)
(3 2.408735557e-15 0)
(3 1.271778398e-15 0)
(3 4.431728065e-16 0)
(3 -6.305285487e-16 0)
(3 -5.831306582e-16 0)
(3 -3.277271082e-16 0)
(3 -1.028725839e-17 0)
(3 -2.460338325e-16 0)
(3 -5.661629058e-16 0)
(3 5.827968197e-16 0)
(3 -4.499436913e-16 0)
(3 -9.034358009e-16 0)
(3 -6.316687678e-16 0)
(3 2.158799018e-17 0)
(3 7.141984661e-16 0)
(3 -3.106552145e-16 0)
(3 -6.693358362e-16 0)
(3 -8.724229676e-16 0)
(3 -3.338432961e-15 0)
(3 -4.572165932e-15 0)
(3 -3.896830172e-15 0)
(3 -9.797255257e-16 0)
(3 3.143725495e-16 0)
(3 -5.186032855e-16 0)
(3 -9.580894218e-16 0)
(3 3.192564513e-15 0)
(3 2.205824827e-15 0)
(3 3.369077258e-15 0)
(3 3.518214657e-15 0)
(3 2.347431189e-15 0)
(3 1.13621155e-15 0)
(3 2.128400877e-16 0)
(3 3.176972572e-16 0)
(3 1.637790994e-15 0)
(3 9.547720443e-16 0)
(3 -3.118174894e-16 0)
(3 -1.640484842e-15 0)
(3 -2.238922362e-15 0)
(3 -2.208606589e-15 0)
(3 -1.281207206e-15 0)
(3 -2.863130785e-16 0)
(3 1.331871794e-16 0)
(3 -1.108100843e-16 0)
(3 -1.53217191e-15 0)
(3 -1.429188156e-15 0)
(3 -7.063650009e-16 0)
(3 4.431634338e-16 0)
(3 5.28174704e-16 0)
(3 -2.113948811e-16 0)
(3 -1.29874669e-15 0)
(3 -1.585212603e-15 0)
(3 -1.277376026e-15 0)
(3 -1.093096345e-15 0)
(3 -7.819180522e-16 0)
(3 -5.650118102e-16 0)
(3 -8.198493775e-16 0)
(3 -1.765129454e-15 0)
(3 -2.954856885e-15 0)
(3 -2.564701115e-15 0)
(3 -3.555501779e-15 0)
(3 -3.186161584e-15 0)
(3 -2.77599848e-15 0)
(3 -2.69441559e-15 0)
(3 -3.249554163e-15 0)
(3 -4.077300162e-15 0)
(3 -4.11945461e-15 0)
(3 -4.01783089e-15 0)
(3 -3.396877083e-15 0)
(3 -1.137087181e-15 0)
(3 -5.857480045e-16 0)
(3 -9.569404662e-16 0)
(3 -2.009134758e-15 0)
(3 -1.760034657e-15 0)
(3 -8.587218571e-17 0)
(3 9.118078633e-16 0)
(3 3.08043216e-16 0)
(3 -3.076227569e-16 0)
(3 -1.357986209e-15 0)
(3 -1.180353667e-15 0)
(3 -5.186177583e-16 0)
(3 -7.560578015e-16 0)
(3 -1.142285767e-15 0)
(3 -1.333774937e-15 0)
(3 -1.24996665e-15 0)
(3 -4.708071871e-16 0)
(3 2.157067643e-17 0)
(3 -3.291138244e-16 0)
(3 -1.997792486e-15 0)
(3 -3.262212268e-15 0)
(3 -4.224066301e-15 0)
(3 -5.577055431e-15 0)
(3 -6.35860599e-15 0)
(3 -6.25043886e-15 0)
(3 -6.711338712e-15 0)
(3 -6.998180141e-15 0)
(3 -7.080071796e-15 0)
(3 -5.85835684e-15 0)
(3 -5.421274271e-15 0)
(3 -6.005866501e-15 0)
(3 -6.409613591e-15 0)
(3 -6.183002526e-15 0)
(3 -4.797164975e-15 0)
(3 -3.218229615e-15 0)
(3 -2.58340795e-15 0)
(3 -2.837770707e-15 0)
(3 -3.305063567e-15 0)
(3 -1.903656398e-15 0)
(3 -1.047182233e-15 0)
(3 -2.27740397e-16 0)
(3 5.13783469e-16 0)
(3 8.914575524e-16 0)
(3 4.147968334e-16 0)
(3 -3.06222328e-16 0)
(3 -1.34523893e-15 0)
(3 -2.557395988e-15 0)
(3 -3.095802629e-15 0)
(3 -2.453633167e-15 0)
(3 -1.337333257e-15 0)
(3 -1.128227964e-15 0)
(3 -1.387383304e-15 0)
(3 -2.403814653e-15 0)
(3 -2.60716494e-15 0)
(3 -2.638835424e-15 0)
(3 -4.000869326e-15 0)
(3 -6.082945601e-15 0)
(3 -6.262733189e-15 0)
(3 -6.137038733e-15 0)
(3 -6.181319123e-15 0)
(3 -6.704654042e-15 0)
(3 -6.853520424e-15 0)
(3 -6.083885562e-15 0)
(3 -5.381124397e-15 0)
(3 -3.565080507e-15 0)
(3 -4.142162465e-15 0)
(3 -4.561660793e-15 0)
(3 -4.704679631e-15 0)
(3 -3.817799001e-15 0)
(3 -2.891483947e-15 0)
(3 -2.34146418e-15 0)
(3 -2.560878401e-15 0)
(3 -1.988473768e-15 0)
(3 -1.768181518e-15 0)
(3 -9.608389132e-16 0)
(3 1.364392392e-16 0)
(3 1.186011218e-16 0)
(3 -5.173194965e-16 0)
(3 -9.042027238e-16 0)
(3 -1.546981883e-15 0)
(3 -2.091083923e-15 0)
(3 -2.154077526e-15 0)
(3 -1.898790029e-15 0)
(3 -1.23204087e-15 0)
(3 -7.422685392e-16 0)
(3 -8.441863416e-16 0)
(3 -6.282185051e-16 0)
(3 -4.19200523e-17 0)
(3 -7.731602952e-17 0)
(3 -8.067509873e-15 0)
(3 -7.590971372e-15 0)
(3 -5.050155947e-15 0)
(3 -3.804059391e-15 0)
(3 -3.887136119e-15 0)
(3 -4.653114579e-15 0)
(3 -4.961360906e-15 0)
(3 -4.269111481e-15 0)
(3 -3.326004814e-15 0)
(3 -3.406573964e-15 0)
(3 -3.759834959e-15 0)
(3 -4.784030792e-15 0)
(3 -5.19747055e-15 0)
(3 -4.287415192e-15 0)
(3 -3.826003792e-15 0)
(3 -3.760421167e-15 0)
(3 -3.642429368e-15 0)
(3 -3.234972535e-15 0)
(3 -3.352407497e-15 0)
(3 -3.468121783e-15 0)
(3 -2.664492843e-15 0)
(3 -2.764733678e-15 0)
(3 -2.758519639e-15 0)
(3 -2.208729551e-15 0)
(3 -2.444397661e-15 0)
(3 -2.394816719e-15 0)
(3 -1.885636366e-15 0)
(3 -1.283017878e-15 0)
(3 -8.228141072e-16 0)
(3 -5.728296016e-16 0)
(3 -7.449089182e-16 0)
(3 -1.864362614e-16 0)
(3 -3.007763083e-16 0)
(3 -4.832466723e-15 0)
(3 -4.997991225e-15 0)
(3 -5.222928553e-15 0)
(3 -5.568940215e-15 0)
(3 -5.459713513e-15 0)
(3 -5.359815051e-15 0)
(3 -5.004333237e-15 0)
(3 -5.763485103e-15 0)
(3 -5.584225735e-15 0)
(3 -4.83405008e-15 0)
(3 -3.88007565e-15 0)
(3 -3.717044195e-15 0)
(3 -3.609578028e-15 0)
(3 -3.40752404e-15 0)
(3 -3.741839225e-15 0)
(3 -3.883943076e-15 0)
(3 -4.195435605e-15 0)
(3 -3.398231386e-15 0)
(3 -3.193582099e-15 0)
(3 -2.269034208e-15 0)
(3 -2.194277134e-15 0)
(3 -2.288448831e-15 0)
(3 -2.1040466e-15 0)
(3 -1.846101241e-15 0)
(3 -1.932771313e-15 0)
(3 -1.655271408e-15 0)
(3 -8.812131633e-16 0)
(3 -3.722206856e-16 0)
(3 -3.534480794e-16 0)
(3 -5.117487866e-16 0)
(3 -4.882057769e-16 0)
(3 -7.046512278e-16 0)
(3 -3.141502567e-16 0)
(3 -1.559479463e-15 0)
(3 -3.7131887e-15 0)
(3 -6.252818414e-15 0)
(3 -6.001200915e-15 0)
(3 -4.409420589e-15 0)
(3 -3.873549411e-15 0)
(3 -3.62436998e-15 0)
(3 -3.911259864e-15 0)
(3 -4.739394662e-15 0)
(3 -5.21899058e-15 0)
(3 -5.143233207e-15 0)
(3 -4.372625825e-15 0)
(3 -2.777866381e-15 0)
(3 -2.859726638e-15 0)
(3 -2.778078738e-15 0)
(3 -3.572919696e-15 0)
(3 -3.416202691e-15 0)
(3 -3.129070857e-15 0)
(3 -2.185466914e-15 0)
(3 -1.495395733e-15 0)
(3 -1.315253645e-15 0)
(3 -7.881917551e-16 0)
(3 -3.175155025e-16 0)
(3 1.314832195e-16 0)
(3 6.271294773e-16 0)
(3 8.640305134e-16 0)
(3 1.424705255e-15 0)
(3 1.447904414e-15 0)
(3 7.947636914e-16 0)
(3 -4.147898467e-16 0)
(3 -4.367204545e-16 0)
(3 -4.917354131e-17 0)
(3 1.165664927e-15 0)
(3 -1.140742266e-15 0)
(3 -5.199653575e-16 0)
(3 3.947841823e-17 0)
(3 3.888520337e-16 0)
(3 2.608192482e-16 0)
(3 1.758791459e-17 0)
(3 -4.953654996e-16 0)
(3 -1.277591351e-15 0)
(3 -3.303050216e-15 0)
(3 -5.117159042e-15 0)
(3 -5.639360458e-15 0)
(3 -5.539431308e-15 0)
(3 -4.817466335e-15 0)
(3 -3.070785375e-15 0)
(3 -2.161952365e-15 0)
(3 -3.408385908e-15 0)
(3 -3.587773545e-15 0)
(3 -3.534396788e-15 0)
(3 -2.957419152e-15 0)
(3 -3.514944907e-15 0)
(3 -2.953844091e-15 0)
(3 -1.946395012e-15 0)
(3 -1.830159732e-15 0)
(3 -2.288412553e-15 0)
(3 -1.840948525e-15 0)
(3 -5.322642433e-16 0)
(3 7.164760582e-16 0)
(3 3.354011495e-16 0)
(3 -4.763010094e-17 0)
(3 -2.469622858e-16 0)
(3 -1.779785007e-16 0)
(3 6.230649199e-16 0)
(3 1.480617951e-15 0)
(3 1.263791579e-15 0)
(3 2.592798426e-15 0)
(3 2.575592394e-15 0)
(3 2.058403572e-15 0)
(3 3.295743746e-16 0)
(3 -8.26881025e-16 0)
(3 -1.389905955e-15 0)
(3 -1.278185808e-15 0)
(3 -1.367331311e-15 0)
(3 -2.057594692e-15 0)
(3 3.983816437e-15 0)
(3 4.141567229e-15 0)
(3 3.194264116e-15 0)
(3 1.513843176e-15 0)
(3 -1.586157289e-15 0)
(3 -1.529850432e-15 0)
(3 -1.427934415e-15 0)
(3 -9.604922422e-16 0)
(3 -4.710515987e-16 0)
(3 -3.150203645e-16 0)
(3 -1.332725214e-15 0)
(3 -5.005208316e-15 0)
(3 -3.758177001e-15 0)
(3 -3.183774404e-15 0)
(3 -3.485393982e-15 0)
(3 -2.92156617e-15 0)
(3 -1.910583136e-15 0)
(3 -2.947526446e-15 0)
(3 -2.888631609e-15 0)
(3 -3.649550479e-15 0)
(3 -3.737225307e-15 0)
(3 -3.80220084e-15 0)
(3 -3.384555328e-15 0)
(3 -3.482270978e-15 0)
(3 -3.727473158e-15 0)
(3 -3.348985599e-15 0)
(3 -2.676127105e-15 0)
(3 -1.440168218e-15 0)
(3 -3.975173924e-16 0)
(3 -1.040230669e-16 0)
(3 -6.698671878e-16 0)
(3 9.7752891e-17 0)
(3 -1.019854951e-15 0)
(3 2.93261999e-15 0)
(3 1.801277987e-15 0)
(3 3.726424354e-15 0)
(3 3.670237425e-15 0)
(3 3.070384532e-15 0)
(3 7.500767714e-16 0)
(3 1.175875547e-16 0)
(3 3.864979947e-16 0)
(3 5.131351888e-16 0)
(3 -7.646440418e-16 0)
(3 -3.223822444e-15 0)
(3 -5.167503171e-15 0)
(3 -4.90375218e-15 0)
(3 -3.649184008e-15 0)
(3 -4.255293306e-15 0)
(3 -4.408734503e-15 0)
(3 -3.491797954e-15 0)
(3 -2.887801269e-15 0)
(3 -2.857156514e-15 0)
(3 -2.404622603e-15 0)
(3 -1.352442234e-15 0)
(3 -2.802004964e-15 0)
(3 -3.313398113e-15 0)
(3 -3.046032102e-15 0)
(3 -2.047736664e-15 0)
(3 -5.698186113e-16 0)
(3 -2.161475144e-16 0)
(3 -5.413623786e-16 0)
(3 -4.92834091e-16 0)
(3 1.297279508e-15 0)
(3 1.72999068e-15 0)
(3 1.371997073e-15 0)
(3 -5.461975777e-16 0)
(3 3.260362014e-15 0)
(3 1.908495644e-15 0)
(3 9.60378855e-16 0)
(3 2.110395145e-15 0)
(3 2.7144194e-15 0)
(3 9.412132271e-16 0)
(3 -1.502440285e-16 0)
(3 -4.941658987e-16 0)
(3 -3.842133951e-16 0)
(3 -1.610104255e-15 0)
(3 -4.594516733e-15 0)
(3 -5.512402229e-15 0)
(3 -6.112712531e-15 0)
(3 -5.814200467e-15 0)
(3 -5.866511111e-15 0)
(3 -6.529303586e-15 0)
(3 -5.357696969e-15 0)
(3 -2.092215403e-15 0)
(3 -1.255307594e-15 0)
(3 -2.563853745e-15 0)
(3 -2.10804602e-15 0)
(3 -2.813827112e-15 0)
(3 -4.451930003e-15 0)
(3 -3.984729724e-15 0)
(3 -2.990765465e-15 0)
(3 -2.869272556e-15 0)
(3 -1.99162231e-15 0)
(3 -3.134159674e-15 0)
(3 -1.021417969e-15 0)
(3 -9.291436666e-16 0)
(3 -1.328000926e-16 0)
(3 -1.461155921e-15 0)
(3 -1.404191707e-15 0)
(3 1.624558442e-15 0)
(3 8.361736601e-16 0)
(3 -4.959415834e-16 0)
(3 -6.956794857e-16 0)
(3 -1.114955643e-15 0)
(3 -7.682249624e-16 0)
(3 -2.393007173e-15 0)
(3 -2.727730958e-15 0)
(3 -1.886381251e-15 0)
(3 -1.951077985e-15 0)
(3 -2.631799773e-15 0)
(3 -2.551417353e-15 0)
(3 -2.542055259e-15 0)
(3 -2.666921503e-15 0)
(3 -3.226157697e-15 0)
(3 -4.191770131e-15 0)
(3 -4.382224081e-15 0)
(3 -3.785642614e-15 0)
(3 -2.501639829e-15 0)
(3 -2.664982828e-15 0)
(3 -2.648934691e-15 0)
(3 -4.057239489e-15 0)
(3 -4.069582505e-15 0)
(3 -1.787595514e-15 0)
(3 -8.916134573e-16 0)
(3 -1.93432231e-15 0)
(3 -2.596373518e-15 0)
(3 -1.91553383e-15 0)
(3 -8.534184863e-16 0)
(3 -2.917873316e-16 0)
(3 -1.94101665e-15 0)
(3 -2.908181539e-15 0)
(3 -2.420820681e-15 0)
(3 1.47598891e-15 0)
(3 7.156588006e-16 0)
(3 2.607846844e-15 0)
(3 8.388731256e-16 0)
(3 -1.219394401e-16 0)
(3 -1.081961475e-15 0)
(3 -3.643229547e-15 0)
(3 -4.30278154e-15 0)
(3 -4.917170148e-15 0)
(3 -4.377266797e-15 0)
(3 -1.6372674e-15 0)
(3 -5.19847652e-16 0)
(3 9.873194898e-16 0)
(3 1.748039608e-15 0)
(3 2.588577477e-15 0)
(3 1.361156038e-15 0)
(3 -7.998416503e-17 0)
(3 -1.325595004e-15 0)
(3 -1.622049389e-15 0)
(3 -1.37346782e-15 0)
(3 -2.584366151e-15 0)
(3 -3.908293788e-15 0)
(3 -4.024595126e-15 0)
(3 -3.078722275e-15 0)
(3 -1.733694421e-15 0)
(3 -5.043202847e-17 0)
(3 -9.380154279e-16 0)
(3 -2.352758746e-17 0)
(3 -3.172182296e-16 0)
(3 -1.185550383e-15 0)
(3 -3.414190095e-15 0)
(3 -3.324677475e-15 0)
(3 -4.594901685e-15 0)
(3 -1.681080122e-15 0)
(3 -1.408526642e-15 0)
(3 -4.423220765e-16 0)
(3 -5.123875388e-16 0)
(3 -4.402037729e-16 0)
(3 -9.084642925e-16 0)
(3 -1.786845706e-15 0)
(3 -4.21685059e-15 0)
(3 -6.377322188e-15 0)
(3 -5.199604894e-15 0)
(3 -3.279358749e-15 0)
(3 -1.32624376e-15 0)
(3 -7.484045488e-16 0)
(3 3.896742425e-16 0)
(3 1.327703269e-15 0)
(3 1.816227632e-15 0)
(3 2.787309252e-16 0)
(3 -3.578336135e-16 0)
(3 -1.158272925e-15 0)
(3 -1.979580476e-15 0)
(3 -2.401630138e-15 0)
(3 -3.08100997e-15 0)
(3 -4.172269802e-15 0)
(3 -4.389745276e-15 0)
(3 -4.154988249e-15 0)
(3 -3.190587599e-15 0)
(3 -3.852863518e-15 0)
(3 -3.098069285e-15 0)
(3 -3.252137637e-15 0)
(3 -4.0404937e-15 0)
(3 -4.485607199e-15 0)
(3 -5.376709065e-15 0)
(3 -5.759834742e-15 0)
(3 -4.372616396e-15 0)
(3 -2.569391409e-15 0)
(3 -1.80359309e-15 0)