/*--------------------------------*- C++ -*----------------------------------*\
  =========                 |
  \\      /  F ield         | OpenFOAM: The Open Source CFD Toolbox
   \\    /   O peration     | Website:  https://openfoam.org
    \\  /    A nd           | Version:  7
     \\/     M anipulation  |
\*---------------------------------------------------------------------------*/
FoamFile
{
    version     2.0;
    format      ascii;
    class       volScalarField;
    location    "0.8";
    object      rho;
}
// * * * * * * * * * * * * * * * * * * * * * * * * * * * * * * * * * * * * * //

dimensions      [1 -3 0 0 0 0 0];

internalField   nonuniform List<scalar> 
22
(
1.361073686
1.372199187
1.367019765
1.354531747
1.370343766
1.367104734
1.346517323
1.341753648
1.368177076
1.367193137
1.346572574
1.308261064
1.367520569
1.368215589
1.347054341
1.275117209
1.336252922
1.358838501
1.212522991
1.257348903
1.331903773
1.282929911
)
;

boundaryField
{
    inlet
    {
        type            calculated;
        value           nonuniform 0();
    }
    outlet
    {
        type            calculated;
        value           nonuniform 0();
    }
    bottom
    {
        type            calculated;
        value           nonuniform 0();
    }
    top
    {
        type            calculated;
        value           nonuniform 0();
    }
    obstacle
    {
        type            calculated;
        value           nonuniform 0();
    }
    defaultFaces
    {
        type            empty;
    }
    procBoundary28to21
    {
        type            processor;
        value           nonuniform List<scalar> 2(1.28901718 1.250744831);
    }
    procBoundary28to22
    {
        type            processor;
        value           nonuniform List<scalar> 3(1.364245996 1.361901145 1.355533965);
    }
    procBoundary28to27
    {
        type            processor;
        value           nonuniform List<scalar> 6(1.209913279 1.151811239 1.187776899 1.187776899 1.196804428 1.361030561);
    }
    procBoundary28to29
    {
        type            processor;
        value           nonuniform List<scalar> 7(1.344324383 1.344324383 1.345927236 1.346868424 1.347937396 1.361758406 1.363865863);
    }
    procBoundary28to34
    {
        type            processor;
        value           nonuniform List<scalar> 4(1.268490379 1.277609963 1.268490379 1.401837093);
    }
}


// ************************************************************************* //
