/*--------------------------------*- C++ -*----------------------------------*\
  =========                 |
  \\      /  F ield         | OpenFOAM: The Open Source CFD Toolbox
   \\    /   O peration     | Website:  https://openfoam.org
    \\  /    A nd           | Version:  7
     \\/     M anipulation  |
\*---------------------------------------------------------------------------*/
FoamFile
{
    version     2.0;
    format      ascii;
    class       volScalarField;
    location    "5";
    object      p;
}
// * * * * * * * * * * * * * * * * * * * * * * * * * * * * * * * * * * * * * //

dimensions      [1 -1 -2 0 0 0 0];

internalField   nonuniform List<scalar> 
2223
(
1.369911817
1.309135829
1.26824931
1
1
1
1
1
1
1
1.000000008
1.000000772
1.000036455
1.00113712
1.018701753
1.14789757
1.46880736
1.875555845
2.026064137
2.018512145
2.033414847
2.052937475
2.060534017
2.05039302
2.036084011
2.019959936
1.999283492
1.971428826
1.924805983
1.861102189
1.799860745
1.730156368
1.661259458
1.615150359
1.561531994
1.483107341
1.441863467
1.409509145
1.350471323
1.299668345
1
1
1
1
1
1
1
1
1.000000037
1.000002063
1.000089443
1.002076806
1.029486237
1.182029936
1.547854586
1.929570545
2.020430551
2.033954122
2.042763482
2.052273114
2.049632304
2.043324667
2.038516314
2.020847084
1.995140936
1.956166574
1.898285841
1.83790662
1.77412284
1.704025246
1.654687717
1.607347266
1.53086141
1.47802688
1.447053946
1.393865919
1.332354703
1
1
1
1
1
1
1
1
1.000000001
1.000000055
1.000003825
1.000125932
1.003508089
1.038273069
1.235839267
1.675701301
1.959149806
1.986114867
2.012532188
2.042102281
2.051961639
2.050033208
2.043612291
2.03246226
2.01205026
1.980508197
1.93059157
1.873532786
1.817601264
1.751438627
1.694647368
1.6492265
1.579492368
1.515777287
1.482913418
1.437427013
1.36878571
1
1
1
1
1
1
1
1
1
1.000000001
1.000000094
1.000004747
1.000268556
1.004795428
1.062409073
1.316485189
1.761986041
1.939475589
2.034610935
2.056269378
2.054096663
2.044678019
2.045011474
2.040388561
2.028647672
2.00204085
1.95742899
1.905033984
1.857356306
1.800597529
1.73666752
1.688339327
1.627627333
1.558475815
1.519344239
1.479053477
1.409448438
1
1
1
1
1
1
1
1
1
1
1.000000003
1.000000179
1.000016399
1.00043731
1.010950893
1.093877127
1.445382366
1.817525881
2.010974996
2.055085432
2.048634375
2.036693885
2.046213141
2.050647706
2.04588111
2.021722197
1.981527088
1.934214798
1.89101851
1.844095306
1.779471498
1.724331212
1.670646503
1.602960155
1.556594733
1.51901049
1.453550233
1
1
1
1
1
1
1
1
1
1
1
1.00000001
1.00000096
1.000035618
1.001367989
1.018893768
1.165147711
1.541028804
1.844136413
2.029738195
2.044314948
2.038023071
2.044301457
2.048529427
2.04899895
2.035384786
2.004386519
1.96420194
1.922448549
1.881394865
1.82229294
1.760990851
1.710874267
1.648050615
1.594415089
1.556533181
1.497354905
1
1
1
1
1
1
1
1
1
1
1
1.000000001
1.000000049
1.000002259
1.000123479
1.002450203
1.036034241
1.234044515
1.576823616
1.949066995
2.050643716
2.032537569
2.030698143
2.038242082
2.046543366
2.039265865
2.018787453
1.98976373
1.952618133
1.914789476
1.863018395
1.799158628
1.749207359
1.692217996
1.633454987
1.592501608
1.538653322
1
1
1
1
1
1
1
1
1
1
1
1
1.000000002
1.000000085
1.000006793
1.000184773
1.005050012
1.053694844
1.287000052
1.694713324
1.999292975
1.995087672
2.013339028
2.030109802
2.042381396
2.037825254
2.025872275
2.007625113
1.979465033
1.945076131
1.899174739
1.836696294
1.78565959
1.734244709
1.673453738
1.627775791
1.577418555
1
1
1
1
1
1
1
1
1
1
1
1
1
1.000000002
1.000000189
1.00000851
1.000414302
1.007426844
1.084337265
1.335666837
1.806804132
1.96371116
2.023830472
2.044712789
2.045088423
2.038375072
2.033991993
2.024836364
2.00383961
1.972249788
1.930261485
1.871595726
1.819922815
1.773544494
1.714343153
1.663638302
1.615062323
1
1
1
1
1
1
1
1
1
1
1
1
1
1
1.000000003
1.00000028
1.000022192
1.000671158
1.013716354
1.106128474
1.465296719
1.847024098
1.978237761
2.035454001
2.046225955
2.042479532
2.039982681
2.034142723
2.01980682
1.996049259
1.958200781
1.90400775
1.852611931
1.809468969
1.752997016
1.698301051
1.652186413
1
1
1
1
1
1
1
1
1
1
1
1
1
1
1
1.00000001
1.000000922
1.000044548
1.00142933
1.021399835
1.16501105
1.600929464
1.862643395
2.010852367
2.048775647
2.048111725
2.04268244
2.037445619
2.033171238
2.020987961
1.987595072
1.937158923
1.886134238
1.84420634
1.790464221
1.731118852
1.686291243
1
1
1
1
1
1
1
1
1
1
1
1
1
1
1
1
1.000000035
1.000002363
1.000115573
1.002946624
1.037920868
1.277500086
1.636329249
1.933549286
2.040593416
2.034965522
2.031219965
2.03809792
2.041771041
2.034528095
2.005785896
1.964024891
1.919192655
1.87969814
1.830009556
1.766838625
1.719549461
1
1
1
1
1
1
1
1
1
1
1
1
1
1
1
1
1.000000001
1.0000001
1.000007472
1.000276584
1.006027467
1.07312585
1.334902214
1.703079608
2.005995542
2.018150569
2.027138973
2.037896417
2.044837474
2.037134839
2.013189304
1.981505163
1.946194873
1.911733731
1.867978512
1.805238695
1.753582072
1
1
1
1
1
1
1
1
1
1
1
1
1
1
1
1
1
1.000000003
1.000000306
1.00001719
1.000593422
1.011386197
1.105302885
1.37088761
1.840873038
1.979356773
2.021324328
2.03627855
2.045697955
2.036449252
2.018147976
1.997029732
1.971644811
1.940214195
1.899633541
1.840753964
1.787465657
1
1
1
1
1
1
1
1
1
1
1
1
1
1
1
1
1
1
1.000000007
1.000000619
1.000034127
1.001076228
1.018032492
1.124228888
1.47922234
1.868581255
1.989225032
2.036731429
2.046616752
2.038166019
2.028297847
2.01800517
1.99700395
1.967467974
1.927859798
1.872281471
1.819684187
1
1
1
1
1
1
1
1
1
1
1
1
1
1
1
1
1
1
1
1.000000014
1.000001196
1.000064532
1.001803556
1.024781044
1.171791198
1.615535103
1.886658917
2.015144953
2.042060316
2.03671308
2.026443136
2.019919436
2.010981822
1.990754611
1.954789289
1.903188389
1.851151007
1
1
1
1
1
1
1
1
1
1
1
1
1
1
1
1
1
1
1
1
1.000000035
1.000002907
1.000127991
1.003371403
1.040023223
1.293013004
1.679029946
1.946395704
2.031532046
2.035168821
2.030509205
2.026760872
2.022893999
2.011959601
1.979946083
1.934127251
1.885378045
1
1
1
1
1
1
1
1
1
1
1
1
1
1
1
1
1
1
1
1
1.000000001
1.000000128
1.000008297
1.000347921
1.006872361
1.0854073
1.368386248
1.722341406
1.994265259
2.036551282
2.035195709
2.030628176
2.027168171
2.022923265
1.997698446
1.958519503
1.91668082
1
1
1
1
1
1
1
1
1
1
1
1
1
1
1
1
1
1
1
1
1
1.000000005
1.000000462
1.000026906
1.000808213
1.014677681
1.123576157
1.410363756
1.858761658
1.977474034
2.010686328
2.023034591
2.026341755
2.024145198
2.006353917
1.97851661
1.945613219
1
1
1
1
1
1
1
1
1
1
1
1
1
1
1
1
1
1
1
1
1
1
1.000000017
1.00000126
1.000055425
1.001545782
1.023334572
1.145657516
1.520123971
1.87486208
1.993158681
2.031395488
2.035010005
2.025425451
2.016440257
2.002430756
1.977063203
1
1
1
1
1
1
1
1
1
1
1
1
1
1
1
1
1
1
1
1
1
1
1
1.000000029
1.000002101
1.000095698
1.002536317
1.030360274
1.196861577
1.641135653
1.894546593
2.009775949
2.036874056
2.029858322
2.022764927
2.015473979
1.999007915
1
1
1
1
1
1
1
1
1
1
1
1
1
1
1
1
1
1
1
1
1
1
1
1
1.000000053
1.000003919
1.000173331
1.004099381
1.045174796
1.321309156
1.698999317
1.947452239
2.030798714
2.037482692
2.033760047
2.025411764
2.012300448
1
1
1
1
1
1
1
1
1
1
1
1
1
1
1
1
1
1
1
1
1
1
1
1
1.000000002
1.00000015
1.000009915
1.000398709
1.007890024
1.097377867
1.402533454
1.750105294
1.992593087
2.018877624
2.031710666
2.026974963
2.019278119
1
1
1
1
1
1
1
1
1
1
1
1
1
1
1
1
1
1
1
1
1
1
1
1
1
1.000000007
1.000000556
1.000032428
1.00102326
1.017813094
1.147904517
1.434689524
1.874291517
1.985142664
2.027084279
2.023538813
2.023824742
1
1
1
1
1
1
1
1
1
1
1
1
1
1
1
1
1
1
1
1
1
1
1
1
1
1
1.000000026
1.000001911
1.00008403
1.002068697
1.030565507
1.159784176
1.561246369
1.895658743
2.006842482
2.033097594
2.029675633
1
1
1
1
1
1
1
1
1
1
1
1
1
1
1
1
1
1
1
1
1
1
1
1
1
1
1.000000001
1.000000061
1.000003805
1.000139126
1.003509514
1.035002023
1.229660268
1.674580723
1.901083509
2.012896957
2.030890379
1
1
1
1
1
1
1
1
1
1
1
1
1
1
1
1
1
1
1
1
1
1
1
1
1
1
1
1.000000001
1.00000009
1.000005657
1.000236957
1.004989581
1.055033641
1.355743372
1.709749455
1.964634338
2.021928633
1
1
1
1
1
1
1
1
1
1
1
1
1
1
1
1
1
1
1
1
1
1
1
1
1
1
1
1
1.000000002
1.000000195
1.000012856
1.00050321
1.009616448
1.116377902
1.407563698
1.787488803
1.980988284
1
1
1
1
1
1
1
1
1
1
1
1
1
1
1
1
1
1
1
1
1
1
1
1
1
1
1
1
1
1.000000009
1.000000725
1.000042274
1.001239812
1.022574707
1.152248531
1.455820099
1.885915263
1
1
1
1
1
1
1
1
1
1
1
1
1
1
1
1
1
1
1
1
1
1
1
1
1
1
1
1
1
1
1.000000037
1.000002704
1.000103885
1.002668612
1.032223306
1.169227462
1.609898478
1
1
1
1
1
1
1
1
1
1
1
1
1
1
1
1
1
1
1
1
1
1
1
1
1
1
1
1
1
1
1.000000001
1.000000099
1.000004872
1.000182951
1.003813359
1.038741678
1.262435817
1
1
1
1
1
1
1
1
1
1
1
1
1
1
1
1
1
1
1
1
1
1
1
1
1
1
1
1
1
1
1
1.000000002
1.00000012
1.000007759
1.000282081
1.005925631
1.06944743
1
1
1
1
1
1
1
1
1
1
1
1
1
1
1
1
1
1
1
1
1
1
1
1
1
1
1
1
1
1
1
1
1.000000003
1.000000288
1.000017867
1.000682389
1.012707138
1
1
1
1
1
1
1
1
1
1
1
1
1
1
1
1
1
1
1
1
1
1
1
1
1
1
1
1
1
1
1
1
1
1.000000014
1.000001137
1.000060821
1.001685184
1
1
1
1
1
1
1
1
1
1
1
1
1
1
1
1
1
1
1
1
1
1
1
1
1
1
1
1
1
1
1
1
1
1.000000001
1.000000058
1.000003677
1.000138236
1
1
1
1
1
1
1
1
1
1
1
1
1
1
1
1
1
1
1
1
1
1
1
1
1
1
1
1
1
1
1
1
1
1
1.000000002
1.000000116
1.000006176
1
1
1
1
1
1
1
1
1
1
1
1
1
1
1
1
1
1
1
1
1
1
1
1
1
1
1
1
1
1
1
1
1
1
1
1.000000002
1.000000156
1
1
1
1
1
1
1
1
1
1
1
1
1
1
1
1
1
1
1
1
1
1
1
1
1
1
1
1
1
1
1
1
1
1
1
1
1.000000004
1
1
1
1
1
1
1
1
1
1
1
1
1
1
1
1
1
1
1
1
1
1
1
1
1
1
1
1
1
1
1
1
1
1
1
1
1
1
1
1
1
1
1
1
1
1
1
1
1
1
1
1
1
1
1
1
1
1
1
1
1
1
1
1
1
1
1
1
1
1
1
1
1
1
1
1
1
1
1
1
1
1
1
1
1
1
1
1
1
1
1
1
1
1
1
1
1
1
1
1
1
1
1
1
1
1
1
1
1
1
1
1
1
1
1
1
1
1
1
1
1
1
1
1
1
1
1
1
1
1
1
1
1
1
1
1
1
1
1
1
1
1
1
1
1
1
1
1
1
1
1
1
1
1
1
1
1
1
1
1
1
1
1
1
1
1
1
1
1
1
1
1
1
1
1
1
1
1
1
1
1
1
1
1
1
1
1
1
1
1
1
1
1
1
1
1
1
1
1
1
1
1
1
1
1
1
1
1
1
1
1
1
1
1
1
1
1
1
1
1
1
1
1
1
1
1
1
1
1
1
1
1
1
1
1
1
1
1
1
1
1
1
1
1
1
1
1
1
1
1
1
1
1
1
1
1
1
1
1
1
1
1
1
1
1
1
1
1
1
1
1
1
1
1
1
1
1
1
1
1
1
1
1
1
1
1
1
1
1
1
1
1
1
1
1
1
1
1
1
1
1
1
1
1
1
1
1
1
1
1
1
1
1
1
1
1
1
1
1
1
1
1
1
1
1
1
1
1
1
1
1
1
1
1
1
1
1
1
1
1
1
1
1
1
1
1
1
1
1
1
1
1
1
1
1
1
1
1
1
1
1
1
1
1
1
1
1
1
1
1
1
1
1
1
1
1
1
1
1
1
1
1
1
1
1
1
1
1
1
1
1
1
1
1
1
1
1
1
1
1
1
1
1
1
1
1
1
1
1
1
1
1
1
1
1
1
1
1
1
1
1
1
1
1
1
1
1
1
1
1
1
1
1
1
1
1
1
1
1
1
1
1
1
1
1
1
1
1
1
1
1
1
1
1
1
1
1
1
1
1
1
1
1
1
1
1
1
1
1
1
1
1
1
1
1
1
1
1
1
1
1
1
1
1
1
1
1
1
1
1
1
1
1
1
1
1
1
1
1
1
1
1
1
1
1
1
1
1
1
1
1
1
1
1
1
1
1
1
1
1
1
1
1
1
1
1
1
1
1
1
1
1
1
1
1
1
1
1
1
1
1
1
1
1
1
1
1
1
1
1
1
1
1
1
1
1
1
1
1
1
1
1
1
1
1
1
1
1
1
1
1
1
1
1
1
1
1
1
1
1
1
1
1
1
1
1
1
1
1
1
1
1
1
1
1
1
1
1
1
1
1
1
1
1
1
1
1
1
1
1
1
1
1
1
1
1
1
1
1
1
1
1
1
1
1
1
1
1
1
1
1
1
1
1
1
1
1
1
1
1
1
1
1
1
1
1
1
1
1
1
1
1
1
1
1
1
1
1
1
1
1
1
1
1
1
1
1
1
1
1
1
1
1
1
1
1
1
1
1
1
1
1
1
1
1
1
1
1
1
1
1
1
1
1
1
1
1
1
1
1
1
1
1
1
1
1
1
1
1
1
1
1
1
1
1
1
1
1
1
1
1
1
1
1
1
1
1
1
1
1
1
1
1
1
1
1
1
1
1
1
1
1
1
1
1
1
1
1
1
1
1
1
1
1
1
1
1
1
1
1
1
1
1
1
1
1
1
1
1
1
1
1
1
1
1
1
1
1
1
1
1
1
1
1
1
1
1
1
1
1
1
1
1
1
1
1
1
1
1
1
1
1
1
1
1
1
1
1
1
1
1
1
1
1
)
;

boundaryField
{
    inlet
    {
        type            fixedValue;
        value           nonuniform 0();
    }
    outlet
    {
        type            zeroGradient;
    }
    bottom
    {
        type            slip;
    }
    top
    {
        type            slip;
    }
    obstacle
    {
        type            zeroGradient;
    }
    defaultFaces
    {
        type            empty;
    }
    procBoundary33to26
    {
        type            processor;
        value           nonuniform List<scalar> 
25
(
1
1
1
1
1
1
1
1
1
1
1
1
1
1
1
1
1
1
1
1
1
1
1
1
1
)
;
    }
    procBoundary33to27
    {
        type            processor;
        value           nonuniform List<scalar> 
38
(
1.329181704
1.270868317
1.236812726
1
1
1
1
1
1
1.000000001
1.000000155
1.000011158
1.0004292
1.008723105
1.099274394
1.423132025
1.753177905
2.008014435
2.057906049
2.045306002
2.04363665
2.048289783
2.052810043
2.047457455
2.030234986
2.004981435
1.976593771
1.941046472
1.885211206
1.821036396
1.760099316
1.684649048
1.618119529
1.572268816
1.511788813
1.439021039
1.405786153
1.405786153
)
;
    }
    procBoundary33to32
    {
        type            processor;
        value           nonuniform List<scalar> 
35
(
1
1
1
1
1
1
1
1
1
1
1
1
1
1
1
1
1
1
1
1
1
1
1
1
1
1
1
1
1
1
1
1
1
1
1
)
;
    }
    procBoundary33to34
    {
        type            processor;
        value           nonuniform List<scalar> 
61
(
1.244330008
1.277032269
1.30813
1.337986251
1.367174131
1.398855298
1.434061331
1.471705764
1.511158901
1.551115487
1.592966715
1.633190484
1.670720543
1.706604276
1.742282891
1.777943168
1.811113484
1.844998266
1.877725393
1.908329771
1.941515512
1.968931679
1.991211119
2.004989045
2.009035503
2.013698727
2.024433514
2.019438956
1.999935237
1.982478036
1.888108433
1.684753846
1.390417089
1.138023223
1.027752463
1.003181659
1.000209361
1.000009468
1.000000432
1.000000023
1.000000001
1
1
1
1
1
1
1
1
1
1
1
1
1
1
1
1
1
1
1
1
)
;
    }
}


// ************************************************************************* //
