/*--------------------------------*- C++ -*----------------------------------*\
  =========                 |
  \\      /  F ield         | OpenFOAM: The Open Source CFD Toolbox
   \\    /   O peration     | Website:  https://openfoam.org
    \\  /    A nd           | Version:  7
     \\/     M anipulation  |
\*---------------------------------------------------------------------------*/
FoamFile
{
    version     2.0;
    format      ascii;
    class       volScalarField;
    location    "0.2";
    object      rho;
}
// * * * * * * * * * * * * * * * * * * * * * * * * * * * * * * * * * * * * * //

dimensions      [1 -3 0 0 0 0 0];

internalField   nonuniform List<scalar> 
200
(
1.40000504
1.40000504
1.40000504
1.40000504
1.40000504
1.40000504
1.40000504
1.40000504
1.40000504
1.40000504
1.40000504
1.40000504
1.40000504
1.40000504
1.40000504
1.40000504
1.40000504
1.40000504
1.40000504
1.40000504
1.40000504
1.40000504
1.40000504
1.40000504
1.40000504
1.400005036
1.400005038
1.400005036
1.400005139
1.400005117
1.400005023
1.400005099
1.400006249
1.400035341
1.40003419
1.400026866
1.400163164
1.400804975
1.402243926
1.406176535
1.403481182
1.411656859
1.427680009
1.446791221
1.491304885
1.455300475
1.519996942
1.588990364
1.652779599
1.741035014
1.400195769
1.400879456
1.400788846
1.400271147
1.399999932
1.40501139
1.4068857
1.402181913
1.397940288
1.39829302
1.431507922
1.416813917
1.385753424
1.378205509
1.389270454
1.463693887
1.385134373
1.333031595
1.351157896
1.382576989
1.511032117
1.290213257
1.317984026
1.35895716
1.38922129
1.155510999
1.22389495
1.376277276
1.403195016
1.399206123
1.162030424
1.262728553
1.394576483
1.403151979
1.398734196
1.17621072
1.285647601
1.404142857
1.403006289
1.398074507
1.185534962
1.298542462
1.405641492
1.403307407
1.397439877
1.164585462
1.330248896
1.41253631
1.401645278
1.396970128
1.165826353
1.34259369
1.414774052
1.401893964
1.396886479
1.186002608
1.305026698
1.406531539
1.403372936
1.397476573
1.176512462
1.283625277
1.402807813
1.403000453
1.398100075
1.161546792
1.256221766
1.393181765
1.403248274
1.39869262
1.154789763
1.220210169
1.376683096
1.40378511
1.399113981
1.511031594
1.290731224
1.318133291
1.359030594
1.389277063
1.463700541
1.385043392
1.333012501
1.351180465
1.382584778
1.431505278
1.416813386
1.385766659
1.378206033
1.389268331
1.405011868
1.406887024
1.402182092
1.397939186
1.398292937
1.400195781
1.400879427
1.40078872
1.400271129
1.399999975
1.455300475
1.519996942
1.588990364
1.652779598
1.741035022
1.403481182
1.411656859
1.427680009
1.446791221
1.491304883
1.400026866
1.400163164
1.400804975
1.402243933
1.406176466
1.400005023
1.400005099
1.400006249
1.400035341
1.400034189
1.400005036
1.400005038
1.400005036
1.400005139
1.400005117
1.40000504
1.40000504
1.40000504
1.40000504
1.40000504
1.40000504
1.40000504
1.40000504
1.40000504
1.40000504
1.40000504
1.40000504
1.40000504
1.40000504
1.40000504
1.40000504
1.40000504
1.40000504
1.40000504
1.40000504
1.40000504
1.40000504
1.40000504
1.40000504
1.40000504
)
;

boundaryField
{
    inlet
    {
        type            calculated;
        value           uniform 1.40000504;
    }
    outlet
    {
        type            calculated;
        value           nonuniform List<scalar> 
20
(
1.389304387
1.38244755
1.389128848
1.398250046
1.399999117
1.39706144
1.397682355
1.39829395
1.398882643
1.399250411
1.399332693
1.398904178
1.398275956
1.397650816
1.397172028
1.399999073
1.398250169
1.38913092
1.382439128
1.389249459
)
;
    }
    bottom
    {
        type            calculated;
        value           nonuniform List<scalar> 
15
(
1.40000504
1.40000504
1.40000504
1.40000504
1.40000504
1.400005036
1.400005038
1.400005036
1.400005139
1.400005117
1.400195769
1.400879456
1.400788846
1.400271147
1.399999932
)
;
    }
    top
    {
        type            calculated;
        value           nonuniform List<scalar> 
15
(
1.40000504
1.40000504
1.40000504
1.40000504
1.40000504
1.400005036
1.400005038
1.400005036
1.400005139
1.400005117
1.400195781
1.400879427
1.40078872
1.400271129
1.399999975
)
;
    }
    obstacle
    {
        type            calculated;
        value           nonuniform List<scalar> 
20
(
1.455300475
1.519996942
1.588990364
1.652779598
1.741035022
1.165826353
1.186002608
1.176512462
1.161546792
1.154789763
1.155510999
1.162030424
1.17621072
1.185534962
1.164585462
1.455300475
1.519996942
1.588990364
1.652779599
1.741035014
)
;
    }
    defaultFaces
    {
        type            empty;
    }
}


// ************************************************************************* //
