/*--------------------------------*- C++ -*----------------------------------*\
  =========                 |
  \\      /  F ield         | OpenFOAM: The Open Source CFD Toolbox
   \\    /   O peration     | Website:  https://openfoam.org
    \\  /    A nd           | Version:  7
     \\/     M anipulation  |
\*---------------------------------------------------------------------------*/
FoamFile
{
    version     2.0;
    format      ascii;
    class       volVectorField;
    location    "2.1";
    object      U;
}
// * * * * * * * * * * * * * * * * * * * * * * * * * * * * * * * * * * * * * //

dimensions      [0 1 -1 0 0 0 0];

internalField   nonuniform List<vector> 
555
(
(3 -1.721423354e-15 0)
(3 -6.829952573e-16 0)
(3 -3.662704821e-15 0)
(3 -5.975168021e-15 0)
(3 -6.657640164e-15 0)
(3 -6.608518272e-15 0)
(3 -5.815604316e-15 0)
(3 -7.147093345e-15 0)
(3 -7.444796445e-15 0)
(3 -8.624804018e-15 0)
(3 -6.085689718e-15 0)
(3 -3.601711488e-15 0)
(3 -2.322918787e-15 0)
(3 -2.040552923e-15 0)
(3 -1.273379788e-15 0)
(3 -4.146540334e-16 0)
(3 -2.574583659e-16 0)
(3 -7.818257655e-16 0)
(3 4.084525588e-15 0)
(3 7.384346282e-15 0)
(3 9.002282033e-15 0)
(3 1.340202191e-14 0)
(3 1.822750988e-14 0)
(3 1.713786227e-14 0)
(3 1.539252558e-14 0)
(3 -6.237127135e-16 0)
(3 -1.485113169e-15 0)
(3 -2.478844789e-15 0)
(3 -3.03735406e-15 0)
(3 -1.38709086e-15 0)
(3 -1.251571091e-15 0)
(3 -8.595359684e-16 0)
(3 -2.473435978e-15 0)
(3 -4.153384915e-15 0)
(3 -7.548202417e-15 0)
(3 -8.641325831e-15 0)
(3 -1.021436167e-14 0)
(3 -9.917212336e-15 0)
(3 -1.10918881e-14 0)
(3 -1.045449783e-14 0)
(3 -7.424644968e-15 0)
(3 -6.759488309e-15 0)
(3 -7.310122392e-15 0)
(3 -8.74881269e-15 0)
(3 -1.050428682e-14 0)
(3 -1.149053543e-14 0)
(3 -1.226409356e-14 0)
(3 -1.086423109e-14 0)
(3 -7.585332968e-15 0)
(3 -5.321550771e-15 0)
(3 -3.461045868e-15 0)
(3 -2.540118528e-15 0)
(3 -9.929168601e-16 0)
(3 1.444171586e-15 0)
(3 5.872919204e-15 0)
(3 1.116396056e-14 0)
(3 1.234973591e-14 0)
(3 1.513492104e-14 0)
(3 1.820249654e-14 0)
(3 3.602472922e-16 0)
(3 1.031142155e-15 0)
(3 4.037633069e-16 0)
(3 -9.268972822e-16 0)
(3 -1.004688516e-15 0)
(3 -5.732250845e-16 0)
(3 -3.008138501e-15 0)
(3 -2.330394644e-15 0)
(3 -4.201383679e-15 0)
(3 -3.377375968e-15 0)
(3 -4.965258095e-15 0)
(3 -5.700694391e-15 0)
(3 -6.191438583e-15 0)
(3 -1.096655574e-14 0)
(3 -1.535205175e-14 0)
(3 -1.63080092e-14 0)
(3 -1.520942967e-14 0)
(3 -1.509400141e-14 0)
(3 -1.604203888e-14 0)
(3 -1.710268098e-14 0)
(3 -1.732559901e-14 0)
(3 -1.609686176e-14 0)
(3 -1.373667664e-14 0)
(3 -9.250635935e-15 0)
(3 -8.227462783e-15 0)
(3 -4.522741692e-15 0)
(3 -2.290524065e-15 0)
(3 2.259973254e-16 0)
(3 1.735681725e-15 0)
(3 4.447698623e-15 0)
(3 7.028858984e-15 0)
(3 6.180936892e-15 0)
(3 5.931635242e-15 0)
(3 4.827763238e-15 0)
(3 -7.932298167e-16 0)
(3 1.056648548e-15 0)
(3 6.136573378e-16 0)
(3 -2.419715507e-16 0)
(3 1.061897498e-15 0)
(3 1.535459852e-15 0)
(3 4.564795811e-16 0)
(3 3.167822606e-16 0)
(3 -1.142659357e-15 0)
(3 -1.681664357e-15 0)
(3 -3.379076663e-15 0)
(3 -3.298425985e-15 0)
(3 -5.587791808e-15 0)
(3 -1.006693041e-14 0)
(3 -1.391976429e-14 0)
(3 -1.270126294e-14 0)
(3 -1.269109525e-14 0)
(3 -1.091833036e-14 0)
(3 -1.045927454e-14 0)
(3 -1.135443657e-14 0)
(3 -9.667822932e-15 0)
(3 -8.529553013e-15 0)
(3 -8.83869081e-15 0)
(3 -8.362929312e-15 0)
(3 -6.480957709e-15 0)
(3 -3.73317049e-15 0)
(3 -1.436206571e-15 0)
(3 3.429010397e-15 0)
(3 8.601344276e-15 0)
(3 8.628203705e-15 0)
(3 9.091815676e-15 0)
(3 8.327664508e-15 0)
(3 4.82917849e-15 0)
(3 -6.437900737e-16 0)
(3 2.048618096e-16 0)
(3 -1.627757243e-15 0)
(3 -1.913040082e-15 0)
(3 -1.791999008e-15 0)
(3 -3.096573153e-16 0)
(3 8.363502591e-16 0)
(3 2.264953991e-15 0)
(3 -9.180263863e-16 0)
(3 -1.49598632e-15 0)
(3 -3.956322468e-15 0)
(3 -6.100735435e-15 0)
(3 -4.891271744e-15 0)
(3 -7.228984056e-15 0)
(3 -7.028126672e-15 0)
(3 -3.517437538e-15 0)
(3 -2.240374064e-15 0)
(3 -3.045447765e-15 0)
(3 -3.487445484e-15 0)
(3 -3.966162884e-15 0)
(3 -5.011233868e-15 0)
(3 -5.26610879e-15 0)
(3 -6.968025384e-15 0)
(3 -8.307429412e-15 0)
(3 -9.500131992e-15 0)
(3 -8.423434869e-15 0)
(3 -7.223688712e-15 0)
(3 -5.784236693e-15 0)
(3 -2.966058269e-15 0)
(3 -1.626686492e-15 0)
(3 7.882474439e-16 0)
(3 1.139235411e-15 0)
(3 2.410435665e-15 0)
(3 1.920670098e-15 0)
(3 7.664668411e-16 0)
(3 6.983863327e-16 0)
(3 3.271335185e-16 0)
(3 2.666438953e-16 0)
(3 1.781256761e-15 0)
(3 2.318596944e-15 0)
(3 2.563518443e-15 0)
(3 2.031076413e-15 0)
(3 1.423457502e-15 0)
(3 1.460340618e-15 0)
(3 4.852115289e-16 0)
(3 -7.107543945e-16 0)
(3 -1.42406054e-15 0)
(3 -6.055064801e-16 0)
(3 1.417252091e-15 0)
(3 4.073214156e-15 0)
(3 4.808402644e-15 0)
(3 2.807319515e-15 0)
(3 -4.176144954e-16 0)
(3 -1.759321661e-15 0)
(3 -2.091486359e-15 0)
(3 -4.61646357e-15 0)
(3 -6.773891704e-15 0)
(3 -8.736156445e-15 0)
(3 -1.267134118e-14 0)
(3 -1.524896666e-14 0)
(3 -1.601813873e-14 0)
(3 -1.576299107e-14 0)
(3 -1.453628119e-14 0)
(3 -1.632982946e-14 0)
(3 -1.623834829e-14 0)
(3 -1.449683461e-14 0)
(3 -1.285991541e-14 0)
(3 -9.887555766e-15 0)
(3 -6.942228069e-15 0)
(3 -2.976086838e-16 0)
(3 5.481042377e-16 0)
(3 5.824987161e-16 0)
(3 6.461783715e-16 0)
(3 -9.237086238e-16 0)
(3 -1.641802618e-15 0)
(3 -1.098351923e-15 0)
(3 5.267802143e-16 0)
(3 8.633331294e-16 0)
(3 4.815944633e-16 0)
(3 2.110911384e-15 0)
(3 1.798050734e-15 0)
(3 5.35079373e-15 0)
(3 9.148402534e-15 0)
(3 8.150196633e-15 0)
(3 5.124784454e-15 0)
(3 2.622808908e-15 0)
(3 -5.697560477e-17 0)
(3 -2.421479532e-16 0)
(3 -2.163707844e-15 0)
(3 -1.76023163e-15 0)
(3 -4.352897994e-15 0)
(3 -1.16766543e-14 0)
(3 -1.552156645e-14 0)
(3 -1.810541204e-14 0)
(3 -1.722144902e-14 0)
(3 -1.556893589e-14 0)
(3 -1.742995959e-14 0)
(3 -1.904639219e-14 0)
(3 -1.673737495e-14 0)
(3 -1.684569953e-14 0)
(3 -1.68743054e-14 0)
(3 -1.439805387e-14 0)
(3 -1.44064818e-14 0)
(3 7.08619129e-17 0)
(3 -4.059748045e-17 0)
(3 -1.638807703e-15 0)
(3 -3.971298224e-15 0)
(3 -5.986865769e-15 0)
(3 -7.619090458e-15 0)
(3 -6.239416963e-15 0)
(3 -5.410815863e-15 0)
(3 -4.680283124e-15 0)
(3 -2.967457174e-15 0)
(3 -9.517599901e-16 0)
(3 2.907040919e-16 0)
(3 9.470074918e-16 0)
(3 1.887713568e-15 0)
(3 2.37083742e-15 0)
(3 1.153959107e-15 0)
(3 -5.859161563e-16 0)
(3 3.841337601e-16 0)
(3 -1.949291285e-15 0)
(3 -1.501975459e-16 0)
(3 9.20666855e-16 0)
(3 1.117240641e-15 0)
(3 -1.174741564e-15 0)
(3 5.384127559e-16 0)
(3 9.040823365e-16 0)
(3 -6.249173636e-16 0)
(3 -3.714069193e-15 0)
(3 -9.290020311e-15 0)
(3 -1.225927131e-14 0)
(3 -1.417382437e-14 0)
(3 -1.759509281e-14 0)
(3 -2.068656115e-14 0)
(3 -2.255448743e-14 0)
(3 -2.418912504e-14 0)
(3 3.036847346e-16 0)
(3 -1.797598874e-16 0)
(3 -6.664514813e-16 0)
(3 -1.677373569e-15 0)
(3 -1.365277999e-15 0)
(3 -1.154226073e-15 0)
(3 -1.147207315e-15 0)
(3 -1.049133302e-16 0)
(3 1.025220388e-15 0)
(3 1.077362356e-15 0)
(3 3.054974805e-16 0)
(3 -2.970174046e-16 0)
(3 -1.453793685e-15 0)
(3 -3.91796628e-15 0)
(3 -2.979900323e-15 0)
(3 -2.117458949e-15 0)
(3 5.142290957e-16 0)
(3 5.200090881e-15 0)
(3 5.23830695e-15 0)
(3 9.076203708e-15 0)
(3 1.169736747e-14 0)
(3 1.522834342e-14 0)
(3 1.865419643e-14 0)
(3 2.240499229e-14 0)
(3 2.16973207e-14 0)
(3 1.826764438e-14 0)
(3 1.216250218e-14 0)
(3 1.488662722e-15 0)
(3 -8.055123436e-16 0)
(3 -7.681343071e-15 0)
(3 -1.153992687e-14 0)
(3 -1.093872494e-14 0)
(3 -1.261199821e-14 0)
(3 -1.293262229e-14 0)
(3 -5.050044161e-16 0)
(3 -9.885367725e-16 0)
(3 4.72423928e-16 0)
(3 1.206600993e-15 0)
(3 1.15110343e-15 0)
(3 2.355572926e-15 0)
(3 2.865299154e-15 0)
(3 3.56846172e-15 0)
(3 3.494685961e-15 0)
(3 2.61595677e-15 0)
(3 1.339264906e-15 0)
(3 -8.731496823e-16 0)
(3 -2.468235476e-15 0)
(3 -7.65376602e-15 0)
(3 -7.949149182e-15 0)
(3 -6.64370248e-15 0)
(3 -2.087897216e-15 0)
(3 3.476412486e-15 0)
(3 5.150370146e-15 0)
(3 8.512659358e-15 0)
(3 1.37582169e-14 0)
(3 2.053935035e-14 0)
(3 2.681016798e-14 0)
(3 2.635797288e-14 0)
(3 2.487364537e-14 0)
(3 1.897751093e-14 0)
(3 1.108198919e-14 0)
(3 2.920419913e-15 0)
(3 -8.365654545e-16 0)
(3 -4.10108698e-15 0)
(3 -5.57642777e-15 0)
(3 -5.352811582e-15 0)
(3 1.693787093e-15 0)
(3 1.028053841e-15 0)
(3 9.579453153e-16 0)
(3 1.311736775e-15 0)
(3 6.2865713e-16 0)
(3 -4.279747493e-16 0)
(3 6.518564126e-16 0)
(3 3.514957076e-16 0)
(3 8.58430182e-16 0)
(3 -6.303014981e-16 0)
(3 -1.991290614e-15 0)
(3 -2.890239342e-15 0)
(3 -3.00086593e-15 0)
(3 -6.430938143e-15 0)
(3 -8.161988076e-15 0)
(3 -9.382595209e-15 0)
(3 -7.424337715e-15 0)
(3 -3.557623613e-15 0)
(3 -1.406735063e-16 0)
(3 2.343162569e-15 0)
(3 4.040007237e-15 0)
(3 7.04693322e-15 0)
(3 6.402381647e-15 0)
(3 6.413874866e-15 0)
(3 8.087047632e-15 0)
(3 5.200660618e-15 0)
(3 2.241898989e-15 0)
(3 6.570293363e-16 0)
(3 -1.711326157e-15 0)
(3 -4.6808802e-15 0)
(3 -5.48338457e-15 0)
(3 -3.386685154e-15 0)
(3 -2.045268948e-16 0)
(3 1.021067242e-15 0)
(3 5.869127266e-15 0)
(3 2.866019336e-15 0)
(3 2.531673934e-16 0)
(3 3.444515486e-15 0)
(3 2.251422321e-15 0)
(3 5.419369884e-16 0)
(3 1.030731889e-16 0)
(3 -1.132015931e-15 0)
(3 -2.754291549e-15 0)
(3 -4.441959793e-15 0)
(3 -5.274158931e-15 0)
(3 -4.737999387e-15 0)
(3 -1.177397714e-15 0)
(3 -1.895591547e-15 0)
(3 1.15967317e-16 0)
(3 4.711850475e-15 0)
(3 5.712154004e-15 0)
(3 7.422234124e-15 0)
(3 7.041320892e-15 0)
(3 6.598372064e-15 0)
(3 3.281780704e-15 0)
(3 3.33739457e-15 0)
(3 -6.553426064e-16 0)
(3 -4.931148868e-15 0)
(3 -6.912480811e-15 0)
(3 -1.214583659e-14 0)
(3 -1.49193868e-14 0)
(3 -1.502187099e-14 0)
(3 -1.344530052e-14 0)
(3 -1.298658937e-14 0)
(3 -8.026003295e-15 0)
(3 -5.756449354e-15 0)
(3 -1.641119909e-15 0)
(3 3.546412804e-15 0)
(3 6.52237142e-15 0)
(3 8.958172739e-15 0)
(3 -3.823903493e-16 0)
(3 -8.440931333e-17 0)
(3 1.522201515e-15 0)
(3 3.004424582e-15 0)
(3 -9.885776005e-16 0)
(3 -1.611233149e-15 0)
(3 -2.527686907e-15 0)
(3 -2.510523977e-15 0)
(3 -2.045204566e-15 0)
(3 -1.774639529e-15 0)
(3 2.467090787e-15 0)
(3 5.880402843e-15 0)
(3 6.466015167e-15 0)
(3 5.741309601e-15 0)
(3 4.496528134e-15 0)
(3 3.504762033e-15 0)
(3 4.757727582e-15 0)
(3 4.744862827e-15 0)
(3 1.369621502e-15 0)
(3 -1.538630134e-15 0)
(3 -2.926312769e-15 0)
(3 -3.328762199e-15 0)
(3 -6.318229092e-15 0)
(3 -7.777625328e-15 0)
(3 -1.058368451e-14 0)
(3 -1.288306789e-14 0)
(3 -1.163205961e-14 0)
(3 -8.268800074e-15 0)
(3 -1.225888903e-15 0)
(3 4.483496717e-15 0)
(3 5.308384362e-15 0)
(3 4.755104687e-15 0)
(3 4.222866048e-15 0)
(3 6.53368533e-15 0)
(3 -1.318580419e-17 0)
(3 -1.768182218e-15 0)
(3 -8.153051238e-16 0)
(3 1.262189152e-15 0)
(3 7.480234535e-16 0)
(3 4.576762801e-16 0)
(3 3.826062906e-17 0)
(3 1.054181901e-17 0)
(3 2.575993688e-15 0)
(3 4.036644998e-15 0)
(3 1.686438568e-15 0)
(3 2.79782074e-15 0)
(3 2.782569479e-15 0)
(3 2.948613992e-16 0)
(3 -1.252141456e-15 0)
(3 -1.031950177e-15 0)
(3 -1.915440725e-15 0)
(3 -3.515061526e-15 0)
(3 -4.853581197e-15 0)
(3 -4.615745751e-15 0)
(3 -5.083724023e-15 0)
(3 -5.5785676e-15 0)
(3 -5.863094205e-15 0)
(3 -4.768715692e-15 0)
(3 -4.19694928e-15 0)
(3 -7.827556077e-15 0)
(3 -1.228363772e-14 0)
(3 -1.191264728e-14 0)
(3 -7.214962749e-15 0)
(3 -3.996862611e-15 0)
(3 -7.145437996e-16 0)
(3 -3.060188979e-17 0)
(3 -2.226856489e-15 0)
(3 -3.140344799e-15 0)
(3 5.856168961e-16 0)
(3 3.934664884e-16 0)
(3 -2.292558492e-15 0)
(3 -9.548672217e-16 0)
(3 1.089610975e-15 0)
(3 2.346206113e-15 0)
(3 3.320009493e-15 0)
(3 3.405654068e-15 0)
(3 1.436666456e-15 0)
(3 -1.138004963e-15 0)
(3 -5.390392366e-15 0)
(3 -5.878507981e-15 0)
(3 -4.465964158e-15 0)
(3 -1.287096936e-15 0)
(3 -9.959573331e-16 0)
(3 -8.04759403e-16 0)
(3 -5.120200195e-15 0)
(3 -4.88394179e-15 0)
(3 -3.962411649e-15 0)
(3 -5.878501328e-15 0)
(3 -7.240372213e-15 0)
(3 -8.041049085e-15 0)
(3 -3.248930894e-15 0)
(3 -1.094109514e-16 0)
(3 2.89550516e-15 0)
(3 2.277150537e-15 0)
(3 1.148753781e-15 0)
(3 2.305062137e-15 0)
(3 3.258196365e-15 0)
(3 1.844080535e-15 0)
(3 -1.034308868e-15 0)
(3 -3.295339498e-15 0)
(3 -2.665765459e-15 0)
(3 -5.736910125e-15 0)
(3 -1.305313399e-15 0)
(3 -9.588781956e-16 0)
(3 -2.206646882e-15 0)
(3 -1.343923524e-15 0)
(3 1.109912481e-15 0)
(3 2.821576741e-15 0)
(3 4.046094678e-15 0)
(3 2.263358575e-15 0)
(3 -2.57260411e-15 0)
(3 -5.611553897e-15 0)
(3 -4.200955317e-15 0)
(3 -4.241795177e-15 0)
(3 -2.58597565e-15 0)
(3 6.074293023e-16 0)
(3 1.617482838e-15 0)
(3 3.370227827e-15 0)
(3 3.442520844e-15 0)
(3 6.185458305e-15 0)
(3 7.048735464e-15 0)
(3 5.343788865e-15 0)
(3 3.520033546e-15 0)
(3 5.027160431e-15 0)
(3 7.62686216e-15 0)
(3 1.061493791e-14 0)
(3 1.672782473e-14 0)
(3 1.720931872e-14 0)
(3 1.877814067e-14 0)
(3 1.863308794e-14 0)
(3 1.482607848e-14 0)
(3 8.371140967e-15 0)
(3 2.068631879e-15 0)
(3 8.972257704e-16 0)
(3 -5.372889891e-16 0)
(3 1.106339002e-15 0)
(3 -1.500551171e-15 0)
(3 -1.086404504e-15 0)
(3 1.597614525e-15 0)
(3 -7.971319348e-17 0)
(3 -3.758302151e-16 0)
(3 4.660565437e-16 0)
(3 8.154537414e-16 0)
(3 1.734535461e-16 0)
(3 2.743314285e-15 0)
(3 4.281865788e-15 0)
(3 7.905216869e-15 0)
(3 9.830067549e-15 0)
(3 9.898851873e-15 0)
(3 9.923861533e-15 0)
(3 9.480251475e-15 0)
(3 9.646305618e-15 0)
(3 9.756385339e-15 0)
(3 8.985136453e-15 0)
(3 1.012526923e-14 0)
(3 1.248530852e-14 0)
)
;

boundaryField
{
    inlet
    {
        type            fixedValue;
        value           uniform (3 0 0);
    }
    outlet
    {
        type            inletOutlet;
        inletValue      nonuniform 0();
        value           nonuniform 0();
    }
    bottom
    {
        type            slip;
    }
    top
    {
        type            slip;
    }
    obstacle
    {
        type            slip;
    }
    defaultFaces
    {
        type            empty;
    }
    procBoundary24to18
    {
        type            processor;
        value           nonuniform List<vector> 
34
(
(3 1.146716003e-15 0)
(3 1.623327729e-15 0)
(3 6.723522212e-16 0)
(3 -1.807826387e-15 0)
(3 -2.320211729e-15 0)
(3 -4.305390706e-15 0)
(3 -7.885640766e-15 0)
(3 -1.11735355e-14 0)
(3 -9.996552553e-15 0)
(3 -7.904728094e-15 0)
(3 -4.499939713e-15 0)
(3 -2.170161844e-15 0)
(3 -8.01879052e-16 0)
(3 7.413828714e-17 0)
(3 2.240950681e-16 0)
(3 2.821781013e-15 0)
(3 4.132926799e-15 0)
(3 5.141320191e-15 0)
(3 5.892886665e-15 0)
(3 8.237140192e-15 0)
(3 6.36342259e-15 0)
(3 7.812186832e-15 0)
(3 1.082269258e-14 0)
(3 1.096952583e-14 0)
(3 -1.372316141e-15 0)
(3 -1.189731452e-15 0)
(3 -5.622578308e-17 0)
(3 4.893958999e-16 0)
(3 5.366537149e-16 0)
(3 -2.451179819e-16 0)
(3 -3.570287601e-15 0)
(3 -4.879000548e-15 0)
(3 -3.589321867e-15 0)
(3 -3.589321867e-15 0)
)
;
    }
    procBoundary24to19
    {
        type            processor;
        value           uniform (3 9.511039647e-15 0);
    }
    procBoundary24to25
    {
        type            processor;
        value           nonuniform List<vector> 
16
(
(3 1.206882429e-14 0)
(3 1.664814143e-14 0)
(3 7.373567077e-15 0)
(3 -1.844901167e-15 0)
(3 -3.165972331e-15 0)
(3 -4.371734667e-15 0)
(3 -8.868313818e-15 0)
(3 -2.181461731e-14 0)
(3 -1.431530617e-14 0)
(3 -5.640433968e-15 0)
(3 -2.681777057e-15 0)
(3 8.948461151e-15 0)
(3 7.870401775e-15 0)
(3 -6.426158891e-16 0)
(3 -2.549982104e-15 0)
(3 1.314932103e-15 0)
)
;
    }
    procBoundary24to30
    {
        type            processor;
        value           nonuniform List<vector> 
35
(
(3 1.689441607e-14 0)
(3 1.846906424e-14 0)
(3 1.563303768e-14 0)
(3 1.405061836e-14 0)
(3 1.660599035e-14 0)
(3 1.790436512e-14 0)
(3 1.961833024e-14 0)
(3 1.70725007e-14 0)
(3 1.232785138e-14 0)
(3 8.626679759e-15 0)
(3 5.639162644e-15 0)
(3 3.175073751e-15 0)
(3 2.160044959e-15 0)
(3 1.255155063e-15 0)
(3 5.749562152e-16 0)
(3 2.351823528e-15 0)
(3 2.974375805e-15 0)
(3 1.898461646e-15 0)
(3 2.011619453e-15 0)
(3 2.204732309e-15 0)
(3 3.242011516e-15 0)
(3 4.942988079e-15 0)
(3 6.488322854e-15 0)
(3 7.663610868e-15 0)
(3 9.356356138e-15 0)
(3 1.067692478e-14 0)
(3 1.362562195e-14 0)
(3 1.72587663e-14 0)
(3 1.409575988e-14 0)
(3 1.197040635e-14 0)
(3 1.244574534e-14 0)
(3 1.2483607e-14 0)
(3 1.471707852e-14 0)
(3 1.689441607e-14 0)
(3 1.417325211e-14 0)
)
;
    }
}


// ************************************************************************* //
