/*--------------------------------*- C++ -*----------------------------------*\
  =========                 |
  \\      /  F ield         | OpenFOAM: The Open Source CFD Toolbox
   \\    /   O peration     | Website:  https://openfoam.org
    \\  /    A nd           | Version:  7
     \\/     M anipulation  |
\*---------------------------------------------------------------------------*/
FoamFile
{
    version     2.0;
    format      ascii;
    class       volVectorField;
    location    "4.8";
    object      U;
}
// * * * * * * * * * * * * * * * * * * * * * * * * * * * * * * * * * * * * * //

dimensions      [0 1 -1 0 0 0 0];

internalField   nonuniform List<vector> 
555
(
(3 4.989834812e-15 0)
(3 6.264024668e-15 0)
(3 5.207748701e-15 0)
(3 4.744507303e-15 0)
(3 3.877669646e-15 0)
(3 7.661029584e-15 0)
(3 8.283738327e-15 0)
(3 7.633819443e-15 0)
(3 8.337124429e-15 0)
(3 5.70526713e-15 0)
(3 6.046668371e-15 0)
(3 3.93595917e-15 0)
(3 4.009669004e-16 0)
(3 -1.562590334e-15 0)
(3 3.266869347e-16 0)
(3 2.945172538e-16 0)
(3 2.39356501e-15 0)
(3 1.947674143e-15 0)
(3 1.002891997e-15 0)
(3 2.064992512e-15 0)
(3 2.556227982e-15 0)
(3 3.287535204e-15 0)
(3 2.159706498e-15 0)
(3 1.165464207e-15 0)
(3 -1.636546554e-15 0)
(3 -2.691629401e-15 0)
(3 -1.738989502e-15 0)
(3 -2.680464514e-15 0)
(3 -1.692775294e-15 0)
(3 -1.016631306e-15 0)
(3 -1.277724156e-16 0)
(3 3.471732017e-15 0)
(3 8.784011938e-15 0)
(3 1.18889899e-14 0)
(3 1.323071464e-14 0)
(3 1.179490182e-14 0)
(3 8.752724626e-15 0)
(3 7.526476723e-15 0)
(3 5.161355602e-15 0)
(3 4.071555585e-15 0)
(3 1.242024964e-15 0)
(3 -1.574823378e-15 0)
(3 -4.972023327e-15 0)
(3 -8.682436978e-15 0)
(3 -1.069912905e-14 0)
(3 -1.174618787e-14 0)
(3 -1.122243513e-14 0)
(3 -1.019587718e-14 0)
(3 -1.220832586e-14 0)
(3 -1.255426746e-14 0)
(3 -1.20192427e-14 0)
(3 4.886614995e-17 0)
(3 1.352598017e-15 0)
(3 2.091018508e-15 0)
(3 1.606963483e-15 0)
(3 3.333327855e-16 0)
(3 -1.788565783e-15 0)
(3 -2.628149003e-15 0)
(3 -2.181096055e-15 0)
(3 2.961373053e-16 0)
(3 -6.520882408e-16 0)
(3 1.068135583e-16 0)
(3 9.876835216e-16 0)
(3 1.200638858e-15 0)
(3 3.290642632e-15 0)
(3 6.169325852e-15 0)
(3 8.081119111e-15 0)
(3 6.336326096e-15 0)
(3 5.993526439e-15 0)
(3 3.880326985e-15 0)
(3 2.121761722e-15 0)
(3 -3.91718112e-15 0)
(3 -4.876413724e-15 0)
(3 -9.514969464e-15 0)
(3 -1.144865819e-14 0)
(3 -1.708600539e-14 0)
(3 -2.36140601e-14 0)
(3 -2.41335958e-14 0)
(3 -2.008904713e-14 0)
(3 -1.414143015e-14 0)
(3 -1.421750351e-14 0)
(3 -1.520388213e-14 0)
(3 -1.66414863e-14 0)
(3 -1.600569402e-14 0)
(3 -3.217068309e-16 0)
(3 -9.611096845e-16 0)
(3 -1.594118788e-15 0)
(3 -1.096820323e-15 0)
(3 -1.144323871e-15 0)
(3 -4.44344173e-16 0)
(3 5.194219411e-16 0)
(3 1.479161425e-15 0)
(3 1.577576452e-15 0)
(3 3.973647234e-15 0)
(3 3.579900427e-15 0)
(3 3.715539409e-15 0)
(3 3.560820162e-15 0)
(3 5.570629501e-15 0)
(3 2.358278133e-15 0)
(3 -1.843566265e-15 0)
(3 -1.906204833e-15 0)
(3 -2.138192172e-15 0)
(3 -1.482037807e-15 0)
(3 -8.728742022e-16 0)
(3 -3.748558604e-15 0)
(3 -5.113263838e-15 0)
(3 -6.240835812e-15 0)
(3 -5.749163736e-15 0)
(3 -8.033991545e-15 0)
(3 -1.070884111e-14 0)
(3 -1.568094593e-14 0)
(3 -1.588886741e-14 0)
(3 -1.397868061e-14 0)
(3 -1.420571687e-14 0)
(3 -1.319578835e-14 0)
(3 -1.334636645e-14 0)
(3 -1.379689393e-14 0)
(3 1.62792499e-16 0)
(3 -7.858528538e-17 0)
(3 -1.505224779e-15 0)
(3 -7.051873379e-16 0)
(3 4.150004897e-16 0)
(3 3.807505612e-15 0)
(3 2.872031049e-15 0)
(3 1.991676105e-15 0)
(3 1.738683027e-15 0)
(3 1.379210462e-15 0)
(3 2.860081856e-15 0)
(3 1.015019927e-15 0)
(3 -2.028536272e-16 0)
(3 -1.206291538e-15 0)
(3 -5.059236583e-15 0)
(3 -8.520065791e-15 0)
(3 -8.893864939e-15 0)
(3 -7.70062047e-15 0)
(3 -6.303858348e-15 0)
(3 -5.708038878e-15 0)
(3 -4.888580921e-15 0)
(3 -3.032540208e-15 0)
(3 -1.631407821e-15 0)
(3 -1.231509906e-15 0)
(3 8.697002783e-16 0)
(3 3.598761862e-16 0)
(3 -1.038437529e-15 0)
(3 -3.314459077e-15 0)
(3 -6.028231932e-15 0)
(3 -7.843040747e-15 0)
(3 -8.388608031e-15 0)
(3 -8.427571655e-15 0)
(3 -9.587313138e-15 0)
(3 6.677500648e-16 0)
(3 1.613756173e-15 0)
(3 2.85544984e-15 0)
(3 2.962017291e-15 0)
(3 2.751176105e-15 0)
(3 3.415680342e-15 0)
(3 3.740575662e-15 0)
(3 3.532174039e-15 0)
(3 4.643271269e-15 0)
(3 4.06973741e-15 0)
(3 3.794040909e-15 0)
(3 2.471797365e-15 0)
(3 -9.115632973e-16 0)
(3 -6.045285071e-15 0)
(3 -9.851176897e-15 0)
(3 -8.021650101e-15 0)
(3 -7.771032096e-15 0)
(3 -7.299806233e-15 0)
(3 -7.785158599e-15 0)
(3 -7.795007372e-15 0)
(3 -5.555367939e-15 0)
(3 -4.312399763e-15 0)
(3 -1.204478403e-15 0)
(3 -1.5740929e-15 0)
(3 1.019904691e-15 0)
(3 4.554526206e-15 0)
(3 7.183019484e-15 0)
(3 7.258223578e-15 0)
(3 3.778883359e-15 0)
(3 7.84566807e-18 0)
(3 -1.680424205e-15 0)
(3 -5.779204841e-15 0)
(3 -6.532451923e-15 0)
(3 -1.366218261e-15 0)
(3 -2.867421776e-16 0)
(3 2.6566597e-16 0)
(3 4.868404438e-16 0)
(3 -4.395089841e-16 0)
(3 -1.584394595e-16 0)
(3 3.657061532e-16 0)
(3 1.296707231e-15 0)
(3 2.105804201e-15 0)
(3 4.36697291e-15 0)
(3 4.728143426e-15 0)
(3 6.053459864e-15 0)
(3 5.335842244e-15 0)
(3 4.746451127e-15 0)
(3 9.095105804e-16 0)
(3 -4.356994205e-15 0)
(3 -4.329190264e-15 0)
(3 -4.680313422e-15 0)
(3 -4.849609734e-15 0)
(3 -4.472955118e-15 0)
(3 -3.835530695e-15 0)
(3 -3.859825597e-15 0)
(3 -5.0188298e-15 0)
(3 -3.883522168e-15 0)
(3 5.528984125e-16 0)
(3 6.709231467e-15 0)
(3 7.044771224e-15 0)
(3 3.076146724e-15 0)
(3 1.958386429e-16 0)
(3 -4.431903762e-16 0)
(3 -1.06684319e-15 0)
(3 -1.392342859e-15 0)
(3 -4.122963679e-15 0)
(3 -4.585941195e-16 0)
(3 -2.346129247e-15 0)
(3 -2.940950029e-15 0)
(3 -3.356247946e-15 0)
(3 -3.454246349e-15 0)
(3 -5.13225914e-15 0)
(3 -6.671568523e-15 0)
(3 -8.680569751e-15 0)
(3 -8.301297305e-15 0)
(3 -5.343354542e-15 0)
(3 -1.442283616e-15 0)
(3 5.874567632e-15 0)
(3 7.113206245e-15 0)
(3 8.372219968e-15 0)
(3 6.28968039e-15 0)
(3 3.415639109e-15 0)
(3 4.821891722e-15 0)
(3 4.453796085e-15 0)
(3 4.116457459e-15 0)
(3 4.331635244e-15 0)
(3 3.385019034e-15 0)
(3 2.541972474e-15 0)
(3 1.088509039e-16 0)
(3 -1.144774158e-15 0)
(3 -3.501726029e-15 0)
(3 -2.731021701e-15 0)
(3 -4.601792814e-15 0)
(3 -1.052375083e-14 0)
(3 -1.204989839e-14 0)
(3 -9.66970123e-15 0)
(3 -6.774867451e-15 0)
(3 -5.266861977e-15 0)
(3 -4.222299967e-15 0)
(3 9.887669724e-17 0)
(3 -8.51483617e-16 0)
(3 -2.855525995e-15 0)
(3 -4.040430434e-15 0)
(3 -5.508817645e-15 0)
(3 -7.322158771e-15 0)
(3 -7.165507655e-15 0)
(3 -8.795059863e-15 0)
(3 -6.212015712e-15 0)
(3 -4.661385221e-15 0)
(3 -2.060125008e-15 0)
(3 1.789750999e-15 0)
(3 2.748297734e-15 0)
(3 5.18042445e-15 0)
(3 5.888230509e-15 0)
(3 1.103839568e-14 0)
(3 1.210588804e-14 0)
(3 1.218324967e-14 0)
(3 9.531497646e-15 0)
(3 9.219932159e-15 0)
(3 5.942825553e-15 0)
(3 1.827389382e-15 0)
(3 -3.026843856e-15 0)
(3 -5.468972304e-15 0)
(3 -1.0712534e-14 0)
(3 -1.536898442e-14 0)
(3 -1.917017322e-14 0)
(3 -2.009016116e-14 0)
(3 -1.904485154e-14 0)
(3 -1.733910259e-14 0)
(3 -1.171170115e-14 0)
(3 -7.378350139e-15 0)
(3 -2.220616315e-15 0)
(3 5.194722606e-17 0)
(3 -1.286350462e-16 0)
(3 -2.170900769e-15 0)
(3 -4.79514447e-15 0)
(3 -4.818127335e-15 0)
(3 -1.585942903e-15 0)
(3 1.159160801e-15 0)
(3 2.506851217e-15 0)
(3 2.19126049e-15 0)
(3 2.084489796e-15 0)
(3 2.800735494e-15 0)
(3 3.312112181e-15 0)
(3 6.471237236e-15 0)
(3 6.245669784e-15 0)
(3 6.626961028e-15 0)
(3 8.449548296e-15 0)
(3 8.398443935e-15 0)
(3 6.729012659e-15 0)
(3 2.979496426e-15 0)
(3 4.614453172e-18 0)
(3 -2.649783522e-15 0)
(3 -7.632035789e-15 0)
(3 -1.208891677e-14 0)
(3 -1.51365467e-14 0)
(3 -1.715173097e-14 0)
(3 -1.727675681e-14 0)
(3 -1.646308031e-14 0)
(3 -9.673222265e-15 0)
(3 -5.390973028e-15 0)
(3 -2.87090564e-15 0)
(3 -1.070678549e-15 0)
(3 5.364958322e-15 0)
(3 1.414812455e-14 0)
(3 4.294391128e-16 0)
(3 -6.782139987e-17 0)
(3 3.351492529e-16 0)
(3 -1.474531655e-16 0)
(3 -1.830900201e-15 0)
(3 -5.111906929e-16 0)
(3 1.181473485e-15 0)
(3 4.02748647e-15 0)
(3 6.306908656e-15 0)
(3 6.644109015e-15 0)
(3 5.931846552e-15 0)
(3 4.350369575e-15 0)
(3 5.275830178e-15 0)
(3 4.140394532e-15 0)
(3 3.546413921e-15 0)
(3 5.669235879e-16 0)
(3 -2.569673525e-15 0)
(3 -5.050173719e-15 0)
(3 -1.089109778e-14 0)
(3 -1.549455816e-14 0)
(3 -1.544936897e-14 0)
(3 -1.145541704e-14 0)
(3 -9.528328561e-15 0)
(3 -9.927815037e-15 0)
(3 -1.340883998e-14 0)
(3 -1.818088647e-14 0)
(3 -1.164874836e-14 0)
(3 -3.108252204e-15 0)
(3 1.005212773e-16 0)
(3 1.600123439e-15 0)
(3 3.484908924e-15 0)
(3 8.431725596e-15 0)
(3 1.131833703e-14 0)
(3 -1.259855242e-16 0)
(3 1.954145056e-15 0)
(3 3.390552682e-15 0)
(3 5.999189514e-15 0)
(3 5.13362772e-15 0)
(3 2.678652633e-15 0)
(3 3.555895869e-15 0)
(3 4.407988442e-15 0)
(3 7.627337906e-15 0)
(3 7.479338244e-15 0)
(3 4.980707271e-15 0)
(3 3.127994375e-15 0)
(3 -1.556846694e-16 0)
(3 -1.373203287e-15 0)
(3 -3.141246934e-15 0)
(3 -5.165821892e-15 0)
(3 -9.516864963e-15 0)
(3 -1.002855781e-14 0)
(3 -1.565164158e-14 0)
(3 -1.641407531e-14 0)
(3 -1.910812465e-14 0)
(3 -1.764342943e-14 0)
(3 -1.148830062e-14 0)
(3 -1.188783369e-14 0)
(3 -1.138638165e-14 0)
(3 -5.404190434e-15 0)
(3 1.082851538e-15 0)
(3 3.332575757e-15 0)
(3 6.495157816e-15 0)
(3 8.177228988e-15 0)
(3 8.189866348e-15 0)
(3 6.410979373e-15 0)
(3 4.165156808e-15 0)
(3 -3.443292427e-16 0)
(3 2.242516346e-15 0)
(3 4.051270056e-15 0)
(3 4.901329252e-15 0)
(3 6.632765071e-15 0)
(3 6.417728016e-15 0)
(3 3.999432815e-15 0)
(3 7.393211009e-16 0)
(3 -2.102310076e-15 0)
(3 -3.006986682e-15 0)
(3 -3.183409097e-15 0)
(3 -2.738227366e-15 0)
(3 -2.595194338e-15 0)
(3 -1.447854533e-15 0)
(3 -3.402637692e-15 0)
(3 -1.150380071e-15 0)
(3 -6.821334599e-16 0)
(3 -2.468907492e-15 0)
(3 -4.855125818e-15 0)
(3 -2.986173186e-15 0)
(3 -4.024734663e-15 0)
(3 -2.418815273e-15 0)
(3 -1.468520701e-15 0)
(3 1.880705663e-15 0)
(3 4.381644249e-15 0)
(3 9.134447508e-15 0)
(3 8.877849116e-15 0)
(3 6.090852373e-15 0)
(3 4.82268842e-15 0)
(3 8.300704175e-15 0)
(3 7.337856588e-15 0)
(3 3.34209777e-15 0)
(3 -2.217722359e-15 0)
(3 -7.050114781e-16 0)
(3 -2.299614337e-15 0)
(3 -3.741475508e-15 0)
(3 -3.169646818e-15 0)
(3 -4.787961938e-16 0)
(3 4.519998295e-16 0)
(3 -9.726454875e-16 0)
(3 -2.216760928e-15 0)
(3 -4.580048205e-15 0)
(3 -6.755464799e-15 0)
(3 -7.173399825e-15 0)
(3 -6.127888714e-15 0)
(3 -5.98351978e-15 0)
(3 -2.907380064e-15 0)
(3 9.789266942e-16 0)
(3 2.50498463e-15 0)
(3 5.990933398e-15 0)
(3 6.693335458e-15 0)
(3 8.496898264e-15 0)
(3 1.121627168e-14 0)
(3 1.08384785e-14 0)
(3 9.968584766e-15 0)
(3 1.112383379e-14 0)
(3 1.329969738e-14 0)
(3 1.313067702e-14 0)
(3 1.041871441e-14 0)
(3 6.811981778e-15 0)
(3 5.544911588e-15 0)
(3 3.207562635e-15 0)
(3 1.921720611e-15 0)
(3 -2.716451569e-16 0)
(3 -2.644858659e-15 0)
(3 -7.362732847e-15 0)
(3 -4.490590669e-16 0)
(3 7.161963318e-16 0)
(3 5.760015426e-16 0)
(3 -9.925953458e-16 0)
(3 8.932531379e-16 0)
(3 1.225686044e-15 0)
(3 2.462996995e-15 0)
(3 3.065771291e-15 0)
(3 3.506188843e-15 0)
(3 2.131070441e-15 0)
(3 6.192232202e-16 0)
(3 -9.98075705e-16 0)
(3 -2.025334642e-15 0)
(3 -1.086850236e-15 0)
(3 1.118272201e-15 0)
(3 2.46721552e-15 0)
(3 3.465559308e-15 0)
(3 8.508327342e-15 0)
(3 1.245388591e-14 0)
(3 1.276038766e-14 0)
(3 1.27251135e-14 0)
(3 1.387678933e-14 0)
(3 1.023948374e-14 0)
(3 9.049764191e-15 0)
(3 1.22828835e-14 0)
(3 9.688859723e-15 0)
(3 7.592812039e-15 0)
(3 6.269553626e-15 0)
(3 4.593702009e-15 0)
(3 9.582787538e-16 0)
(3 -3.282509409e-15 0)
(3 -3.962262439e-15 0)
(3 -1.304480931e-16 0)
(3 2.969170336e-16 0)
(3 2.524417965e-15 0)
(3 7.719358659e-15 0)
(3 6.483099356e-15 0)
(3 5.180265218e-15 0)
(3 7.031541935e-15 0)
(3 9.63759993e-15 0)
(3 1.062002687e-14 0)
(3 1.011300798e-14 0)
(3 9.656994656e-15 0)
(3 9.050809681e-15 0)
(3 8.267792822e-15 0)
(3 6.495513827e-15 0)
(3 2.99368346e-15 0)
(3 -9.103763902e-16 0)
(3 -2.411675693e-15 0)
(3 -4.530310066e-15 0)
(3 -2.30312424e-15 0)
(3 8.163373323e-16 0)
(3 3.357552535e-15 0)
(3 5.434359554e-15 0)
(3 1.016833815e-14 0)
(3 1.002091101e-14 0)
(3 1.213717714e-14 0)
(3 1.028815865e-14 0)
(3 1.026197224e-14 0)
(3 9.245907741e-15 0)
(3 7.553204855e-15 0)
(3 4.862567941e-15 0)
(3 3.73068537e-15 0)
(3 2.927794969e-15 0)
(3 7.683763117e-15 0)
(3 1.285051367e-14 0)
(3 3.815178436e-16 0)
(3 -8.873178925e-16 0)
(3 -3.510998339e-16 0)
(3 1.639961412e-15 0)
(3 2.358650133e-15 0)
(3 2.93836609e-15 0)
(3 6.546336077e-15 0)
(3 8.010452512e-15 0)
(3 1.074916406e-14 0)
(3 1.111723699e-14 0)
(3 1.030640971e-14 0)
(3 7.998931534e-15 0)
(3 5.434115721e-15 0)
(3 4.264953523e-15 0)
(3 1.642730154e-15 0)
(3 -4.543568422e-15 0)
(3 -6.757502816e-15 0)
(3 -5.915030904e-15 0)
(3 -2.172692749e-15 0)
(3 1.927834555e-15 0)
(3 7.067675189e-15 0)
(3 8.727818773e-15 0)
(3 1.041345259e-14 0)
(3 1.084866244e-14 0)
(3 9.796408945e-15 0)
(3 1.099028066e-14 0)
(3 1.246147494e-14 0)
(3 1.153079793e-14 0)
(3 1.534494473e-14 0)
(3 1.733005395e-14 0)
(3 1.864531321e-14 0)
(3 1.781969787e-14 0)
(3 9.325331242e-15 0)
(3 4.453033548e-16 0)
(3 -1.804971848e-15 0)
(3 -3.512161049e-15 0)
(3 -7.128903624e-16 0)
(3 4.759062366e-16 0)
(3 9.086816849e-16 0)
(3 1.157414278e-16 0)
(3 -5.342363765e-16 0)
(3 -5.614641171e-16 0)
)
;

boundaryField
{
    inlet
    {
        type            fixedValue;
        value           uniform (3 0 0);
    }
    outlet
    {
        type            inletOutlet;
        inletValue      nonuniform 0();
        value           nonuniform 0();
    }
    bottom
    {
        type            slip;
    }
    top
    {
        type            slip;
    }
    obstacle
    {
        type            slip;
    }
    defaultFaces
    {
        type            empty;
    }
    procBoundary18to12
    {
        type            processor;
        value           nonuniform List<vector> 
34
(
(3 -3.048099871e-15 0)
(3 -3.474616713e-15 0)
(3 -4.019284368e-15 0)
(3 -1.914847096e-15 0)
(3 8.049774157e-16 0)
(3 5.258919476e-15 0)
(3 5.35177803e-15 0)
(3 4.260115721e-15 0)
(3 3.17672148e-15 0)
(3 6.259116771e-15 0)
(3 9.129682394e-15 0)
(3 9.057918943e-15 0)
(3 7.464638608e-15 0)
(3 6.687868221e-15 0)
(3 4.465240515e-15 0)
(3 6.58559883e-15 0)
(3 8.840870548e-15 0)
(3 9.024482678e-15 0)
(3 -8.867061669e-17 0)
(3 -1.813161992e-16 0)
(3 -2.806859548e-16 0)
(3 6.349199595e-17 0)
(3 2.264235154e-16 0)
(3 1.840443494e-15 0)
(3 2.725718749e-15 0)
(3 2.864543634e-15 0)
(3 1.370189423e-15 0)
(3 2.013400855e-15 0)
(3 1.52723163e-15 0)
(3 3.271630445e-15 0)
(3 3.691015892e-15 0)
(3 4.088309941e-15 0)
(3 3.892974356e-15 0)
(3 3.892974356e-15 0)
)
;
    }
    procBoundary18to19
    {
        type            processor;
        value           nonuniform List<vector> 
17
(
(3 3.097319654e-15 0)
(3 -9.69081064e-15 0)
(3 -1.364367405e-14 0)
(3 -1.280838221e-14 0)
(3 -9.583031502e-15 0)
(3 -8.752119901e-15 0)
(3 -4.880300097e-15 0)
(3 -1.696378995e-16 0)
(3 5.496320447e-15 0)
(3 1.412535516e-14 0)
(3 1.167231196e-14 0)
(3 2.86845965e-15 0)
(3 -5.960726382e-15 0)
(3 -8.987136855e-15 0)
(3 9.947327322e-16 0)
(3 1.404254018e-14 0)
(3 1.493605135e-15 0)
)
;
    }
    procBoundary18to24
    {
        type            processor;
        value           nonuniform List<vector> 
34
(
(3 2.059613066e-16 0)
(3 1.736287133e-15 0)
(3 1.808710485e-15 0)
(3 2.545770168e-15 0)
(3 3.390127251e-15 0)
(3 4.380213749e-15 0)
(3 3.2269345e-15 0)
(3 4.51099385e-15 0)
(3 8.058867321e-15 0)
(3 9.363600756e-15 0)
(3 1.077942143e-14 0)
(3 1.425200073e-14 0)
(3 1.247416213e-14 0)
(3 1.039626392e-14 0)
(3 6.833797551e-15 0)
(3 1.137522765e-14 0)
(3 1.161577277e-14 0)
(3 1.126045098e-14 0)
(3 1.267596872e-14 0)
(3 1.450434541e-14 0)
(3 1.46600239e-14 0)
(3 1.321178891e-14 0)
(3 6.683193132e-15 0)
(3 -3.260957751e-16 0)
(3 -7.345779561e-18 0)
(3 2.134237905e-16 0)
(3 8.610883731e-16 0)
(3 1.230863834e-15 0)
(3 5.848248443e-16 0)
(3 -4.906460958e-16 0)
(3 -2.562116817e-15 0)
(3 -5.026788943e-15 0)
(3 2.059613066e-16 0)
(3 -4.923967879e-15 0)
)
;
    }
}


// ************************************************************************* //
