/*--------------------------------*- C++ -*----------------------------------*\
  =========                 |
  \\      /  F ield         | OpenFOAM: The Open Source CFD Toolbox
   \\    /   O peration     | Website:  https://openfoam.org
    \\  /    A nd           | Version:  7
     \\/     M anipulation  |
\*---------------------------------------------------------------------------*/
FoamFile
{
    version     2.0;
    format      ascii;
    class       volScalarField;
    location    "0.3";
    object      rho;
}
// * * * * * * * * * * * * * * * * * * * * * * * * * * * * * * * * * * * * * //

dimensions      [1 -3 0 0 0 0 0];

internalField   nonuniform List<scalar> 
2222
(
1.40856842
1.40537201
1.424661554
1.422150357
1.421756333
1.421476587
1.421566912
1.423827447
1.424896462
1.424503508
1.424235963
1.42595391
1.427082838
1.426749622
1.425730766
1.424995013
1.42361288
1.421263956
1.418456023
1.41483093
1.412415084
1.411526104
1.412043749
1.411866413
1.411348457
1.410798924
1.410345594
1.409669914
1.408766776
1.405539632
1.436764829
1.435418067
1.435229936
1.436083451
1.43394286
1.429023974
1.424425882
1.421967303
1.421381663
1.421617202
1.422676233
1.424422476
1.424838677
1.424302931
1.424315266
1.426238781
1.42777536
1.427407539
1.426729006
1.425249749
1.423666218
1.421430978
1.418147143
1.414764469
1.412732313
1.412427591
1.412175601
1.411720429
1.411106592
1.410741774
1.410239112
1.409752327
1.408972128
1.405598819
1.438270416
1.435531282
1.434813496
1.435528173
1.433565825
1.428524775
1.423498412
1.421463757
1.421241984
1.422247761
1.423887971
1.424392319
1.424684043
1.424318859
1.424569727
1.426748367
1.42863737
1.427900471
1.426778134
1.425498658
1.423752691
1.42134353
1.417693794
1.41487787
1.413519754
1.412761519
1.411973464
1.411474221
1.410842227
1.410401652
1.410148498
1.409883766
1.409133788
1.405627599
1.439622509
1.436006975
1.434996739
1.435490831
1.433794563
1.42816051
1.422805224
1.42105674
1.421334438
1.423661046
1.424198428
1.423998427
1.424302984
1.424374519
1.42509343
1.427511402
1.429063053
1.428232201
1.426853435
1.425603981
1.423907423
1.420958693
1.41744945
1.415296053
1.413838709
1.412615384
1.4117083
1.410937439
1.410409542
1.410180955
1.410237886
1.410165877
1.409143838
1.405599663
1.441792363
1.436416602
1.435549322
1.435684818
1.434024231
1.428393946
1.423201763
1.421594297
1.422675602
1.424728048
1.423904116
1.423432915
1.423776372
1.424425553
1.425713164
1.427984272
1.429196594
1.428552404
1.427107378
1.425668878
1.423683934
1.420130417
1.417448031
1.415538768
1.413875092
1.412424133
1.411283628
1.410323939
1.410107512
1.410278601
1.410563063
1.41003839
1.409001478
1.405577834
1.44285237
1.437583312
1.43647852
1.435821774
1.433870363
1.428460798
1.424281489
1.423342497
1.424669626
1.424821204
1.423449578
1.423265398
1.423658502
1.424552149
1.42614163
1.42824393
1.429252437
1.428779246
1.427401844
1.425806875
1.423017191
1.419578182
1.417564992
1.415663275
1.413824968
1.412168041
1.410540157
1.4100226
1.410129773
1.410654695
1.410759555
1.409907822
1.408830833
1.405527522
1.442196506
1.438070124
1.436363396
1.435406323
1.433253199
1.428313367
1.425656821
1.424836161
1.425088526
1.42438462
1.423144744
1.422800988
1.423492147
1.424819719
1.426525149
1.428342041
1.429271874
1.428917012
1.427591687
1.425400751
1.422111452
1.419660506
1.417767182
1.415787797
1.413631635
1.41144191
1.410034781
1.409749224
1.410516749
1.411186749
1.410736662
1.409747659
1.408749918
1.405511291
1.43676025
1.435432223
1.434693377
1.432811464
1.429076814
1.42701235
1.42495514
1.424449
1.423918382
1.422516091
1.422422158
1.423481308
1.425370285
1.426766652
1.428348271
1.429341463
1.428971526
1.42746578
1.42468194
1.421927011
1.420016349
1.418046726
1.415838795
1.413305524
1.41087549
1.409888982
1.410017891
1.411140844
1.411371847
1.410702726
1.40969101
1.408712853
1.405506828
1.435066757
1.43401956
1.434169629
1.432933055
1.430681184
1.427871121
1.424802047
1.423733478
1.423343029
1.422160817
1.422279634
1.424028656
1.425790988
1.42683465
1.428287192
1.429005624
1.428580847
1.426832048
1.424361968
1.422264793
1.420426636
1.41836709
1.415807165
1.412848332
1.410906399
1.409906757
1.410743077
1.411446761
1.411249381
1.410542352
1.409625838
1.408664903
1.405480352
1.435114414
1.433177039
1.433849751
1.433368636
1.431889198
1.427965015
1.424484394
1.423485877
1.422967594
1.422064412
1.422661745
1.424847796
1.425915193
1.426799087
1.428311289
1.428392697
1.427697152
1.426317603
1.424523637
1.422769336
1.42105337
1.418768068
1.41563001
1.41285389
1.411080466
1.410774568
1.411121522
1.411128025
1.411000644
1.410354238
1.409659261
1.40874155
1.405509603
1.434239432
1.433259923
1.434019892
1.434395518
1.432324672
1.427315503
1.423854434
1.422837637
1.422756473
1.42229747
1.423378638
1.42531555
1.425932062
1.426590962
1.427906947
1.427435615
1.426868348
1.426325157
1.424852099
1.423344466
1.421882253
1.419056682
1.415541193
1.413114398
1.412004524
1.411787105
1.411254734
1.410687193
1.410403568
1.409981549
1.40954095
1.408713098
1.405521499
1.433672106
1.434243709
1.435317502
1.435436579
1.432259445
1.42674107
1.423547274
1.42254338
1.423026454
1.422923771
1.423920575
1.425346882
1.425843164
1.426259208
1.426563774
1.4270164
1.426818783
1.426353982
1.425218883
1.424512265
1.422706134
1.41917888
1.415745992
1.413862787
1.412940844
1.412013892
1.411130027
1.410194355
1.409606311
1.409537649
1.40933868
1.408666371
1.405545366
1.437297317
1.437032481
1.436617166
1.435908468
1.432079572
1.426651804
1.424052871
1.423194494
1.423590968
1.423391085
1.424215878
1.42532728
1.425535468
1.425377065
1.425195377
1.426982617
1.426885958
1.426484149
1.425972718
1.425766507
1.423085412
1.419150571
1.416199807
1.414598437
1.413114382
1.411989669
1.410928176
1.40945424
1.408934482
1.409096778
1.409103416
1.408610767
1.405574576
1.441466478
1.438041345
1.43698057
1.435824768
1.432055724
1.42724599
1.424821885
1.423940427
1.423944467
1.42370723
1.424503676
1.425367776
1.425027364
1.424038461
1.424913233
1.426946201
1.427118142
1.426778137
1.427201474
1.426291247
1.423246649
1.419241806
1.416827688
1.414837488
1.413185247
1.411895794
1.410363198
1.408765411
1.408624078
1.40883412
1.408894548
1.408612608
1.405569054
1.4419261
1.437085666
1.436567745
1.43545422
1.432551562
1.42845057
1.424966749
1.423775275
1.423857816
1.423911763
1.424738079
1.425227301
1.424927788
1.423779147
1.424960101
1.427126248
1.427512122
1.427752623
1.427811601
1.426399821
1.423196149
1.419587989
1.417213115
1.415031266
1.413152602
1.411557546
1.409364208
1.408480859
1.408531358
1.408785158
1.408819271
1.408349234
1.405460784
1.441087955
1.435587343
1.435917187
1.435235242
1.433418705
1.42905597
1.424893655
1.423551351
1.423821384
1.424155977
1.424663348
1.424823413
1.424488777
1.423783144
1.42523959
1.427854246
1.428295533
1.42813356
1.427766837
1.426369467
1.422913063
1.419948893
1.417496832
1.4152067
1.412921551
1.410631889
1.40898608
1.408403751
1.408624068
1.408964798
1.408861327
1.408192843
1.40529865
1.439971683
1.434920754
1.435456373
1.435487067
1.434026532
1.428988946
1.425157556
1.424306227
1.424629165
1.424222707
1.424238464
1.424198775
1.424278071
1.424047448
1.42616008
1.4283672
1.42830169
1.42807999
1.427533057
1.425570744
1.422533748
1.420213551
1.417741095
1.415166364
1.412150539
1.409810839
1.408830472
1.408438375
1.40892043
1.409307925
1.408861398
1.408061763
1.405132382
1.437664671
1.43465677
1.435336963
1.435883699
1.434172662
1.428812533
1.425476493
1.424841505
1.425164146
1.42424459
1.423584946
1.423955021
1.424507016
1.424825902
1.426853428
1.428382207
1.428297286
1.427864699
1.426799544
1.42468699
1.422449712
1.4204153
1.417799505
1.414809262
1.411503904
1.409674722
1.408845787
1.408891384
1.409684548
1.409493785
1.408813055
1.407909403
1.404945335
1.436378399
1.434769105
1.436167745
1.436190916
1.433795254
1.428845422
1.425873105
1.424844801
1.424839154
1.423882894
1.423373455
1.423837821
1.424889791
1.425399869
1.426983956
1.428366096
1.428194506
1.4274269
1.426166505
1.424554301
1.422683908
1.420328507
1.417575712
1.414373476
1.41158258
1.409819001
1.409292687
1.409908312
1.41000173
1.409488508
1.408696858
1.407696422
1.404886034
1.436301999
1.436629341
1.437061066
1.436270451
1.433065757
1.429210722
1.426294817
1.424743104
1.424519938
1.423348969
1.423097658
1.424078629
1.425139787
1.425614554
1.426935766
1.428166961
1.427973724
1.427359954
1.426188415
1.424647718
1.422955
1.420490289
1.417437706
1.414485294
1.412029598
1.410331082
1.410559152
1.410403075
1.410070594
1.409410886
1.40846746
1.407550157
1.404896481
1.438151649
1.438638208
1.437148068
1.4359837
1.432749296
1.429677914
1.426579202
1.424911942
1.424519821
1.423086071
1.423213869
1.424651739
1.425153319
1.425609666
1.42683365
1.427908914
1.427971443
1.427467399
1.426335365
1.424829196
1.423189465
1.420805272
1.417702394
1.414864969
1.412697138
1.41153569
1.410742461
1.410378395
1.410040471
1.409166605
1.408258287
1.40752761
1.404952575
1.440998248
1.439410975
1.436809624
1.434976224
1.432788837
1.43009155
1.426360512
1.424568579
1.424213679
1.423475569
1.424098786
1.424818587
1.42500729
1.425447063
1.426594437
1.427805011
1.427898657
1.427626506
1.426632952
1.425244269
1.423812029
1.421232454
1.418036395
1.415411187
1.413659159
1.412087486
1.411082221
1.41032512
1.409603185
1.408661989
1.408162031
1.407541566
1.405008115
1.442372686
1.439154097
1.435847249
1.434341762
1.432974012
1.430668855
1.426164189
1.42435632
1.424086008
1.424106305
1.424631879
1.424670481
1.424775517
1.425212528
1.426425583
1.427784346
1.427845453
1.427720131
1.426946364
1.426027819
1.424286808
1.421409874
1.41827544
1.41596275
1.414131596
1.412462334
1.411374398
1.410338134
1.409003614
1.408183529
1.408011461
1.407561626
1.40506628
1.43814351
1.435085935
1.434928362
1.434364936
1.431530116
1.426618878
1.425024215
1.424928916
1.424642484
1.424483947
1.424454601
1.424331809
1.42486915
1.426330221
1.427814408
1.427879789
1.427914364
1.42752922
1.426611124
1.424617537
1.421590864
1.418486708
1.416175032
1.414229973
1.412702526
1.411166251
1.4096028
1.408449093
1.408110725
1.407949143
1.4075865
1.405113859
1.437310667
1.436086926
1.436651623
1.43632169
1.432831101
1.427594549
1.425965899
1.425821922
1.424787191
1.424213275
1.42393986
1.423925265
1.424756048
1.426362604
1.427995743
1.428150583
1.42818875
1.427825014
1.426701594
1.424781785
1.421707021
1.418575343
1.416274201
1.414359573
1.412554924
1.410765078
1.408953642
1.408277196
1.408151051
1.408018563
1.407509406
1.405059731
1.438006679
1.438224421
1.438594219
1.43744326
1.433538577
1.428418325
1.426217089
1.425834424
1.424630066
1.423787282
1.423545201
1.423944633
1.424934354
1.426836221
1.428161568
1.428129493
1.428029236
1.427761971
1.426679021
1.424614158
1.4215019
1.418523214
1.416237289
1.414543185
1.412335674
1.409702975
1.408761965
1.408499924
1.408224792
1.408116879
1.407571495
1.405037919
1.439992868
1.438955214
1.438849457
1.437483395
1.433707541
1.428608516
1.426174636
1.425742046
1.424436525
1.423730517
1.423545048
1.424270739
1.425820991
1.427308177
1.428135948
1.428078012
1.427887346
1.427401306
1.426279735
1.424023421
1.421078578
1.418388978
1.416163959
1.414184181
1.41129479
1.408983867
1.408655404
1.408852364
1.408430992
1.408102191
1.407591601
1.404994036
1.440487229
1.438660279
1.438434819
1.437231779
1.433676283
1.428811102
1.426110526
1.425556467
1.424379499
1.423784869
1.423968128
1.425233064
1.426463619
1.427293333
1.428108794
1.427956285
1.427519862
1.426690264
1.425444662
1.423318005
1.420923414
1.418482583
1.41625018
1.413649321
1.41034218
1.408917624
1.40879021
1.409002019
1.408716514
1.408140404
1.407475564
1.404798526
1.440151047
1.438069182
1.437496829
1.436519962
1.433518541
1.428684605
1.426146902
1.425639171
1.42460683
1.424288319
1.424786293
1.425745246
1.426558676
1.427301176
1.427867884
1.427631493
1.42680784
1.425968009
1.424882797
1.42303174
1.421040621
1.418753166
1.416154148
1.412849076
1.410255859
1.409220724
1.409139659
1.408998002
1.408889294
1.40814631
1.407206261
1.404698268
1.439312023
1.43697948
1.436627565
1.435976595
1.433339974
1.428764752
1.426351774
1.425921824
1.42502321
1.424673969
1.425077693
1.425768675
1.426585491
1.427498785
1.427516007
1.426950976
1.426187925
1.425677097
1.424754232
1.423075649
1.421220442
1.41893578
1.415738053
1.412434675
1.410488199
1.409668176
1.40952716
1.409306315
1.408791084
1.407900061
1.406844918
1.404678303
1.437982696
1.436286946
1.436438247
1.435907216
1.433358303
1.429548255
1.426951654
1.426465494
1.425306046
1.424874966
1.425237033
1.425837631
1.426682513
1.427215509
1.426846459
1.42639371
1.426190545
1.425696257
1.424778482
1.423216648
1.421485436
1.4189855
1.415242496
1.412533721
1.41085174
1.410239461
1.409979378
1.409584233
1.408469221
1.407481958
1.406968883
1.404788122
1.437828492
1.436142198
1.436404988
1.4360464
1.434299579
1.431099486
1.427548922
1.426699154
1.42556712
1.42500462
1.425306426
1.42595694
1.426551458
1.42653503
1.426447358
1.426404793
1.426338603
1.425865721
1.424876242
1.423724622
1.422129124
1.418932304
1.41513841
1.412869274
1.411337845
1.410942361
1.410225643
1.409389841
1.40776452
1.407755656
1.407281853
1.405037154
1.438032591
1.436821097
1.437251951
1.437510556
1.436479416
1.432109318
1.427763451
1.426863053
1.425736992
1.424980557
1.425298296
1.426121924
1.426292097
1.426036325
1.426453199
1.426651206
1.426582967
1.426250827
1.425345625
1.42425133
1.422257217
1.41871508
1.4152371
1.413298715
1.412101566
1.41131691
1.41036912
1.408718433
1.407811889
1.407935469
1.407526235
1.405369753
1.439765112
1.439796962
1.439919231
1.439516017
1.437353473
1.432448262
1.427904735
1.426798514
1.425691281
1.424876833
1.425602415
1.426316412
1.426121093
1.425962404
1.42674416
1.426966175
1.426850553
1.426708085
1.426090805
1.424686762
1.422073618
1.418318768
1.415371209
1.413870991
1.412578792
1.411344188
1.409743527
1.408296134
1.407936323
1.408146785
1.407889475
1.405786353
1.442820955
1.441741107
1.440500786
1.439784967
1.43739659
1.432637518
1.42776788
1.426590374
1.425697235
1.425167309
1.425985098
1.426591902
1.426182289
1.426141738
1.427120726
1.427390997
1.427308928
1.427297674
1.426521799
1.424843913
1.421875275
1.417782774
1.41548524
1.414061835
1.412643317
1.410957826
1.408816843
1.408432608
1.408162463
1.408476371
1.408354483
1.405949005
1.443445166
1.441823549
1.440611368
1.439920584
1.437406939
1.432270685
1.427518494
1.426674901
1.426108416
1.425622994
1.426519218
1.426839821
1.426372443
1.426478215
1.427610237
1.428090421
1.427908627
1.427583835
1.426572631
1.42469274
1.420870093
1.417367218
1.415634787
1.41420805
1.412613167
1.409902001
1.408585556
1.408559182
1.408555285
1.409038489
1.408794449
1.405974862
1.443810568
1.442014295
1.439962798
1.438893487
1.436267368
1.431591028
1.427762602
1.427039674
1.426659647
1.426458163
1.427165949
1.426929388
1.426544941
1.426804274
1.42833855
1.428769036
1.428284007
1.427598647
1.426525677
1.424093593
1.419899651
1.41736989
1.41574101
1.414160079
1.41185907
1.409371977
1.408686304
1.408652158
1.409215266
1.409624692
1.409008248
1.405909569
1.443214135
1.440850389
1.438009639
1.437124049
1.435252623
1.431458991
1.428322981
1.427618908
1.427670402
1.427409425
1.427478226
1.426883943
1.42651041
1.427311021
1.429027613
1.428913399
1.42839943
1.42744762
1.425794789
1.422744975
1.419740086
1.41748539
1.415684987
1.413638151
1.411085453
1.40950261
1.408891376
1.409171135
1.409766174
1.409703309
1.408950977
1.405811897
1.441924296
1.439312663
1.437421673
1.437132817
1.435559533
1.432021999
1.429712005
1.429058924
1.428579835
1.427621371
1.427114296
1.42639954
1.426534378
1.428038672
1.429221275
1.428883505
1.427950168
1.426662826
1.424824572
1.422332008
1.419856942
1.417794183
1.4156607
1.413316231
1.411116405
1.409981539
1.409631756
1.409858416
1.409883494
1.409656892
1.408820183
1.405690117
1.443060615
1.441324653
1.440212821
1.440096987
1.438938405
1.435208652
1.43126255
1.430413179
1.429133399
1.427538518
1.426952609
1.426953956
1.427165254
1.42786339
1.42846343
1.428036535
1.427253965
1.426448495
1.425295645
1.423463573
1.421105442
1.418305577
1.41573785
1.413725732
1.411840536
1.410936275
1.410449836
1.410195668
1.409856159
1.409051568
1.408212062
1.405440442
1.444167143
1.443443248
1.441269358
1.439828085
1.438798844
1.436085894
1.432734533
1.430637066
1.42906958
1.428035121
1.427542238
1.42736958
1.427439103
1.428355465
1.428849616
1.428144881
1.427237917
1.426477624
1.425454293
1.423734748
1.421342263
1.41852209
1.416073574
1.414220554
1.41241876
1.41146846
1.411006653
1.410726972
1.410332598
1.409733933
1.408855112
1.405790547
1.445316874
1.445146492
1.442916249
1.440508651
1.43942381
1.437349053
1.434651188
1.431745428
1.429901487
1.429124369
1.428690806
1.428338071
1.428255836
1.429028667
1.429043018
1.428095187
1.427119469
1.426360012
1.425415805
1.423796207
1.421389739
1.418646188
1.416347061
1.414531029
1.412813965
1.412066779
1.41171042
1.411380797
1.410926428
1.410258786
1.409312171
1.405949464
1.445636265
1.445805856
1.444862338
1.442104618
1.440441763
1.438650306
1.436433953
1.433493206
1.431355868
1.430418602
1.429926874
1.429437864
1.4290436
1.429420441
1.429186148
1.428113985
1.427075423
1.42631102
1.425416399
1.423915294
1.421590327
1.418985942
1.416907218
1.415135419
1.41352007
1.412912116
1.412619789
1.412257094
1.411741416
1.410931071
1.409790483
1.406049655
1.446526238
1.446560136
1.446133455
1.443916927
1.441590524
1.440065906
1.438191434
1.435244787
1.432871948
1.43179791
1.431269674
1.430907758
1.430182911
1.429831018
1.429447513
1.428338513
1.427205129
1.426321763
1.425426066
1.424026562
1.421837315
1.419377216
1.417404683
1.415757096
1.41429144
1.413739797
1.413418684
1.413025364
1.412434985
1.411466646
1.410140676
1.406064648
1.448007393
1.447624565
1.447171646
1.445134356
1.442258831
1.441080478
1.43958389
1.436727491
1.434174655
1.43289174
1.432414569
1.432429322
1.43147484
1.430256507
1.42958045
1.428580714
1.427455088
1.426437438
1.425504877
1.42419063
1.422175877
1.419897948
1.41796434
1.416410562
1.415127734
1.414476863
1.414032731
1.413549336
1.412886062
1.411816291
1.410372496
1.406023295
1.448629498
1.448540415
1.448243282
1.446144049
1.443014128
1.442059298
1.440792271
1.437909258
1.435158258
1.433763417
1.433385598
1.433603317
1.432480895
1.430697121
1.429739378
1.428825962
1.42772909
1.426703028
1.42567228
1.424358406
1.422475483
1.420315087
1.41839608
1.416882514
1.415769721
1.415063086
1.414541206
1.413999852
1.413265376
1.412043221
1.410461223
1.405927928
1.449956605
1.44961386
1.449295566
1.446931788
1.443752455
1.44315392
1.44208614
1.439260875
1.436171054
1.434700171
1.434276683
1.434375561
1.433264758
1.43126281
1.430031477
1.429163674
1.427927808
1.426793051
1.425869759
1.424595388
1.422792126
1.420697451
1.4187843
1.417309615
1.416276896
1.415574465
1.414979338
1.414319637
1.413447368
1.412088447
1.410445957
1.405730983
1.449934371
1.44986177
1.449786996
1.447574663
1.444812267
1.444534355
1.443419508
1.440511563
1.437048571
1.435441844
1.434917133
1.43492634
1.433988873
1.431952311
1.430537855
1.429610545
1.428209237
1.426909215
1.426060521
1.424892265
1.423139244
1.421075391
1.419171995
1.417696367
1.416648829
1.415891874
1.41520173
1.414410535
1.413436435
1.412021082
1.410313658
1.405479163
1.450218455
1.450279924
1.450294574
1.448145214
1.446134604
1.446189905
1.4450747
1.44208705
1.438170019
1.436263451
1.43558023
1.435488676
1.434694721
1.432751593
1.431195377
1.430153005
1.428611215
1.427047028
1.426214885
1.425187776
1.423547613
1.421527983
1.419591442
1.418032314
1.416888548
1.41602844
1.415248888
1.41437699
1.413275144
1.411785835
1.410044456
1.405131341
1.450674234
1.450902206
1.450796303
1.448590507
1.447061517
1.447297043
1.446403602
1.44347874
1.439360592
1.437113617
1.436263601
1.436107611
1.435407825
1.433590695
1.431961776
1.430818937
1.429108107
1.427181861
1.42636295
1.425513349
1.4240008
1.422007696
1.420006121
1.418327893
1.417062107
1.416089755
1.415231148
1.414357032
1.413286781
1.411686164
1.409836938
1.404757659
1.451628279
1.451997029
1.451619966
1.449140653
1.447771433
1.44811634
1.447523096
1.444744824
1.440514201
1.437974958
1.436957155
1.436733138
1.43607847
1.434348161
1.432707552
1.43151423
1.429689301
1.427355934
1.426434803
1.425762117
1.424409478
1.422443527
1.420374302
1.418589701
1.417224131
1.416165505
1.415235417
1.414302413
1.413184419
1.411551878
1.409619521
1.404339848
1.45276584
1.453377536
1.452920063
1.45041171
1.449144887
1.449453262
1.448728228
1.446011375
1.441708435
1.438860758
1.437582633
1.437227942
1.436610919
1.435010856
1.433388256
1.432167433
1.430292127
1.427628898
1.426464246
1.425931304
1.424754393
1.422822048
1.420683115
1.418810982
1.417386132
1.416286269
1.415306043
1.414302927
1.413094678
1.411430025
1.409473242
1.40396961
1.453556362
1.45449611
1.454349139
1.452014637
1.451105286
1.451385268
1.450333018
1.44757048
1.443068364
1.439832821
1.438291999
1.437779481
1.437157673
1.435670211
1.43405297
1.432782233
1.430896499
1.428013603
1.426454905
1.425996341
1.425012687
1.423149135
1.420958814
1.419007344
1.417551141
1.416466976
1.415478179
1.414378698
1.413029621
1.411224684
1.409195521
1.403495358
1.454496771
1.455195774
1.455225892
1.453148658
1.452434064
1.45283559
1.451782322
1.449052533
1.444709632
1.441197163
1.439428527
1.43867974
1.43784148
1.4363959
1.434775804
1.433359551
1.431447002
1.428535309
1.42649033
1.426001223
1.425192763
1.423429736
1.421209062
1.419219815
1.417754565
1.416655992
1.415631276
1.414465954
1.413006608
1.411037017
1.408848799
1.402830468
1.456187147
1.456613175
1.456218197
1.454122896
1.45336495
1.453779625
1.452985643
1.450279896
1.446483364
1.442773095
1.440803981
1.439777236
1.438670259
1.437186041
1.435525039
1.433954269
1.432030986
1.429199431
1.426633792
1.425949511
1.425249448
1.423622745
1.421440316
1.419456242
1.417963981
1.416792333
1.415696312
1.414497969
1.413015221
1.410954784
1.408618708
1.402205729
1.458258408
1.458882842
1.458227096
1.45600273
1.454886458
1.455095846
1.454480913
1.451821007
1.448397714
1.44497738
1.442605338
1.440872064
1.439427519
1.437940154
1.436329332
1.434688651
1.432705977
1.429984662
1.426962885
1.425844297
1.425211536
1.423746524
1.421642767
1.419667777
1.418145194
1.416896143
1.415706344
1.414438806
1.412842409
1.410629481
1.408134931
1.40135546
1.459306457
1.460646903
1.460472705
1.458128083
1.45668065
1.456776564
1.456126003
1.453544029
1.449962638
1.447095821
1.444318343
1.44187177
1.440107282
1.438623929
1.437120917
1.435489225
1.433432899
1.430811556
1.427565819
1.425917247
1.425168084
1.423840087
1.421831768
1.419861496
1.418280303
1.416987356
1.415698505
1.414268503
1.412499401
1.410105873
1.407457407
1.400374045
1.460118124
1.461577337
1.461638734
1.459280992
1.457912696
1.458144727
1.457657266
1.455093286
1.451347852
1.448617517
1.445802238
1.443066296
1.441027484
1.439528118
1.438121492
1.436436293
1.43421695
1.431482222
1.428189045
1.425588844
1.424946538
1.423918039
1.422068527
1.420064705
1.418387734
1.417041734
1.415755219
1.41427185
1.412333549
1.409729664
1.406849259
1.399330647
1.463188589
1.463851371
1.463205741
1.46040433
1.459048959
1.459325709
1.459118139
1.456715006
1.452894446
1.450166275
1.447315489
1.444367785
1.442168876
1.440596987
1.439132593
1.437338514
1.434906793
1.431864111
1.428484044
1.425427026
1.424517401
1.423925861
1.422398396
1.420363518
1.418563952
1.417053166
1.41564745
1.414062062
1.412042365
1.409313647
1.406316822
1.398427781
1.466420082
1.466693534
1.46605076
1.462891515
1.461341133
1.461430108
1.461487663
1.459218852
1.455286057
1.452217089
1.449220022
1.446155731
1.443735461
1.44195842
1.440222867
1.438138394
1.435425099
1.432071871
1.428476622
1.425335365
1.424224143
1.423889746
1.422754773
1.420787327
1.418824651
1.417095162
1.41542951
1.413619981
1.411437894
1.408574473
1.405473171
1.397262869
1.467630732
1.46883513
1.469159649
1.466272212
1.464085255
1.46373684
1.463808078
1.461739149
1.457443622
1.454013139
1.451033472
1.448054867
1.445405967
1.443349362
1.441334883
1.438845489
1.435796742
1.432272735
1.428397249
1.425174908
1.424053561
1.423960091
1.423170239
1.421247374
1.419059513
1.417133556
1.415341722
1.41335896
1.410967353
1.407868986
1.40458311
1.395960872
1.468446532
1.471813365
1.471438207
1.468680107
1.465795764
1.465009973
1.464971464
1.463165153
1.458823623
1.455376625
1.45266504
1.449745214
1.446903607
1.444543629
1.442339545
1.43964252
1.436351622
1.432754712
1.428675301
1.425089466
1.423989939
1.424120167
1.423580625
1.421673932
1.419185777
1.417046834
1.415169042
1.413188495
1.410743109
1.407424029
1.403802888
1.394535469
1.473289137
1.473943455
1.472848894
1.4709095
1.468150931
1.466767631
1.46614461
1.464249488
1.460163765
1.456757217
1.454125303
1.451131977
1.448106258
1.445578967
1.443235845
1.440473485
1.437139088
1.433514467
1.429413013
1.425197743
1.423771316
1.423995038
1.423667101
1.421840533
1.419247806
1.416891719
1.414819938
1.41271028
1.410212085
1.406926924
1.403143816
1.393076014
1.477799014
1.475178643
1.475423705
1.475468795
1.473584833
1.470627524
1.468491728
1.466478029
1.463089314
1.459173019
1.4556713
1.45226827
1.449048792
1.446472438
1.444067436
1.441210795
1.437843026
1.434248269
1.430315683
1.425767805
1.423467749
1.423525819
1.423296212
1.421707229
1.419254843
1.416855141
1.41460512
1.412204373
1.409399062
1.405878609
1.402040547
1.391443123
1.449571922
1.466756048
1.477527598
1.478039099
1.476788213
1.474630244
1.47218509
1.469620162
1.466039138
1.461295917
1.456833308
1.45338507
1.450210576
1.44737777
1.444712205
1.441705681
1.438287425
1.434769516
1.431045693
1.426678376
1.423469962
1.423084928
1.422825877
1.421446868
1.419132111
1.416742361
1.414522371
1.412089068
1.409077855
1.405135737
1.40078483
1.389295514
1.357522223
1.453262887
1.478103699
1.478370649
1.477890829
1.477801118
1.476224324
1.472656362
1.468247747
1.463214907
1.458637946
1.455286292
1.452023446
1.448509222
1.445235187
1.442026762
1.438608838
1.435113842
1.431503955
1.427479965
1.423643798
1.422640487
1.422356056
1.421206122
1.419011698
1.416485521
1.414027566
1.411582946
1.408646624
1.404570332
1.399726584
1.386955066
1.221924637
1.415670276
1.456769257
1.467676357
1.476391872
1.478376951
1.477669098
1.474739946
1.471275765
1.466878337
1.461998668
1.457369362
1.453226972
1.449254107
1.445621625
1.442380712
1.438983317
1.435247875
1.431741187
1.427898524
1.42374063
1.421988458
1.421784401
1.420960427
1.418988104
1.416349825
1.413581674
1.410715029
1.407415376
1.403117891
1.398055398
1.38429663
1.053568144
1.227910049
1.360639229
1.444175408
1.479240901
1.478552126
1.475465806
1.475028141
1.474748847
1.471719152
1.465806384
1.459395508
1.454483069
1.450627233
1.446816204
1.443164281
1.439522705
1.435668483
1.431843791
1.428001136
1.423833081
1.421386838
1.421059046
1.4204923
1.418854404
1.416421563
1.413667286
1.41041211
1.406438142
1.401314963
1.395521676
1.380756829
0.9885018936
1.059112815
1.229728351
1.39633769
1.468419882
1.466694822
1.47153796
1.477349035
1.477496064
1.474693814
1.469446889
1.463239282
1.457715426
1.453235562
1.448460782
1.443863974
1.439816667
1.435784832
1.431808574
1.427949142
)
;

boundaryField
{
    inlet
    {
        type            calculated;
        value           nonuniform 0();
    }
    outlet
    {
        type            calculated;
        value           nonuniform List<scalar> 
69
(
1.405478537
1.40582995
1.405986588
1.406084124
1.406097367
1.40605488
1.405958777
1.405761762
1.405509891
1.405162361
1.404789736
1.404373455
1.404004983
1.403531903
1.402869548
1.402247778
1.40139955
1.40042019
1.399380194
1.398480043
1.39731691
1.396017683
1.394596981
1.393143958
1.391515414
1.389374334
1.38704398
1.384393245
1.380860882
1.405403332
1.405573532
1.405635625
1.405665151
1.405635607
1.405605361
1.405550747
1.405542435
1.405544091
1.405517329
1.405547554
1.405558026
1.405581056
1.405611148
1.40560406
1.40548969
1.405337851
1.405184244
1.404996834
1.404926047
1.40493641
1.404993391
1.405046847
1.405101362
1.405152621
1.405094455
1.405081646
1.405049074
1.4048613
1.404746972
1.404723664
1.404836812
1.405079796
1.405393904
1.405803751
1.405992475
1.406029968
1.405964949
1.405868391
1.405738809
)
;
    }
    bottom
    {
        type            calculated;
        value           nonuniform 0();
    }
    top
    {
        type            calculated;
        value           nonuniform 0();
    }
    obstacle
    {
        type            calculated;
        value           nonuniform 0();
    }
    defaultFaces
    {
        type            empty;
    }
    procBoundary29to23
    {
        type            processor;
        value           nonuniform List<scalar> 
36
(
1.408373153
1.405195016
1.425522157
1.423280643
1.422635054
1.421662053
1.421131545
1.42292213
1.424725726
1.424739741
1.424298226
1.425801602
1.426804885
1.426637583
1.425215807
1.423994874
1.423088352
1.421042811
1.418485163
1.415463497
1.412561443
1.411082541
1.41136157
1.41174979
1.411500536
1.411162
1.410521971
1.409635601
1.409635601
1.437966033
1.436106228
1.436013875
1.436778501
1.434458803
1.429545344
1.429545344
)
;
    }
    procBoundary29to28
    {
        type            processor;
        value           nonuniform List<scalar> 
69
(
1.439730273
1.439552588
1.439421439
1.442089543
1.444491359
1.444093582
1.440869044
1.440869044
1.439988295
1.439745815
1.437857493
1.43633183
1.438001616
1.442380083
1.445238376
1.445009789
1.444326426
1.443165242
1.440187193
1.43804845
1.438075825
1.439292497
1.44184409
1.442458684
1.442458684
1.442068514
1.441855799
1.44272944
1.443370926
1.443074283
1.442283261
1.44107773
1.440061887
1.440344939
1.440755322
1.442549776
1.44376077
1.444154264
1.443646408
1.442807513
1.44350083
1.444342679
1.445425232
1.446306722
1.44738712
1.448684444
1.449889616
1.45112083
1.451752065
1.451697733
1.451653315
1.451589053
1.451770523
1.4524654
1.453818512
1.455703259
1.457628741
1.458560367
1.459833998
1.462409579
1.466353958
1.469014631
1.46444486
1.459976428
1.463200146
1.423313146
1.218695506
1.037731122
0.9708481605
)
;