/*--------------------------------*- C++ -*----------------------------------*\
  =========                 |
  \\      /  F ield         | OpenFOAM: The Open Source CFD Toolbox
   \\    /   O peration     | Website:  https://openfoam.org
    \\  /    A nd           | Version:  7
     \\/     M anipulation  |
\*---------------------------------------------------------------------------*/
FoamFile
{
    version     2.0;
    format      ascii;
    class       volScalarField;
    location    "2";
    object      p;
}
// * * * * * * * * * * * * * * * * * * * * * * * * * * * * * * * * * * * * * //

dimensions      [1 -1 -2 0 0 0 0];

internalField   nonuniform List<scalar> 
2222
(
0.998639402
0.9984884845
0.998330678
0.9983152633
0.9983075897
0.9983329886
0.9983254045
0.998302992
0.998283558
0.9983539216
0.9985516819
0.9986178363
0.9986537221
0.9984926971
0.998266077
0.998488619
0.9993141992
0.9992713875
0.9988966061
0.9988600697
0.9986170465
0.9984557394
0.9982427322
0.9981770148
0.9983602052
0.9987833157
0.998915444
0.9989886602
0.9992276619
0.9994857094
0.9996233254
0.9995689746
0.9993542785
0.9990288871
0.9987848772
0.9985625116
0.9985385066
0.9985671982
0.9985400254
0.9984452349
0.9983877618
0.9983171641
0.9983109516
0.9983465869
0.9983715822
0.998364938
0.9982346581
0.9981765659
0.9984733562
0.9987174481
0.9987773996
0.9986831541
0.9981823791
0.9984732731
0.9990799754
0.9990849924
0.9993490328
0.9991751592
0.9988335565
0.9984675013
0.9981410151
0.998315481
0.9984171337
0.9988524966
0.9989150076
0.998855584
0.9991092475
0.9993615293
0.9995233802
0.9994508792
0.9992958331
0.9990056195
0.9987622066
0.9985402523
0.9984865845
0.998460544
0.9984102387
0.9983845752
0.9984879822
0.99853818
0.9985154561
0.9984969587
0.9985306387
0.9984516401
0.9982496273
0.9981800211
0.9982575179
0.9986742811
0.9987967336
0.9986835752
0.9983918372
0.9985244341
0.9986723307
0.9987676254
0.9995194184
0.9994180168
0.999080779
0.9988012994
0.9986430284
0.9987514253
0.9985425176
0.9984983373
0.9985452993
0.9986331937
0.9989047596
0.9991446526
0.9992982698
0.9992412467
0.9990905427
0.9989082973
0.9987363314
0.9985332417
0.9984909575
0.9984350314
0.9983800509
0.9983915499
0.9985847515
0.9986916291
0.9987162953
0.9986687134
0.9986370081
0.998535124
0.9982751836
0.9981713998
0.9982403872
0.9983896298
0.9986917832
0.998687345
0.9984917536
0.9982933538
0.9981447159
0.9984272267
0.999506979
0.9993853447
0.9990822794
0.9989200484
0.9987587539
0.9985912995
0.9985869891
0.9984674811
0.9984662572
0.9986858939
0.9988786772
0.9991526559
0.999389656
0.9994255324
0.9992722438
0.9990032302
0.998737918
0.9985960941
0.9985596756
0.9984704118
0.9983873566
0.9984455883
0.9986294875
0.9987160682
0.9987481438
0.9986816694
0.9986037195
0.998526587
0.9984004133
0.9982672582
0.9982181202
0.9982638778
0.9984361836
0.9986152732
0.9985107049
0.9978094493
0.9977822183
0.9981845366
0.9990266235
0.9991131777
0.9989940616
0.9988736491
0.9986759025
0.998326889
0.9984334429
0.9982741497
0.9983102349
0.9985326233
0.9988318397
0.9990111417
0.9992367201
0.9994162838
0.9993412455
0.9991132937
0.9988184335
0.9986651531
0.9985960975
0.9984955288
0.9984020285
0.9984515149
0.9984779493
0.9985191756
0.9986113779
0.9986227846
0.99854136
0.9984775758
0.9984634724
0.9984349214
0.9983112761
0.9982451757
0.9982294046
0.998356813
0.9984963644
0.9974778207
0.9974958565
0.9981289829
0.9987221892
0.9989116787
0.9989115198
0.9986329852
0.9983445381
0.9979500494
0.9980153364
0.9980129706
0.9980586595
0.9983529811
0.9986614339
0.9988558004
0.9990204623
0.9993657001
0.9994192003
0.9992557096
0.9989729042
0.9987389149
0.9985517026
0.9984827537
0.9984498901
0.998441024
0.9983606838
0.9983283728
0.9984113576
0.9984958305
0.9984592971
0.9984100664
0.9984672077
0.9985206136
0.9984869784
0.9983123885
0.9981348744
0.9980801479
0.998267467
0.9973266284
0.997557907
0.9983971995
0.9984053943
0.9986375291
0.998790557
0.9983691047
0.998098886
0.9976875853
0.9976290087
0.9978444686
0.9979414688
0.9981638294
0.9984922052
0.9988450228
0.9989259183
0.9992952538
0.9995445926
0.9994075504
0.9990446421
0.9988230152
0.9985965651
0.9985062349
0.998508404
0.9984790309
0.9982751607
0.9982021193
0.9983057095
0.9984183285
0.998430056
0.9983789807
0.9984557347
0.998605977
0.9985851345
0.9984247878
0.9980707455
0.9979804424
0.9980749129
0.9978726387
0.998142302
0.998726702
0.9982424787
0.9983635397
0.9986713909
0.9981771093
0.9979260343
0.9976016495
0.9974598063
0.9977689939
0.997921837
0.9981645197
0.9985616762
0.9990830343
0.9991822297
0.9995930969
0.9996258683
0.9995289145
0.9991069475
0.9988067828
0.9986181564
0.9985632942
0.9985089241
0.9984660645
0.9984000674
0.998288035
0.9983270012
0.9984111203
0.9984538004
0.99841761
0.998396383
0.9985329731
0.9985895458
0.9984472535
0.9982459698
0.9979945176
0.998019309
0.9985405214
0.9985881209
0.9987996904
0.9984602622
0.9984325647
0.9985628517
0.9981884309
0.9980292605
0.9977820601
0.9975126787
0.9977204507
0.998005071
0.9983412721
0.9988991579
0.9994211859
0.9994910202
0.9993375461
0.9997725046
0.9997531974
0.9991886195
0.9987616361
0.9985406621
0.9984967562
0.9984704702
0.9984242362
0.998447341
0.9984898226
0.9985405335
0.9985400446
0.9985625678
0.9985193746
0.9984422159
0.9984373348
0.9984985622
0.9984672712
0.9984553343
0.9982518533
0.9979993769
0.9987356835
0.9988571811
0.9987688798
0.998735557
0.9987964252
0.9984607324
0.9983594935
0.9982630167
0.9981545147
0.9979102094
0.997934566
0.9981470913
0.9985977211
0.9990695774
0.9993632567
0.9994697109
0.999341004
0.9993378041
0.9993151206
0.9992341382
0.9986564466
0.998442887
0.9984367726
0.9984316457
0.998371169
0.9984749879
0.9986735226
0.9987597068
0.9986988833
0.9986309285
0.9986125193
0.9985229908
0.9983900106
0.9983200536
0.9984470819
0.9985447032
0.9985371302
0.9982093423
0.998621359
0.9989141482
0.9987651882
0.9989971642
0.9990287338
0.9984707176
0.9984405157
0.9983723929
0.9985135234
0.9984237811
0.9982393868
0.9983104839
0.9986697092
0.9990162251
0.999191084
0.9993693478
0.9993529768
0.9992601141
0.9991487111
0.9989098421
0.9986034027
0.9984560737
0.9984933447
0.9985025688
0.9984738423
0.9986526642
0.9988378241
0.9988365296
0.9987359359
0.9986520778
0.9986503384
0.9985554725
0.9983165968
0.998195114
0.9982810543
0.9985880103
0.9986159627
0.9984826247
0.9980052474
0.9987713023
0.9988185122
0.9992820022
0.9992188972
0.9987064152
0.9985944744
0.9985398152
0.9988964835
0.9987862655
0.9984979253
0.9985366461
0.9988235402
0.9989040081
0.9990172643
0.9992297157
0.9992927189
0.9992969818
0.9990778628
0.9987821117
0.9986036982
0.9985087552
0.9984047491
0.9984146881
0.9985021333
0.9985875233
0.9987095615
0.9987161244
0.9986096483
0.9984330139
0.9984363505
0.998436193
0.9982974
0.9981257639
0.9980658227
0.9982847427
0.998614658
0.9985581249
0.998132879
0.9985166686
0.9993714572
0.9992907734
0.99901225
0.9989007229
0.9989344082
0.9990843903
0.9989016386
0.9986229272
0.9986873033
0.9989315926
0.9988755956
0.9988266566
0.999000838
0.9990177865
0.9990223254
0.9989954239
0.9987769657
0.9987448876
0.9986516425
0.9985090038
0.9984385776
0.9985460785
0.9985891027
0.9986011406
0.9985447818
0.9984175946
0.9981982473
0.9980752176
0.9981842463
0.9982614049
0.9981255945
0.99796491
0.9978958154
0.9981250438
0.9985186756
0.9976492587
0.9983129251
0.9990409194
0.9988822992
0.9992168786
0.9991485118
0.9991770696
0.9989690692
0.9988887858
0.9986721048
0.9987559799
0.9988564398
0.9988371867
0.9987754705
0.9989953297
0.9991583398
0.9990502826
0.9989326466
0.998851451
0.9988919466
0.9988058636
0.9986483954
0.9984875451
0.9985130709
0.998568968
0.9985386073
0.9984389443
0.9982977543
0.9982096252
0.9980744072
0.9980642103
0.9981269105
0.9981508073
0.9980181266
0.9977799959
0.9977053357
0.9980821376
0.9975139752
0.9981326468
0.998318271
0.9984588286
0.9988934761
0.9990986595
0.9991871795
0.9987783398
0.998553164
0.9983735876
0.9984587963
0.9985659918
0.9988304399
0.9989442568
0.999244859
0.9994426831
0.9992727888
0.9989868389
0.9989275492
0.9989395634
0.9987523105
0.9985886342
0.9984561876
0.9983791746
0.9983895042
0.9983973674
0.998378359
0.9983590552
0.9984378747
0.9983500401
0.9982611467
0.9982235844
0.998245853
0.9981833505
0.997927675
0.9977118021
0.9978709963
0.9975972503
0.9979459852
0.9979331146
0.9983001158
0.9986803057
0.9990671427
0.9989853121
0.9985118288
0.9981663343
0.9980336528
0.9980462476
0.9982843944
0.9988552264
0.9991729646
0.9994167825
0.9995289966
0.9993636263
0.9991097571
0.9989294978
0.9987117689
0.9985157603
0.9984107042
0.9983906071
0.9983109267
0.9982369829
0.9982388001
0.9982990468
0.9984126089
0.9986454842
0.9987660078
0.9986305508
0.9984993016
0.9984242986
0.9983727007
0.9982425023
0.9980229315
0.9979892917
0.9977773061
0.9979046764
0.9978990702
0.9983121844
0.9985896214
0.9988340676
0.9985640364
0.9980510577
0.9977098159
0.9977229485
0.9977865089
0.9981312805
0.9987309138
0.999153074
0.9994077819
0.9993907812
0.9992401511
0.9989765296
0.9988323807
0.998485488
0.9983447521
0.9982864583
0.9983681566
0.9983786572
0.9982854522
0.9982370585
0.9982917519
0.9984530878
0.9987076697
0.9989157236
0.9989068649
0.998773321
0.9985889185
0.9984626235
0.9984839424
0.9984715804
0.9983286711
0.9980612587
0.9980523034
0.9980362415
0.998245725
0.9983390277
0.9983798154
0.9979313019
0.9976416991
0.9974207847
0.997564135
0.9977281448
0.9980644855
0.998647669
0.9990791505
0.999315015
0.9994279564
0.9992873838
0.9989339393
0.9987051459
0.9983619628
0.998266975
0.9982614366
0.998368648
0.9984819222
0.998449855
0.9984052878
0.9984698432
0.9986444622
0.9987569329
0.9988216199
0.9988495413
0.9987880874
0.9985763483
0.9984515799
0.9984879214
0.9986493933
0.9986153931
0.9983306178
0.9983050813
0.9982256466
0.9981792796
0.998139046
0.9979339821
0.9974851491
0.9974663391
0.9974112743
0.9976360464
0.9978626606
0.9981255667
0.998646677
0.9991383943
0.9993592813
0.9995874792
0.9994432594
0.9989695918
0.9984574898
0.9981966164
0.9981588267
0.9982514377
0.9983320674
0.9984922554
0.9985772156
0.9986471402
0.9987575993
0.9988712937
0.9987692851
0.9985972558
0.9985502735
0.9985537087
0.998410883
0.9983051555
0.9983497602
0.9985216259
0.9986002436
0.9984370763
0.9985172875
0.9983963941
0.9982286844
0.9982082403
0.9978839667
0.9975370311
0.9975618688
0.9976026741
0.9978299941
0.9981106218
0.9983792331
0.9987726875
0.9993366602
0.9996051843
0.9996998586
0.9994855926
0.9989028151
0.998205971
0.9980155119
0.9980558826
0.9982191625
0.9982773977
0.9984288543
0.9986337391
0.9988214827
0.998932921
0.9988893134
0.9985910726
0.9983536416
0.9982701007
0.9982571779
0.9981644068
0.9980729559
0.9980768604
0.998205321
0.9983430926
0.9981890314
0.9984744869
0.9985685881
0.9985220127
0.9984863036
0.9981536839
0.9978978864
0.9977993562
0.9978620567
0.9980316031
0.9983526657
0.9987516439
0.9990182688
0.9994673588
0.9996404029
0.9994493256
0.9991486907
0.9985939658
0.9979759295
0.9978222184
0.9979670231
0.9981509977
0.9982175343
0.9983291194
0.9985752834
0.9987764196
0.9988200564
0.9986375457
0.9983497516
0.9982644952
0.998211294
0.9981161602
0.9980091355
0.9979488756
0.997929655
0.9979552873
0.998025702
0.9977930731
0.9982273328
0.9987383859
0.9988643342
0.9987747785
0.9985518392
0.9983607927
0.9981346352
0.9981875517
0.9982738639
0.9985664795
0.9989873256
0.9991181922
0.9992557945
0.9991285851
0.9987255623
0.9984322767
0.9980634914
0.9976845815
0.9976000355
0.9979111583
0.998083078
0.9981855445
0.9982709748
0.9984268786
0.9985429667
0.9985468114
0.9984182782
0.9983209954
0.998340682
0.9983337089
0.9982010187
0.9980669333
0.998006281
0.9979197579
0.9978203377
0.997848176
0.9973926036
0.9978495542
0.9986072562
0.9990121764
0.9990428755
0.9989706132
0.9987938458
0.9985636669
0.9986031041
0.9984590555
0.9985467713
0.9987909624
0.9988161107
0.9988421247
0.9984951404
0.9980667239
0.9979240517
0.9978369472
0.9978786898
0.997971859
0.9980956239
0.9981064878
0.9981910302
0.9982989868
0.9983674289
0.9983469724
0.9982796981
0.9982553301
0.9983237797
0.9983854604
0.9984519378
0.99838653
0.9982480756
0.9981472584
0.9980481007
0.9979595443
0.9979686238
0.9965844939
0.9971539517
0.9983354724
0.9990898356
0.9992789504
0.9992613736
0.9990557227
0.9989334471
0.998859152
0.998424158
0.9982280625
0.9982948471
0.9983627847
0.9984144251
0.9979687687
0.9975645127
0.9976380451
0.9981581731
0.9985901026
0.9985670624
0.9982897497
0.9981466171
0.9982535102
0.9984333295
0.9983984735
0.9982059213
0.9980919477
0.9982239721
0.9984430637
0.998543448
0.9985568738
0.9985306811
0.9984514837
0.9983945644
0.9984189388
0.998416533
0.998379803
0.9963733301
0.9970284963
0.9982810789
0.998963234
0.9992083147
0.9992565654
0.9991516107
0.9991295084
0.9988813581
0.9982783943
0.9978859688
0.9977744048
0.9978137888
0.9977451804
0.9976307841
0.9978485594
0.99816477
0.9988979512
0.9991984574
0.9988563909
0.9983437585
0.9982116083
0.9983049043
0.9984047937
0.9983261204
0.9982232954
0.9982834253
0.998491237
0.9986047805
0.9985898111
0.998490004
0.9985337846
0.9986150297
0.9986722827
0.9987864
0.9988149972
0.9987305761
0.9973291529
0.9983436501
0.9988432789
0.9991274365
0.9991960245
0.9991188554
0.999069622
0.9987322644
0.9981128984
0.9976634166
0.9974038706
0.9974133118
0.9976214076
0.9981655645
0.9987089293
0.9991827642
0.9996800393
0.9996289428
0.999127042
0.9987287835
0.9985698164
0.9983835755
0.9982527592
0.9982934303
0.9984641263
0.9985887386
0.9986156108
0.9984533212
0.9983066346
0.9982842985
0.9984323721
0.9986305693
0.9986989448
0.9987573492
0.9988261841
0.9988455714
0.9973819055
0.9981580204
0.9986396274
0.9989707939
0.999000944
0.9987854307
0.9986486675
0.9983101264
0.9978071638
0.9975247086
0.9974934454
0.997837432
0.9983400472
0.9992234418
0.9997778615
1.000019162
1.000074864
0.9997725341
0.9994082332
0.9991253724
0.998827672
0.9983738256
0.998170041
0.9983115155
0.9985446408
0.9985149542
0.9983273307
0.9982148295
0.9982859667
0.9984516841
0.9985166087
0.9985582024
0.9984548085
0.9983676718
0.9985467875
0.998770988
0.997117139
0.997794672
0.9982012003
0.9984032066
0.9982866311
0.9981162466
0.997991893
0.9979386063
0.9978976242
0.9979955513
0.9982275876
0.9986582881
0.9992153481
1.000053589
1.000462806
1.000465423
1.000078785
0.9996384027
0.9994789722
0.9991401312
0.9986331285
0.9981400151
0.9980347535
0.9981372735
0.9981963839
0.9981247136
0.9982139969
0.9984684424
0.9986733799
0.9987477105
0.9986027988
0.9983213595
0.9980671539
0.9979638796
0.998205063
0.9984761027
0.996814839
0.9974208207
0.9977936418
0.9978123051
0.9977519471
0.9978643261
0.9979197838
0.9981945783
0.9985090015
0.9987673269
0.9990503531
0.9993959194
0.9998983135
1.000526914
1.000725056
1.000382824
0.9997408821
0.9992521799
0.9990086287
0.9985893424
0.9980910414
0.997828664
0.9978262598
0.9978831382
0.9979399081
0.9981138376
0.9984926769
0.9988359117
0.9989775457
0.9988211941
0.9983830569
0.9980021852
0.9978427827
0.997923874
0.998048378
0.9982199956
0.9968185379
0.9972801727
0.9975186797
0.99766631
0.9979615798
0.998224597
0.9983970451
0.9988168054
0.9991890016
0.9993010234
0.9994985746
0.999829018
1.000244508
1.000396362
1.00015601
0.9993623244
0.9985989527
0.998099803
0.997801271
0.9976671244
0.9975543469
0.9976619611
0.9977706189
0.9978758692
0.9980503684
0.9984611629
0.998842379
0.9990175755
0.9988891465
0.9984890015
0.9981187177
0.9979414016
0.9979814899
0.9980911684
0.9980159753
0.998100317
0.9970347707
0.9974393096
0.9975653086
0.9980134281
0.9985757746
0.9987715433
0.9989552019
0.9992770951
0.9995526499
0.9994890933
0.9995007937
0.9996000303
0.9996038358
0.9990808529
0.9983123565
0.9977056778
0.9973332447
0.9971707411
0.997075844
0.9973066581
0.9976193522
0.9978744627
0.9979850052
0.9981848044
0.9984460245
0.9987929747
0.9990316355
0.9988449344
0.9983507246
0.9980431927
0.9980281917
0.9981208098
0.998271832
0.998294914
0.9982348524
0.9982137739
0.9972795213
0.9975641043
0.9980101992
0.9987114838
0.9991865567
0.9991225856
0.9992420189
0.999272618
0.9992821205
0.9991179653
0.9988632051
0.998509415
0.9979897024
0.9973261235
0.9970357652
0.9971593733
0.9972795417
0.9974432045
0.9975954074
0.9977928568
0.9981553147
0.9984622898
0.9985701107
0.9987069414
0.9988658996
0.99883896
0.9985214636
0.9979697359
0.997652515
0.9978450228
0.9981984017
0.9984491975
0.9985806534
0.9986324817
0.9986867075
0.9985523377
0.997475559
0.9980157505
0.9986432578
0.9992654267
0.9995595024
0.9993035194
0.9991694982
0.9988527644
0.998600904
0.9982161009
0.9978046377
0.997230327
0.9969408893
0.996973356
0.9971813364
0.9976516275
0.9980997039
0.9984084036
0.9984518274
0.9986390504
0.9988315959
0.9989857965
0.9990814973
0.9990995377
0.9989166753
0.9982642367
0.9974884583
0.9973734676
0.9976508695
0.9981555594
0.9985540043
0.9987436863
0.9988414365
0.9989427926
0.9990017778
0.9988368701
0.9979193463
0.9984844203
0.9991049411
0.9994571282
0.9995359768
0.9992414956
0.9987104203
0.9980724368
0.9977484226
0.9975472547
0.9974359106
0.9972701363
0.9972726675
0.9974962706
0.9979108716
0.9984284687
0.9989613699
0.9994616637
0.9994931589
0.9993835334
0.9993531994
0.9993426597
0.9992739357
0.9990270426
0.9983188474
0.9974543399
0.997397307
0.9977417993
0.9982098798
0.9986006852
0.9988407906
0.9989731546
0.9990152214
0.9990551158
0.9990109501
0.9988713296
0.9985491246
0.998809851
0.9992537454
0.9992838492
0.9990559797
0.9985922617
0.9978345678
0.9974743611
0.9976413302
0.9977841103
0.9977892586
0.9977815907
0.9979057356
0.9982655895
0.9988626997
0.9995449939
1.000100717
1.000586651
1.000404757
0.9999037778
0.9996324348
0.9994409706
0.9990541412
0.9982021916
0.9975285096
0.9976582075
0.9978843267
0.9982859571
0.9988691439
0.9990281095
0.9990559234
0.9990297864
0.9989117476
0.9987172509
0.9985519478
0.9985697684
0.9988684076
0.9990739183
0.9990189944
0.998691416
0.9982265015
0.9979677191
0.9977144645
0.9978097016
0.9981123106
0.9982744168
0.9983072618
0.9983723548
0.9986923708
0.9993540099
1.000178057
1.001033345
1.001290478
1.001016973
1.000688462
1.000097492
0.9994892897
0.9988373798
0.9980393065
0.9974001237
0.9976313492
0.9980306684
0.9985115991
0.9990226364
0.9992559263
0.9992294123
0.9990115357
0.9986381139
0.9982053354
0.9979290019
0.9980098527
0.9982997658
0.9992117844
0.9991563597
0.9986050394
0.9982471209
0.9980708436
0.9981643412
0.9980884443
0.9984440088
0.9987264897
0.9989445514
0.9989457928
0.9990888837
0.9995420625
1.000481425
1.001484466
1.001710017
1.001623361
1.00104349
1.000300788
0.9994648452
0.9984836422
0.9975933533
0.9973746829
0.9975627998
0.9979216586
0.9984885549
0.9992186663
0.9994512538
0.999311759
0.9989985287
0.9984086901
0.99779411
0.9975551187
0.9976772868
0.9979259233
0.9981934321
0.9993603413
0.9989898899
0.9982896328
0.9982432628
0.9982491989
0.9983734182
0.9986345147
0.9991356798
0.999293576
0.9994087725
0.9994516008
0.9997672093
1.000470675
1.001300839
1.00177563
1.001615964
1.001126667
1.000047871
0.9988735946
0.9979743474
0.9974154131
0.9972407611
0.99750021
0.9979034614
0.9984291409
0.9991648226
0.9995365633
0.9993885213
0.998962584
0.9981966014
0.9976916932
0.9976164755
0.9976557958
0.9978015946
0.9980348428
0.9982123749
0.9989819057
0.9984685141
0.9981150086
0.998200334
0.9983054457
0.9985534178
0.9990798475
0.9991316802
0.9993501156
0.9994773256
0.9995077768
0.9998447803
1.000603195
1.001312999
1.001385406
1.000745101
0.9991621642
0.997832731
0.9973898864
0.9973272157
0.9973935474
0.9974168767
0.9976679209
0.9983475093
0.9991644878
0.9995076694
0.9993980775
0.9989228396
0.9980869099
0.9977125708
0.9977190418
0.9977847273
0.9978750119
0.9980250911
0.998275457
0.9982688099
0.9978374936
0.997877572
0.9980462892
0.9983044788
0.9986550598
0.99894188
0.9987181773
0.9989724594
0.999014848
0.9991668618
0.9995463446
1.000169859
1.00037325
0.9997262417
0.9981636227
0.9969463383
0.9969788658
0.9973177943
0.9974020595
0.9975446597
0.9978391125
0.9983588634
0.9991174646
0.9995428221
0.9994102858
0.9988768354
0.9980203575
0.9977636908
0.9977594511
0.9979002076
0.9981430845
0.9984296891
0.9987073695
0.998614455
0.9983178644
0.9975359315
0.9977780737
0.9979895577
0.9983339292
0.9986842142
0.9986530737
0.9983537531
0.9982645656
0.9980695114
0.9982472251
0.9986125733
0.9987025343
0.9980966556
0.9971848208
0.9966125948
0.9967154639
0.9970189904
0.9975042042
0.9977676205
0.9980516356
0.9986012013
0.9992963764
0.9994689313
0.999347081
0.9990987295
0.9980251642
0.9978988801
0.9978998619
0.9980109519
0.9982650765
0.9987329909
0.9992573973
0.9992595497
0.9987321093
0.9983332133
0.9974223524
0.9977279975
0.9980378378
0.9985092495
0.9987779546
0.9985464702
0.9983027311
0.9980170851
0.9977153392
0.997703698
0.9975636058
0.9971227256
0.9967095175
0.9965735028
0.996626205
0.9969725185
0.9974835454
0.9980210867
0.9984860113
0.9988553478
0.9994079383
0.9995324803
0.9992704166
0.9989751306
0.9982405688
0.9979817739
0.9979870827
0.9982253004
0.998591234
0.9990141274
0.9994289624
0.9994965846
0.9992198994
0.9987242447
0.9986339821
0.9975086062
0.9978813483
0.9982033858
0.9987036295
0.9988894936
0.9988076738
0.9985809469
0.99796371
0.9976134631
0.9975277398
0.9973122569
0.9968624395
0.9966613147
0.9967010185
0.9969389021
0.9975589572
0.998580701
0.9989913395
0.9993365311
0.9994869298
0.9994988082
0.9992367826
0.9990271981
0.9980674876
0.9978724069
0.9980743734
0.9984222669
0.9989814855
0.9994345145
0.9995456369
0.9993970085
0.9992189015
0.9988611981
0.9986312659
0.9988359788
0.9980067364
0.9983813654
0.9988286153
0.999306602
0.9992445285
0.9992545513
0.9987520826
0.9982142693
0.9979013021
0.9974945898
0.9972508855
0.9969348237
0.9969098935
0.9971596342
0.9978675733
0.9989825146
0.9998184644
0.9997176276
0.99964865
0.9994966026
0.9992314275
0.9989150331
0.9981369669
0.9978834602
0.9978073058
0.998471787
0.9992271746
0.9995525069
0.9995543028
0.99931377
0.9990814022
0.9985134161
0.9981219448
0.9984558844
0.9988221532
0.9989386445
0.9993800587
0.9997393272
0.9997663963
0.9995568232
0.9991448972
0.9986157787
0.9984278772
0.9983091021
0.9980108244
0.997732081
0.997559877
0.9977669819
0.9984053238
0.9995349859
1.00024478
0.9999796824
0.9996346738
0.9993462014
0.999156676
0.9989126601
0.9981423399
0.9978571875
0.9979379266
0.9983621264
0.9991428354
0.9994348817
0.9993703917
0.9991982985
0.9989440013
0.9983312749
0.9976345039
0.9977953883
0.9983219799
0.9987274233
0.9997314925
0.9998898376
0.9998759705
0.9996524828
0.9994327554
0.9988056749
0.9983944971
0.9986074091
0.99884332
0.9988999659
0.9987692959
0.9988012657
0.9992305206
0.9999844327
1.000513615
1.000191205
0.9994694924
0.9991913561
0.9989607888
0.9987233613
0.9981525247
0.9978890092
0.997827267
0.9983448545
0.9992059132
0.9993526984
0.9991795279
0.999023745
0.9987721889
0.9980630659
0.997379294
0.9974513361
0.9977465553
0.9984575434
0.9986998701
0.9996497729
0.9995204827
0.9992791318
0.9991002366
0.9989756462
0.9982435046
0.9982032153
0.9987468319
0.9992741596
0.9994555199
0.9995368927
0.9997613563
1.000047952
1.000199697
0.9999940393
0.9996334514
0.9987842954
0.9984904268
0.9984391095
0.998110414
0.9977762072
0.9977646987
0.9982724065
0.9990147812
0.9992662892
0.9991190124
0.9989238912
0.9983828874
0.997662683
0.9973075022
0.9973952067
0.9976524712
0.9983257864
0.9988180584
0.998778634
0.9988962496
0.9987624901
0.9985527153
0.9979477917
0.9977897675
0.9976980852
0.998094049
0.9987711585
0.9991978532
0.999276656
0.9994200912
0.9996132464
0.9996786888
0.9997305384
0.9992113414
0.9985898423
0.9985989681
0.9983495784
0.99816209
0.9979258336
0.9977433066
0.9980461543
0.9988388883
0.9990949112
0.9989693965
0.9987631807
0.9982193933
0.9977309168
0.9975169783
0.9974074246
0.9978106993
0.998473605
0.9989694824
0.9989174708
0.9986735027
0.9980461404
0.997349435
0.9970801032
0.9972195393
0.9970213391
0.9975725205
0.9983037063
0.9987078428
0.9987831478
0.9986900502
0.9987825223
0.9988413598
0.9988303597
0.9988099589
0.9984252152
0.9980972827
0.9982575533
0.9982663891
0.9980475513
0.9978518207
0.9979665261
0.9985693813
0.9989602767
0.9988497698
0.9986164129
0.9981502895
0.997893255
0.9975494194
0.9975919058
0.998085074
0.9988048217
0.9993244776
0.9992366909
0.9988912632
0.9984796986
0.9966086295
0.9966468561
0.9965755566
0.9967657902
0.9969325172
0.9980679531
0.9986953281
0.9986547787
0.9982736575
0.9979578388
0.9979354267
0.9978959631
0.9979309728
0.9977971412
0.9977317838
0.997864001
0.9981682166
0.9981984969
0.9980149852
0.9979715645
0.9983541031
0.9988041425
0.9987467995
0.998473006
0.9981806455
0.9979240321
0.9977434776
0.9978360541
0.9982840512
0.9990583631
0.9995286228
0.9994470411
0.9991684114
0.9988500068
0.9983714199
0.9959734377
0.996132176
0.9964940237
0.9972508081
0.9982538341
0.9987804485
0.9987754179
0.9983653022
0.997802713
0.9973932841
0.997254714
0.9972437952
0.9973234265
0.9972796762
0.9976023334
0.9983130347
0.99851474
0.9982622582
0.9981627625
0.9983952009
0.9987189366
0.9986568136
0.9983371598
0.9980100226
0.9978509674
0.9979012582
0.9982514305
0.9989410993
0.9994484124
0.9996615124
0.9994291979
0.9989988751
0.9987651143
0.998595595
0.9982950594
0.9963520879
0.9969520571
0.9976259719
0.9985856901
0.9994543139
0.9992012642
0.9984456278
0.9977561512
0.997453116
0.997259219
0.9970345228
0.9970914378
0.9971963507
0.997554841
0.9984419855
0.9990638452
0.9992309166
0.9987250894
0.9986081364
0.9989487144
0.9990035895
0.9984729515
0.9979650877
0.9978143492
0.9978986897
0.9984064101
0.9992677653
0.9999720222
1.000011322
0.9994751665
0.9988058852
0.9984131811
0.9982100479
0.9981981953
0.9982127135
0.9978748741
0.9987145324
0.9993008562
0.999657387
0.9996716233
0.9991622949
0.9982944924
0.9975483812
0.9974758962
0.9976577714
0.9976021901
0.9977891212
0.9980655993
0.9988387347
0.9996387558
0.9999391922
0.9996104099
0.9993236389
0.9992681824
0.9990527798
0.9987426188
0.9983088034
0.997943523
0.998063948
0.998582297
0.9994330806
1.000024367
0.9998363894
0.999384565
0.9987306346
0.9981038759
0.9978701868
0.9977419322
0.997844784
0.9981801583
0.9995202259
1.000008901
0.9998967504
0.9996673016
0.9991301544
0.9986619484
0.9984543978
0.9985456292
0.9988710391
0.9989227084
0.9991344014
0.9996864067
1.000372311
1.000400236
1.000180918
0.9993541624
0.9991436907
0.9991147153
0.9987390602
0.9983209142
0.9981861341
0.9983321106
0.9987826385
0.999597259
1.000041436
0.9997444099
0.9990218975
0.9982599693
0.9977278096
0.9974777078
0.9975628168
0.9976437579
0.9978945868
0.9986058586
0.9991828477
0.9997177022
0.9998897485
0.9998006463
0.999408327
0.9993231554
0.9997074077
1.000239535
1.000263043
0.9998669017
0.9998600465
1.000290203
1.000282635
1.000122703
0.9995238806
0.9987591248
0.9986327379
0.9985897666
0.998472948
0.9982152606
0.9982403671
0.9988297169
0.9994993353
0.999922859
0.999627836
0.9988689717
0.9980278635
0.9973827304
0.9970179581
0.9971972776
0.9977064577
0.9982351686
0.9986854462
0.9993771791
0.9985577896
0.9991604542
0.9995311513
0.9995689158
0.9996856681
0.9995401985
0.9997442566
1.000131155
1.000282358
0.9996598174
0.9994999969
0.9994622619
0.9994519511
0.9992762458
0.9985664348
0.9985528529
0.9986015438
0.9983722792
0.9984994963
0.998632665
0.9986984541
0.9993028792
0.9996951337
0.9994267413
0.9986036263
0.9977666158
0.9973239494
0.9970953203
0.997225221
0.997837822
0.9986341749
0.9992611103
0.9996428688
0.9999251433
0.9982473279
0.9986314761
0.9988120815
0.9987644099
0.999107889
0.9994634232
0.9992555086
0.9991221651
0.9992884333
0.9988402665
0.9986226245
0.9981919542
0.9983608319
0.9983418241
0.9980482819
0.9986046572
0.9990960213
0.9989680298
0.9988621068
0.9992011561
0.9992752604
0.9992838058
0.9991289371
0.998415902
0.9976934172
0.9971130848
0.9970245768
0.9973182966
0.9984231566
0.9993667304
0.9996631613
0.9996270534
0.999598052
0.999410309
0.998452098
0.9982117728
0.9978503268
0.997981696
0.9983703059
0.999288486
0.9991915723
0.9983218152
0.9980008971
0.9978117161
0.9976694733
0.9977540939
0.9977778418
0.9978036484
0.9985399437
0.9988842744
0.9995146243
0.9996367485
0.9991433882
0.998805074
0.9989983247
0.9986268479
0.9982318846
0.9976033966
0.9972476876
0.9972358463
0.9974137807
0.9984796076
0.9998851355
1.000295047
0.999786177
0.9992123214
0.9989370386
0.9985314283
0.9982588267
0.9976285492
0.9972526799
0.9976365725
0.997931574
0.9983763348
0.9982705414
0.998119408
0.9972602553
0.9972825859
0.9971892152
0.9974321973
0.9977537438
0.9983579684
0.9993238216
0.9995938721
0.9993478646
0.9990007019
0.9987366217
0.9980402399
0.9980811605
0.9979175057
0.9975040598
0.997295225
0.9973647531
0.9981565076
0.9995425343
1.000333065
1.000171544
0.9998683143
0.9991993577
0.9985813532
0.9982044275
0.9976018868
0.9975331483
0.9971410405
0.9972214834
0.9976830721
0.9978227347
0.997290596
0.9969735606
0.9968080268
0.9964772492
0.996867709
0.997105962
0.9976122168
0.9984278802
0.999336711
0.999598463
0.9999004377
0.9989942609
0.9981358351
0.9980950828
0.9978455858
0.9974411704
0.9973912584
0.9971641658
0.9976999969
0.9986152627
1.000029136
1.000768177
1.000600451
1.000028624
0.9989720807
0.9984697553
0.9981729578
0.9978283321
0.9971875502
0.9966194538
0.9968287742
0.9974572818
0.997727147
0.9976735534
0.9968225755
0.9962012674
0.9956301536
0.9961824022
0.9969381514
0.9979005886
0.9985617171
0.9989912117
0.9994254147
0.9993191702
0.9992054365
0.99867538
0.9976840134
0.9971920054
0.9973645953
0.9972300651
0.997202208
0.9979371318
0.9988811544
1.000292422
1.000568039
1.000213504
0.9997951982
0.9990870691
0.9981843026
0.9979492166
0.997939772
0.996169378
0.9968429146
0.9978142224
0.9977896265
0.9974656343
0.9972622379
)
;

boundaryField
{
    inlet
    {
        type            fixedValue;
        value           nonuniform 0();
    }
    outlet
    {
        type            zeroGradient;
    }
    bottom
    {
        type            slip;
    }
    top
    {
        type            slip;
    }
    obstacle
    {
        type            zeroGradient;
    }
    defaultFaces
    {
        type            empty;
    }
    procBoundary23to17
    {
        type            processor;
        value           nonuniform List<scalar> 
39
(
0.998689099
0.9985077539
0.998358236
0.9983553583
0.9983613448
0.9983629585
0.9983350545
0.998337557
0.9984052546
0.9985210101
0.9985365967
0.998469548
0.9983011032
0.9982927854
0.9983044387
0.9985675651
0.999321821