/*--------------------------------*- C++ -*----------------------------------*\
  =========                 |
  \\      /  F ield         | OpenFOAM: The Open Source CFD Toolbox
   \\    /   O peration     | Website:  https://openfoam.org
    \\  /    A nd           | Version:  7
     \\/     M anipulation  |
\*---------------------------------------------------------------------------*/
FoamFile
{
    version     2.0;
    format      ascii;
    class       volScalarField;
    location    "2.7";
    object      T;
}
// * * * * * * * * * * * * * * * * * * * * * * * * * * * * * * * * * * * * * //

dimensions      [0 0 0 1 0 0 0];

internalField   nonuniform List<scalar> 
555
(
0.9895674034
0.9893636213
0.9890744368
0.9888083336
0.9888212276
0.9890502625
0.9894520736
0.9901247827
0.9909371621
0.9914780404
0.9920962997
0.9925439745
0.9927335061
0.9929249316
0.9928662477
0.9929785327
0.9927402179
0.9892245316
0.9892151976
0.9890427875
0.9886782726
0.9882546854
0.9881260943
0.9884439502
0.989196989
0.989872374
0.9904601286
0.9909922814
0.9913243175
0.9914217088
0.9916203426
0.9918923232
0.9925496968
0.992885659
0.9888217077
0.9888436074
0.9888186391
0.9887702338
0.9885931356
0.9882270874
0.9882309355
0.9887300802
0.98918754
0.9896290727
0.9899835131
0.9901397552
0.9902579435
0.990479668
0.9909614573
0.9918342362
0.9924660011
0.9882657316
0.9883598164
0.9884635212
0.9886129593
0.9887963255
0.9887961755
0.9887867086
0.9888060945
0.9888359453
0.9890122591
0.9891762634
0.9892404982
0.9893678605
0.9897745056
0.9906355625
0.9914477272
0.9920791364
0.9874824667
0.9876500166
0.9879236375
0.9883118877
0.9886999159
0.9890693418
0.989362654
0.9893416257
0.9891453957
0.9889608422
0.9888626557
0.9887621987
0.9889918149
0.9893322522
0.9901747173
0.9906530758
0.9915982079
0.986963752
0.9871542347
0.9875101175
0.9881068354
0.988626681
0.9891575923
0.9895990231
0.9897908466
0.9897036888
0.989348767
0.9889680151
0.9887598462
0.9889501607
0.9893182393
0.989890528
0.9902423599
0.9905670315
0.9867525837
0.9869269207
0.9874589581
0.9881278767
0.9886858184
0.9891803005
0.9896492574
0.9900539533
0.9901756809
0.9900499279
0.9897449658
0.989437088
0.9893383253
0.9897181025
0.9899832216
0.9901210911
0.9902545511
0.9872954409
0.9873572611
0.9878177854
0.9884639509
0.988878988
0.9892649337
0.9897326185
0.9901002701
0.9903578933
0.9906160692
0.990853261
0.9910268213
0.9909494014
0.990935631
0.9905283998
0.9901937471
0.9903027056
0.9888716193
0.9890384438
0.9893329889
0.9895507812
0.9896001384
0.989824572
0.9901272792
0.9904476854
0.9908738347
0.9914135972
0.9919153718
0.9924390047
0.9926868103
0.9925830331
0.9918817765
0.9910212269
0.9906640091
0.9907702392
0.9911303527
0.9915710849
0.9918142382
0.9916131499
0.9912934586
0.991255902
0.9913366044
0.9916837958
0.9922188102
0.9928166531
0.9933227443
0.9938732942
0.9941562514
0.9941001636
0.9936048322
0.9929126822
0.9920478506
0.9934771241
0.9938445244
0.9943696235
0.9946720525
0.9944463353
0.9940711389
0.9938960426
0.9937767885
0.9939889407
0.9944038705
0.9950058735
0.9954576188
0.9957412741
0.9959197929
0.9958364691
0.995632588
0.9954398369
0.9950010053
0.9970170123
0.9972084706
0.9975686553
0.9979530305
0.9980293602
0.9979567274
0.9977599641
0.9976270417
0.9977259534
0.9978789596
0.9981244334
0.9982135985
0.9982012172
0.9983434822
0.9983486375
0.9983204746
0.9985800735
0.998917688
1.001209432
1.001306371
1.001569332
1.002000214
1.002419579
1.002667544
1.002683696
1.002748355
1.002780582
1.002738987
1.002329576
1.001921218
1.001756662
1.001782345
1.001833981
1.001994437
1.002636282
1.003323189
1.006299091
1.006292941
1.006411842
1.006802996
1.007546122
1.007930565
1.008222325
1.008494875
1.008547998
1.008403195
1.007821728
1.006962702
1.006385379
1.006234407
1.006361954
1.006945212
1.00783853
1.008440687
1.01215655
1.012087104
1.012164027
1.012423839
1.013103663
1.013833801
1.014448887
1.014539288
1.014496051
1.014314847
1.013934814
1.013164288
1.012356729
1.011885492
1.012036872
1.013031069
1.013966049
1.014338404
1.0190737
1.018832845
1.018765002
1.01899344
1.019608202
1.020200564
1.020811205
1.021010108
1.020952568
1.020763217
1.020409072
1.01998084
1.019363891
1.018779404
1.018819825
1.019667287
1.020143817
1.020658893
1.026761781
1.026497932
1.026350511
1.026450144
1.026892975
1.027120355
1.027231707
1.027529208
1.027674203
1.027526405
1.027321889
1.02708554
1.026856443
1.026529568
1.026614315
1.026907893
1.026999953
1.027324378
1.034736205
1.034695307
1.034775334
1.034908792
1.034746008
1.034634122
1.034491861
1.034523929
1.03460795
1.034500413
1.034468809
1.034574786
1.034782007
1.03500155
1.035101787
1.034826274
1.034495861
1.034573019
1.043007254
1.043226828
1.04346973
1.043483115
1.043037961
1.042760229
1.042288355
1.042139757
1.042082824
1.042023897
1.042136938
1.042425229
1.043165636
1.043905904
1.043779534
1.043168395
1.042543022
1.042470667
1.051128044
1.051429075
1.051741342
1.051797579
1.051529733
1.0511121
1.05057288
1.050305432
1.050268972
1.050248824
1.050310952
1.051048594
1.052092509
1.052520153
1.052275569
1.051693644
1.051104305
1.050676494
1.0591009
1.059548888
1.060022212
1.060143787
1.060017917
1.059712727
1.059419694
1.059191794
1.059092855
1.059197527
1.059515541
1.059861962
1.060077147
1.0604976
1.060708055
1.060253221
1.059608027
1.059418759
1.066880911
1.067276056
1.067934082
1.068356128
1.068398711
1.068340659
1.068424389
1.068583759
1.068672883
1.068854971
1.06890434
1.068507287
1.068294047
1.068341251
1.068608362
1.068484637
1.068327539
1.06838828
1.074592999
1.074675013
1.074938113
1.075528903
1.076206327
1.076515645
1.076680474
1.077017776
1.07747155
1.077743433
1.077821149
1.077667823
1.077104499
1.076340567
1.076081812
1.076037205
1.076089029
1.076477509
1.07703788
1.08234656
1.082417029
1.082611555
1.083012217
1.083534819
1.084273329
1.084562929
1.085063443
1.085449306
1.085698315
1.085717708
1.085424831
1.084793106
1.0839565
1.083107522
1.082716947
1.083034025
1.083930197
1.084960701
1.089968612
1.089886554
1.08994456
1.090139759
1.090446931
1.091138701
1.091696772
1.09201768
1.09234176
1.092472804
1.092383695
1.091967464
1.091291894
1.090066679
1.089045136
1.08877113
1.089224453
1.090357989
1.091857341
1.096796013
1.09656461
1.096405621
1.0963356
1.096510783
1.096910447
1.0972079
1.097287764
1.097409602
1.097430311
1.097198129
1.096683327
1.095988611
1.095470227
1.094872086
1.094251066
1.094520441
1.09589673
1.097266786
1.102272576
1.101939457
1.101649617
1.101342621
1.101302322
1.101510629
1.101515773
1.101148988
1.100883385
1.100602145
1.100131198
1.099788822
1.099669883
1.09956827
1.099216493
1.098719644
1.098702671
1.09951283
1.100351648
1.106095223
1.105661166
1.105326766
1.104932739
1.104656685
1.104522452
1.104245705
1.103600161
1.102836567
1.102174371
1.101796788
1.101733859
1.10205624
1.102373441
1.102260428
1.102048143
1.102199969
1.102254276
1.102462768
1.108005012
1.107644572
1.107333725
1.106896212
1.106483389
1.106050866
1.105358475
1.104499062
1.103774333
1.10331898
1.103085261
1.103052075
1.103270458
1.10408601
1.104413276
1.10465093
1.104551388
1.10407444
1.103637545
1.108657251
1.108369587
1.108097549
1.107700974
1.10704651
1.106295411
1.105593453
1.10511112
1.10471443
1.104321735
1.104069528
1.104011829
1.104222835
1.104556191
1.105606618
1.105894728
1.105623721
1.104943655
1.103974665
1.1085248
1.108105486
1.107817353
1.107387505
1.106892897
1.106477329
1.106092788
1.105762608
1.105623342
1.105411596
1.105158066
1.105039665
1.105124109
1.105162604
1.105481218
1.106168959
)
;

boundaryField
{
    inlet
    {
        type            fixedValue;
        value           nonuniform 0();
    }
    outlet
    {
        type            inletOutlet;
        inletValue      uniform 1;
        value           nonuniform List<scalar> 
30
(
0.9924475734
0.9928111569
0.9925215808
0.9922313555
0.9917687421
0.990714589
0.9903360131
0.9903082165
0.9906827063
0.9918850976
0.9947915429
0.9988372527
1.003367278
1.008496418
1.014347409
1.020732568
1.027429547
1.034608495
1.042452604
1.050644775
1.059292754
1.068274498
1.076995961
1.085000599
1.091992653
1.097400683
1.100535779
1.102546539
1.103630616
1.103798653
)
;
    }
    bottom
    {
        type            slip;
    }
    top
    {
        type            slip;
    }
    obstacle
    {
        type            zeroGradient;
    }
    defaultFaces
    {
        type            empty;
    }
    procBoundary17to11
    {
        type            processor;
        value           nonuniform List<scalar> 
17
(
0.9901607342
0.9900976103
0.9901861206
0.9903038322
0.9904580096
0.9906696664
0.9909634947
0.9914346892
0.9922955963
0.9928678546
0.993162632
0.9935683929
0.9938582204
0.9939178307
0.9935298036
0.9929800949
0.9919995803
)
;
    }
    procBoundary17to16
    {
        type            processor;
        value           nonuniform List<scalar> 
32
(
0.9897496443
0.9891943674
0.9886875011
0.9880857084
0.9872936569
0.9868252215
0.9867313805
0.9873306136
0.9887324837
0.9887324837
0.9904494863
0.9931349534
0.9968880241
1.001398143
1.006695809
1.012659153
1.019498604
1.026952021
1.034718756
1.042834594
1.05096663
1.058897428
1.066735101
1.066735101
1.074749746
1.08246292
1.089967006
1.096800487
1.102283996
1.106103769
1.108305455
1.108975536
)
;
    }
    procBoundary17to22
    {
        type            processor;
        value           uniform 1.108954938;
    }
    procBoundary17to23
    {
        type            processor;
        value           nonuniform List<scalar> 
20
(
1.105967316
1.105027044
1.10338428
1.107479777
1.107246699
1.10715385
1.107005728
1.106882523
1.106662472
1.106486436
1.106519563
1.106492061
1.106470616
1.106311978
1.105811627
1.105329291
1.105218154
1.105402378
1.105967316
1.10572898
)
;
    }
}


// ************************************************************************* //
