/*--------------------------------*- C++ -*----------------------------------*\
  =========                 |
  \\      /  F ield         | OpenFOAM: The Open Source CFD Toolbox
   \\    /   O peration     | Website:  https://openfoam.org
    \\  /    A nd           | Version:  7
     \\/     M anipulation  |
\*---------------------------------------------------------------------------*/
FoamFile
{
    version     2.0;
    format      ascii;
    class       volVectorField;
    location    "4.4";
    object      U;
}
// * * * * * * * * * * * * * * * * * * * * * * * * * * * * * * * * * * * * * //

dimensions      [0 1 -1 0 0 0 0];

internalField   nonuniform List<vector> 
22
(
(2.999995492 -8.125493956e-06 0)
(2.999982349 -3.098588556e-05 0)
(2.999925178 -0.0001480980477 0)
(2.999809757 -0.0003775943722 0)
(2.999341876 -0.001284869155 0)
(2.998498417 -0.003167321105 0)
(2.996993559 -0.006736786701 0)
(2.994758322 -0.01254592198 0)
(2.991598308 -0.02130956551 0)
(2.98748644 -0.03335054985 0)
(2.983709667 -0.04710130588 0)
(2.98244473 -0.03478946537 0)
(2.973587311 -0.05658852336 0)
(2.963216856 -0.0827848617 0)
(2.953342542 -0.1111198639 0)
(2.940836701 -0.1447038985 0)
(2.931972983 -0.1720487678 0)
(2.914078034 -0.2224952094 0)
(2.917043485 -0.07268861065 0)
(2.904773383 -0.09799996474 0)
(2.900471506 -0.1075295013 0)
(2.887004477 -0.1372623015 0)
)
;

boundaryField
{
    inlet
    {
        type            fixedValue;
        value           nonuniform 0();
    }
    outlet
    {
        type            inletOutlet;
        inletValue      nonuniform 0();
        value           nonuniform 0();
    }
    bottom
    {
        type            slip;
    }
    top
    {
        type            slip;
    }
    obstacle
    {
        type            slip;
    }
    defaultFaces
    {
        type            empty;
    }
    procBoundary14to7
    {
        type            processor;
        value           uniform (2.99999956 -5.961053223e-07 0);
    }
    procBoundary14to8
    {
        type            processor;
        value           nonuniform List<vector> 8((3.000000015 1.291226826e-08 0) (2.999999987 -3.263063363e-08 0) (2.999999862 -1.640944437e-07 0) (2.999998956 -1.729767579e-06 0) (2.99944435 -0.001204400984 0) (2.99944435 -0.001204400984 0) (2.99887453 -0.002553077138 0) (2.997978285 -0.004628289902 0));
    }
    procBoundary14to9
    {
        type            processor;
        value           nonuniform List<vector> 3((2.948111684 -0.1226560646 0) (2.917981107 -0.2056442808 0) (2.947091317 -0.06570916003 0));
    }
    procBoundary14to13
    {
        type            processor;
        value           nonuniform List<vector> 2((2.999781343 -0.0004004280535 0) (2.989855404 -0.01881328713 0));
    }
    procBoundary14to20
    {
        type            processor;
        value           nonuniform List<vector> 4((2.946388575 -0.03522019158 0) (2.936932928 -0.03938574722 0) (2.923741019 -0.06514894872 0) (2.923741019 -0.06514894872 0));
    }
}


// ************************************************************************* //
