/*--------------------------------*- C++ -*----------------------------------*\
  =========                 |
  \\      /  F ield         | OpenFOAM: The Open Source CFD Toolbox
   \\    /   O peration     | Website:  https://openfoam.org
    \\  /    A nd           | Version:  7
     \\/     M anipulation  |
\*---------------------------------------------------------------------------*/
FoamFile
{
    version     2.0;
    format      ascii;
    class       volScalarField;
    location    "3";
    object      p;
}
// * * * * * * * * * * * * * * * * * * * * * * * * * * * * * * * * * * * * * //

dimensions      [1 -1 -2 0 0 0 0];

internalField   nonuniform List<scalar> 
2222
(
1
1
1
1
1
1
1
1
1
1
1
1
1
1
1
1
1
1
1
1
1
1
1
1
1
1
1
1
1
1
1
1
1
1
1
1
1
1
1
1
1
1
1
1
1
1
1
1
1
1
1
1
1
1
1
1
1
1
1
1
1
1
1
1
1
1
1
1
1
1
1
1
1
1
1
1
1
1
1
1
1
1
1
1
1
1
1
1
1
1
1
1
1
1
1
1
1
1
1
1
1
1
1
1
1
1
1
1
1
1
1
1
1
1
1
1
1
1
1
1
1
1
1
1
1
1
1
1
1
1
1
1
1
1
1
1
1
1
1
1
1
1
1
1
1
1
1
1
1
1
1
1
1
1
1
1
1
1
1
1
1
1
1
1
1
1
1
1
1
1
1
1
1
1
1
1
1
1
1
1
1
1
1
1
1
1
1
1
1
1
1
1
1
1
1
1
1
1
1
1
1
1
1
1
1
1
1
1
1
1
1
1
1
1
1
1
1
1
1
1
1
1
1
1
1
1
1
1
0.9999999962
0.9999997068
1
1
1
1
1
1
1
1
1
1
1
1
1
1
1
1
1
1
1
1
1
1
1
1
1
1
1
1
1
1
1
1
1
1
1
1
1
1
1
0.9999999999
0.9999999996
0.9999997439
0.9999997995
0.9999929911
1.000510091
1.023775175
1.231831552
1.87279967
3.002851633
1
1
1
1
1
1
1
1
1
1
1
1
1
1
1
1
1
1
1
1
1
1
1
1
1
1
1
1
1
1
1
1
1
1
1
1
1
0.9999999992
0.9999999982
0.9999997685
1.000000023
0.9999936524
1.000793686
1.03645741
1.25853417
2.008944802
3.075058899
4.041692375
4.655490168
4.759577749
4.762563436
4.747843238
4.722836452
1
1
1
1
1
1
1
1
1
1
1
1
1
1
1
1
1
1
1
1
1
1
1
1
1
1
1
1
1
1
1
1
1
1
1
0.9999999976
0.9999999873
0.9999998672
1.000000702
0.9999928417
1.00173615
1.052516916
1.315118412
2.168529614
3.176087979
4.21176708
4.676630731
4.706380019
4.722771984
4.703304069
4.693119096
4.692513051
4.705477011
4.723141789
4.741281675
4.759668962
4.773500994
1
1
1
1
1
1
1
1
1
1
1
1
1
1
1
1
1
1
1
1
1
1
1
1
1
1
1
1
1
1
1
1
1
0.9999999972
0.9999998628
0.9999998055
1.000000858
0.9999957714
1.004322307
1.071640593
1.430084668
2.313435944
3.340657946
4.367397271
4.627593235
4.666606963
4.674744859
4.674668782
4.690574736
4.708534601
4.730141125
4.752408421
4.770666868
4.780455044
4.782276973
4.779728985
4.774131525
4.767301888
4.758589929
4.749597956
1
1
1
1
1
1
1
1
1
1
1
1
1
1
1
1
1
1
1
1
1
1
1
1
1
1
1
1
1
1
1
0.9999999974
0.9999996874
0.9999996851
0.9999910102
1.000045467
1.010067868
1.102207037
1.592521655
2.472544201
3.621628077
4.416870558
4.569412615
4.633094609
4.653430007
4.695462889
4.721892443
4.745479527
4.769940276
4.784228432
4.787767894
4.786100684
4.779997415
4.772906437
4.763196345
4.752351476
4.743442041
4.738871738
4.73786172
4.73862562
4.74092682
4.743641509
4.747231835
4.751315675
1
1
1
1
1
1
1
1
1
1
1
1
1
1
1
1
1
1
1
1
1
1
1
1
1
1
1
1
1
0.9999999995
0.9999995206
0.9999996243
0.9999806873
1.000375369
1.019280117
1.170461022
1.779675774
2.688452388
3.896678877
4.375944042
4.55407991
4.624244144
4.70622279
4.747694947
4.768239592
4.790523378
4.795616702
4.793704193
4.786883306
4.779999452
4.770143998
4.756689015
4.744131844
4.736457859
4.734316683
4.734906195
4.737740713
4.741327944
4.745689875
4.750687695
4.755199317
4.757861219
4.758514863
4.758166596
4.757019463
4.755722794
4.753736384
1
1
1
1
1
1
1
1
1
1
1
1
1
1
1
1
1
1
1
1
1
1
1
1
1
1
0.9999999987
0.9999999989
0.9999997174
0.9999999815
0.9999601625
1.001806834
1.03309959
1.297947538
1.990762848
3.026485249
4.031245096
4.387672153
4.564749594
4.688191505
4.76584651
4.788862982
4.803508122
4.80297923
4.795455924
4.786244824
4.77756197
4.763788988
4.747414583
4.735110335
4.730418597
4.730113988
4.732617841
4.736968368
4.742005967
4.748217429
4.754522738
4.759156069
4.760889567
4.760900597
4.759803846
4.757965154
4.755861473
4.753205532
4.750513009
4.748619508
4.747511902
1
1
1
1
1
1
1
1
1
1
1
1
1
1
1
1
1
1
1
1
1
1
1
1
0.9999999999
0.9999999103
0.9999997462
1.000000852
0.9999608393
1.005022146
1.072970138
1.483851693
2.222345234
3.411083909
4.094427801
4.446817396
4.643618722
4.774671159
4.803392122
4.811782876
4.807819045
4.795528202
4.784690804
4.772041146
4.754553737
4.736078567
4.725867827
4.723650002
4.725091312
4.730330085
4.736614834
4.744176909
4.752346473
4.759100245
4.762456312
4.763095232
4.76234008
4.760398438
4.758242529
4.755491485
4.752356726
4.749560628
4.748122975
4.747559636
4.747586422
4.748045083
4.748273129
1
1
1
1
1
1
1
1
1
1
1
1
1
1
1
1
1
1
1
1
1
1
1
0.999999909
0.9999999217
0.9999691085
1.000227645
1.011962587
1.172404004
1.691713856
2.59261322
3.67529322
4.197019129
4.56073292
4.753634561
4.812234029
4.817645174
4.811726366
4.79648302
4.783248409
4.765334305
4.744370929
4.72755739
4.720470673
4.719311895
4.721548823
4.726975169
4.734668196
4.745053528
4.755789988
4.763245343
4.765803501
4.765845621
4.763965085
4.7609746
4.757318893
4.753160572
4.74954835
4.747775168
4.747403913
4.74772173
4.748458984
4.748923685
4.749676621
4.750774078
4.751675187
4.752331247
1
1
1
1
1
1
1
1
1
1
1
1
1
1
1
1
1
1
1
1
1
1.000000002
0.9999999994
0.9999106717
1.001252638
1.041190201
1.33477662
1.93365825
3.068296567
3.835945887
4.369287073
4.70246428
4.805867956
4.81601281
4.809922143
4.795309408
4.778886953
4.756557246
4.732485034
4.720440181
4.717183064
4.718191797
4.723016779
4.728493104
4.736422756
4.746726283
4.757178176
4.764044941
4.766580254
4.766540064
4.764832705
4.761614708
4.756691309
4.750898967
4.746184531
4.744635024
4.744690148
4.746013498
4.747910332
4.749814076
4.751823187
4.753420611
4.754079663
4.754142486
4.753827967
4.753005755
4.752491165
1
1
1
1
1
1
1
1
1
1
1
1
1
1
1
1
1
1
1.00000002
0.9999999769
0.9999999979
0.9998896127
1.00608982
1.126792593
1.522360742
2.371606181
3.403238999
4.057532326
4.603858337
4.785623595
4.810448666
4.802122271
4.788342675
4.768261025
4.743002405
4.717639601
4.711201836
4.710987956
4.716192323
4.724042566
4.732641176
4.743349701
4.7543672
4.762342864
4.765702516
4.766479721
4.765546011
4.763346092
4.759843331
4.754755518
4.748959032
4.744587107
4.74282389
4.742731863
4.74364475
4.745287752
4.748164797
4.751906718
4.755222513
4.756720062
4.756751028
4.756155484
4.754837503
4.752995132
4.751448484
4.750749357
4.750262669
1
1
1
1
1
1
1
1
1
1
1
1
1
1
1
1
1.000000004
0.9999999994
0.9999283163
1.000306239
1.03516846
1.264058837
1.809228339
2.879490302
3.668647145
4.382464121
4.745982826
4.801895879
4.783176646
4.774230215
4.754026355
4.732289922
4.711696369
4.707776975
4.710152863
4.716254824
4.723462154
4.734674687
4.748330917
4.760112526
4.765828139
4.767566291
4.767348282
4.76510584
4.761734361
4.756795248
4.750926008
4.745851035
4.743542274
4.742789066
4.743061213
4.743791256
4.745018312
4.747413669
4.750617987
4.753815713
4.756013413
4.756925474
4.756993353
4.756528398
4.755346427
4.753561238
4.751766665
4.750281675
4.749233018
4.748793949
4.748319358
1
1
1
1
1
1
1
1
1
1
1
1
1
1.000000014
1.000000005
1.000000001
0.999837424
1.006477667
1.117247847
1.453103631
2.32599554
3.248490023
4.053601438
4.643482927
4.759558323
4.751959946
4.749616924
4.733745762
4.71689646
4.705610079
4.705275945
4.714894759
4.723492667
4.733088119
4.745108162
4.757065114
4.764269583
4.766911522
4.766997317
4.765392259
4.762743155
4.758480537
4.75250598
4.746270112
4.742727044
4.74152699
4.741605795
4.742727143
4.744200163
4.746723669
4.749863374
4.752880079
4.754900865
4.755804273
4.755904349
4.755644019
4.755190367
4.754295612
4.753123589
4.751993442
4.750986156
4.750027596
4.749349273
4.748960133
4.749123683
4.749843128
4.750724064
1
1
1
1
1
1
1
1
1
1
1
1.000000007
0.999999999
0.9999204861
1.00040769
1.044747556
1.24358128
1.854697907
2.815176806
3.643141899
4.479518065
4.711204256
4.716171138
4.734462901
4.715051006
4.703097475
4.702130161
4.706335222
4.717510289
4.731295022
4.746251107
4.759766172
4.767486922
4.769388569
4.769030313
4.766651648
4.762996449
4.758412521
4.752251024
4.745762318
4.74148629
4.740072717
4.740304253
4.741356171
4.742255902
4.744212297
4.747441345
4.751277781
4.754595714
4.756532853
4.757057329
4.756740472
4.756034999
4.754947409
4.753283527
4.751435764
4.750157385
4.749680292
4.749562345
4.7494606
4.749558484
4.750148452
4.751088617
4.752107702
4.752843661
4.753024951
4.752297953
1
1
1
1
1
1
1
1
1.000000013
0.9999999817
1.000000005
0.9997779508
1.014561091
1.128982807
1.52679107
2.400218369
3.240536466
4.209576249
4.613747126
4.662651703
4.702065365
4.687566157
4.690018667
4.709407265
4.720267989
4.733585174
4.748853264
4.761108222
4.769614455
4.772934181
4.772408111
4.769244744
4.764902803
4.759512475
4.752681056
4.745484967
4.740337355
4.737711291
4.737185876
4.738089134
4.739757454
4.742231618
4.745896866
4.750070973
4.753724983
4.756109205
4.757017948
4.756762786
4.756131085
4.755057375
4.753900702
4.752673521
4.751098509
4.74994211
4.749522177
4.749291424
4.74919666
4.749581853
4.750409629
4.751529766
4.752621205
4.753300852
4.753384581
4.753063421
4.752526463
4.751818757
4.750290494
1
1
1
1
1
1.00000003
0.9999999735
0.999999997
0.9998567513
1.003858845
1.070328496
1.322834845
2.050332954
2.887679543
3.86718682
4.499439002
4.596430023
4.662507283
4.670314806
4.690671536
4.722121194
4.734433683
4.75288987
4.773784234
4.781008763
4.781222387
4.77779597
4.771804634
4.765850613
4.759228917
4.751042668
4.743421913
4.738673443
4.736778602
4.736625818
4.737655677
4.738702709
4.740271894
4.743303535
4.747238542
4.751264831
4.754403115
4.756107973
4.756810796
4.756774414
4.755995947
4.754690481
4.753084448
4.750805621
4.748763372
4.747914438
4.747945825
4.748590202
4.749648307
4.751178343
4.752940686
4.754096798
4.754414834
4.754205579
4.753585835
4.75292087
4.752351354
4.751972145
4.751518868
4.750898924
4.750206789
4.748913821
1
1
1
1.000000009
0.9999999989
0.9999053666
1.000507462
1.040167618
1.206697825
1.784175763
2.600167553
3.5137159
4.346281248
4.515922391
4.624727227
4.644571184
4.690767558
4.745654617
4.759664061
4.778504769
4.792895532
4.793492732
4.788566158
4.780374333
4.771975888
4.762650913
4.752161164
4.742243538
4.735880043
4.732867918
4.732290537
4.733198175
4.735552966
4.738992003
4.743719107
4.748758165
4.752743765
4.754831419
4.755473783
4.755319037
4.754783112
4.754029788
4.753640359
4.753010928
4.752061956
4.750844156
4.749502985
4.748289765
4.747572188
4.747409972
4.747722724
4.748768667
4.75105094
4.753388027
4.7550333
4.755809013
4.755887289
4.755515387
4.754658069
4.753231343
4.751349106
4.749940358
4.749424115
4.749402674
4.749725614
4.75009023
4.749617159
1.000000087
0.9999998899
0.9999999991
0.9996998708
1.025055687
1.145396179
1.602888708
2.38082816
3.210725373
4.166280295
4.42518234
4.583632658
4.626082125
4.682631656
4.754093111
4.77544788
4.796664913
4.804841138
4.802707009
4.793570746
4.783211704
4.771420889
4.756534675
4.742704661
4.734545442
4.731466073
4.731257111
4.73348587
4.735997324
4.738614147
4.741759925
4.745331188
4.749309118
4.752303988
4.754271343
4.75569216
4.756356815
4.756190668
4.755432304
4.753846486
4.751189086
4.748608075
4.747078712
4.746851048
4.747391919
4.748633605
4.749947879
4.750676518
4.751274551
4.751806639
4.752106482
4.752029932
4.752106668
4.752956135
4.754067746
4.755182051
4.755525827
4.755125807
4.754056144
4.752421953
4.750465571
4.748931377
4.74829239
4.748436644
4.749236098
4.750349913
4.751311409
0.9997163299
1.017514053
1.113426845
1.489767662
2.230295712
2.995168997
3.98435016
4.345739655
4.525066042
4.601383227
4.669482655
4.756335723
4.784639105
4.799832871
4.806931049
4.806434039
4.798058739
4.787086877
4.771851499
4.753943819
4.73909956
4.730716577
4.727356378
4.727343591
4.729845565
4.735052619
4.743331344
4.749988796
4.753400287
4.754665216
4.754647541
4.753678335
4.752535878
4.751814179
4.751491236
4.751858955
4.752265381
4.752146842
4.751328352
4.750072107
4.74838617
4.746813079
4.746048299
4.746578803
4.747735404
4.749303825
4.751132423
4.752665321
4.753753237
4.754620717
4.75495404
4.754591334
4.753915156
4.753310429
4.752946476
4.752715741
4.752628764
4.752416558
4.7519441
4.751390547
4.750829329
4.750186997
4.749620331
4.749373078
4.749546401
4.749869706
4.751482181
1.431762353
2.134034157
2.85615595
3.827471684
4.276326982
4.466824837
4.571453483
4.647824688
4.747516908
4.777268058
4.788182212
4.796008144
4.800815497
4.800046648
4.79222651
4.777427117
4.758408015
4.741920862
4.733835186
4.731528847
4.732273276
4.737471749
4.743939818
4.748602872
4.751918948
4.753418705
4.75242916
4.75207914
4.752473975
4.752334484
4.751782805
4.751015535
4.750092773
4.748891271
4.747986392
4.74748946
4.747271666
4.747111208
4.747190937
4.747678993
4.748677186
4.749903802
4.751029449
4.751708019
4.752097287
4.752436781
4.752884084
4.753247541
4.753390006
4.753344442
4.75320231
4.752963092
4.752634787
4.752320458
4.752120268
4.751847294
4.751508148
4.751251112
4.751152917
4.751252819
4.75152598
4.751680626
4.751590502
4.751474925
4.751209939
4.750497485
4.753128984
3.737352276
4.212664785
4.405493753
4.543441222
4.642215696
4.738381898
4.762907398
4.770272107
4.778419315
4.786783218
4.79116592
4.786175238
4.77420732
4.759004383
4.744597569
4.73660624
4.734831577
4.737083065
4.744276753
4.747645401
4.750196989
4.753893142
4.75802303
4.760591684
4.760938917
4.758375497
4.753484575
4.748232072
4.744648899
4.742725282
4.742705854
4.744884447
4.746705702
4.748058195
4.749173524
4.749865281
4.750121722
4.750188024
4.75032619
4.750587009
4.750842694
4.751127034
4.751595845
4.752146672
4.752420637
4.752464098
4.752387877
4.752206983
4.751905495
4.751484866
4.751041215
4.750793099
4.750799909
4.751065983
4.751566111
4.752107236
4.752659994
4.753056225
4.753030283
4.752661879
4.752111456
4.751437391
4.750637748
4.749861063
4.749135598
4.748312847
4.753040991
4.529419375
4.642986279
4.714209882
4.734356618
4.744353017
4.753590389
4.766142025
4.772900811
4.770005283
4.761001186
4.752413506
4.743301411
4.735221697
4.730998733
4.731861097
4.737385927
4.745430745
4.754093174
4.761995019
4.766604857
4.767960913
4.766683206
4.762190316
4.75560741
4.748324712
4.742166226
4.738443143
4.737405462
4.738582913
4.740938412
4.743981829
4.747350247
4.750235037
4.752151265
4.753593603
4.754082025
4.753611587
4.752686244
4.751720294
4.75104966
4.750696052
4.750448843
4.750203738
4.750082191
4.750201476
4.750386575
4.750399851
4.750338555
4.750563471
4.751245339
4.752214176
4.753313722
4.754204412
4.754711079
4.754904571
4.754667618
4.754062029
4.753149781
4.751833069
4.750550364
4.749636458
4.749035221
4.74897798
4.749234105
4.749916537
4.750509311
4.753877241
4.712019193
4.726086301
4.728704769
4.740977531
4.748714565
4.741125593
4.737429372
4.736711049
4.731891551
4.727790056
4.72884255
4.73398843
4.743415684
4.753572799
4.762068234
4.768080271
4.770873342
4.770754462
4.768448129
4.76262351
4.753866685
4.744446008
4.737247575
4.734520023
4.73516627
4.738936507
4.74427304
4.747964878
4.750407845
4.752348628
4.753829254
4.754064223
4.753007279
4.751471247
4.750184476
4.749651889
4.749896544
4.750609647
4.75177994
4.752410978
4.752457269
4.752054265
4.750914097
4.749281575
4.747978052
4.747651086
4.748198156
4.749393688
4.751331511
4.753408451
4.7547554
4.755214872
4.754947594
4.753812377
4.752173963
4.750433908
4.748978741
4.74840851
4.748312194
4.748804704
4.749788873
4.750574205
4.751109548
4.751350849
4.751384541
4.750850403
4.751307551
4.705773296
4.714182787
4.711241529
4.718149621
4.724211445
4.725604183
4.730177425
4.736516043
4.741445643
4.747111934
4.755111397
4.762652863
4.768150605
4.771614536
4.772105549
4.769670102
4.763092533
4.75292858
4.742745298
4.736320114
4.73466716
4.735739122
4.739420979
4.745114921
4.751670603
4.755668494
4.756400364
4.755870755
4.753459287
4.749703032
4.74709106
4.746490289
4.746932272
4.748729643
4.750839075
4.752646771
4.753412625
4.753377188
4.752766268
4.751439669
4.750052812
4.749226918
4.748826821
4.748996255
4.749822806
4.751105323
4.75227464
4.753170401
4.753894705
4.754200457
4.753933
4.753225205
4.752504267
4.751811126
4.751108997
4.750511207
4.75035536
4.750895561
4.751855227
4.752406667
4.752148309
4.751600676
4.750898035
4.75006627
4.749457747
4.748799089
4.749280078
4.68380019
4.701498221
4.713753947
4.725699025
4.737499548
4.749083566
4.758775009
4.765669488
4.769658831
4.771050519
4.770004636
4.766881412
4.761754374
4.755306729
4.749923812
4.746725312
4.745321048
4.744100359
4.743426307
4.744602917
4.746254323
4.748866024
4.753749002
4.758291063
4.759001833
4.757528003
4.752671565
4.747273826
4.744696471
4.744482756
4.745478463
4.747931829
4.751165973
4.754225574
4.75602518
4.755654334
4.754316003
4.752305588
4.750307514
4.74918765
4.74862102
4.748932749
4.749903076
4.750668672
4.751105863
4.751125869
4.751047292
4.751038878
4.751130382
4.751329505
4.751721548
4.752171837
4.75210895
4.751746934
4.751562985
4.751715923
4.752062685
4.752376939
4.752839974
4.75292167
4.752373536
4.751335292
4.750220255
4.749046759
4.748789321
4.748277153
4.750914984
4.720110039
4.734079219
4.740193154
4.745125203
4.750836932
4.756999596
4.764045339
4.768074884
4.768275953
4.765910907
4.76062648
4.753763483
4.747407433
4.743868722
4.742195757
4.741825785
4.742954756
4.745589704
4.749069982
4.752321537
4.754805702
4.756374633
4.756234747
4.754518015
4.751780531
4.749138365
4.748719768
4.747875983
4.747468971
4.748121191
4.749784628
4.752217373
4.754977189
4.757312526
4.758027612
4.756926104
4.755078899
4.752630098
4.75051885
4.749346926
4.748852159
4.749501797
4.750800313
4.751811461
4.752103736
4.751815514
4.751327066
4.750916346
4.750709207
4.750836062
4.751418567
4.75222853
4.752818238
4.752998398
4.752911059
4.752814778
4.752630917
4.752204457
4.751488804
4.750847372
4.750549123
4.750258812
4.749729424
4.749143651
4.748821074
4.74844515
4.752980892
4.756316261
4.75739298
4.759136789
4.761046955
4.762168573
4.760879951
4.757951992
4.753630488
4.748915823
4.745595843
4.743745644
4.743589075
4.745258404
4.748435233
4.752424822
4.755702104
4.756981555
4.75692599
4.756102563
4.754156807
4.751611797
4.749418457
4.747984716
4.747406294
4.748189651
4.749329619
4.750032086
4.751102029
4.752736386
4.754310937
4.755325148
4.755589833
4.755188381
4.754024415
4.752369931
4.750747814
4.749455577
4.748864111
4.749143555
4.749991381
4.750744358
4.751055361
4.751099822
4.751038275
4.750933615
4.750821517
4.750956033
4.751473769
4.752173999
4.752790683
4.752954623
4.75266099
4.752018492
4.751263265
4.750636728
4.750108392
4.749868499
4.750233933
4.750965953
4.751303565
4.751391074
4.750793812
4.75011313
4.755250211
4.750291344
4.74948404
4.748135821
4.746743929
4.745534805
4.744981653
4.745243293
4.746841744
4.749947309
4.753616162
4.75617006
4.756324513
4.755171606
4.752599993
4.749178997
4.746775534
4.74620135
4.747194129
4.74980705
4.753172534
4.756031754
4.758223675
4.759728675
4.759970095
4.75917321
4.757582687
4.755908824
4.75461712
4.753774588
4.753335714
4.753161144
4.753021298
4.752518797
4.751963179
4.751761769
4.751808981
4.751707759
4.751310394
4.750950094
4.750808112
4.750867743
4.751107365
4.751580647
4.75218695
4.752759332
4.753011964
4.752904782
4.752444877
4.751941143
4.751420773
4.750992037
4.750675525
4.750572283
4.750641993
4.750846688
4.750839557
4.750830017
4.750757137
4.750705256
4.756593408
4.753145213
4.747781242
4.744690026
4.743692769
4.744727553
4.748358411
4.75242003
4.754111302
4.75420587
4.752849754
4.749300946
4.74532303
4.743563259
4.744030889
4.746051798
4.750948166
4.757908623
4.763786681
4.766201548
4.766000584
4.763437434
4.758011023
4.752045018
4.747952076
4.746141288
4.745758485
4.74691816
4.750319586
4.754522014
4.757437608
4.758206991
4.757716106
4.756019895
4.752920661
4.749455069
4.746904997
4.7457489
4.745580218
4.746188606
4.748106506
4.751024596
4.753850017
4.75545894
4.755730578
4.755357717
4.753988423
4.751822922
4.749547838
4.74778145
4.746809545
4.746518258
4.746899748
4.748430047
4.750689796
4.75317165
4.754789348
4.759922165
4.749421597
4.751039864
4.751534222
4.750507087
4.74858626
4.746968512
4.746415182
4.747497328
4.750190293
4.75422037
4.758920872
4.762803661
4.764577119
4.764377985
4.76163563
4.756805738
4.752094092
4.748983195
4.747806206
4.748039114
4.750257311
4.754322656
4.75900166
4.761803459
4.761998147
4.760626508
4.757341773
4.752732559
4.748954942
4.746858266
4.7461776
4.746397292
4.747940228
4.750646632
4.753587304
4.75581871
4.75663063
4.756252395
4.75451008
4.751938651
4.749977991
4.748877906
4.748470094
4.748557472
4.749390473
4.750822275
4.75218605
4.753290891
4.753835025
4.753672246
4.752779764
4.751007742
4.752707268
4.73929885
4.742357258
4.747114272
4.752854792
4.757283595
4.759717127
4.760877922
4.759418995
4.755628267
4.751867093
4.749469272
4.748953963
4.750257089
4.752347789
4.755630746
4.759440143
4.762249445
4.763204727
4.762770768
4.76073222
4.756985048
4.752479681
4.748525329
4.746004991
4.745740488
4.746781236
4.748750156
4.751778564
4.754959966
4.756890227
4.75713697
4.756248624
4.753770545
4.750130509
4.746877855
4.744934483
4.745135317
4.746508894
4.748685774
4.751862248
4.755355472
4.757510216
4.757693865
4.75666583
4.754072789
4.750304595
4.746919508
4.744803783
4.744045054
4.74687299
0.2561090157
0.2561446505
0.2562554136
0.2563477437
0.2563247551
0.2562813513
0.2562497376
0.2562437349
0.2562687713
0.2562983902
0.2563008724
0.2562893396
0.2561781803
0.2556303032
0.2556937901
0.2557324176
0.2557753827
0.2558104192
)
;

boundaryField
{
    inlet
    {
        type            fixedValue;
        value           nonuniform 0();
    }
    outlet
    {
        type            zeroGradient;
    }
    bottom
    {
        type            slip;
    }
    top
    {
        type            slip;
    }
    obstacle
    {
        type            zeroGradient;
    }
    defaultFaces
    {
        type            empty;
    }
    procBoundary14to7
    {
        type            processor;
        value           nonuniform List<scalar> 
11
(
1
1
1
1
1
1
1
1
1
1
1
)
;
    }
    procBoundary14to8
    {
        type            processor;
        value           nonuniform List<scalar> 
81
(
1
1
1
1
1
1
1
1
1
1
1
1
1
1
1
1
1
1
1
1
1
1
1
1
1
1
1
1
1
1
1
1
1
1
1
1
1
1
1
1
1
1
1
1
1
1
1
1
1
1
1
1
0.9999997483
0.9999997483
0.9999924242
1.000457277
1.015611728
1.209639858
3.916002137
3.916002137
4.589788993
4.783423665
4.791582727
4.705476823
4.705476823
4.700687153
4.708421732
4.722374163
4.77784688
4.77784688
4.777431312
4.7733472
4.742820066
4.742820066
4.740038266
4.739686698
4.740823169
4.754839761
4.754839761
4.756533381
4.757030419
)
;
    }
    procBoundary14to9
    {
        type            processor;
        value           nonuniform List<scalar> 
26
(
4.750221301
4.750375412
4.75246167
4.752805649
4.751981479
4.752333531
4.753625462
4.754344251
4.753256858
4.752695132
4.753257438
4.75352715
4.750305848
4.741245522
4.729674721
4.713644308
4.697362063
4.673474077
4.632824765
4.572692878
4.475581742
4.325820509
4.108529366
3.737784397
3.164701641
1.907719868
)
;
    }
    procBoundary14to13
    {
        type            processor;
        value           nonuniform List<scalar> 
24
(
1
1
1
1
1
1
1
1
1
1
1
1
1
1
1
1
0.999999985
1.097950999
2.784344424
4.3558458
4.696841749
4.691077359
4.665269058
4.707187142
)
;
    }
    procBoundary14to20
    {
        type            processor;
        value           nonuniform List<scalar> 
37
(
4.75048835
4.755140178
4.756216376
4.756216376
4.751928722
4.750786519
4.750022383
4.750071152
4.750071152
4.763578491
4.761096513
4.757776045
4.757776045
4.7447778
4.743640509
4.744192416
4.746595404
4.746595404
4.741491298
4.737967312
4.73748684
4.73748684
0.2560982082
0.2559846287
0.2559411283
0.255899278
0.2558319093
0.2557621907
0.2557120627
0.2556603775
0.2556178736
0.2556178736
0.2556029239
0.2557091665
0.2557429241
0.2558180003
0.2558246297
)
;
    }
    procBoundary14to27
    {
        type            processor;
        value           nonuniform List<scalar> 2(0.2894973035 0.2555170592);
    }
}


// ************************************************************************* //
