/*--------------------------------*- C++ -*----------------------------------*\
  =========                 |
  \\      /  F ield         | OpenFOAM: The Open Source CFD Toolbox
   \\    /   O peration     | Website:  https://openfoam.org
    \\  /    A nd           | Version:  7
     \\/     M anipulation  |
\*---------------------------------------------------------------------------*/
FoamFile
{
    version     2.0;
    format      ascii;
    class       volScalarField;
    location    "1.1";
    object      p;
}
// * * * * * * * * * * * * * * * * * * * * * * * * * * * * * * * * * * * * * //

dimensions      [1 -1 -2 0 0 0 0];

internalField   nonuniform List<scalar> 
2223
(
0.7879585368
0.7738892849
0.7543702051
0.7393033104
0.7281102296
0.7157662004
0.7000077912
0.6891067356
0.6806373413
0.6704731715
0.6589387142
0.6506480447
0.6431818008
0.6331934829
0.6230473629
0.6158389184
0.6095230349
0.6012293505
0.5938048487
0.5882738383
0.5829357935
0.5756473147
0.5690599702
0.5636771841
0.5585232734
0.94313675
0.9124883468
0.8919049232
0.873850504
0.848813636
0.8270779711
0.8124098013
0.7978567133
0.7774356667
0.7615049871
0.7496663985
0.7366559843
0.7199700955
0.7083974419
0.6994603722
0.6887763822
0.6766301427
0.6679420065
0.6601152896
0.6496234614
0.6388449822
0.6312306602
0.6245752818
0.6158232847
0.6079820888
0.6022396063
0.5967033065
0.5891847861
0.5823421204
0.5768441611
0.5714243397
0.974707626
0.9428639352
0.9217891199
0.9031466866
0.8770339717
0.8543646097
0.8388042035
0.8232839205
0.8016825739
0.7845367836
0.7717287989
0.7578511636
0.7401862182
0.7278519796
0.7184009823
0.7071307901
0.6942209217
0.6849853801
0.6767333932
0.6657444537
0.6544902887
0.6466369696
0.6397997422
0.6307775571
0.6224993562
0.6163915834
0.6105519664
0.6026163118
0.5953591169
0.589373726
0.583601151
1.005643125
0.9721495757
0.9499758139
0.9304561992
0.9030953995
0.879456816
0.8635384496
0.8476245092
0.825258397
0.8074030417
0.7941031354
0.7797107781
0.7612413246
0.7482213023
0.7381806169
0.7262191188
0.7124567382
0.7026173146
0.6938827785
0.6822663564
0.6704150106
0.6623127068
0.6552728992
0.6458886003
0.6372365722
0.6308385666
0.6247444936
0.6164649918
0.6089492296
0.6027868377
0.5968563213
1.037511927
1.002446597
0.9797118176
0.9597924627
0.9315001621
0.9071500531
0.8906475591
0.8738521152
0.8502875367
0.8314520698
0.8173057109
0.8020733914
0.782704129
0.7688524118
0.7581564269
0.7454937512
0.7308794235
0.72046804
0.7113819501
0.6993819581
0.6869924405
0.6784485799
0.6709817143
0.6610528595
0.6518824197
0.6451251469
0.6387041069
0.6300414424
0.6221328661
0.6156795774
0.6093793903
1.069413923
1.03293188
1.009455995
0.9888972141
0.9594206712
0.9337200803
0.9161788962
0.8984160105
0.8735339611
0.8539004479
0.8394414085
0.8237689044
0.8037230958
0.7894660372
0.7784005505
0.7651928428
0.7497935467
0.738867235
0.7294413572
0.7170654784
0.7042067615
0.6952498969
0.6873834005
0.6769244325
0.6671819852
0.6600010033
0.6531855218
0.6439744799
0.6357283444
0.6290275064
0.6225477126
1.102548808
1.064107888
1.039628023
1.018170935
0.987414193
0.9608899089
0.9430680563
0.9250146057
0.8993782158
0.8791118907
0.863988798
0.8474257478
0.8264095437
0.8112830229
0.79939321
0.7853012835
0.7689365268
0.7572873321
0.7473802624
0.7344208137
0.720928423
0.7115502964
0.7033675068
0.6925702906
0.682546648
0.6751269932
0.6680535066
0.6584203644
0.6497030636
0.6426430079
0.6358109434
1.135765432
1.096024397
1.070688048
1.048336918
1.015978941
0.9879336559
0.969024864
0.9499436529
0.9230212374
0.9020777398
0.8867565151
0.8698451303
0.8482159316
0.8326536002
0.8204019563
0.8058285266
0.7887353096
0.7764911584
0.7660906548
0.7524863464
0.738231257
0.7283014986
0.7196162306
0.7081519817
0.6977662019
0.6902565678
0.6830519808
0.6731306288
0.6640686177
0.6567168143
0.6496576925
1.169531384
1.127575685
1.101277237
1.0781074
1.044691493
1.015840015
0.9965180366
0.9770642957
0.9490867473
0.9273078111
0.9113861983
0.8936396162
0.8711756998
0.8551231302
0.842293366
0.8270032411
0.8091842616
0.7962101304
0.7852007361
0.770941172
0.7559257096
0.7454347169
0.736359056
0.7243896121
0.7134904449
0.7055901507
0.6979560608
0.6874748036
0.6780650208
0.6705064464
0.6632982379
1.204794398
1.161191939
1.133246691
1.108600895
1.07314426
1.04319163
1.023507753
1.003758211
0.9753718664
0.9525875962
0.9356124857
0.9166264534
0.8926448009
0.87584936
0.8626463882
0.8468280812
0.8285373154
0.8153944532
0.80417524
0.7894873112
0.77384729
0.7629623576
0.7536085797
0.7413056622
0.7300726278
0.7218115479
0.7137722246
0.7026824941
0.6926915634
0.6847171621
0.6771260877
1.239718627
1.194530382
1.165556263
1.140045899
1.103336114
1.071954764
1.05130619
1.030474402
1.000644772
0.9772548931
0.9599687506
0.9407309345
0.9161809237
0.8990606409
0.8854710687
0.8688821654
0.8498981897
0.8361553214
0.8242382333
0.8087318834
0.7922466297
0.7806671465
0.7708306755
0.7579654747
0.7462689273
0.7376660683
0.7293126975
0.7179297617
0.7076587552
0.6993930752
0.6914627526
1.275199157
1.228081272
1.197514672
1.170875471
1.132823032
1.100637999
1.079674509
1.058193839
1.027130144
1.00240166
0.9839842995
0.9635309463
0.9377737338
0.9202824178
0.9066398808
0.8897230733
0.8703122202
0.8562806649
0.8440292462
0.8279774263
0.8108113263
0.7987537272
0.788570818
0.7752330312
0.7630743325
0.754010856
0.7451154453
0.7330576588
0.7224669538
0.7140397483
0.7059177215
1.310115005
1.261712606
1.230135908
1.202727492
1.163233919
1.129329073
1.107602463
1.085228529
1.053170177
1.028009505
1.009229777
0.9883780063
0.9615355006
0.943404801
0.9293333687
0.9117313811
0.8919094905
0.8776409787
0.8649006676
0.8481445551
0.8303203087
0.8175666976
0.806805615
0.7928323722
0.780107942
0.7705655586
0.7612318727
0.7486393103
0.7375998478
0.728831061
0.7202899765
1.3449467
1.294798443
1.262355509
1.234543862
1.194474462
1.159556603
1.137035829
1.113436504
1.079541687
1.053384626
1.03404992
1.012755869
0.9856363125
0.9669090073
0.9522215192
0.9335449103
0.9125426555
0.8975022666
0.8841595367
0.8666508238
0.8483982888
0.8355374509
0.8246235414
0.8102276813
0.7970494989
0.7872072201
0.7775726229
0.7645924367
0.7533108324
0.7443681609
0.7355807893
1.381167033
1.329635236
1.295952556
1.267294816
1.225986319
1.189684725
1.166579995
1.142289409
1.107474113
1.08034595
1.060087085
1.037597949
1.009124736
0.9898876374
0.9747936717
0.9556884185
0.9342097233
0.9189140158
0.9052190032
0.8869667646
0.8682458572
0.8550217016
0.8435883582
0.8284972682
0.8146725707
0.8042557374
0.7941176994
0.7805380019
0.7688689368
0.759696922
0.7506927139
1.417335609
1.364721207
1.330231794
1.301029962
1.258736672
1.220799916
1.196355654
1.170754878
1.134620097
1.106977504
1.08637872
1.063146615
1.033773799
1.013471434
0.9973631447
0.9769002422
0.9543464253
0.9387347804
0.9249158682
0.9062494594
0.8872568316
0.8739067363
0.862249512
0.8466215297
0.8321975844
0.8213462733
0.8108385226
0.7967923505
0.7848047593
0.7753772487
0.7660157936
1.453808869
1.399627378
1.364099876
1.334238381
1.290977776
1.251666259
1.226189363
1.199556607
1.161928136
1.13331964
1.112169105
1.088043729
1.057946303
1.037335486
1.020763283
0.9995811295
0.9758391779
0.95970481
0.9455695793
0.926357081
0.9073349881
0.8941001886
0.8822659323
0.8662232857
0.851241708
0.8396437314
0.828403595
0.8135728472
0.8010275985
0.7911672138
0.7813979333
1.489750678
1.434329119
1.39809665
1.36759273
1.32297877
1.282097329
1.255526331
1.227914814
1.189008942
1.159883478
1.138547196
1.113520795
1.082468674
1.061321276
1.044217212
1.022408575
0.998075442
0.9814261736
0.966853274
0.9467148146
0.9269708909
0.913188925
0.9008230401
0.8841389992
0.8687864338
0.8569333056
0.8453723341
0.829974541
0.8170288968
0.8069355498
0.7969047852
1.525860622
1.468660763
1.431800935
1.400926861
1.355547038
1.313533385
1.285940977
1.257321183
1.21668539
1.186623792
1.165011683
1.139389234
1.107900773
1.086378121
1.068701364
1.045985704
1.020528856
1.003188978
0.9880546581
0.9672649039
0.9471564509
0.9331786093
0.9204824281
0.903166105
0.8874699233
0.8752648794
0.8631524478
0.8470067578
0.8335807239
0.8231408137
0.81278344
1.56234809
1.504016952
1.466328556
1.434797902
1.388327566
1.345519596
1.317317588
1.288157698
1.246354925
1.215029615
1.19249281
1.165544248
1.133256509
1.111438158
1.093384666
1.070046015
1.04388605
1.025498212
1.009346011
0.9871316187
0.9662235398
0.9519969195
0.939022826
0.9211888868
0.9052284151
0.8928765724
0.8804852498
0.8636655015
0.8497513499
0.8391016691
0.8285517926
1.599599835
1.540135
1.501451097
1.469186641
1.421541017
1.377563219
1.348592946
1.318923176
1.276289626
1.243883424
1.220476602
1.192314701
1.158875548
1.136317067
1.117583568
1.093292902
1.06652125
1.047691832
1.030974725
1.007855052
0.9859939914
0.9713784422
0.9579880881
0.9394868246
0.923558122
0.9114331156
0.8990897625
0.8820391525
0.8677103632
0.8565461928
0.8454290265
1.63772608
1.577458178
1.537019491
1.503384903
1.454256891
1.409047245
1.379337864
1.348962262
1.305203528
1.27187096
1.247804177
1.218594916
1.184156597
1.161082933
1.141881707
1.116470145
1.088965007
1.069728784
1.052587709
1.028878155
1.006606268
0.9917171109
0.9779074077
0.9585538318
0.9420916359
0.9295636552
0.9167629536
0.8991916848
0.8844975839
0.8730382212
0.861534145
1.674909765
1.614346047
1.572412708
1.537685685
1.487372248
1.440589676
1.409914618
1.378563704
1.333542924
1.299467531
1.274949706
1.244872515
1.209155771
1.185590709
1.166046308
1.139810834
1.111854386
1.092408628
1.074938471
1.050606752
1.027718212
1.012429003
0.9981320473
0.9781324697
0.9613711546
0.9486080511
0.9354776875
0.9173857066
0.9022969061
0.8903682936
0.8782001422
1.710306437
1.649611739
1.606333715
1.571063941
1.520582281
1.473016718
1.441536212
1.409027904
1.362352646
1.327636948
1.302833543
1.272154726
1.235378956
1.211136136
1.191025761
1.163616504
1.135144293
1.115454935
1.097685202
1.072919883
1.049651057
1.03361432
1.018413745
0.9971606449
0.9797561665
0.9666877841
0.9531590596
0.9346466023
0.919266731
0.9070337962
0.8943804185
1.745071826
1.684126827
1.63933128
1.603744712
1.55343253
1.505566035
1.473905102
1.440825541
1.392893074
1.357206744
1.331763443
1.300422725
1.262752997
1.237858588
1.217172922
1.188730449
1.159433468
1.138879258
1.120259962
1.094632353
1.07106753
1.054665638
1.038901852
1.016730742
0.9984838753
0.9848542378
0.9705968129
0.9512696979
0.9360025804
0.9240384534
0.9115333886
1.78144761
1.720827121
1.673578153
1.636889794
1.586537366
1.53837817
1.506234931
1.472469187
1.423503377
1.386977615
1.360906418
1.328702604
1.290063031
1.264544443
1.243371893
1.214028475
1.18403072
1.162554012
1.142969178
1.116097065
1.092154465
1.075441665
1.059214181
1.036382895
1.017720626
1.003786215
0.9888984183
0.9686282486
0.9530203528
0.9409326283
0.928224755
1.818212074
1.759665305
1.709853971
1.671337346
1.620428459
1.571446301
1.538229177
1.503440743
1.453205271
1.415619245
1.388902168
1.355778718
1.316162919
1.290306709
1.268862744
1.238587705
1.207604398
1.185408375
1.165132856
1.137396319
1.113381765
1.096730535
1.0803448
1.056932287
1.037695824
1.023267085
1.007687011
0.9866607348
0.9709597563
0.9589361009
0.9462515697
1.851712675
1.795902419
1.744749302
1.705284946
1.654479992
1.604497992
1.569707973
1.533689475
1.482475493
1.44421164
1.416903085
1.382518154
1.341621274
1.315681124
1.294133693
1.262980166
1.230944835
1.208084787
1.187169511
1.15840357
1.134502756
1.118154941
1.101867635
1.078333359
1.058694605
1.04354757
1.026964386
1.00475106
0.9886241384
0.9765110425
0.9636428451
1.88047061
1.827317376
1.776409451
1.737375934
1.687405525
1.636512484
1.600506978
1.563803973
1.512162463
1.473705063
1.446081202
1.410785596
1.368663143
1.3423063
1.320292396
1.288149028
1.255073673
1.231659572
1.210197105
1.180529609
1.156371584
1.139726676
1.122937665
1.098794486
1.078828791
1.063264092
1.046077243
1.023057432
1.006397716
0.9939716433
0.9804755677
1.90782258
1.857596283
1.807413616
1.768884276
1.719728048
1.667533061
1.630580846
1.593850505
1.542711636
1.504512537
1.476561358
1.440446078
1.397366769
1.370464719
1.347826944
1.314673256
1.280665817
1.25656369
1.234427803
1.20391269
1.179394948
1.162004405
1.144175598
1.118811197
1.098211302
1.082083535
1.064193574
1.040492767
1.02375944
1.011356381
0.9973604848
1.93552293
1.888701318
1.839477116
1.801258624
1.753054016
1.699277391
1.661058625
1.624216203
1.573711919
1.535734607
1.50736151
1.470524401
1.426340873
1.398399819
1.374869925
1.340747529
1.306241849
1.281882438
1.259299616
1.22797777
1.202722549
1.184352049
1.165327448
1.138801941
1.117742866
1.101287144
1.082917239
1.058494953
1.04157315
1.029016296
1.014465868
1.963733714
1.919050446
1.871046194
1.833980953
1.787876021
1.733034673
1.692814938
1.655071033
1.604707614
1.566377231
1.53713092
1.499403444
1.454190083
1.425125764
1.400553292
1.364924524
1.329919626
1.305880268
1.283306379
1.251498854
1.225681083
1.206609219
1.186557721
1.158835698
1.137540198
1.121039926
1.102527987
1.077927799
1.060942579
1.048074504
1.032765871
1.986749555
1.945609856
1.900354748
1.86488907
1.821187289
1.766352959
1.724491467
1.685612303
1.634797968
1.595731216
1.565686527
1.527303428
1.481179595
1.451239472
1.425678066
1.38847086
1.352846852
1.329137436
1.306492763
1.274031269
1.247849606
1.228646287
1.208128759
1.17971969
1.158218214
1.141597832
1.122805154
1.097864921
1.080745051
1.067555847
1.051741309
2.000582397
1.967455175
1.926537431
1.891982254
1.850024341
1.796233303
1.754449865
1.715509652
1.664465639
1.624603122
1.594098999
1.555432096
1.508912444
1.478442691
1.451985525
1.413149147
1.376886454
1.353322384
1.330433377
1.297072008
1.270369563
1.250960857
1.229866852
1.20081064
1.179201372
1.16245014
1.143276102
1.117871786
1.100210422
1.086368608
1.069643538
2.013693161
1.988589418
1.950850946
1.916843687
1.876810987
1.824505575
1.783251429
1.744854019
1.693935255
1.653437023
1.623023739
1.584465758
1.53773715
1.506880814
1.479736433
1.439790753
1.40295137
1.379136278
1.355813929
1.321707466
1.294472638
1.274618221
1.252584887
1.222460583
1.20018087
1.182864447
1.163064151
1.137257916
1.119163223
1.104769297
1.087137986
2.028522182
2.006855226
1.973865533
1.941789939
1.904033122
1.852687794
1.811429341
1.773983299
1.723855
1.682767888
1.652552849
1.614266682
1.567523583
1.535936132
1.507877506
1.466927426
1.429677311
1.405485535
1.381690194
1.346900677
1.31923111
1.298856193
1.275710022
1.244397098
1.221210374
1.203122233
1.182445128
1.156053567
1.137755512
1.123052489
1.104703711
2.024576126
2.015031404
1.996126158
1.968764117
1.932613478
1.881580852
1.840217112
1.804126196
1.755297692
1.713217943
1.68250087
1.644095628
1.597139547
1.564498539
1.535398358
1.49345322
1.455542122
1.430819487
1.406463646
1.3710354
1.343221535
1.322623125
1.298487595
1.265882955
1.241823922
1.223214488
1.201936084
1.17518481
1.156924207
1.14210571
1.123246258
2.008236455
2.02166646
2.014519715
1.991996449
1.958362399
1.910659732
1.870487373
1.83549081
1.787074556
1.742987064
1.711110063
1.672291896
1.62495375
1.591337208
1.561484595
1.519029585
1.480710781
1.455439011
1.430166125
1.393470692
1.365684234
1.345330437
1.32067549
1.287092167
1.262505106
1.243684037
1.221849361
1.194786567
1.176809941
1.162088078
1.14299158
2.028641172
2.032133909
2.025387626
2.003667447
1.976556416
1.93697049
1.899076868
1.86497667
1.817001951
1.771375066
1.738738037
1.699476078
1.651396789
1.616941589
1.586781715
1.544372524
1.506023934
1.480349568
1.454059301
1.415814454
1.387753766
1.367489119
1.342362051
1.308004658
1.283453545
1.264923775
1.242758141
1.215329549
1.197255878
1.18231111
1.16275693
2.01996239
2.014332038
2.01174624
2.008786011
1.994045662
1.962247227
1.924382156
1.890909936
1.844796532
1.799316272
1.766812552
1.727500037
1.678513529
1.643027991
1.612678827
1.570502497
1.532357669
1.506371595
1.479169841
1.439654601
1.411158679
1.390526789
1.36467375
1.329322042
1.304804009
1.286522613
1.263934532
1.236292616
1.21795769
1.202564507
1.182148327
1.87183401
1.955491153
2.002436586
2.016461003
2.009298412
1.984982907
1.948534423
1.915385199
1.871189729
1.826220374
1.794367122
1.755665743
1.706332815
1.670232833
1.640113903
1.598374513
1.560289592
1.533794999
1.505805063
1.465666405
1.436528365
1.414901207
1.388014016
1.351707037
1.326901668
1.308383454
1.28488842
1.256741516
1.238050075
1.222173338
1.200909406
1.642753622
1.948988524
2.022330812
2.013448758
2.003758304
1.999136143
1.975529481
1.941893666
1.897833958
1.852506545
1.821439946
1.783944717
1.73496656
1.698489811
1.668579377
1.627037494
1.588514331
1.561210933
1.532465747
1.49220239
1.462560306
1.439836552
1.411866687
1.374681341
1.349362891
1.33021156
1.305451976
1.276639152
1.257625333
1.241327151
1.219183875
1.356108673
1.799717885
1.956939155
1.970755971
1.997099274
2.011302606
1.996357256
1.965350744
1.925093499
1.881077202
1.849442359
1.811565922
1.762175983
1.72536671
1.695691342
1.654207749
1.61492432
1.587049349
1.557687452
1.517276649
1.487288411
1.463895083
1.435158058
1.39743142
1.371722778
1.351918384
1.325841612
1.296228305
1.277134189
1.260692097
1.237909752
1.126240728
1.458458868
1.769391554
1.949498543
2.02731752
2.024733502
2.010649338
1.982986181
1.949735805
1.909340619
1.876295224
1.83733216
1.787203792
1.750676203
1.72158776
1.680224594
1.640162052
1.611853886
1.581736903
1.54069624
1.510311398
1.486595491
1.457202466
1.418962939
1.393422001
1.373497478
1.346569525
1.316306611
1.297297231
1.280862162
1.257526934
1.230863842
1.027279239
1.158665547
1.513916386
1.896922639
2.016274635
2.008239108
2.001014464
1.993691778
1.974052945
1.937597082
1.902161022
1.863173466
1.812946992
1.776351127
1.747394852
1.705955336
1.665222933
1.636696298
1.605988062
1.563965689
1.532852593
1.508838686
1.47879853
1.440000911
1.414882452
1.395172466
1.367802814
1.337137743
1.318277058
1.30187218
1.277957604
1.250712028
1.003722317
1.032867939
1.236427074
1.647724498
1.871336224
1.958323242
1.99993453
2.001760672
1.991317439
1.961986195
1.927031164
1.889807155
1.839720049
1.801818365
1.772546756
1.731072156
1.690134076
1.662100814
1.631746218
1.589401517
1.55723394
1.532385388
1.501284809
1.461717648
1.436871546
1.417326738
1.389601351
1.358579372
1.339580243
1.322933361
1.298251423
1.270420587
1.000320481
1.004298639
1.066406631
1.294348878
1.663867599
1.955292803
2.011242005
1.993650328
1.99159491
1.980836694
1.951382249
1.915435514
1.866429205
1.828498654
1.799919987
1.758795893
1.717051087
1.688760295
1.658783476
1.616633996
1.583290721
1.557326824
1.525220632
1.485037025
1.459909006
1.440042571
1.411830202
1.380487833
1.360891086
1.343535244
1.317668317
1.289057316
1.000017359
1.000370381
1.011111805
1.080097179
1.380811166
1.817209069
1.930945896
1.95658221
1.990492926
1.992557956
1.972568209
1.939872911
1.894572953
1.856674063
1.828137653
1.78701998
1.744056771
1.715137569
1.685369723
1.64328164
1.608882392
1.582204908
1.549707997
1.509648233
1.483895394
1.463230904
1.434191829
1.402364831
1.381888845
1.363570732
1.336357345
1.306982302
1.000000587
1.00002258
1.001146989
1.01328566
1.138463822
1.478336779
1.774793666
1.964434123
2.012935055
2.004986393
1.987555664
1.961734455
1.92535946
1.885678364
1.853357882
1.810990073
1.768063234
1.740011621
1.710719195
1.668329283
1.63286148
1.606015609
1.573702098
1.534263971
1.507806573
1.486221634
1.456267847
1.423729686
1.402389067
1.383199319
1.354757454
1.324923245
1.000000014
1.00000111
1.000075838
1.001477503
1.02989087
1.172317566
1.530989012
1.909114573
2.001578266
1.986127214
1.983259811
1.977400566
1.95453373
1.914618791
1.877766166
1.834006831
1.791308387
1.763860968
1.73456041
1.691676847
1.655272698
1.628520624
1.596175894
1.557082902
1.530438957
1.508664207
1.478401408
1.445309591
1.423238482
1.40342792
1.373952282
1.343749724
1
1.000000052
1.000003529
1.000117988
1.003967116
1.037538506
1.249283545
1.659894025
1.870790509
1.948895192
1.995783476
1.992658451
1.974476208
1.938651203
1.9020152
1.858826902
1.815166533
1.786544906
1.756543846
1.713766551
1.677707635
1.651518318
1.618797815
1.578947522
1.552059291
1.530544404
1.500434821
1.467084799
1.444512771
1.424441287
1.39425851
1.363958014
1
1.000000002
1.00000012
1.000007279
1.00032939
1.005291694
1.070484503
1.315055484
1.69679788
1.943107356
1.990540923
1.985278969
1.983026424
1.961783552
1.927167129
1.885280579
1.84089986
1.810919252
1.780084985
1.737456738
1.702345964
1.676612807
1.643291493
1.601839069
1.573884359
1.552318449
1.522231359
1.488689315
1.465987919
1.445833916
1.41537488
1.385082667
1
1
1.000000003
1.000000357
1.000017792
1.000519724
1.011924857
1.094747239
1.413596459
1.800875748
1.907340195
1.965917146
1.988618743
1.977994277
1.949987917
1.912883218
1.86909285
1.837728251
1.805601543
1.762006836
1.727386054
1.701946749
1.668906811
1.626750208
1.597357647
1.57517394
1.544471689
1.510416356
1.487281557
1.466729825
1.436433763
1.405199969
1
1
1
1.000000014
1.000000653
1.000039013
1.001250637
1.017911717
1.14946379
1.482686799
1.789879439
1.982610302
1.993665669
1.981654622
1.966717562
1.941412437
1.900672846
1.864806419
1.830622816
1.78644134
1.752066459
1.726391841
1.693831847
1.652339651
1.621979565
1.598844157
1.567277068
1.532555456
1.50791199
1.486869142
1.455896198
1.424113457
1
1
1
1
1.000000019
1.000002319
1.00008463
1.002267962
1.030036865
1.189544627
1.561970074
1.919298821
1.946995874
1.957529581
1.975528782
1.966649742
1.932705648
1.891484745
1.855353123
1.811458539
1.776678776
1.749783458
1.716961358
1.676213997
1.645280533
1.621219712
1.589346467
1.55426356
1.528851127
1.506903052
1.475229652
1.443809798
1
1
1
1
1
1.00000011
1.000004117
1.000196717
1.003762376
1.045618772
1.265311224
1.66136897
1.85309455
1.95213802
1.987277331
1.981981421
1.952374125
1.913010308
1.878704683
1.835651846
1.79905071
1.770979406
1.738326321
1.699162671
1.667984328
1.643012643
1.610361055
1.574842985
1.549396306
1.526726402
1.496095173
1.462905084
1
1
1
1
1
1.000000004
1.000000147
1.000013383
1.000307402
1.007538503
1.073298249
1.331591836
1.717995748
1.951745091
1.97889338
1.968283145
1.959930003
1.935526233
1.903125899
1.859959145
1.821227517
1.79297562
1.760649267
1.722375808
1.691347057
1.665289908
1.631411628
1.5953126
1.568647112
1.547387996
1.517295278
1.485827673
1
1
1
1
1
1
1.000000004
1.000000703
1.000018872
1.000883889
1.012527097
1.107663349
1.421635704
1.801469022
1.905433318
1.947499184
1.967551646
1.956537956
1.929183435
1.888436858
1.847401928
1.818193832
1.784001953
1.744383314
1.713822514
1.687281859
1.653459616
1.61548486
1.589414463
1.567757042
1.540023275
1.508224106
1
1
1
1
1
1
1
1.000000028
1.000000882
1.00007661
1.001364269
1.022635037
1.152762962
1.50008985
1.815136632
1.969804882
1.970981509
1.959292543
1.945456494
1.919673455
1.880468455
1.846466019
1.808805832
1.767861615
1.736670013
1.710774638
1.676143703
1.638550837
1.611102684
1.589502005
1.561788954
1.524273026
1
1
1
1
1
1
1
1.000000001
1.000000031
1.000004578
1.000100346
1.003248142
1.03162831
1.218745568
1.588998425
1.895249981
1.925634589
1.945634112
1.957626816
1.945775476
1.911711517
1.87303163
1.835031918
1.79329246
1.761702223
1.733484443
1.698653507
1.662203294
1.633342864
1.611016073
1.5780522
1.544465675
1
1
1
1
1
1
1
1
1.000000001
1.000000183
1.00000512
1.000313439
1.004352989
1.058394769
1.287110454
1.646539781
1.860996988
1.962128947
1.972066418
1.962598314
1.93014818
1.895124843
1.859232346
1.817828428
1.783617464
1.753193523
1.720900528
1.68410632
1.656750135
1.62818117
1.595873906
1.594122856
1
1
1
1
1
1
1
1
1
1.000000005
1.000000179
1.00002173
1.000394885
1.010356404
1.080931273
1.351711277
1.731922652
1.949414434
1.954819054
1.946542084
1.94027452
1.919330207
1.885257805
1.842334226
1.802770905
1.773781259
1.741645926
1.707256219
1.673979506
1.64611603
1.643949849
1.710889368
1
1
1
1
1
1
1
1
1
1
1.000000005
1.000001051
1.000025073
1.001220781
1.014055163
1.122722243
1.438514717
1.786037447
1.889349081
1.933859778
1.949326813
1.937811917
1.909742261
1.866456508
1.825850227
1.795253574
1.762930226
1.723041467
1.691359572
1.689703164
1.756089867
2.045924057
1
1
1
1
1
1
1
1
1
1
1
1.000000035
1.000001104
1.000098866
1.00153736
1.027070502
1.163023311
1.496868764
1.846903625
1.948257839
1.942895574
1.936594034
1.925888846
1.895045077
1.854078364
1.820081536
1.780587187
1.739370606
1.737933388
1.798579031
2.085297805
2.578984178
1
1
1
1
1
1
1
1
1
1
1
1.000000001
1.000000034
1.000005425
1.000112358
1.003971767
1.034334377
1.23112083
1.633976592
1.847664182
1.894386385
1.933491768
1.937447947
1.919391847
1.883458241
1.841637966
1.79928355
1.789338686
1.850701161
2.134303887
2.60188096
2.950851027
1
1
1
1
1
1
1
1
1
1
1
1
1.000000001
1.000000206
1.000005759
1.000389186
1.004709442
1.067387297
1.295357151
1.634428907
1.885968399
1.95135624
1.945692684
1.934395877
1.905259989
1.864544725
1.847246165
1.9019597
2.183333925
2.697010425
2.89371041
3.002089943
1
1
1
1
1
1
1
1
1
1
1
1
1
1.000000005
1.000000213
1.00002634
1.00043975
1.012283317
1.08176912
1.369415267
1.763129677
1.901282879
1.927783539
1.927500443
1.916319352
1.908218259
1.968444901
2.249275881
2.726319727
3.120099068
3.111703117
3.052067206
1
1
1
1
1
1
1
1
1
1
1
1
1
1
1.000000006
1.000001215
1.000029198
1.001433169
1.014158705
1.138597207
1.450570818
1.73969906
1.917693511
1.925870694
1.937423947
2.013779062
2.329526885
2.825972365
3.045505981
3.180011997
3.170722493
3.111005892
1
1
1
1
1
1
1
1
1
1
1
1
1
1
1
1.000000037
1.000001374
1.00010823
1.001663499
1.030548258
1.166474985
1.523614251
1.841504483
1.906878263
2.030595591
2.409714357
2.930714446
3.261766439
3.257091088
3.234706921
3.165120853
3.076808381
1
1
1
1
1
1
1
1
1
1
1
1
1
1
1
1.000000001
1.000000045
1.000005441
1.000136869
1.004005766
1.040862538
1.238709743
1.591968259
1.959904678
2.362494054
2.907723407
3.180572819
3.373313286
3.341957681
3.246822554
3.144031899
3.055235363
1
1
1
1
1
1
1
1
1
1
1
1
1
1
1
1
1.000000001
1.000000172
1.000007283
1.000329015
1.006355044
1.066906407
1.393858679
2.092029041
2.923931419
3.441313042
3.493310248
3.470779344
3.385385301
3.26030788
3.137317513
3.040871053
)
;

boundaryField
{
    inlet
    {
        type            fixedValue;
        value           nonuniform 0();
    }
    outlet
    {
        type            zeroGradient;
    }
    bottom
    {
        type            slip;
    }
    top
    {
        type            slip;
    }
    obstacle
    {
        type            zeroGradient;
    }
    defaultFaces
    {
        type            empty;
    }
    procBoundary34to27
    {
        type            processor;
        value           nonuniform List<scalar> 9(0.9720903521 1.004655598 1.037272807 1.070504696 1.104008352 1.138533989 1.172840016 1.208087072 1.244005194);
    }
    procBoundary34to28
    {
        type            processor;
        value           nonuniform List<scalar> 
32
(
0.7631986528
0.7501405303
0.7318187028
0.7178335834
0.7073583217
0.6956978179
0.6808406276
0.6705738078
0.6624837748
0.6526794296
0.6416451759
0.6337856886
0.6267218785
0.617317166
0.6078009175
0.6010516589
0.595080425
0.5871959117
0.5801687807
0.5749360075
0.5698943952
0.5629908869
0.556786823
0.5517232422
0.5466981406
0.9131859826
0.8841487243
0.8644843703
0.8471200427
0.8230154179
0.8021806816
0.8021806816
)
;
    }
    procBoundary34to29
    {
        type            processor;
        value           uniform 0.5516446743;
    }
    procBoundary34to33
    {
        type            processor;
        value           nonuniform List<scalar> 
61
(
1.280065539
1.31678858
1.352787919
1.389392695
1.426528201
1.463953987
1.501727901
1.538995387
1.576052887
1.61242535
1.649563648
1.687312364
1.723714409
1.757716495
1.791365895
1.826116757
1.86002825
1.890643777
1.917441602
1.942917365
1.967828898
1.993878794
2.015168571
2.024340389
2.024260283
2.035552115
2.037304082
1.995390425
1.926778659
1.881413857
1.624464571
1.271048467
1.069456906
1.011034488
1.001168193
1.000085539
1.000004577
1.000000186
1.000000006
1
1
1
1
1
1
1
1
1
1
1
1
1
1
1
1
1
1
1
1
1
1
)
;
    }
    procBoundary34to35
    {
        type            processor;
        value           nonuniform List<scalar> 
71
(
0.5643845985
0.5760002095
0.5891546335
0.6012139486
0.6140335416
0.6269124061
0.6404223492
0.6538538025
0.6672543966
0.68107032
0.6951672114
0.7089983359
0.723779097
0.7387312262
0.7536209437
0.7686208705
0.7838168872
0.7993521644
0.8148812966
0.8311911569
0.8467882936
0.8627215536
0.8780785042
0.8951140583
0.9116144834
0.9295910874
0.9469972248
0.963226823
0.9794008233
0.9959017843
1.013388392
1.031920859
1.049267062
1.065856101
1.082774888
1.100720394
1.120196641
1.139681569
1.158355871
1.176313883
1.193783637
1.211787271
1.211787271
1.2135805
1.233151356
1.252490857
1.270942889
1.288858454
1.30695006
1.32603501
1.346112205
1.366121065
1.386206846
1.405262343
1.422989677
1.443726706
1.462512066
1.480033143
1.501752493
1.547821476
1.672335021
2.003444425
2.484126663
2.749305254
2.941622671
2.985759173
2.979228252
3.010085365
2.976062116
2.973215169
2.966721097
)
;
    }
}


// ************************************************************************* //
