/*--------------------------------*- C++ -*----------------------------------*\
  =========                 |
  \\      /  F ield         | OpenFOAM: The Open Source CFD Toolbox
   \\    /   O peration     | Website:  https://openfoam.org
    \\  /    A nd           | Version:  7
     \\/     M anipulation  |
\*---------------------------------------------------------------------------*/
FoamFile
{
    version     2.0;
    format      ascii;
    class       volScalarField;
    location    "2.3";
    object      p;
}
// * * * * * * * * * * * * * * * * * * * * * * * * * * * * * * * * * * * * * //

dimensions      [1 -1 -2 0 0 0 0];

internalField   nonuniform List<scalar> 5(1.018456948 0.8964617688 1.035630551 0.9287285181 1.048170191);

boundaryField
{
    inlet
    {
        type            fixedValue;
        value           nonuniform 0();
    }
    outlet
    {
        type            zeroGradient;
    }
    bottom
    {
        type            slip;
    }
    top
    {
        type            slip;
    }
    obstacle
    {
        type            zeroGradient;
    }
    defaultFaces
    {
        type            empty;
    }
    procBoundary10to4
    {
        type            processor;
        value           uniform 0.9500733753;
    }
    procBoundary10to15
    {
        type            processor;
        value           nonuniform List<scalar> 4(0.8653384345 0.8653384345 0.8092932325 0.8246006794);
    }
    procBoundary10to16
    {
        type            processor;
        value           nonuniform List<scalar> 2(0.9516862837 1.052472345);
    }
    procBoundary10to17
    {
        type            processor;
        value           nonuniform List<scalar> 3(1.023602425 1.029081521 1.027440756);
    }
}


// ************************************************************************* //
