/*--------------------------------*- C++ -*----------------------------------*\
  =========                 |
  \\      /  F ield         | OpenFOAM: The Open Source CFD Toolbox
   \\    /   O peration     | Website:  https://openfoam.org
    \\  /    A nd           | Version:  7
     \\/     M anipulation  |
\*---------------------------------------------------------------------------*/
FoamFile
{
    version     2.0;
    format      ascii;
    class       volScalarField;
    location    "2.3";
    object      T;
}
// * * * * * * * * * * * * * * * * * * * * * * * * * * * * * * * * * * * * * //

dimensions      [0 0 0 1 0 0 0];

internalField   nonuniform List<scalar> 5(1.02486762 0.9898036068 1.033107873 1.003641129 1.041055108);

boundaryField
{
    inlet
    {
        type            fixedValue;
        value           nonuniform 0();
    }
    outlet
    {
        type            inletOutlet;
        inletValue      nonuniform 0();
        value           nonuniform 0();
    }
    bottom
    {
        type            slip;
    }
    top
    {
        type            slip;
    }
    obstacle
    {
        type            zeroGradient;
    }
    defaultFaces
    {
        type            empty;
    }
    procBoundary10to4
    {
        type            processor;
        value           uniform 0.9991905859;
    }
    procBoundary10to15
    {
        type            processor;
        value           nonuniform List<scalar> 4(0.9782962205 0.9782962205 0.9589047651 0.9675007168);
    }
    procBoundary10to16
    {
        type            processor;
        value           nonuniform List<scalar> 2(1.015399531 1.046058593);
    }
    procBoundary10to17
    {
        type            processor;
        value           nonuniform List<scalar> 3(1.028168403 1.032266158 1.035304148);
    }
}


// ************************************************************************* //
