/*--------------------------------*- C++ -*----------------------------------*\
  =========                 |
  \\      /  F ield         | OpenFOAM: The Open Source CFD Toolbox
   \\    /   O peration     | Website:  https://openfoam.org
    \\  /    A nd           | Version:  7
     \\/     M anipulation  |
\*---------------------------------------------------------------------------*/
FoamFile
{
    version     2.0;
    format      ascii;
    class       volScalarField;
    location    "0.2";
    object      p;
}
// * * * * * * * * * * * * * * * * * * * * * * * * * * * * * * * * * * * * * //

dimensions      [1 -1 -2 0 0 0 0];

internalField   nonuniform List<scalar> 
2222
(
0.9444175134
0.9453048664
0.933956266
0.9315905918
0.9439617999
0.948289495
0.952138845
0.5526384263
0.5479218772
0.5417827415
0.5376190129
0.5357348207
0.5349686308
0.5332208969
0.5284304118
0.5245696944
0.5202741465
0.5175932943
0.5166284353
0.514839534
0.5125684421
0.5108830929
0.5103218205
0.5106084021
0.5134028945
0.5322415798
0.6031907261
0.7647687364
0.8927395159
0.9338115681
0.9357428453
0.9373394501
0.9432353677
0.9456011906
0.9345677712
0.9318652447
0.944514866
0.9493653247
0.9529239164
0.5166105477
0.5262163425
0.550020122
0.5478705642
0.5418472842
0.5378930615
0.535955696
0.5348975445
0.5336376817
0.5290492912
0.5251148781
0.5208636467
0.5178239823
0.5166895766
0.5151055925
0.512941729
0.5113608914
0.5105606524
0.5104336466
0.5120091349
0.5239228505
0.5825530269
0.7208747727
0.8810822584
0.9322620111
0.9349696589
0.9365117842
0.9436352839
0.9466421145
0.9362037478
0.9327697718
0.9461789251
0.9499456874
0.9527864501
0.5160556547
0.5231952538
0.5479319284
0.5506292879
0.5413007076
0.5376725559
0.5358999638
0.535170054
0.5339542263
0.5296119744
0.5255429419
0.5213146754
0.5179484588
0.5169523983
0.51595759
0.5139565765
0.512003626
0.5106884744
0.5102327255
0.5112461775
0.5191892986
0.5606546852
0.6856774067
0.8409861788
0.9226017722
0.9322829392
0.9367234732
0.9440963494
0.9479117433
0.9372114439
0.9324347296
0.946197787
0.949256995
0.9522253104
0.5156765532
0.5201503104
0.5456808448
0.5523061858
0.5403037694
0.5373363099
0.5356627997
0.5354514161
0.5341530007
0.530227551
0.5260351724
0.522059452
0.5183398158
0.5176131297
0.5167008786
0.5145853499
0.5122622892
0.510702668
0.5101180608
0.5107292788
0.5158887896
0.5425354
0.6509029346
0.805859484
0.9033776938
0.9289736227
0.9373072763
0.9450718485
0.9486632577
0.9379129447
0.9318433474
0.9457413324
0.9476051066
0.9497292755
0.5157304668
0.5170309968
0.5424690003
0.5539688158
0.5412012926
0.5372672212
0.5356284905
0.5356851641
0.534306534
0.5308957693
0.5265603724
0.5229846213
0.5192797896
0.5180858033
0.5169427341
0.5148501362
0.5124351019
0.5108783556
0.5101776882
0.5104445107
0.5133491804
0.5326705974
0.6096227537
0.7720231344
0.8880905076
0.9270339105
0.9374163369
0.9431331491
0.9488555279
0.9382492388
0.9298902263
0.9443320858
0.944936405
0.946510438
0.9501456942
0.5156427899
0.5142983457
0.5395069469
0.5547652008
0.5415773627
0.5363623206
0.5357726429
0.5360037708
0.5344327798
0.5316297482
0.5270225564
0.5235794444
0.5200290398
0.518229428
0.5170292056
0.5151032299
0.5129580641
0.5114030485
0.5103962826
0.5101912123
0.5120392752
0.5249199717
0.5800518965
0.7290482475
0.8674504416
0.925744419
0.9370578773
0.9406697794
0.9488442281
0.9380333202
0.9277307275
0.9422129657
0.9440385341
0.9456857744
0.9496855862
0.5156539724
0.5118882834
0.5365136099
0.5548621974
0.5415822923
0.5359487822
0.5359869046
0.5360560879
0.5347114592
0.5324030707
0.5274813544
0.5239461447
0.5203589969
0.5182232791
0.5173140688
0.5158468719
0.5137330429
0.5116666636
0.5104858912
0.5101483415
0.5112242771
0.5191318409
0.5633136069
0.6782083084
0.8435240263
0.9217937729
0.9349336727
0.9393651032
0.9483445642
0.9382837447
0.926507932
0.9416534888
0.9436692538
0.9454797785
0.9490098809
0.5156318867
0.5095363776
0.5333780501
0.5541933343
0.5424055202
0.5353968568
0.5356351718
0.5359903284
0.5350557555
0.5330228138
0.5280000155
0.5243382318
0.5206485903
0.5185483895
0.5180569044
0.516451694
0.5141365089
0.5117310878
0.5105066829
0.510102349
0.5106773471
0.5159339147
0.5455739612
0.6491628834
0.8098365625
0.9098084443
0.9292912461
0.9395390704
0.9481166519
0.9393789102
0.9258958365
0.9415694496
0.9434332305
0.9455025414
0.948310634
0.5172129856
0.5068898771
0.5301230699
0.5543339048
0.5429772371
0.5340835907
0.5344780998
0.5357466133
0.5351579214
0.5334180498
0.5285969558
0.5248276704
0.5213677171
0.5193131739
0.5184566735
0.5166634395
0.5144126918
0.5120525778
0.5107154605
0.5100886662
0.5103075887
0.5132779474
0.5337663628
0.6250839564
0.7800732712
0.8910730179
0.9276966364
0.940243727
0.9479151118
0.9410565466
0.9253885217
0.9419398275
0.9440029734
0.9462638673
0.9479313455
0.5187303158
0.5046169507
0.5266390652
0.553854612
0.5453813247
0.5336481107
0.5338334898
0.5352361636
0.5352547937
0.5337203373
0.5292827489
0.5252906833
0.5220182323
0.519726744
0.518601772
0.5168230226
0.514883682
0.5128568726
0.5112263315
0.5102186048
0.5100318281
0.5118767229
0.5260521652
0.5890271156
0.7532247723
0.8801004415
0.9290931226
0.9398874853
0.9480765905
0.9425988579
0.9246030716
0.9425270798
0.9442420533
0.9464329628
0.9471400447
0.5208499721
0.5031637519
0.5230621214
0.5530184632
0.5472790699
0.5331956034
0.5333320634
0.5345921489
0.5348118671
0.5340250442
0.5300677496
0.5257699388
0.5224310983
0.5199122282
0.5187026658
0.5173717204
0.5156497012
0.5133533428
0.5115548964
0.510376351
0.5099349354
0.5109949079
0.5191373808
0.5632592145
0.7015950112
0.8626615841
0.9259547576
0.9389884088
0.9495406119
0.9441151764
0.9234275141
0.9424140732
0.9440093371
0.9454771583
0.9456995753
0.5237542562
0.5023916073
0.5191857336
0.5516836023
0.5493895797
0.5325919644
0.5326155342
0.5341873907
0.5344767415
0.5344325002
0.53091905
0.5262806685
0.5228092864
0.5201207431
0.5190684866
0.5179989674
0.5160440112
0.5135642529
0.5117476793
0.5104967078
0.509902053
0.5102577309
0.5158080947
0.54796489
0.648310292
0.8184849883
0.9131403971
0.9354644514
0.9503271891
0.9456830995
0.921911178
0.9420989484
0.9435955061
0.9444403232
0.9461214584
0.5271919121
0.502083069
0.5149804463
0.5498570962
0.5517271197
0.5329354648
0.5325027503
0.5333033199
0.5341745798
0.5346052389
0.5316999908
0.5268380437
0.5233000162
0.5205103447
0.5196531664
0.5182347007
0.5162935105
0.513883941
0.5121060699
0.5108204069
0.5100220886
0.509972731
0.5136309735
0.5354077987
0.6229107872
0.7683905263
0.8934192884
0.930443278
0.9501004156
0.9471240775
0.920328274
0.9414703242
0.9435182269
0.9445976552
0.9465471566
0.948490665
0.530996072
0.5030203142
0.5105746865
0.5473296074
0.5541702355
0.5331768572
0.5316813783
0.5318282625
0.5341411827
0.5346344277
0.5323158544
0.5273748861
0.5237804955
0.5208919386
0.5199142836
0.5184119129
0.5166831886
0.5147107725
0.512723163
0.5111647517
0.5100961663
0.5098554398
0.5116729545
0.5273449268
0.6021437385
0.7448380553
0.8732658844
0.9279104975
0.9493607214
0.948736429
0.9184581649
0.9412043051
0.9436694536
0.9450432452
0.9469816594
0.9480131993
0.5351035429
0.5040198072
0.5060992842
0.5453737146
0.5566078415
0.5336380474
0.531204775
0.5310498738
0.533685031
0.5342805553
0.5326818725
0.5278245939
0.5241630481
0.5210668593
0.5200561077
0.5188859526
0.5173756512
0.5152901636
0.5130720905
0.5113794265
0.5101328895
0.5096929461
0.5109306941
0.5205241317
0.5718398635
0.7266558934
0.8643418976
0.9264841948
0.9466911698
0.9498588144
0.9163966668
0.9404764868
0.9439474957
0.9445433695
0.9462193339
0.946420825
0.5394409161
0.5055231441
0.5016879847
0.5419331527
0.55890259
0.5352991859
0.5314350001
0.5302963869
0.5325683801
0.5336755555
0.5328789214
0.5282772934
0.5245717323
0.5212051369
0.5205172244
0.5194989901
0.5177951297
0.5155071192
0.5132640788
0.5116385774
0.5103414599
0.5096611984
0.5101945491
0.5157340398
0.5509872589
0.6775387504
0.8527162851
0.9213353749
0.9439419153
0.9511730926
0.91455487
0.9401477839
0.9438338423
0.9437175809
0.9451402026
0.945115392
0.5436865159
0.5087028189
0.4973777498
0.5396710366
0.5610088181
0.5367506899
0.5307926718
0.5288556066
0.5313193745
0.5329995066
0.5328970748
0.5286897394
0.524957095
0.5215376609
0.5211321646
0.5198572625
0.5180748033
0.5158143364
0.5136498629
0.5122119026
0.5106929626
0.5096460405
0.5096327446
0.5137390708
0.5378802903
0.6278824227
0.8073809353
0.9058449117
0.9429555785
0.952710964
0.9127318572
0.9401791711
0.9429731632
0.9423966061
0.9436661756
0.9435564464
0.547867439
0.5121406389
0.4933454369
0.5381392792
0.5633100894
0.5385042406
0.5306287418
0.5280504355
0.5302409636
0.5320937739
0.5327509782
0.5290601632
0.5253042875
0.5218800427
0.5214811037
0.5201648742
0.5184614872
0.5165625903
0.5141920017
0.5126042335
0.5109799713
0.509738701
0.5094508572
0.5115333869
0.5288379176
0.603307119
0.7465660301
0.8812852504
0.9432148946
0.9555718379
0.9109913174
0.9397536439
0.942110877
0.9416492072
0.942868462
0.9423419763
0.5513930101
0.5153722662
0.4898396081
0.5376287255
0.5658177376
0.5417657719
0.5305748297
0.5274110257
0.5295278666
0.5310844446
0.5324701123
0.5294452247
0.5256700966
0.522091347
0.5217278447
0.520613776
0.5190269781
0.5171795128
0.5146888666
0.5129759739
0.5113958305
0.5099033093
0.509237826
0.5101466643
0.5225889768
0.5815513647
0.7137099756
0.8636731153
0.939433864
0.957097744
0.9087025826
0.9388661933
0.9411245429
0.9406263637
0.9420817396
0.9407093359
0.5543757493
0.5209518208
0.4865422026
0.5395457954
0.5694852275
0.5449488745
0.530514158
0.5266713925
0.5287917085
0.5298277477
0.5320822008
0.5297313112
0.5259437961
0.5221917219
0.5219294426
0.520965551
0.5193721446
0.5175597562
0.5151348905
0.5133977883
0.511763687
0.5100488838
0.5092485628
0.509782962
0.5172408342
0.5585203634
0.6916495606
0.847745531
0.9326880408
0.9607762615
0.907393596
0.9375049346
0.9412581329
0.9414333533
0.9422419986
0.9409949482
0.5776755781
0.5281574431
0.4751560145
0.5349064185
0.5699548997
0.5497544957
0.5319572869
0.5272598156
0.5276459591
0.5280879346
0.5311239089
0.5298673551
0.5262950989
0.5225762286
0.5222448235
0.5214250331
0.5199449091
0.5181929052
0.5157688424
0.5139351656
0.5122255803
0.5103418502
0.5093651339
0.5090684013
0.5129029049
0.5387719683
0.6417201244
0.8071227597
0.9223068449
0.9617040428
0.9055764792
0.9359378893
0.9419987059
0.9422788655
0.942160994
0.9411417584
1.089932765
0.6721160734
0.5659653158
0.5760873775
0.5834271103
0.5644830636
0.534212539
0.5281465899
0.5242187673
0.521439999
0.5222141532
0.5214005875
0.5182815318
0.5172780202
0.5191139806
0.519821989
0.5195054471
0.5179655737
0.5161281897
0.5146720832
0.5133855509
0.511908045
0.5101245441
0.5086407931
0.5085657579
0.5146107412
0.5459685001
0.6511138163
0.8201088338
0.8732656685
0.8950008494
0.9332417386
0.939558528
0.9383471
0.9354451339
0.9367798112
0.9440384719
1.385727195
1.156737443
0.9076159901
0.7451844959
0.6485822952
0.5688573716
0.5364980153
0.5366377302
0.5380839383
0.5318070412
0.5258831518
0.5176568523
0.5127450718
0.5137873191
0.5176410009
0.5187567872
0.516756781
0.5148635248
0.5147022835
0.5149348253
0.5144632213
0.5134366467
0.5123439998
0.510433357
0.5088684808
0.5082537832
0.5093822879
0.5238466024
0.578618081
0.6958315153
0.8287981836
0.9044049033
0.9195993731
0.9274971636
0.9218845166
0.9277269576
0.9443859507
1.446644622
1.359155001
1.171183646
0.9429459766
0.7782399564
0.6744195659
0.6051166247
0.5952406554
0.5819058334
0.5497314359
0.5269253137
0.5146915742
0.5126004227
0.5146185308
0.517043405
0.5157136416
0.513002167
0.5120334671
0.5127903017
0.5133740163
0.5130303433
0.5123171307
0.5114439644
0.5103336829
0.5093535432
0.5086653273
0.5083314168
0.5083434976
0.5125534148
0.5403136555
0.6233632437
0.7421491031
0.8251980909
0.8896021143
0.9062325743
0.9316114845
0.9524971082
1.453286298
1.431793941
1.346183784
1.179475197
0.9948303014
0.8669096666
0.7436795363
0.6584250568
0.6127824257
0.5691911661
0.5381268722
0.5429352302
0.5400343208
0.5314460808
0.5209905747
0.5142823691
0.5117386812
0.5115382463
0.5124022913
0.5117257309
0.5101943963
0.5097283834
0.5100398758
0.5101073464
0.5094845986
0.5086040375
0.5078050507
0.5071370971
0.5070641683
0.5085169083
0.521152904
0.5625595331
0.664725781
0.7818425354
0.8778303546
0.9205346402
0.9465247896
1.453696047
1.449958839
1.420740664
1.334936355
1.191031295
1.023351026
0.9001553242
0.7756405578
0.6962760121
0.6603733308
0.6123502198
0.5839396662
0.5646983877
0.541174977
0.5239366931
0.5192193461
0.5194898821
0.51744065
0.5148328648
0.5112088277
0.5086592921
0.5078739445
0.5084290449
0.5082653265
0.5074671913
0.5068828756
0.5070749295
0.5070545597
0.5065529384
0.5063117793
0.5066950961
0.5103553212
0.5331361494
0.5899230556
0.7007172838
0.7975084527
0.8886730104
1.454012426
1.45346247
1.446019172
1.411300042
1.327601838
1.194867714
1.060537896
0.9337876077
0.8213786657
0.7570793617
0.692737326
0.6221748547
0.5966048555
0.5746116384
0.5570432786
0.5516637023
0.5438541485
0.5276809546
0.5159061117
0.511752291
0.510899288
0.5104596899
0.5102490993
0.5083426147
0.5063123788
0.505248821
0.5058491632
0.5061769249
0.5059489805
0.5054872472
0.5054617269
0.5059303016
0.507529805
0.5145492506
0.5473736259
0.6252397865
0.7364716965
1.454023556
1.454098391
1.452540457
1.441515525
1.402390603
1.320359389
1.199043504
1.080624179
0.9492576742
0.8444157228
0.7805475637
0.7099780902
0.6757389263
0.655233009
0.6156883787
0.5829292101
0.5603294095
0.5378790716
0.5312472283
0.5307359015
0.5251772365
0.5156821767
0.5103303616
0.507992152
0.5061541486
0.5073490399
0.5085959273
0.5076583258
0.5055106699
0.504753194
0.5048665975
0.5048826109
0.5050904215
0.5055895748
0.5082791817
0.522714327
0.565080451
1.454002363
1.454083795
1.45395891
1.45114541
1.4365593
1.393986693
1.311337575
1.202829707
1.089082654
0.9693989858
0.8878585266
0.8174704404
0.7448837382
0.6995439599
0.6631733356
0.6230936726
0.6013300622
0.586386801
0.5701631739
0.5589151231
0.5423967165
0.5245559973
0.5163900414
0.5157133517
0.5131791176
0.5117631953
0.5102194299
0.5075690503
0.5054924371
0.5053505671
0.5054486667
0.5049900135
0.5045913714
0.504527909
0.5049652543
0.5061044142
0.5103420223
1.453963629
1.454001514
1.454007149
1.45361034
1.449146421
1.430756905
1.384408172
1.302398103
1.202860828
1.090110533
0.988446871
0.9157102107
0.8364518406
0.7681670432
0.7341784756
0.6922943645
0.6627840585
0.6356578465
0.60071243
0.577824183
0.5652080148
0.5536198915
0.5442879667
0.5370463
0.5275754757
0.517301956
0.51134397
0.5087614128
0.5059961717
0.5055428524
0.5051724653
0.504518003
0.5037887291
0.5037701912
0.5043168951
0.5057090455
0.5067073215
1.454044923
1.454019805
1.454041875
1.453831136
1.452698213
1.445892101
1.423328416
1.372321012
1.294655439
1.199059577
1.096089975
1.010187741
0.9361362261
0.8635927678
0.8102385415
0.7573395357
0.706854601
0.6784621752
0.6454538642
0.6149046048
0.6093814753
0.5960475055
0.5697464796
0.5548426933
0.5453353446
0.5346532004
0.5286735578
0.5232734656
0.5160746182
0.5108841588
0.5071249985
0.5053332726
0.5042819004
0.5038828407
0.5038641565
0.5044460623
0.5056235954
1.453987528
1.453928995
1.454021209
1.453944663
1.45336566
1.450916494
1.440867695
1.413315439
1.360064529
1.285613634
1.196968471
1.106390526
1.025863644
0.9455216018
0.8800155468
0.8310222
0.773373913
0.7411096189
0.7167371818
0.6760839037
0.646871047
0.6247253296
0.5931556129
0.5786386684
0.5750510684
0.5656821974
0.5547480571
0.5426833853
0.530842387
0.5223367506
0.5196416078
0.517530656
0.5135806286
0.5079194863
0.5046946013
0.5048042204
0.5055622578
1.453619136
1.453926153
1.454068328
1.453977952
1.453475596
1.451946205
1.447541517
1.433663881
1.401603457
1.348794616
1.277667341
1.195735946
1.117055153
1.037416693
0.9595276763
0.9077148835
0.8505406434
0.7948441332
0.7634979657
0.7279939326
0.6871294231
0.6669111195
0.6454463417
0.6212687131
0.607653816
0.5920750062
0.5728498484
0.561493822
0.5476425012
0.5332632744
0.5322881063
0.5305359035
0.5248064158
0.518361426
0.5135671269
0.5104621434
0.5085161953
1.453420313
1.45394239
1.453943457
1.453825658
1.453428379
1.452118431
1.44914674
1.441522294
1.423032211
1.389145932
1.338267812
1.272202127
1.196180943
1.122964736
1.045128982
0.9779483285
0.9249625306
0.861719085
0.8137715772
0.783625655
0.745542811
0.7177984913
0.6959007999
0.6635409576
0.6391259874
0.6205894151
0.5977962329
0.5907682015
0.5844877814
0.5687369169
0.5523087351
0.5419498222
0.5322195811
0.5263332432
0.5256494369
0.5241537643
0.5206488538
1.4529597
1.453473809
1.453506308
1.453564609
1.453475137
1.452467462
1.449731966
1.444188103
1.432576333
1.411373318
1.378143303
1.330649936
1.26738691
1.198810563
1.126229882
1.052049546
0.9943393925
0.9396864679
0.8826612421
0.8398959502
0.8006514904
0.7583429633
0.7329100929
0.7033523058
0.6781434626
0.6649146767
0.6454161331
0.6201077562
0.6066169813
0.5947628108
0.5784369814
0.5682418602
0.5578961381
0.5437847458
0.5383318558
0.5346347918
0.5305008425
1.451758621
1.452236478
1.452934559
1.4538026
1.453727784
1.452778905
1.450032613
1.444699568
1.435513904
1.421664593
1.401342979
1.369824832
1.324381886
1.264158419
1.200120287
1.129300817
1.062543392
1.005084258
0.9473730771
0.8984258401
0.8583485214
0.8142371904
0.7811184783
0.7548696525
0.7228416449
0.7005013981
0.6809390318
0.6535109207
0.6318883663
0.6214923143
0.6082501535
0.597514117
0.5882602306
0.5726884921
0.5560270855
0.5471510021
0.5420532168
1.451497611
1.452100468
1.453764014
1.45442355
1.45395502
1.452773746
1.450086877
1.444718134
1.436132551
1.425808757
1.413080229
1.394015698
1.363486899
1.318117309
1.262415158
1.199236763
1.134110391
1.073132863
1.014491044
0.9583488138
0.9156343346
0.8745827183
0.83134111
0.8019597333
0.7674062631
0.7335539395
0.7143330762
0.6956731428
0.6733780285
0.6569447548
0.6393895671
0.6185439812
0.607777765
0.5996383287
0.5852022471
0.5744140373
0.5654283199
1.454764076
1.454208734
1.45454136
1.454401563
1.453659493
1.451947446
1.449323192
1.444537698
1.436530969
1.426581492
1.417608079
1.406064679
1.387342589
1.35705467
1.313316668
1.260436381
1.199067944
1.138660636
1.081826063
1.024065872
0.970399442
0.9280992653
0.882340919
0.8457391678
0.8172537259
0.7832439909
0.7560286024
0.7365194167
0.7109304936
0.6880351286
0.6701544449
0.6472334808
0.6324721657
0.6258529698
0.6140959307
0.6001637053
0.5906578377
1.460153715
1.456146677
1.454586527
1.454204629
1.45328439
1.450799787
1.447822675
1.443703906
1.43672006
1.426831581
1.418022499
1.411010208
1.40005897
1.381238323
1.351091567
1.309835935
1.25845305
1.200314457
1.142876832
1.088089161
1.031900007
0.9841913687
0.9402225819
0.8949795987
0.8624167047
0.830990127
0.7962336096
0.7695087773
0.7451558805
0.7216318602
0.7075217048
0.6905973621
0.6684268447
0.651924543
0.6348418472
0.6177598763
0.6130572976
1.453654562
1.453262575
1.455113428
1.455240763
1.453557189
1.450500773
1.447220294
1.443286549
1.436718611
1.426902491
1.417912008
1.411415282
1.405042528
1.394236126
1.375663725
1.346492553
1.3065984
1.257236747
1.202329823
1.146887972
1.092160117
1.039714475
0.995488968
0.9495516579
0.9074508829
0.8749584503
0.8433470099
0.8113939343
0.7859582209
0.7586934617
0.7371658022
0.7211475784
0.7004734476
0.682501453
0.6690546904
0.6470016471
0.6324175075
1.436265434
1.451514785
1.459930169
1.458039373
1.454806079
1.451439698
1.447926252
1.443804129
1.436948361
1.42701484
1.417462913
1.411038534
1.405799369
1.399553391
1.389165167
1.371173324
1.342897533
1.303800583
1.256116043
1.203924715
1.15102039
1.096317943
1.047862482
1.00416764
0.9595339014
0.9202348105
0.8883027594
0.8567245991
0.8277750654
0.8006131645
0.7696541237
0.748396418
0.7319121322
0.7129411256
0.6993280284
0.6849747645
0.6649337409
1.417685989
1.456072494
1.458230817
1.456640144
1.456012171
1.454377937
1.450678019
1.445293836
1.437477506
1.427229045
1.41732311
1.410511767
1.40567624
1.400647306
1.394648906
1.384807911
1.367402412
1.339662831
1.301379852
1.255237863
1.20484757
1.153776343
1.102045624
1.055999348
1.01173752
0.9694228691
0.9311435909
0.8978073114
0.8656610164
0.8402242155
0.8144610667
0.7875980145
0.7672562202
0.745198712
0.7209338511
0.7088017955
0.6964081915
1.316249799
1.413926798
1.439466696
1.451755825
1.459031626
1.457454005
1.453390438
1.446822113
1.438096961
1.428371782
1.418587503
1.41139118
1.405901019
1.400834932
1.396427031
1.391227258
1.381714573
1.364264376
1.336496418
1.299194036
1.25434174
1.205886638
1.156491456
1.107277534
1.061911285
1.020516128
0.9805926335
0.943132538
0.9085420208
0.8766758883
0.8508831834
0.8245860543
0.8004200611
0.780851299
0.7578730276
0.7358765118
0.7211897692
1.163516273
1.323756265
1.406287923
1.453193472
1.456287462
1.454184121
1.452260982
1.447874412
1.439692521
1.429160093
1.419287303
1.411840758
1.406795733
1.401913915
1.39756133
1.393721028
1.388423599
1.37846346
1.360637293
1.333032815
1.297094097
1.253502385
1.206837351
1.160136122
1.112512224
1.066504031
1.027899997
0.9895207463
0.9543174131
0.9198756605
0.8875967111
0.8602499781
0.8345687196
0.8118072616
0.7934302406
0.7719154308
0.7524908579
1.041338374
1.171926209
1.300017768
1.421806852
1.435015769
1.447077325
1.450666667
1.448781281
1.441462254
1.429145274
1.419637895
1.412535384
1.407068462
1.401620891
1.397425612
1.394300897
1.391023815
1.385524971
1.374989657
1.356891434
1.329994259
1.295015639
1.252944736
1.208050423
1.163685563
1.117022301
1.073186713
1.035351782
0.9961598482
0.9621477385
0.9308395059
0.9003198467
0.8732140352
0.8467192227
0.8213436177
0.8017637518
0.7831894403
1.004923613
1.046644761
1.163381502
1.329161025
1.402439874
1.446804224
1.451355012
1.448180324
1.439976767
1.429571114
1.421562775
1.41454148
1.406953723
1.400372931
1.396559953
1.39402328
1.391122846
1.387553039
1.381642298
1.371087024
1.353459096
1.327628608
1.293543089
1.252655863
1.209565483
1.166291662
1.120948302
1.080666935
1.04235305
1.003229706
0.9699059006
0.9381578207
0.9084467083
0.8848202542
0.8592467154
0.8334096463
0.8124616142
1.000255016
1.007026464
1.05494829
1.16758067
1.304630005
1.409782906
1.446121566
1.443138207
1.437080172
1.432240545
1.425885846
1.417660928
1.407357292
1.398833437
1.395149999
1.393303199
1.390945297
1.387786704
1.384004615
1.378047053
1.367875195
1.350816924
1.325490301
1.292252342
1.25266726
1.210842794
1.168162124
1.124931029
1.08687612
1.048161302
1.010716357
0.9795799489
0.9469916116
0.9168575953
0.8940402666
0.8692895646
0.8462908402
1.000006013
1.000596616
1.010995892
1.052312466
1.173992485
1.315476337
1.420691149
1.4361496
1.436508371
1.433610606
1.427808336
1.419630286
1.409488282
1.398927655
1.394441493
1.392551753
1.39049448
1.387849011
1.384541909
1.380709032
1.375163729
1.365344925
1.348507318
1.323401272
1.290792357
1.252709936
1.211903585
1.170613084
1.129575904
1.091189392
1.052143014
1.017864208
0.9883794911
0.957097797
0.9277229618
0.9023223249
0.8768731888
1.000000056
1.00003249
1.001294334
1.010490239
1.062895931
1.173257284
1.308910257
1.39506907
1.427633101
1.430649644
1.427528332
1.42048327
1.411714527
1.401675723
1.394739189
1.391816256
1.389515532
1.387002859
1.384299253
1.381068387
1.377829936
1.372873417
1.363183909
1.346269728
1.321455876
1.289442125
1.252381164
1.212882603
1.173069746
1.133953131
1.095603288
1.057708296
1.024558545
0.9943946357
0.965239045
0.9391311897
0.9133199088
1
1.000001179
1.000097393
1.001350194
1.013746771
1.061763412
1.168417234
1.327303958
1.400053134
1.413817015
1.42132843
1.419449268
1.412831896
1.403261114
1.394465965
1.390351244
1.387787019
1.385291479
1.382909881
1.380540791
1.378063171
1.375617693
1.370869882
1.361036826
1.34409197
1.31958248
1.288262782
1.252174877
1.214066447
1.175117929
1.136707325
1.099932577
1.065591105
1.032576794
1.000514905
0.9720139373
0.9470645269
1
1.000000032
1.000004654
1.000111813
1.001883474
1.013599303
1.06282522
1.177583007
1.30649152
1.379981429
1.412278804
1.413823152
1.410767943
1.402568141
1.392112447
1.387687743
1.385284129
1.382925661
1.381093596
1.379463005
1.377792421
1.37600365
1.373697057
1.368770185
1.358781048
1.341889347
1.317521322
1.286999328
1.252510989
1.215532471
1.177284876
1.139124914
1.104132573
1.071997916
1.040302262
1.009679411
0.9819560389
1
1.000000001
1.000000142
1.000005878
1.000165835
1.001818676
1.015275257
1.061207269
1.176437897
1.3087312
1.379279051
1.403604137
1.403614909
1.399210072
1.390078158
1.385411802
1.383382682
1.382704225
1.381561712
1.38009874
1.378561133
1.376699353
1.374711203
1.372101999
1.366962811
1.356897005
1.340084068
1.315984697
1.286353588
1.252922327
1.216666153
1.179921742
1.143715133
1.109141073
1.076801354
1.04574868
1.017717261
1
1
1.000000003
1.000000206
1.000008966
1.000168084
1.002181582
1.014472652
1.067508674
1.173044317
1.276159736
1.371983857
1.39380449
1.391790142
1.386148769
1.381767462
1.379921907
1.379953949
1.379741702
1.378576646
1.377464657
1.376284661
1.374952941
1.373545509
1.370972678
1.365497739
1.355123915
1.338369113
1.315023338
1.286419141
1.253058355
1.217481701
1.18287191
1.148851799
1.11555328
1.08310558
1.052162116
1
1
1
1.000000005
1.000000324
1.00001035
1.000205527
1.00221283
1.015937304
1.062970596
1.168431406
1.28619687
1.351080696
1.368752004
1.375441682
1.374787563
1.375275915
1.375383993
1.374903309
1.373947407
1.373708098
1.373915665
1.374263226
1.373680887
1.37223351
1.369492365
1.363951784
1.35362901
1.337096852
1.314395103
1.286256407
1.253619756
1.219537774
1.186000188
1.152882154
1.120875334
1.089937606
1
1
1
1
1.000000008
1.00000043
1.000012641
1.000213702
1.002366443
1.014951479
1.063572257
1.151898208
1.269204202
1.343555641
1.361237837
1.374349994
1.377438957
1.376408273
1.373842019
1.371544448
1.370956545
1.371326477
1.372518677
1.372982426
1.372082063
1.370942609
1.368385271
1.36275895
1.352417542
1.336175568
1.313634518
1.285566768
1.254592259
1.222950566
1.190295895
1.156876662
1.125195493
1
1
1
1
1
1.000000011
1.000000463
1.000012792
1.000207559
1.002190799
1.013873926
1.056845644
1.146003593
1.244139756
1.30486206
1.352778342
1.36957451
1.367704023
1.368632549
1.367996595
1.367341438
1.369162903
1.370720606
1.371969038
1.371897976
1.371547934
1.370655751
1.367684192
1.361857304
1.351482779
1.335085188
1.312434787
1.285345809
1.25613963
1.225853363
1.193959091
1.162283153
1
1
1
1
1
1
1.000000009
1.00000041
1.000010283
1.000179805
1.00181885
1.012234317
1.04765428
1.127205472
1.232755486
1.299944451
1.337818715
1.34642134
1.353182722
1.358527149
1.359707014
1.3642618
1.368531711
1.370693359
1.371427354
1.371133158
1.370734001
1.369874162
1.367313034
1.36169582
1.350811508
1.333696892
1.311635253
1.286715119
1.258943971
1.228470088
1.197104304
1
1
1
1
1
1
1
1.000000006
1.000000261
1.000007661
1.000132423
1.00143263
1.009595766
1.040366325
1.109281856
1.195485146
1.288395633
1.332528343
1.338007766
1.346695167
1.350654585
1.35549101
1.362970214
1.364466652
1.367295588
1.368538807
1.369979336
1.37031435
1.370501457
1.368128773
1.361762276
1.349806701
1.332707744
1.312448794
1.289078691
1.262000507
1.23232997
1
1
1
1
1
1
1
1
1.000000003
1.000000156
1.000004802
1.000090723
1.00101235
1.007201733
1.030493095
1.087379197
1.165367488
1.253797833
1.304440559
1.33707893
1.345493351
1.345904561
1.353395095
1.356990709
1.361897602
1.366725131
1.368813202
1.370438548
1.370872323
1.371518107
1.368896234
1.361587446
1.349780912
1.334969045
1.316720165
1.293280363
1.265770069
1
1
1
1
1
1
1
1
1
1.000000001
1.000000077
1.00000267
1.000051926
1.000635905
1.004480901
1.021098419
1.064313993
1.141775178
1.220455635
1.273974892
1.317992487
1.333788204
1.348190104
1.352831074
1.354165358
1.360407868
1.362925352
1.367123564
1.369171179
1.370737884
1.373592498
1.370621503
1.364373423
1.355399386
1.342550875
1.324083453
1.299971266
1
1
1
1
1
1
1
1
1
1
1
1.00000003
1.000001108
1.000023817
1.00031608
1.002571447
1.013459211
1.045322397
1.108364901
1.182752655
1.249160036
1.293234709
1.313439568
1.336619507
1.338850297
1.34752426
1.354877273
1.360818109
1.36854278
1.371358469
1.375250485
1.376838498
1.376774281
1.372238765
)
;

boundaryField
{
    inlet
    {
        type            fixedValue;
        value           nonuniform 0();
    }
    outlet
    {
        type            zeroGradient;
    }
    bottom
    {
        type            slip;
    }
    top
    {
        type            slip;
    }
    obstacle
    {
        type            zeroGradient;
    }
    defaultFaces
    {
        type            empty;
    }
    procBoundary27to20
    {
        type            processor;
        value           nonuniform List<scalar> 
31
(
1.453868061
1.453984003
1.453982236
1.453916106
1.453685772
1.453761634
1.453813638
1.45404251
1.454142785
1.454198438
1.454056157
1.452982846
1.451768912
1.452237508
1.452614737
1.452918308
1.455530815
1.460920051
1.455926539
1.421750093
1.379078699
1.22749571
1.060368457
1.004351736
1.000026254
0.999999937
0.9999999827
0.999999999
1
1
1
)
;
    }
    procBoundary27to21
    {
        type            processor;
        value           nonuniform List<scalar> 
36
(
0.9450322793
0.9453937329
0.9339530975
0.9316948801
0.9440213446
0.9478681588
0.9520990085
0.5547394208
0.5473302819
0.5412695064
0.537163999
0.5354037903
0.5345624945
0.5326830092
0.5276239495
0.5236589908
0.5189922076
0.5171483571
0.5164319048
0.5146416927
0.5124988535
0.5108135934
0.5103075155
0.5109614044
0.5160614016
0.5424513941
0.6392840493
0.7965082151
0.8930027647
0.9317041447
0.9359505524
0.9387328433
0.9387328433
0.5174668936
0.529474715
0.529474715
)
;
    }
    procBoundary27to26
    {
        type            processor;
        value           nonuniform List<scalar> 9(1 1 1 1 1 1 1 1 1);
    }
    procBoundary27to28
    {
        type            processor;
        value           nonuniform List<scalar> 
55
(
0.9581232377
0.9566237289
0.9551363457
0.953251147
0.9511098875
0.9511098875
0.9587255075
0.9579417809
0.9564409693
0.9548314744
0.9522056978
0.9494447294
0.9483402869
0.9483310215
0.9483310215
0.9589146602
0.9567279565
0.9549826488
0.954151074
0.9521672952
0.9494805458
0.946101144
0.9455264544
0.9452817175
0.9452817175
0.9581133636
0.9613510162
0.9618073937
0.9432933931
0.913867553
0.8508134226
0.6703408376
0.538255535