/*--------------------------------*- C++ -*----------------------------------*\
  =========                 |
  \\      /  F ield         | OpenFOAM: The Open Source CFD Toolbox
   \\    /   O peration     | Website:  https://openfoam.org
    \\  /    A nd           | Version:  7
     \\/     M anipulation  |
\*---------------------------------------------------------------------------*/
FoamFile
{
    version     2.0;
    format      ascii;
    class       volScalarField;
    location    "0.9";
    object      T;
}
// * * * * * * * * * * * * * * * * * * * * * * * * * * * * * * * * * * * * * //

dimensions      [0 0 0 1 0 0 0];

internalField   nonuniform List<scalar> 
555
(
1
1
1
1
1
1
1
1
1
1
1
1
1
1
1
1
1
1
1
1
1
1
1
1
1
1
1
1
1
1
1
1
1
1
1
1
1
1
1
1
1
1
1
1
1
1
1
1
1
1
1
1
1
1
1
1
1
1
1
1
1
1
1
1
1
1
1
1
1
1
1
1
1
1
1
1
1
0.9999999997
1
1
1
1
1
1
1
1
1
1
1
1
1
1
1
1
1
1
1
1
1
1
1
1
1
1
1
1
1
1
1.000000002
1.000000087
0.9999999964
1
1
1
1
1
1
1
1
1
1
1
1
1
1
1
1
1
1
1
1
1
1
1
1
1
1
1.000000004
1.000000022
1.000000122
1.000000602
1.000002264
1.000018206
1.000006497
1
1
1
1
1
1
1
1
1
1
1
1
1
1
1
1
1
1
1
1
1
1.000000001
1.000000006
1.000000036
1.000000185
1.000000869
1.000003476
1.00001299
1.000040791
1.000127163
1.000313318
1.000918674
1.001352691
1
1
1
1
1
1
1
1
1
1
1
1
1
1
1
1
1
1.000000001
1.00000001
1.000000058
1.000000293
1.0000013
1.000005079
1.000018157
1.000056124
1.000164405
1.000416461
1.001011661
1.00211084
1.004382577
1.007577302
1.01333525
1.019222865
1
1
1
1
1
1
1
1
1
1
1
1
1
1.000000003
1.000000018
1.000000099
1.000000477
1.000002027
1.00000757
1.000026132
1.000078371
1.000220517
1.000543091
1.001285577
1.002623185
1.005155281
1.008983267
1.015152963
1.022863562
1.032998083
1.043433887
1.055558525
1.067346447
1
1
1
1
1
1
1
1
1.000000001
1.000000006
1.000000035
1.000000177
1.000000795
1.000003223
1.000011474
1.000038167
1.000111542
1.000301463
1.000733233
1.001646403
1.003282506
1.006296524
1.010665359
1.017361928
1.026092872
1.036389355
1.046847303
1.059021649
1.071846743
1.082013119
1.090272054
1.096020829
1.102889187
1
1
1
1
1.000000002
1.000000014
1.000000073
1.000000342
1.000001423
1.000005421
1.000018671
1.000057166
1.000161765
1.000420226
1.000964551
1.002129592
1.0041716
1.007579234
1.01312038
1.020266019
1.029003937
1.040560707
1.052439373
1.063890814
1.075295266
1.084710775
1.094264632
1.102149196
1.107606035
1.111174605
1.114322483
1.116263583
1.11838207
1.000000007
1.000000036
1.000000167
1.000000708
1.000002734
1.000009533
1.00003085
1.000089883
1.000238701
1.000598388
1.001338261
1.002761642
1.005380327
1.009368857
1.01536347
1.023965136
1.032985411
1.044204473
1.057854169
1.068699655
1.079357232
1.088544658
1.095438521
1.102650792
1.108543083
1.110112183
1.111918294
1.113443286
1.113872899
1.114648484
1.116422071
1.117759412
1.118581149
1.000005682
1.000018092
1.000053055
1.000148665
1.000372338
1.000859262
1.001889988
1.003658506
1.006775649
1.011855686
1.018250344
1.02739979
1.038807083
1.049840862
1.06231576
1.07392796
1.083841112
1.094871714
1.10172768
1.106641188
1.112430545
1.116191605
1.117834877
1.12014204
1.121033069
1.120860068
1.120528186
1.120273137
1.119874929
1.119235982
1.118724629
1.118225768
1.117751716
1.000593859
1.001270983
1.002620839
1.005057554
1.008694456
1.014635425
1.022511757
1.031310691
1.043599161
1.056255324
1.066923343
1.078823095
1.088219829
1.096469401
1.105336363
1.108068075
1.110484375
1.113576843
1.114486818
1.115555901
1.116875779
1.11784217
1.118718259
1.119604372
1.120516783
1.12061328
1.12054287
1.120460341
1.120235153
1.119932176
1.119543649
1.118987599
1.118136569
1.011524798
1.017667397
1.026976692
1.037403298
1.048449098
1.061732838
1.073390759
1.084936824
1.09535183
1.102195766
1.108600214
1.115306999
1.117900452
1.119903412
1.122462747
1.122587804
1.122497439
1.122532607
1.122346589
1.122000951
1.121317425
1.120192073
1.118759254
1.117652324
1.117588615
1.117675261
1.117585269
1.11722552
1.116812156
1.116392695
1.116075457
1.115730968
1.115139686
1.054656999
1.066431394
1.077903763
1.086565316
1.096721764
1.103974091
1.107915476
1.112158519
1.1155659
1.116655045
1.117953837
1.118754474
1.119211553
1.120189628
1.121771815
1.122545861
1.122641137
1.122535469
1.122279766
1.121796594
1.121211786
1.120507076
1.119361817
1.117967102
1.116867395
1.116116098
1.115501179
1.114917654
1.114437175
1.11427848
1.114204332
1.114062555
1.114050198
1.104357496
1.111303579
1.115389777
1.117692008
1.121355762
1.123011697
1.123205273
1.123744313
1.12374878
1.123464002
1.123088082
1.12235853
1.121398192
1.119747192
1.118585587
1.118652576
1.118515349
1.118091422
1.117548811
1.11677643
1.116299331
1.115911035
1.115378924
1.114632505
1.114206588
1.114046208
1.113811646
1.113510037
1.113225671
1.113259646
1.113361578
1.113479349
1.113940319
1.11275374
1.118536077
1.121340624
1.122960504
1.123850437
1.124086845
1.123848723
1.123067576
1.121983397
1.12153739
1.121086973
1.120255467
1.118803763
1.117259905
1.116691622
1.116354884
1.115809525
1.115131856
1.115011154
1.115110912
1.115118131
1.114903085
1.114831981
1.114878712
1.115060473
1.115137745
1.115090939
1.114940678
1.114822945
1.114917932
1.114911366
1.114826258
1.114954544
1.112367947
1.11268617
1.112860542
1.112948084
1.113116144
1.113566388
1.114320616
1.115020758
1.115506559
1.115861683
1.11625495
1.116580635
1.116779423
1.116800646
1.116732651
)
;

boundaryField
{
    inlet
    {
        type            fixedValue;
        value           nonuniform 0();
    }
    outlet
    {
        type            inletOutlet;
        inletValue      nonuniform 0();
        value           nonuniform 0();
    }
    bottom
    {
        type            slip;
    }
    top
    {
        type            slip;
    }
    obstacle
    {
        type            zeroGradient;
    }
    defaultFaces
    {
        type            empty;
    }
    procBoundary14to7
    {
        type            processor;
        value           nonuniform List<scalar> 2(1 1);
    }
    procBoundary14to8
    {
        type            processor;
        value           nonuniform List<scalar> 
35
(
1
1
1
1
1
1
1
1
1
1
1
1
1
1
1
1
1
1
1
1
1
1
1
1
1
1
1
1
1
1
1
1
1
1
1
)
;
    }
    procBoundary14to9
    {
        type            processor;
        value           nonuniform List<scalar> 
17
(
1.000000017
1.000001909
1.000091366
1.001796241
1.014868189
1.051127233
1.090060502
1.107964344
1.118332264
1.118903409
1.11688964
1.115684211
1.114295067
1.113867603
1.11312625
1.101734581
1.049633957
)
;
    }
    procBoundary14to13
    {
        type            processor;
        value           nonuniform List<scalar> 
16
(
1
1
1
1
1
1
1
1
1
1.000000001
1.000001645
1.000250856
1.006821359
1.042925759
1.09633053
1.108756463
)
;
    }
    procBoundary14to20
    {
        type            processor;
        value           nonuniform List<scalar> 
19
(
1.13803126
1.135011335
1.132283084
1.128120735
1.12359182
1.121539314
1.12034267
1.118741861
1.117453651
1.116923683
1.11641358
1.115544354
1.114144041
1.113560712
1.113429338
1.11304697
1.11242303
1.112257924
1.112257924
)
;
    }
}


// ************************************************************************* //
