/*--------------------------------*- C++ -*----------------------------------*\
  =========                 |
  \\      /  F ield         | OpenFOAM: The Open Source CFD Toolbox
   \\    /   O peration     | Website:  https://openfoam.org
    \\  /    A nd           | Version:  7
     \\/     M anipulation  |
\*---------------------------------------------------------------------------*/
FoamFile
{
    version     2.0;
    format      ascii;
    class       volScalarField;
    location    "4.9";
    object      p;
}
// * * * * * * * * * * * * * * * * * * * * * * * * * * * * * * * * * * * * * //

dimensions      [1 -1 -2 0 0 0 0];

internalField   nonuniform List<scalar> 
2222
(
1.003113475
1.003555778
1.003465605
1.002813943
1.002032361
1.001666329
1.001720721
1.002419096
1.003724316
1.005117784
1.005626688
1.004802544
1.004693443
1.00440046
1.003911213
1.003685308
1.004245981
1.004785552
1.005319512
1.005404269
1.005688364
1.005317524
1.004768724
1.004472943
1.006108001
1.004351558
1.003913323
1.003256484
1.005146549
1.005724945
1.005466827
1.004567001
1.003049732
1.002912141
1.003205714
1.003553364
1.003419412
1.002799619
1.002172636
1.001777733
1.001799458
1.002460166
1.003791532
1.0051661
1.005772076
1.005104241
1.004838488
1.004386897
1.003812089
1.003517862
1.004071524
1.004721319
1.005439281
1.005637433
1.005789195
1.005454363
1.004936465
1.004436395
1.00595234
1.004296383
1.003837715
1.003433664
1.00552537
1.00593178
1.005511024
1.004637705
1.00333369
1.003139924
1.003293263
1.003482103
1.0032893
1.002730037
1.002202257
1.001956005
1.001978237
1.00258274
1.003887884
1.005250328
1.005989252
1.005426803
1.004955626
1.004407956
1.003814319
1.00343284
1.003989229
1.004763389
1.005489439
1.005545656
1.005685228
1.005322321
1.005052643
1.004664784
1.00589682
1.004190552
1.003816699
1.003440617
1.005560488
1.005990839
1.00554273
1.004791111
1.003946055
1.003311629
1.003273858
1.003453186
1.003256578
1.002651718
1.002036316
1.001908087
1.002115317
1.002772533
1.003960429
1.00532573
1.006163313
1.005666333
1.005065455
1.004487669
1.003871307
1.00345235
1.003983707
1.004746254
1.005378296
1.005383935
1.005462442
1.005204422
1.005137943
1.005017816
1.006017592
1.00407299
1.003772165
1.003382545
1.005500933
1.005984165
1.005735401
1.005251878
1.004270872
1.00327465
1.003222663
1.003471991
1.003301958
1.002540871
1.001868476
1.001826042
1.002057074
1.002720596
1.003890607
1.005331528
1.006161616
1.005722408
1.005099315
1.004529183
1.003889717
1.003420958
1.003929542
1.004588162
1.005220274
1.005185412
1.005343799
1.005219168
1.005286868
1.005220146
1.006206619
1.003938264
1.003630114
1.003311183
1.0055514
1.006320298
1.00620039
1.00573716
1.004269654
1.003085248
1.003182197
1.003516993
1.003474442
1.002548296
1.001960512
1.001812114
1.001990186
1.002618287
1.003779651
1.005010905
1.005967059
1.005699003
1.005002109
1.00445625
1.00377037
1.003276553
1.003737735
1.004415045
1.004969452
1.005089053
1.00531345
1.005277105
1.005265426
1.005140703
1.006380897
1.00377532
1.003465092
1.003364198
1.005925043
1.006953629
1.006759471
1.005897664
1.004149374
1.002939456
1.003164544
1.003676006
1.003815224
1.003066057
1.002341874
1.002028283
1.002101702
1.002616654
1.003623679
1.004798477
1.00570448
1.005615278
1.004855712
1.004329692
1.003618876
1.003118679
1.003487011
1.004174838
1.004838064
1.005075946
1.005370695
1.005231787
1.005126857
1.00495691
1.003446136
1.003254141
1.003475122
1.006302866
1.007262188
1.006949374
1.005936106
1.004002568
1.002986996
1.003315592
1.003995513
1.004172189
1.003615036
1.002847668
1.002426859
1.002338137
1.002682964
1.003523466
1.004683919
1.00551007
1.005513782
1.004703305
1.004125988
1.00350802
1.002967476
1.003290202
1.004052566
1.004806912
1.005099072
1.005298428
1.00509667
1.00491891
1.004719361
1.003263347
1.00309023
1.003265696
1.00627678
1.00737469
1.007034503
1.005971159
1.003953743
1.003292051
1.003584008
1.004076105
1.004166663
1.003711978
1.003012996
1.002665046
1.002612356
1.002750384
1.003520146
1.004567443
1.005331322
1.005500401
1.004491514
1.004079941
1.003518427
1.002942279
1.003191575
1.004006585
1.00481277
1.005017896
1.005184418
1.004955755
1.004734069
1.004527376
1.00436876
1.003130978
1.00289735
1.002874964
1.006040872
1.007258566
1.006974869
1.005956526
1.004264588
1.003677203
1.003516902
1.003969076
1.004075864
1.00365225
1.002919447
1.002638042
1.002735054
1.002826739
1.003438146
1.004381613
1.005210799
1.005395986
1.004519611
1.004173296
1.003710245
1.003181078
1.00324466
1.00403138
1.004714771
1.004917337
1.005045189
1.004923494
1.004640311
1.004375661
1.004198271
1.002950238
1.002597886
1.002500511
1.005619774
1.00713694
1.006906369
1.006093156
1.004867951
1.003774733
1.003424208
1.003816897
1.003977913
1.003507692
1.002815734
1.002572409
1.0028164
1.003025382
1.003257309
1.004047104
1.005000154
1.005251005
1.004652584
1.004323925
1.003928621
1.00350143
1.003374185
1.003984571
1.004566754
1.004820413
1.004962476
1.004896515
1.004562335
1.004255849
1.004079359
1.002775331
1.002390945
1.002230088
1.005226098
1.007120572
1.007039395
1.006590231
1.005151061
1.003709924
1.003347614
1.003709134
1.003947749
1.003456585
1.002913
1.002551492
1.002826567
1.003173166
1.003411886
1.004174011
1.005060129
1.005112875
1.004759375
1.004405046
1.004007361
1.003558166
1.003446416
1.003908297
1.004446527
1.004773577
1.004935898
1.004838226
1.004617123
1.004234143
1.004004005
1.00288077
1.00226808
1.002103076
1.005131366
1.007422061
1.007450194
1.006946636
1.005138826
1.003547179
1.003376279
1.003722518
1.004083225
1.003518662
1.002929438
1.00261649
1.002849782
1.00320593
1.003433264
1.004169356
1.005005833
1.00515095
1.004781654
1.004355791
1.003931174
1.003507292
1.003376733
1.003865964
1.004476985
1.00483659
1.004884875
1.00482836
1.004648676
1.00446868
1.004362223
1.002837294
1.001981322
1.00201103
1.005077492
1.007820751
1.00780822
1.007097281
1.005107171
1.003462301
1.003411452
1.003867663
1.004370887
1.003676859
1.002920934
1.002691076
1.002867056
1.003195923
1.003430291
1.004161789
1.004940723
1.005207028
1.004751966
1.004298067
1.003927889
1.003530082
1.003326175
1.003849908
1.004566242
1.004934711
1.004882055
1.004862294
1.004744863
1.004869275
1.004981969
1.0027293
1.001797453
1.001921047
1.005082503
1.007951938
1.007962707
1.007252963
1.005142847
1.003464341
1.003531947
1.004074324
1.004487695
1.003910838
1.002983576
1.00262603
1.002774291
1.003121136
1.003380501
1.004052421
1.004840187
1.005271014
1.004757147
1.004337749
1.00408942
1.003636677
1.003351824
1.003873588
1.004519818
1.004949847
1.004929072
1.004945774
1.005099482
1.005363101
1.005365861
1.001605775
1.001516881
1.004520561
1.007938521
1.007957869
1.007296601
1.005130431
1.003846253
1.003663408
1.004135887
1.004440251
1.0039866
1.003032707
1.002514142
1.002590911
1.002973472
1.003258437
1.003876648
1.004789926
1.005366729
1.004875328
1.004439212
1.004151015
1.003702039
1.003380862
1.003769326
1.004401704
1.004852388
1.004927051
1.005212568
1.005489535
1.005507961
1.005430005
1.001322466
1.001285381
1.00410219
1.007874304
1.007940178
1.007355312
1.00541648
1.00449018
1.003703729
1.004019047
1.004330865
1.003917019
1.002959761
1.002381738
1.002468452
1.002848887
1.003176587
1.003761382
1.004722051
1.005354758
1.004918952
1.004452614
1.004129642
1.003667231
1.003396204
1.003638469
1.004212565
1.004756004
1.005014711
1.005466761
1.005582559
1.005439575
1.005362297
1.001190112
1.001188509
1.003794229
1.00786216
1.008111444
1.007731644
1.006102571
1.004732925
1.003609763
1.0038643
1.004199296
1.003805785
1.002920854
1.002361951
1.00240655
1.002768101
1.003168405
1.003694136
1.004669332
1.005272957
1.004865204
1.004381934
1.004045631
1.003572461
1.003305268
1.003575166
1.004065456
1.004703225
1.00512599
1.005477502
1.005529209
1.005310568
1.005224999
1.001353779
1.001162085
1.003581196
1.007992203
1.008470893
1.008221413
1.006446752
1.004645429
1.003465367
1.003701885
1.004082003
1.003761282
1.002972564
1.002510926
1.002566734
1.002856328
1.003265658
1.003789349
1.004649386
1.005088657
1.004758049
1.004255007
1.00389247
1.00342335
1.003191003
1.003527807
1.004044818
1.004650143
1.005093747
1.005385857
1.005418477
1.005141238
1.00498012
1.001238482
1.00103543
1.003376741
1.008107855
1.008698819
1.00848486
1.006627142
1.00458562
1.00335641
1.003592916
1.004022834
1.003828438
1.003077109
1.002737591
1.002789243
1.003031967
1.003399738
1.004006262
1.004653484
1.004925356
1.004619713
1.004028967
1.003677967
1.003262249
1.003007322
1.003411016
1.004018836
1.004658196
1.005032852
1.005284247
1.005240383
1.004945804
1.004671027
1.001049455
1.000845965
1.002809087
1.008068783
1.008805578
1.008613477
1.006726396
1.004577877
1.003371728
1.003592333
1.004102495
1.004038899
1.003209919
1.00274885
1.002792062
1.003092169
1.003529654
1.004165461
1.004577621
1.004773303
1.004497634
1.003802873
1.003489922
1.003112523
1.00284047
1.003219178
1.003919093
1.00460603
1.004967499
1.005255837
1.005054845
1.004722106
1.004315898
1.000694239
1.000322572
1.002019983
1.007711316
1.00868724
1.008458869
1.006616119
1.004556921
1.003595408
1.003811178
1.004280548
1.004236536
1.003273626
1.002706136
1.002740283
1.003100798
1.003662646
1.004155661
1.004461214
1.00457071
1.004284319
1.003594331
1.003368705
1.003065551
1.002759812
1.002907061
1.003770846
1.004498324
1.004885303
1.005122009
1.00487008
1.0045383
1.004062775
1.000251386
0.999881529
1.001463384
1.007142929
1.008537081
1.008300747
1.00649002
1.004849821
1.003999966
1.003983367
1.004406725
1.004355762
1.003353356
1.002756065
1.002767546
1.003124533
1.003764869
1.004096859
1.004275926
1.004584372
1.004310291
1.003576224
1.003383103
1.003136617
1.002792964
1.00271663
1.003548596
1.004382826
1.004780138
1.004928065
1.004675369
1.004343557
1.003831872
0.9996064508
1.00106619
1.006736154
1.008481876
1.008383451
1.006828124
1.005312381
1.004157941
1.003874845
1.004396752
1.004543162
1.003564187
1.002948177
1.002972064
1.00329951
1.003788293
1.00403772
1.004094914
1.004494268
1.004287551
1.003704066
1.003514055
1.003236095
1.002820813
1.002633633
1.003406855
1.004246628
1.004619929
1.004678212
1.004457577
1.004137901
1.00395736
0.999655319
1.000818336
1.006553705
1.008651748
1.00863515
1.007202132
1.005377078
1.004015602
1.003683079
1.004427314
1.004817086
1.003949475
1.003213427
1.003194151
1.003513764
1.003877714
1.004059999
1.004020888
1.004426886
1.004354898
1.003889791
1.003658993
1.003262927
1.002805432
1.00264566
1.003342149
1.004124798
1.004473304
1.004473376
1.00434094
1.004006942
1.0040549
1.004079392
0.9997682925
1.00066501
1.006499819
1.008963647
1.008943139
1.007448734
1.005371862
1.003870675
1.003714076
1.004642814
1.004959016
1.004198699
1.003399638
1.003319871
1.003538797
1.003925181
1.004174973
1.00413431
1.004564855
1.004623465
1.004163449
1.003712296
1.003235965
1.002766191
1.002687691
1.003373566
1.004116645
1.004396126
1.004378002
1.004227034
1.003986274
1.003981026
1.00421917
0.9997137699
1.000519899
1.006377894
1.00907049
1.009071929
1.007606475
1.00553373
1.004018136
1.003944653
1.004614129
1.004890469
1.004183927
1.003365458
1.003237884
1.003451736
1.003933236
1.004330562
1.00441096
1.004904833
1.004886542
1.004297584
1.003681378
1.003197955
1.002711096
1.002670636
1.003345983
1.00408523
1.004326729
1.004375558
1.004084394
1.003961003
1.003900061
1.004373328
0.9994822892
0.9998702686
1.005852869
1.008961875
1.009132612
1.007733804
1.005783981
1.004664999
1.004151233
1.004625078
1.004726128
1.004125103
1.003257751
1.003144968
1.003354811
1.004166019
1.004681441
1.004832396
1.00508954
1.005060596
1.004474939
1.003831778
1.003325833
1.00274576
1.002614123
1.003271241
1.004016734
1.004287299
1.004354343
1.00405993
1.003863736
1.00408466
1.004700804
0.9988826391
0.9992531032
1.004991527
1.008991839
1.009369314
1.008025594
1.006368822
1.005374995
1.004166181
1.004580163
1.004452123
1.003888659
1.003077378
1.003127374
1.003545184
1.004052116
1.004470811
1.004732916
1.00503749
1.005140255
1.004591427
1.003957506
1.003450607
1.002902608
1.00249889
1.002956513
1.003878508
1.004272907
1.004146864
1.004169493
1.003825654
1.003919944
1.004252195
0.9985212085
0.9990154981
1.004387821
1.008697117
1.009260306
1.008335313
1.006717172
1.005391079
1.004042876
1.004335883
1.004330753
1.003727535
1.003048499
1.003074781
1.003510513
1.004022357
1.00430565
1.004472967
1.004653444
1.004886135
1.004608251
1.004023882
1.003539525
1.003019288
1.002529894
1.002764649
1.003622035
1.004225725
1.004050524
1.00414922
1.004110247
1.004059264
1.00409124
0.9985556901
0.998979416
1.004124363
1.008705473
1.009420784
1.008398864
1.006571039
1.005104657
1.003744681
1.004116698
1.004527332
1.003959474
1.003343698
1.003342327
1.003694468
1.004054894
1.004300178
1.004343338
1.004455869
1.004387804
1.004045959
1.00343585
1.003082142
1.002853932
1.002621839
1.002781028
1.003622397
1.00434201
1.004208548
1.004368638
1.004360751
1.004233248
1.004193782
0.9990724182
1.004039225
1.008955111
1.009764325
1.008649677
1.006612063
1.00463406
1.003592197
1.004185585
1.004879061
1.004467451
1.003833563
1.003722579
1.003787776
1.004013052
1.004263328
1.004195365
1.004298104
1.004254326
1.003859141
1.003146897
1.002762295
1.002488271
1.002411561
1.00274963
1.003763346
1.004513603
1.004428991
1.004556349
1.004471626
1.004366001
1.004407024
0.9988094189
1.00363624
1.008824797
1.009812859
1.008777983
1.006587732
1.004352837
1.003758766
1.004550071
1.00519439
1.005038763
1.003949867
1.003590362
1.003597883
1.003857385
1.004141363
1.004065159
1.0039738
1.004080966
1.003878383
1.003156865
1.002798002
1.002524636
1.002269497
1.002496787
1.003641402
1.004371445
1.00439077
1.004585064
1.004437218
1.004412536
1.004509451
0.9981535673
1.002984221
1.00838781
1.009695302
1.00881458
1.006653465
1.004408454
1.00420267
1.004880278
1.00526698
1.004955034
1.003970688
1.003582464
1.003630846
1.003813149
1.004102837
1.004031698
1.003766142
1.003902664
1.003798477
1.003078824
1.002704854
1.00250048
1.002273418
1.002354102
1.003480948
1.004255812
1.004385402
1.004559464
1.004468982
1.004441184
1.004544565
0.9981551276
1.002599674
1.008262468
1.009888113
1.00900297
1.006943139
1.004856882
1.004643439
1.00518085
1.005368278
1.005108365
1.004115967
1.003617366
1.003669716
1.003825079
1.004183726
1.004172554
1.003886213
1.003967414
1.003816366
1.003041627
1.002637992
1.002411401
1.002240206
1.002284151
1.003448654
1.004195176
1.004478464
1.004512615
1.004438008
1.004410813
1.004517131
0.9978928826
1.001958677
1.007886167
1.010165486
1.009416007
1.007468716
1.005616413
1.005384732
1.005418283
1.005255226
1.004892393
1.004014722
1.003621755
1.003798161
1.004001514
1.00435399
1.004300771
1.003857249
1.003836047
1.003775802
1.00309916
1.002651955
1.002391411
1.00215098
1.002071537
1.003284816
1.003989307
1.004400878
1.004414837
1.004400645
1.004423784
1.004552566
0.9975552671
1.001425832
1.007491141
1.01040456
1.009804284
1.007979386
1.006315299
1.005566325
1.004848602
1.004803858
1.004848891
1.004162276
1.003757708
1.003931667
1.003999879
1.004283425
1.004235631
1.003746477
1.003917817
1.004047762
1.003330491
1.002750508
1.002458704
1.002210793
1.002129916
1.003241987
1.003972283
1.004524279
1.004400886
1.00433516
1.004375734
1.004567396
0.99710361
1.000669751
1.006987601
1.010315122
1.010136085
1.0086416
1.006607844
1.004920253
1.004614773
1.005129967
1.005149281
1.004293515
1.003613068
1.003584539
1.003762876
1.00423838
1.004412754
1.004071614
1.004244311
1.004347773
1.003447146
1.002740675
1.002430138
1.002235604
1.002137975
1.003084388
1.004005994
1.004541969
1.004177254
1.004025438
1.004262241
1.004623452
0.997149106
1.000510086
1.006806347
1.010467114
1.010467883
1.009003359
1.006372127
1.004810834
1.005063258
1.005443616
1.005189477
1.004277979
1.003490656
1.003617453
1.00401515
1.004516384
1.004666324
1.004361381
1.004397653
1.004341278
1.003154334
1.002528427
1.002267345
1.002151583
1.002069532
1.003004475
1.003914814
1.00422855
1.004058589
1.004090246
1.004365027
1.004691078
0.9967688539
1.000093521
1.006335234
1.010232599
1.010301359
1.008668666
1.006343186
1.005092436
1.005224027
1.005281027
1.005254057
1.004456897
1.003570219
1.003728327
1.004138856
1.004588202
1.004674816
1.004322365
1.004231856
1.004059141
1.003270307
1.00270119
1.002440597
1.0023163
1.002163408
1.002998218
1.003739173
1.004182303
1.004144483
1.004209747
1.004423331
1.00465469
1.001398435
1.006416758
1.009418749
1.009232925
1.007903068
1.006128807
1.005590603
1.005667341
1.005654925
1.005613334
1.004853054
1.003807138
1.003690518
1.003820872
1.004104043
1.004288264
1.004120569
1.004071747
1.004037659
1.003383426
1.002812531
1.002579015
1.002473202
1.002421252
1.002415117
1.003097858
1.003897387
1.004134215
1.004105511
1.004144967
1.004255186
1.006597548
1.008870953
1.008236447
1.00648889
1.005140847
1.005513132
1.007111742
1.007471712
1.006990085
1.0060575
1.004859807
1.003954359
1.003678075
1.0035999
1.003476134
1.00355277
1.003674291
1.003651627
1.003334282
1.00272123
1.002331122
1.002208826
1.002225989
1.002466398
1.003013389
1.003695749
1.004080279
1.004024883
1.003896589
1.003841693
1.003811774
1.007811875
1.006454062
1.004515114
1.003711065
1.00476092
1.007054279
1.0090549
1.008753164
1.007841339
1.007024279
1.006273871
1.005384929
1.004108428
1.003139022
1.002874548
1.002814108
1.003205513
1.00319524
1.002928866
1.002567151
1.002338871
1.002469233
1.002742323
1.003149514
1.003756853
1.004363299
1.004519054
1.004344751
1.004170032
1.003980696
1.003685625
0.9999482847
0.9903261212
0.9933444547
1.000145388
1.005327174
1.007065325
1.007829221
1.007851686
1.008428548
1.008730895
1.008202426
1.006959061
1.005142331
1.003209567
1.002846969
1.003230034
1.003504928
1.003210326
1.002915428
1.002786938
1.002858917
1.003330171
1.004100481
1.004713521
1.005202595
1.005438762
1.005207734
1.004728324
1.004247307
1.00376891
1.003238093
0.9544093286
0.9719555631
0.995988523
1.008201156
1.006890697
1.003562962
1.004515895
1.006963427
1.009416528
1.009192804
1.007782567
1.005766815
1.004114456
1.003870954
1.004187167
1.004600425
1.004263693
1.003763912
1.003614627
1.003767706
1.004318092
1.005136058
1.005651902
1.005893756
1.005655751
1.005178599
1.004703812
1.004116407
1.003568485
1.003087274
1.002622203
0.8784213991
0.953167338
0.98763466
1.005005617
0.9961720859
0.9925669561
1.000122255
1.008986815
1.010219185
1.008060387
1.003666106
1.003173296
1.003519863
1.005085266
1.006247112
1.006033572
1.005394707
1.004553875
1.004298162
1.004357998
1.004850191
1.005538921
1.005800762
1.005845648
1.005555869
1.004920489
1.004133979
1.003313649
1.002822627
1.002618592
1.002531646
0.6646663769
0.7804189205
0.8782859661
0.9527258481
0.9635493983
0.9867680368
1.00923575
1.010586185
1.00726282
1.000036881
1.000038342
1.002076803
1.005536023
1.00761429
1.007342607
1.006891435
1.006093568
1.005418905
1.00496765
1.00465189
1.004507573
1.004847856
1.00524857
1.005460043
1.005293613
1.004530327
1.003466849
1.002922605
1.002713266
1.002680041
1.002895424
0.5569555694
0.6056898516
0.6941339721
0.8118000546
0.910943406
0.9744745186
0.9987246906
0.9977634079
0.9910926778
0.9929362382
1.000537339
1.007957803
1.007645858
1.006904322
1.005968022
1.006611236
1.006933337
1.006381717
1.005466877
1.003985317
1.003509295
1.003938761
1.004516136
1.005000314
1.004779607
1.004107784
1.003353651
1.002897636
1.002853887
1.003149331
1.003845667
0.5420155698
0.5463261824
0.5656398281
0.6202730287
0.7292835447
0.8373472617
0.9097594008
0.9493008932
0.9795206452
0.9971023869
1.010713865
1.010125052
1.005154934
1.002570928
1.004728701
1.007940304
1.007897922
1.006444262
1.003804351
1.002474184
1.002795603
1.003534244
1.00522348
1.005557041
1.005136981
1.004310356
1.003584008
1.00325373
1.003308042
1.003886054
1.004706433
0.5427082135
0.5429872594
0.5435125734
0.5489003436
0.5790760655
0.6412771254
0.7455866453
0.8672141494
0.9597882689
0.9833801755
1.002645339
0.998420278
0.9906306644
0.9981305257
1.007093158
1.009063637
1.007077715
1.002563423
1.001493364
1.002227293
1.003983087
1.00528366
1.00585861
1.005620221
1.00516073
1.004663472
1.004124394
1.003653554
1.003211572
1.003600988
1.004408408
0.5455654496
0.5440654371
0.5428255567
0.5429070093
0.5444802574
0.5527719025
0.5868081188
0.6593145261
0.7718261553
0.8625603451
0.941161327
0.9599211531
0.9837959348
1.009148765
1.010280178
1.007610689
1.00175795
1.00007183
1.001825149
1.005049739
1.007128671
1.006615653
1.00592218
1.00577341
1.005643472
1.005254528
1.004523428
1.003093609
1.002661691
1.003068467
1.00394035
0.5475950828
0.5445204162
0.5431389443
0.543552778
0.5450803964
0.5450384909
0.5465602359
0.5575088517
0.5986812096
0.6915491265
0.8035218397
0.906801283
0.9719445427
1.002648638
0.9999703923
0.9948916257
0.9967899176
1.001874311
1.007297428
1.007584629
1.006569211
1.004943157
1.005765453
1.006745042
1.006642443
1.005846036
1.003532068
1.001918983
1.002212965
1.002764944
1.003781549
0.550509592
0.549782147
0.5497630536
0.5490189954
0.5473327151
0.5449426461
0.5442125893
0.5446439614
0.5480625641
0.5661240737
0.614376618
0.7171344077
0.8235681536
0.9175848503
0.9442839287
0.9828436957
1.00202409
1.010531593
1.009581669
1.005913157
1.001009642
1.002877883
1.007695255
1.008541255
1.00765235
1.004525019
1.002003632
1.001863734
1.002334938
1.003238418
1.004460469
0.5659391963
0.5625036437
0.5586808229
0.553533437
0.5489552097
0.5457671117
0.5458999335
0.5465619929
0.5467126277
0.546845484
0.5508213667
0.5751946281
0.6392437797
0.7385652897
0.8541209431
0.9579684126
0.9898834952
1.003331138
0.9968772879
0.9893227302
0.9943127674
1.005557389
1.010468307
1.009461777
1.005349912
1.003003125
1.002408893
1.003058263
1.003552816
1.003778257
1.004245313
0.5812745964
0.573675159
0.566291188
0.5608284211
0.557806317
0.5555377706
0.5538852739
0.5516898283
0.5487115313
0.5463904059
0.5465758125
0.5479326694
0.5557479299
0.5848823337
0.6619433042
0.7672839359
0.863300628
0.9374048447
0.9621326582
0.9806347037
1.004880872
1.012260657
1.010746036
1.005612472
1.003119507
1.004128081
1.005591135
1.005396235
1.004240896
1.003412987
1.003780039
0.5979879821
0.59021532
0.583460276
0.5790930902
0.5741212017
0.5677284039
0.5611891685
0.555816496
0.5521357345
0.5497654309
0.5495151267
0.5498553302
0.5495640215
0.550312431
0.5611248119
0.5966201168
0.6876283685
0.7990767725
0.9175006238
0.9676137205
1.002794473
1.003414175
0.9959602713
0.9990321568
1.00534459
1.00967508
1.00866202
1.005137067
1.001088124
1.001692822
1.003877431
0.6198325583
0.6115203764
0.6036475054
0.5952750261
0.5866503567
0.5789643185
0.5725924667
0.5685445805
0.566116015
0.5625697214
0.5584565591
0.5539469096
0.5494422669
0.5497029013
0.5505169204
0.5530994903
0.5682529938
0.6164813696
0.7123546456
0.8192120161
0.9221757763
0.945190522
0.972184862
1.003172588
1.012021266
1.0114977
1.00665269
0.9991449848
0.9988142372
1.00147319
1.005954365
0.6371537481
0.6294699467
0.6212821055
0.6127472908
0.6049507779
0.5982251895
0.591956647
0.586001242
0.5788534762
0.5720729382
0.5654788915
0.5604016703
0.5570898682
0.5551867363
0.5543325722
0.5538649206
0.5535331045
0.5567532769
0.5759512876
0.6403533558
0.7389499043
0.8480654109
0.9460382484
0.9901650305
1.004234191
1.002158122
0.9933547238
0.994972157
1.000643576
1.005822996
1.007388487
0.6508649727
0.6453515034
0.6388805617
0.6320643754
0.6247350124
0.6166447084
0.6088893089
0.6003210141
0.5928848703
0.5862083459
0.5805255952
0.5769472615
0.5719591338
0.5670582177
0.5612194113
0.5563180508
0.5536678629
0.5540801975
0.5554033229
0.5623978815
0.5878378036
0.6632040746
0.7636119684
0.865444325
0.9274230541
0.9707109539
0.984457095
1.004644659
1.009391118
1.007676593
1.003630863
0.6588083392
0.655772333
0.6516787776
0.646491994
0.6401578636
0.6334568557
0.62579483
0.6186562393
0.6118407594
0.604912735
0.5985008154
0.5905696762
0.5837564132
0.5769915905
0.5708638983
0.5668559253
0.563066441
0.5604236315
0.5590110335
0.557251401
0.5579241014
0.5676764319
0.6016867881
0.6830746114
0.7966202889
0.9189290483
0.9694852917
0.998905824
1.001981453
0.9920952816
0.9963654181
0.6621247289
0.6609245183
0.6590849557
0.6562561026
0.6525058105
0.6476112801
0.6419519466
0.6356389739
0.6282800368
0.6213105773
0.6133159797
0.606191559
0.5998337684
0.5935796592
0.5889431251
0.5830836299
0.5761021736
0.5703718605
0.5642756277
0.5595374665
0.5584291771
0.5592624499
0.5617895624
0.5742391723
0.6237924662
0.7089946643
0.8186470036
0.9198077121
0.9488781471
0.9670722085
1.001092437
0.6634068759
0.6630027904
0.6623038958
0.6611713073
0.6593580193
0.6566816112
0.6531575316
0.6483825615
0.6431755083
0.6368919198
0.6303056492
0.6239323884
0.6166827703
0.6101120226
0.6028320308
0.5952243546
0.5892432066
0.5831382243
0.5776970647
0.5733761452
0.5687408869
0.5656495204
0.5633418051
0.5623534567
0.5650895157
0.5819548837
0.6448218194
0.7423574537
0.8554702452
0.9395750538
0.9902270229
0.6638838443
0.6637594994
0.6635086571
0.6630822625
0.6624137629
0.6613783755
0.6596640953
0.657274621
0.6538561677
0.6494587335
0.6444631345
0.6382903986
0.6320048427
0.6252276679
0.6179919386
0.6120904759
0.6059986519
0.5999598925
0.5941472101
0.5869780061
0.5808648189
0.5740551024
0.5681069262
0.5640828153
0.5649411892
0.5662241333
0.5726628023
0.597639139
0.6704667371
0.7712305969
0.8759362015
0.6640308808
0.6639713819
0.6638828877
0.6637520611
0.6636070932
0.6633091807
0.662721617
0.6616634381
0.6599632087
0.6575932481
0.6542576175
0.650165798
0.6454092292
0.6397426302
0.6341230409
0.62763193
0.6207902434
0.6143762021
0.6071749846
0.6011865109
0.5950253413
0.588774606
0.584227204
0.5783131425
0.5737400277
0.5705419302
0.5679834443
0.5687409131
0.5774719865
0.6149055326
0.6853164772
0.6640102707
0.6638883892
0.6638493575
0.6638869016
0.6639640438
0.6639431002
0.6638130633
0.6634571734
0.6628037743
0.6617435902
0.6601596101
0.6579550232
0.6548145945
0.6510102055
0.6463144366
0.6407600833
0.6352899974
0.6289193879
0.6231557169
0.6173046009
0.6107930954
0.6051128693
0.5981713048
0.5910270915
0.5846162469
0.5777707083
0.5727761888
0.5699872167
0.5708199105
0.573632744
0.5850751282
0.663738419
0.6637620501
0.66383866
0.6639986549
0.6640618493
0.6640704416
0.6640363357
0.6639493821
0.6637782177
0.663481287
0.6629383862
0.6619753496
0.6604867235
0.6583386621
0.6553130115
0.6518149576
0.6472841609
0.6423065195
0.6368867874
0.6305210465
0.6247816822
0.6183537116
0.6120148167
0.6065035657
0.6005092035
0.5946603797
0.5891305243
0.5826790853
0.5781209601
0.5755851245
0.5742210951
0.6633867803
0.6637619004
0.6639721399
0.6640544286
0.6640698852
0.6640075562
0.6638979247
0.6638364615
0.6638751417
0.6638828377
0.6638145349
0.6635717177
0.6630516567
0.6621151894
0.6607454939
0.6586801201
0.6558924421
0.6524698407
0.6480230149
0.6433619782
0.6380707407
0.6323140517
0.6271018312
0.6211136416
0.6150524537
0.6088315565
0.6017893527
0.5954092664
0.5886247888
0.5823082976
0.5769593049
0.6626488642
0.6633452134
0.6637207675
0.6638023332
0.6637861235
0.6637471413
0.6637626766
0.6637971942
0.6638995818
0.6639855647
0.6639885817
0.6639483192
0.6638199534
0.6635803496
0.6631468626
0.662357072
0.6610883629
0.6590902817
0.6564522406
0.6530932717
0.6488609588
0.6444237713
0.6391454367
0.6336060458
0.6281135742
0.6221753257
0.6166787706
0.6112597763
0.6050846611
0.5996038174
0.5923558204
0.6610480884
0.6617666275
0.6623805367
0.6628121258
0.6631780728
0.6635165124
0.6637446523
0.6638208914
0.6639065433
0.6639643145
0.6639603506
0.6639269533
0.6638837551
0.6638599454
0.6638292403
0.6636927752
0.6633047883
0.6625320841
0.6612690234
0.6593381978
0.6568397495
0.6535791243
0.6496508784
0.6454594766
0.6405533618
0.6354906078
0.630273176
0.6242514851
0.6186822908
0.6123266597
0.6056862336
0.6603988874
0.6606136379
0.6611079025
0.6616965809
0.6622732108
0.6628404458
0.6633540066
0.6636504098
0.6637381397
)
;

boundaryField
{
    inlet
    {
        type            fixedValue;
        value           nonuniform 0();
    }
    outlet
    {
        type            zeroGradient;
    }
    bottom
    {
        type            slip;
    }
    top
    {
        type            slip;
    }
    obstacle
    {
        type            zeroGradient;
    }
    defaultFaces
    {
        type            empty;
    }
    procBoundary28to21
    {
        type            processor;
        value           nonuniform List<scalar> 
19
(
1.009482743
1.009352058
1.009227924
1.009109058
1.008945989
1.008732347
1.006426486
1.006426486
1.006385533
1.006317982
1.006225784
1.006306115
1.006756175
1.007143185
1.007169703
1.002583776
1.002583776
1.00254968
1.002743987
)
;
    }
    procBoundary28to22
    {
        type            processor;
        value           nonuniform List<scalar> 
35
(
1.003111024
1.003496291
1.003423026
1.002788075
1.002001531
1.001761128
1.001844028
1.002511416
1.00382097
1.005129449
1.005544684
1.004701708
1.004509095
1.004270835
1.003974384
1.003822999
1.00440894
1.004884925
1.005254457
1.005145961
1.005355536
1.004974607
1.00468234
1.004612843
1.006189879
1.004622973
1.004034358
1.002942734
1.004512823
1.005320175
1.005255001
1.004638776
1.003170744
1.002819169
1.002819169
)
;
    }
    procBoundary28to23
    {
        type            processor;
        value           nonuniform List<scalar> 2(1.004456482 1.004452605);
    }
    procBoundary28to27
    {
        type            processor;
        value           nonuniform List<scalar> 
55
(
1.00337739
1.003755438
1.003717845
1.003546126
1.003397016
0.9999734297
0.9999734297
1.000201826
1.000631462
1.000707362
1.000524066
1.000374972
1.000224978
1.000390065
0.9988198131
0.9988198131
0.9990947421
0.9982288593
0.9979715187
0.9980374391
0.9978122286
0.9977164249
0.9978914104
0.9975184324
0.99811406
0.99811406
1.001420564
1.007012935
0.9968317636
0.9024603331
0.7563445785
0.5913835233
0.5448943897
0.541607766
0.5418693586
0.545934141
0.5515441734
0.5556506937
0.5693699764
0.5900620971
0.6065907771
0.6273558782
0.6443443204
0.6552951028
0.6608705903
0.6628650025
0.6636452269
0.6639096336
0.6640356149
0.6640275725
0.6637503543
0.6628555557
0.6617459528
0.6606357985
0.660433445
)
;
    }
    procBoundary28to29
    {