/*--------------------------------*- C++ -*----------------------------------*\
  =========                 |
  \\      /  F ield         | OpenFOAM: The Open Source CFD Toolbox
   \\    /   O peration     | Website:  https://openfoam.org
    \\  /    A nd           | Version:  7
     \\/     M anipulation  |
\*---------------------------------------------------------------------------*/
FoamFile
{
    version     2.0;
    format      ascii;
    class       volScalarField;
    location    "2";
    object      rho;
}
// * * * * * * * * * * * * * * * * * * * * * * * * * * * * * * * * * * * * * //

dimensions      [1 -3 0 0 0 0 0];

internalField   nonuniform List<scalar> 
2222
(
0.4653273475
0.4662188809
0.4665783511
0.4661478203
0.4664908132
0.2757636298
0.2858510593
0.2984129243
0.3260962796
0.3536087595
0.3710170733
0.3754113386
0.3719932969
0.3702265217
0.3748632945
0.3815603943
0.390513377
0.4002609496
0.4079815262
0.4141084293
0.4178354989
0.420221982
0.4263342176
0.4334871307
0.4350189616
0.4385207509
0.4480726442
0.4502186969
0.4486639565
0.4497569539
0.452480872
0.4566163743
0.4596403273
0.4639639409
0.4666524861
0.4692060124
0.4712767965
0.4726431613
0.4722976313
0.271365729
0.281582496
0.2981947858
0.3285649287
0.3533208297
0.3710198192
0.3766666467
0.3737689738
0.3716096467
0.3782189641
0.3830371976
0.392252126
0.4028149954
0.4113617168
0.4175701766
0.4232518989
0.426588983
0.4322587959
0.4398411026
0.4442631092
0.4447573446
0.4500798647
0.4562090993
0.4569104736
0.4577505485
0.4563391093
0.4584612329
0.4616912936
0.4648551094
0.4672008993
0.4700237081
0.4731533318
0.4758398353
0.476982479
0.2711927667
0.2817166508
0.2969216489
0.3318903735
0.3535002382
0.3711939118
0.3764139805
0.374220496
0.3717720287
0.3784150453
0.3830553244
0.3926599264
0.4032486118
0.4121901821
0.4190411897
0.4252460176
0.4293226945
0.4345687399
0.4427579582
0.448472348
0.4516730536
0.4522025018
0.4585331807
0.4615675341
0.4639088022
0.4644816089
0.4656674188
0.4688736627
0.4687315242
0.4691400147
0.4706622565
0.4737040917
0.4769340595
0.4790562883
0.2781039918
0.2933218509
0.2962886875
0.3325050587
0.3589392761
0.3724190982
0.3781515004
0.3767496177
0.3739123092
0.3791004025
0.3848510271
0.3941919828
0.4046754996
0.4133640092
0.4205231089
0.4264629307
0.4307103927
0.4352045479
0.4437726104
0.4501609148
0.4552905225
0.4571496767
0.4590219269
0.4633345192
0.4668643131
0.4697497088
0.4717268395
0.4744977106
0.4761621278
0.4762668542
0.4735652772
0.4748882453
0.4776465134
0.4800085171
0.3036691556
0.3041697082
0.2961526989
0.3322398853
0.3665542343
0.3793886934
0.3870579766
0.3902613951
0.3862566806
0.384660611
0.3923850646
0.4029006303
0.4122883057
0.4185398125
0.4254395046
0.429984894
0.4339155475
0.4373562803
0.4450456968
0.4510293412
0.4574455096
0.464956657
0.461233401
0.4637567876
0.468113732
0.4719064317
0.4741540863
0.4766536821
0.4798551725
0.4821375041
0.4807885762
0.4803719572
0.4800963263
0.481618411
0.4830157494
0.3174332522
0.3048678589
0.2983579579
0.3331907932
0.3699632953
0.3878369872
0.3995552877
0.402754376
0.4003697053
0.4005589639
0.4059351979
0.4143354138
0.4231974044
0.4303298681
0.4375030023
0.4426346565
0.446688119
0.4475494521
0.4499625282
0.4531700913
0.458873372
0.4678002801
0.4678776861
0.4660593823
0.4692538884
0.4726863989
0.4747123648
0.4771000297
0.4810438412
0.4844062638
0.4854334172
0.4866252275
0.4869448446
0.4873343422
0.4877484308
0.3198909893
0.3029867382
0.2997183666
0.3356586004
0.3704631882
0.3907629403
0.4042081947
0.4074991673
0.407013124
0.4104506645
0.413583643
0.4194378452
0.4280480917
0.4370895847
0.4453144468
0.4527872805
0.4571600487
0.4589379937
0.4602478059
0.4608807061
0.4651605024
0.4698048164
0.4753049884
0.473397127
0.4745875909
0.4743969647
0.4757553065
0.4783455867
0.481729216
0.4850127734
0.4871722787
0.4894097883
0.4914537226
0.4927164526
0.4936937456
0.3148779834
0.2935835216
0.2990994076
0.3384730176
0.3686530835
0.3893926329
0.4037503174
0.4085967641
0.409567559
0.413964695
0.4164874499
0.4212307024
0.4294609725
0.4394133427
0.448691165
0.4575430512
0.4619903292
0.4646990112
0.4662216019
0.4679420027
0.4699654302
0.4722650616
0.4789594742
0.4807771015
0.4824415031
0.4808491694
0.4796648468
0.4827552676
0.4845901528
0.486105442
0.4877602782
0.4904387064
0.4932445906
0.4947219475
0.4963019253
0.2860517093
0.2894889528
0.2987910806
0.3520990462
0.3702448128
0.3899650653
0.4044097777
0.4106732866
0.4114280571
0.4150161871
0.4178660478
0.4227671797
0.430560347
0.4402522013
0.4505104752
0.4604992396
0.4646588426
0.4678858338
0.4691155621
0.4715404151
0.4739922101
0.4765352883
0.4800496902
0.4840828228
0.4865367894
0.4884723698
0.4884347779
0.4910770589
0.492710958
0.4904942301
0.4891304851
0.4910997479
0.4938632456
0.4954855862
0.4970663193
0.2631882032
0.2900491977
0.299928747
0.365670344
0.3777873554
0.3934241184
0.409128779
0.4182419242
0.4178509374
0.4178164817
0.4215881676
0.4284069732
0.4356493304
0.4432533166
0.4558064215
0.4639267275
0.4669754793
0.4706656756
0.4716049622
0.473669025
0.4763895382
0.483852603
0.481635643
0.4851856683
0.4880963591
0.4917992588
0.4936531013
0.4957011519
0.498242901
0.4982843971
0.4947710099
0.4940137586
0.4952215186
0.4966210815
0.4980760032
0.2558152332
0.2919064402
0.3007204343
0.3703209286
0.4048124217
0.4116101829
0.4235197414
0.4334715205
0.4347102508
0.4317528177
0.436274983
0.4441065712
0.4502788617
0.4554035051
0.467363329
0.4741612467
0.4714835348
0.4770201606
0.4794445051
0.4778336574
0.4782120594
0.4863573569
0.4888219977
0.4871782301
0.4892899662
0.4932379348
0.4959258574
0.4974714203
0.5003137394
0.502782424
0.5018894784
0.5010773846
0.5008483518
0.5010845809
0.5012146917
0.254533319
0.2928529189
0.3081833328
0.3699678325
0.4263081129
0.4287582395
0.4349987946
0.441837544
0.4451137585
0.4476605354
0.4508944617
0.4546506121
0.4602538663
0.4662569393
0.4761537502
0.4847412042
0.4816020064
0.4863405515
0.4910090021
0.49050557
0.4880735214
0.4876231382
0.495935197
0.4939397418
0.4935675031
0.4955028205
0.4978093001
0.498361938
0.5011212189
0.5047518996
0.5058093886
0.5058195578
0.5066062552
0.5074969895
0.5082805132
0.2546481469
0.303322473
0.3306524036
0.3698215869
0.4362734952
0.4371993004
0.4393494779
0.4439100207
0.4495106434
0.4542288625
0.4573834392
0.4593911578
0.4646858122
0.4709522659
0.4803079268
0.4902955818
0.4869795996
0.4908170662
0.4960184585
0.4984108494
0.496010587
0.4935927522
0.4999837153
0.5020053544
0.5015985141
0.5005052139
0.5005103643
0.5008971116
0.5027202021
0.5063024882
0.5081509425
0.5080215936
0.509354369
0.5104685365
0.5120532492
0.513344527
0.261802119
0.3182017738
0.3381464996
0.3753839338
0.4432051977
0.4426250988
0.4397165673
0.4445847058
0.4523832533
0.457219257
0.4608925315
0.4629564136
0.4677325596
0.4736768829
0.4825839471
0.4937368916
0.4892227395
0.4928535942
0.4981430938
0.5022419784
0.501108693
0.5011571559
0.5021668387
0.5062344365
0.5071438264
0.5088497049
0.5085285371
0.5073879273
0.508212395
0.5089156468
0.5092063116
0.5097499521
0.5108821938
0.5119571962
0.5137339684
0.5148448494
0.2933438348
0.3260455922
0.334190531
0.4067795405
0.4548596334
0.4497464192
0.4444637165
0.4510075526
0.459426956
0.461496799
0.4658953776
0.4710434487
0.4751229192
0.4786076935
0.487748257
0.497772395
0.4918421514
0.4958846005
0.5010147046
0.5047720974
0.505701438
0.5085882847
0.5046438735
0.5079864873
0.5096688433
0.5124689997
0.5143608264
0.5138613179
0.515005741
0.5160023099
0.5142502145
0.5117215737
0.5118941084
0.5140920625
0.5156826615
0.5159626218
0.3193939223
0.3331383545
0.3321764946
0.4379590316
0.4845274445
0.4757861511
0.4630096344
0.4715598819
0.4786707489
0.4780266745
0.4816048058
0.4879632343
0.4908241877
0.4926093794
0.4984975038
0.506059067
0.5006907839
0.5062558411
0.5105384328
0.5120332024
0.5099355936
0.5127322498
0.5140472931
0.511155506
0.5119339491
0.5145067514
0.5169525115
0.5175299697
0.5190400786
0.5207832682
0.5200766594
0.5182377975
0.516811954
0.5164940432
0.5172860894
0.5189874778
0.3274498364
0.3381751995
0.3375409442
0.446345626
0.5117270715
0.5023709807
0.4841738173
0.4862198548
0.4909698367
0.4932856108
0.4958187091
0.498614587
0.5009952209
0.5030277199
0.5077765249
0.5136299613
0.5112080301
0.5153498956
0.5186775923
0.5202762153
0.5185514942
0.517167531
0.5209833323
0.5199006137
0.5182064119
0.5178928614
0.5194843972
0.5200482374
0.5215190906
0.5235779098
0.5239758274
0.5233627157
0.5227484242
0.5221472506
0.5220704612
0.5228462872
0.3199717569
0.3376859021
0.3896629557
0.4532820369
0.5263053545
0.518997881
0.495904806
0.4930644343
0.4974708567
0.5004895574
0.5030000159
0.5044893574
0.507278973
0.5087281572
0.5124425427
0.5175392247
0.516553185
0.5200478403
0.522644122
0.5244115113
0.5237678614
0.5250659237
0.5254871676
0.526568582
0.5254469632
0.5238572122
0.5245134119
0.5253398657
0.5241511903
0.526107986
0.526911598
0.5270679807
0.5264727648
0.525173037
0.525373165
0.5270632266
0.3037549951
0.3442739744
0.4387231473
0.4853819258
0.5441959439
0.5373641003
0.5057350722
0.5019085319
0.5090802326
0.5089668031
0.5104274064
0.5145894949
0.5181734841
0.5168565802
0.5195442803
0.5241778332
0.52193584
0.5245370067
0.5266501558
0.5282685222
0.527637382
0.5299472759
0.529474813
0.5301905077
0.5300137203
0.5300256867
0.5303337795
0.5305262889
0.5290603182
0.5286585655
0.529514287
0.5301600474
0.5295279364
0.5284145737
0.5279233466
0.5290738254
0.3041361616
0.4117162143
0.4739189156
0.5362201384
0.57782831
0.5636208193
0.5270322275
0.5220406455
0.526313048
0.5242444858
0.5237401986
0.5281263969
0.5299452253
0.526866116
0.528288466
0.5320111263
0.5291933214
0.5323909076
0.5337677847
0.5336188028
0.5321095339
0.5332470095
0.5338905165
0.5330317534
0.5326315287
0.5330043395
0.5338041471
0.5337865258
0.5325307691
0.5329069089
0.5338108064
0.5326715345
0.5310744658
0.5313011025
0.5310621925
0.531894431
0.4299317754
0.554480669
0.5297108652
0.5697599288
0.5934715663
0.5805221992
0.540908308
0.5310254809
0.5354803846
0.5315588248
0.5293142669
0.533308816
0.5352426212
0.5312049082
0.5315593199
0.5350050387
0.5314525206
0.5364427353
0.5388996184
0.5382010122
0.5358388137
0.5353714972
0.5380665259
0.5372099108
0.5368383248
0.5367544995
0.5365903493
0.536530475
0.536263016
0.5356543709
0.5369657656
0.5372793877
0.536171239
0.5346249973
0.5331454282
0.5342976298
1.750901505
0.9484992619
0.6941611564
0.6786346989
0.6469348655
0.6172777753
0.5733490632
0.5610936963
0.5644300387
0.5580850695
0.5506489833
0.553537457
0.5546056428
0.5488128134
0.5485931165
0.55032543
0.5552483194
0.5572560636
0.560622682
0.5610930045
0.5582165383
0.5538456818
0.5539695309
0.5542481987
0.5532274476
0.552347603
0.5513552314
0.5499345998
0.5502323264
0.5508350597
0.5508377229
0.5499953837
0.5491831712
0.5485589251
0.546693851
0.5444524726
0.5443462492
2.480804696
1.611550231
1.217148017
0.9924113985
0.7915826661
0.7377993522
0.6842072359
0.6512517067
0.654871723
0.640715799
0.6162284799
0.6144732475
0.6138391915
0.6018059127
0.5946721182
0.597017838
0.5929145674
0.5805965808
0.5742758375
0.5735358935
0.5690067397
0.5664091227
0.5696763675
0.5714306504
0.5680661926
0.5681557096
0.5687044112
0.5667979638
0.5653953856
0.5662630681
0.5659948462
0.5637789153
0.5612301602
0.5598674799
0.5577705253
0.5566833575
0.5568602008
2.709103631
2.179477982
1.632454269
1.232444394
0.9722501209
0.9005136411
0.8421800173
0.7720631386
0.757924396
0.7338831083
0.6886066878
0.6869412498
0.6848702427
0.6688461157
0.6531281027
0.6531070441
0.6483134329
0.6344818034
0.6280104564
0.6259553139
0.6206748816
0.6139293356
0.6129990034
0.6103909405
0.6042282668
0.5990248586
0.5961328244
0.5923238833
0.5888071113
0.5885180784
0.5873956492
0.5844290331
0.5802714962
0.5779102951
0.5758602216
0.5735888603
0.5734490868
2.790195848
2.484949837
2.00310937
1.569822497
1.290594724
1.125120369
1.00584596
0.9019521899
0.8531479343
0.817295566
0.7660434516
0.7525302453
0.7434094414
0.7243186211
0.7046245192
0.6984405231
0.6881358418
0.6686636335
0.6596861416
0.6567352594
0.6510055387
0.6422081988
0.6402444705
0.6368420143
0.6288832622
0.6241591377
0.6225055119
0.6197265106
0.6157913807
0.6141733802
0.6112986729
0.6056314346
0.5991783315
0.5967925872
0.5955051481
0.5929716407
0.5927946645
2.814148463
2.650825305
2.285689373
1.890178138
1.55209527
1.308609422
1.14781675
1.027970014
0.9570133872
0.9066704709
0.8545423858
0.8275262875
0.809663963
0.7851459958
0.7598547888
0.7491115565
0.736184182
0.7131265067
0.7045376006
0.7008874029
0.6939482805
0.6839820675
0.6787608091
0.6725831252
0.6619800898
0.6550831448
0.6518217333
0.648084113
0.6432188565
0.6404071307
0.6367520241
0.6293035682
0.6230112348
0.6209009086
0.6192985692
0.6153076832
0.6136370624
2.821256836
2.737565496
2.488796308
2.142808207
1.790536056
1.51754234
1.344750464
1.205327246
1.099401787
1.019888465
0.9508238097
0.907344276
0.8772415375
0.8446370183
0.8136189425
0.7972401004
0.7807542682
0.7565501788
0.7450211645
0.7380762298
0.7278842906
0.7148982572
0.7068727023
0.6996541678
0.6896720818
0.6828655975
0.6796055324
0.6755218943
0.6700669984
0.6667134999
0.6623614083
0.6533125891
0.6457764083
0.6438956757
0.6420158906
0.6373354994
0.6343892373
2.824083157
2.782166021
2.621670771
2.344277612
2.01395143
1.727262192
1.514471168
1.331452715
1.201698209
1.116455138
1.041459636
0.9884225153
0.9503280494
0.9111955894
0.8742009244
0.8525164869
0.8316729226
0.8055422396
0.7896931956
0.7793377901
0.767076969
0.7524846776
0.7443286841
0.7358604642
0.7239622879
0.7157735018
0.7103964625
0.7040565446
0.6965979563
0.6911669227
0.6853924995
0.6765029178
0.6688927663
0.6667049597
0.6641066484
0.6594629025
0.6552183949
2.826421376
2.804890427
2.707085493
2.498018415
2.205401099
1.918571187
1.687534809
1.486570908
1.348223911
1.251168929
1.1570272
1.084878236
1.032335046
0.9826091788
0.9364645723
0.9077697118
0.8826256549
0.8537446232
0.8345434183
0.8209177355
0.805606426
0.7884388354
0.7761796933
0.7643176474
0.7508765152
0.7411880172
0.7354324783
0.7292285035
0.7221743805
0.7169042118
0.7109527453
0.7031114392
0.6953101389
0.6912999486
0.6870953029
0.6813809669
0.6762705677
2.829043395
2.817538742
2.760073189
2.611025849
2.368870614
2.093141203
1.854227096
1.638952978
1.477943031
1.358014432
1.248315197
1.16655182
1.109199513
1.054608331
1.001575943
0.9673811305
0.938358498
0.9056169211
0.8827124335
0.8656904224
0.847508505
0.827034332
0.8140839031
0.8020445984
0.7869751495
0.7759237849
0.7679705097
0.7595199384
0.7504475806
0.7437778912
0.7367611351
0.7287444047
0.7208059525
0.7153079442
0.7099843871
0.7027354836
0.69649407
2.831629191
2.825418002
2.792128732
2.691340505
2.499288921
2.250043211
2.014456171
1.790039777
1.608799991
1.476339954
1.358057779
1.268940962
1.201362959
1.136280599
1.074760096
1.032141176
0.9964845763
0.9584835646
0.9307814569
0.9103467253
0.8894700786
0.8669931376
0.8503801046
0.8345637251
0.816271995
0.8015254254
0.7919931021
0.7832338665
0.7736591706
0.7669180162
0.7597084129
0.7514941397
0.7440876712
0.7384642886
0.732313862
0.7244405414
0.7173242834
2.834066515
2.830990978
2.812073617
2.746934762
2.60232011
2.386931105
2.160729628
1.934583739
1.741446692
1.597682195
1.465372125
1.359958812
1.279603858
1.205967701
1.138924094
1.093080158
1.05457738
1.013329861
0.9823172322
0.9587044024
0.9345361715
0.9089213261
0.8899271142
0.8719639782
0.8516796139
0.8362635698
0.8262211233
0.8160965367
0.8046781397
0.7957718601
0.7865704211
0.776449581
0.7676352852
0.7611678824
0.7542521626
0.7453340486
0.7375926351
2.837141939
2.83553103
2.824913341
2.784380961
2.680120956
2.502648575
2.295171693
2.072015268
1.870889115
1.715863201
1.571137794
1.454890104
1.371138263
1.294494612
1.222803144
1.16931478
1.122765321
1.075042354
1.038235922
1.009328393
0.9807708459
0.9515681465
0.9294075716
0.9089263891
0.8862507469
0.8676230361
0.8542613659
0.8419348683
0.8293683142
0.8205230315
0.8119346825
0.8024293159
0.7937972383
0.787075094
0.7796542683
0.7699708401
0.7609119265
2.841681502
2.839431015
2.83350974
2.808829992
2.736921849
2.596813163
2.413283637
2.20047158
1.997642981
1.833993058
1.680243085
1.55191164
1.457676002
1.368874012
1.287693
1.230387406
1.182012234
1.131947917
1.092588847
1.060844836
1.02901309
0.9965702035
0.9716167447
0.9485217568
0.9239355935
0.9037274045
0.8895554844
0.875950261
0.8614556752
0.8506990545
0.8397025893
0.8274225403
0.8174951896
0.8100455144
0.8016999888
0.7914191429
0.7819936817
2.847012068
2.842921548
2.839351286
2.82479228
2.776863314
2.670986727
2.515727105
2.318390284
2.117829373
1.949613473
1.788021672
1.650424596
1.547694746
1.453076963
1.365944806
1.305420065
1.252739064
1.197236103
1.153348931
1.11629413
1.07918198
1.042683035
1.014544834
0.989142171
0.9628300781
0.9408310653
0.9238146986
0.9072800144
0.8901706206
0.87728127
0.8654163802
0.8525334424
0.8419653894
0.8346902221
0.8266211031
0.8159044
0.8060588268
2.849768489
2.84647655
2.843284975
2.834750001
2.804044992
2.727336643
2.600823418
2.424700845
2.231679089
2.062083578
1.8946704
1.748085637
1.637301135
1.535708565
1.441929419
1.374462574
1.316234917
1.255088143
1.207477939
1.167795615
1.127912646
1.088613605
1.058837961
1.03235269
1.004505836
0.9807111641
0.9616721125
0.9430320439
0.9239152037
0.9101699407
0.8976374521
0.8839599196
0.8725833879
0.8639333223
0.8542094558
0.8418156325
0.8303909431
2.849171775
2.848837827
2.846094825
2.840828037
2.82191796
2.768677111
2.669803484
2.517786057
2.337003819
2.169826224
1.999305125
1.84641903
1.729050515
1.620674541
1.518658757
1.444567258
1.382218172
1.317788864
1.268119153
1.225274774
1.18156791
1.139328818
1.106631531
1.077524781
1.047490338
1.021346374
0.9995453472
0.9783520703
0.9568003432
0.9400431133
0.9249776671
0.9088173078
0.8957427122
0.8861287286
0.8759821103
0.863712972
0.8528920675
2.845608766
2.849176721
2.848103864
2.844740104
2.833336237
2.797808054
2.723538483
2.597221782
2.432880757
2.27177237
2.101442322
1.943520523
1.821076663
1.706087093
1.597968243
1.517681134
1.449314718
1.376456958
1.320079556
1.272736047
1.226119368
1.182533235
1.149941064
1.120675462
1.089325631
1.061705065
1.038110145
1.01486777
0.9912946346
0.9734521421
0.9576751972
0.9409076283
0.9272746516
0.9170209217
0.9059627415
0.8920328128
0.879712696
2.844263164
2.847977927
2.848792358
2.847219479
2.840497441
2.817613124
2.763800231
2.662480555
2.518197841
2.366773462
2.200368837
2.040732262
1.91394555
1.793164185
1.677391823
1.590087831
1.515236196
1.436592087
1.376579843
1.328442502
1.280152041
1.234766675
1.200024566
1.167906378
1.133572272
1.103095953
1.076723992
1.051082353
1.025345627
1.005122259
0.9874700293
0.9689139867
0.9538107913
0.9418553925
0.9292754568
0.9141068711
0.9011380833
2.847259325
2.846633737
2.848745624
2.84837899
2.844479189
2.830045333
2.792500415
2.714229333
2.591815419
2.454255504
2.295486809
2.136434088
2.006868119
1.88048018
1.758793952
1.665214175
1.583692557
1.497485066
1.431451018
1.379409432
1.327323513
1.279195368
1.24349354
1.210399723
1.174397555
1.142456439
1.114591435
1.087453169
1.060154279
1.038659272
1.019916797
1.000017814
0.9839076844
0.9712773367
0.9580993822
0.942028565
0.9287206581
2.852490347
2.846685331
2.848130953
2.848547518
2.846406267
2.837165523
2.811516825
2.753320672
2.653505096
2.532239709
2.384547395
2.228845926
2.097269121
1.967023655
1.839654223
1.740675186
1.653749048
1.562707874
1.492203675
1.436637534
1.380493234
1.329220208
1.29198899
1.256773481
1.218350349
1.184902661
1.154964894
1.125340789
1.09601995
1.072332707
1.051766947
1.030472202
1.013240634
0.9993073969
0.9848829648
0.9672285171
0.9522901759
2.851801707
2.84880236
2.847629469
2.848136649
2.847431319
2.842097682
2.824851177
2.78243653
2.703246931
2.599062317
2.463579999
2.313159557
2.181975659
2.049149348
1.919289339
1.816891443
1.725736832
1.629869868
1.555103332
1.495567117
1.435617081
1.380957844
1.339962038
1.301257899
1.259142504
1.223915439
1.193178209
1.162221119
1.131229864
1.106454543
1.084808003
1.061910752
1.043670746
1.028769932
1.01333105
0.9947795739
0.9796207503
2.843653434
2.848470564
2.846702434
2.847509
2.849229371
2.847196043
2.836834211
2.806373378
2.743181476
2.653321985
2.530626893
2.387114291
2.258514514
2.12657629
1.994920873
1.890705654
1.797802754
1.699543279
1.620829611
1.556771425
1.490879638
1.431801177
1.388170791
1.348074861
1.305015086
1.269409861
1.237504897
1.20442184
1.171176036
1.143839397
1.119908966
1.094844699
1.074746749
1.058206269
1.041439524
1.021661139
1.005532271
2.837584743
2.842815807
2.844859849
2.847532413
2.854953475
2.858329586
2.852199175
2.82899273
2.776760115
2.697770989
2.586350004
2.452411964
2.328993706
2.198730627
2.067590629
1.962545053
1.867784649
1.766833921
1.684922808
1.617291046
1.547578375
1.484843046
1.437426296
1.393634383
1.346414983
1.30853558
1.275207027
1.24095575
1.206849635
1.178661936
1.153678586
1.127268858
1.105864383
1.087994156
1.070109284
1.048955045
1.03237775
2.84223042
2.836872806
2.84065957
2.847972111
2.857473536
2.86590005
2.863606925
2.847513753
2.805588744
2.737047586
2.637609792
2.513852314
2.396868831
2.270322087
2.138548366
2.032260127
1.935688216
1.832616302
1.747592806
1.676397478
1.601894151
1.535869384
1.485878226
1.440136683
1.391120413
1.352149664
1.318003919
1.28219867
1.246805082
1.216933878
1.189748841
1.161072105
1.137933868
1.118111377
1.098592972
1.076181595
1.058866178
2.852354434
2.842340338
2.833388866
2.839064007
2.851670522
2.864724244
2.866620145
2.856433548
2.826983523
2.772172293
2.686674662
2.57542035
2.464893124
2.341050406
2.209910742
2.102180492
2.00266488
1.896626992
1.808979763
1.734677069
1.656956441
1.588106407
1.535064832
1.48574585
1.433552507
1.393048828
1.357712532
1.32031003
1.283423397
1.252378112
1.22410541
1.193839153
1.169309726
1.148306478
1.127685882
1.103919256
1.086166961
2.799680595
2.851011082
2.8231162
2.810813512
2.82097319
2.842314947
2.857287119
2.855132227
2.839285698
2.80057911
2.731452452
2.632684698
2.529102647
2.409471716
2.279163701
2.171125947
2.069842039
1.961501798
1.87101513
1.793512456
1.711664583
1.640690563
1.585325003
1.533578432
1.478745444
1.436091974
1.398772272
1.359152275
1.321147545
1.289712465
1.260627651
1.22914416
1.203466714
1.180742504
1.158427396
1.13322791
1.114501655
2.440856338
2.831222051
2.804275195
2.794539166
2.807170662
2.828161968
2.843723166
2.845887845
2.83959845
2.818442607
2.767513101
2.682934037
2.586449569
2.471243654
2.344487233
2.238065229
2.135979906
2.025850656
1.932817778
1.852587826
1.767700964
1.694390325
1.636341994
1.581040258
1.523557374
1.479643935
1.441000335
1.399620221
1.359588902
1.325845024
1.294481226
1.260661879
1.233914077
1.210501276
1.187407996
1.161270627
1.142240902
1.858548252
2.678336501
2.788085844
2.821215337
2.834007808
2.833080179
2.832977181
2.840965853
2.840664974
2.829380224
2.793609197
2.723786337
2.636532986
2.528007333
2.404907753
2.301032549
2.199487583
2.08872704
1.993930659
1.911451669
1.82323499
1.74810472
1.687670131
1.629808162
1.569607848
1.52345442
1.48257997
1.438547862
1.397203697
1.362823066
1.331054785
1.296506782
1.269021647
1.244358734
1.219682975
1.192067349
1.172061913
1.504534243
2.249330405
2.69969965
2.817519671
2.836341797
2.831688081
2.836322941
2.842568077
2.843571296
2.83974169
2.812919695
2.756418945
2.680886537
2.581474804
2.464015049
2.362135596
2.260747395
2.149316071
2.053310035
1.969542752
1.879043517
1.801666446
1.738698392
1.677167425
1.614746946
1.567450432
1.525158604
1.478973662
1.435407426
1.398898603
1.364825466
1.328199557
1.299708383
1.274189412
1.248746029
1.220459322
1.200155724
1.409141043
1.780041668
2.535993373
2.752762822
2.795726453
2.814868385
2.8322075
2.843890304
2.843561565
2.839522016
2.826730956
2.781884032
2.7190216
2.631729735
2.521915558
2.422659557
2.321426563
2.209734325
2.112745303
2.027130104
1.934090987
1.855000627
1.789622614
1.725234939
1.660241058
1.611090895
1.566855639
1.518324375
1.473688638
1.436327014
1.401177389
1.362888383
1.333211884
1.306671307
1.279840504
1.250557276
1.229992854
1.400390654
1.496567405
2.175550295
2.636767849
2.775311168
2.825677839
2.839415146
2.844861029
2.84080302
2.836603931
2.825114945
2.797071873
2.748700786
2.674268488
2.574348546
2.479752392
2.380660098
2.269307638
2.171597323
2.084745796
1.989624755
1.908523726
1.840803119
1.772399445
1.705460823
1.655329534
1.609618349
1.558650159
1.511916596
1.472834713
1.435937745
1.396674135
1.366128651
1.338655786
1.31058046
1.279686663
1.258153449
1.40001276
1.415422957
1.729107728
2.369427102
2.708888099
2.832522063
2.84230953
2.839090576
2.835255908
2.834543205
2.827682161
2.808639801
2.770639605
2.708150203
2.619944437
2.532708564
2.43742875
2.327790013
2.229658762
2.14095483
2.04415128
1.961657574
1.891860685
1.820705838
1.751498465
1.699786019
1.652215001
1.598861495
1.551035702
1.510991285
1.472481757
1.431090513
1.399096481
1.370304924
1.340995545
1.309770853
1.288284339
1.400005127
1.401600549
1.471387857
1.977969668
2.545285892
2.825171362
2.830769071
2.822322921
2.823838229
2.829849564
2.828068521
2.81390753
2.785466387
2.735371235
2.659908377
2.581143052
2.491222149
2.38389974
2.286061244
2.196349007
2.098154177
2.014282536
1.942501024
1.867693101
1.79724818
1.74463233
1.695489513
1.639631434
1.5899355
1.548379482
1.508250573
1.466067909
1.433209321
1.403473805
1.372282885
1.339215317
1.316446149
1.400005041
1.400115428
1.408953477
1.614937733
2.171195587
2.749334529
2.828338702
2.825809544
2.823244197
2.830071275
2.822577865
2.816273282
2.795421149
2.755493738
2.693479099
2.624430513
2.540289512
2.436606882
2.340085174
2.249616496
2.15114957
2.066519271
1.99317806
1.915918772
1.843672174
1.789536811
1.7383894
1.68012184
1.629540844
1.587093021
1.544993759
1.500634837
1.466435312
1.435517369
1.403204161
1.369840509
1.34679068
1.40000504
1.400010558
1.400784638
1.442474296
1.761405891
2.511638389
2.79644215
2.807845744
2.816065494
2.822600164
2.823381479
2.817098307
2.79941416
2.768558487
2.719641519
2.661745219
2.585179346
2.485603584
2.391333179
2.301126863
2.202825859
2.117625902
2.042547592
1.962056657
1.889348223
1.834399754
1.781610983
1.720836232
1.668669819
1.625066025
1.581411102
1.536202256
1.500841871
1.468684019
1.433990248
1.39930047
1.375460799
1.40000504
1.400005246
1.400054599
1.404811659
1.500727459
2.059992645
2.714109307
2.779021308
2.809403751
2.821925429
2.828853563
2.818661226
2.800644249
2.777840136
2.742914991
2.69513156
2.62538493
2.530505475
2.439027582
2.349373651
2.252437172
2.167272902
2.090925273
2.008013136
1.934378158
1.878574239
1.823931791
1.760890162
1.707991942
1.663673056
1.618062996
1.571212877
1.534748575
1.501450351
1.465404404
1.430091268
1.405554435
1.40000504
1.400005046
1.400007592
1.400361376
1.417149716
1.650133604
2.445180003
2.714871501
2.812345908
2.835954572
2.833774415
2.819053428
2.803238327
2.787226779
2.757787534
2.721504702
2.660993373
2.57130387
2.483245728
2.395286864
2.300702079
2.216476182
2.139111534
2.053179056
1.979609514
1.923278826
1.866969799
1.801510545
1.746902281
1.701270713
1.654099925
1.606766617
1.569365586
1.53483215
1.496086708
1.459732587
1.43463005
1.40000504
1.40000504
1.400005153
1.400026938
1.402118815
1.459144867
2.012301465
2.573887018
2.787390114
2.842860001
2.837214976
2.821326247
2.817483874
2.802991961
2.771036295
2.743006337
2.692378905
2.609096739
2.524104341
2.437211018
2.345082122
2.261949519
2.184410462
2.096704443
2.02296418
1.966566705
1.908613715
1.841316935
1.785775945
1.739141789
1.689812457
1.641410567
1.603534574
1.568203536
1.528108846
1.49095064
1.464646619
1.40000504
1.40000504
1.400005044
1.400006355
1.400203286
1.410390592
1.624295062
2.307055711
2.705877071
2.850163388
2.849955668
2.831540599
2.816220602
2.80387362
2.781110046
2.762694163
2.72158927
2.644677114
2.563980085
2.479455374
2.389570514
2.307482195
2.229298191
2.138816382
2.065634648
2.009140082
1.949794423
1.881314811
1.824583112
1.776626566
1.725344598
1.676183901
1.637563775
1.601272465
1.558930466
1.52143673
1.494417438
1.40000504
1.40000504
1.40000504
1.400005103
1.400019106
1.401354369
1.449656073
1.91305551
2.460192823
2.826017768
2.855677689
2.846401227
2.82912484
2.811079313
2.790224396
2.783690015
2.751285778
2.678461544
2.600179549
2.518608678
2.43188317
2.35139445
2.273434854
2.180490045
2.107089897
2.050362314
1.9885347
1.918932585
1.862124759
1.813469246
1.759980027
1.709580558
1.670290611
1.633179878
)
;

boundaryField
{
    inlet
    {
        type            calculated;
        value           nonuniform 0();
    }
    outlet
    {
        type            calculated;
        value           nonuniform 0();
    }
    bottom
    {
        type            calculated;
        value           nonuniform 0();
    }
    top
    {
        type            calculated;
        value           nonuniform 0();
    }
    obstacle
    {
        type            calculated;
        value           nonuniform List<scalar> 
21
(
0.2757636298
0.271365729
0.2711927667
0.2781039918
0.3036691556
0.3174332522
0.3198909893
0.3148779834
0.2860517093
0.2631882032
0.2558152332
0.254533319
0.2546481469
0.261802119
0.2933438348
0.3193939223
0.3274498364
0.3199717569
0.3037549951
0.3041361616
0.4299317754
)
;
    }
    defaultFaces
    {
        type            empty;
    }
    procBoundary27to20
    {
        type            processor;
        value           nonuniform List<scalar> 
29
(
2.847248485
2.846185187
2.841608756
2.833771413
2.827926863
2.826763947
2.828229645
2.829210265
2.829418524
2.830053221
2.832680629
2.839788758
2.848359694
2.851436836
2.847592993
2.840933866
2.840169936
2.850898415
2.861125732
2.857441159
2.833632681
2.826583478
2.848195762
2.863100755
2.794068251
2.390632141
1.631696469
1.395332493
1.399180974
)
;
    }
    procBoundary27to21
    {
        type            processor;
        value           nonuniform List<scalar> 
35
(
0.461315256
0.4600845068
0.4605206859
0.4621679053
0.4644612953
0.2891638961
0.290201705
0.2970796853
0.3263500814
0.3560782708
0.3673888384
0.3708514089
0.3675150763
0.3656537293
0.366753501
0.3773375108
0.3859445099
0.3933622799
0.3995582919
0.4063731553
0.4071411899
0.4114629596
0.4180266225