/*--------------------------------*- C++ -*----------------------------------*\
  =========                 |
  \\      /  F ield         | OpenFOAM: The Open Source CFD Toolbox
   \\    /   O peration     | Website:  https://openfoam.org
    \\  /    A nd           | Version:  7
     \\/     M anipulation  |
\*---------------------------------------------------------------------------*/
FoamFile
{
    version     2.0;
    format      ascii;
    class       volVectorField;
    location    "5";
    object      U;
}
// * * * * * * * * * * * * * * * * * * * * * * * * * * * * * * * * * * * * * //

dimensions      [0 1 -1 0 0 0 0];

internalField   nonuniform List<vector> 
2222
(
(3.199445838 0.002060702112 0)
(3.199423315 0.001801142372 0)
(3.19954035 0.001628608777 0)
(3.199793908 0.001838839009 0)
(3.199969078 0.001585053712 0)
(3.200226586 0.00146802563 0)
(3.200523669 0.001322317271 0)
(3.200776065 0.001120709772 0)
(3.201046089 0.0008668517363 0)
(3.201257259 0.0004113507838 0)
(3.201015556 9.572944312e-05 0)
(3.200981688 0.0001097872794 0)
(3.20061966 1.386166091e-05 0)
(3.200083127 -0.0004698843731 0)
(3.199683447 -0.0003949699079 0)
(3.199388501 -0.0001774585867 0)
(3.200727265 -0.0002951314122 0)
(3.20232497 -0.0001242388954 0)
(3.202653452 -0.0001057092973 0)
(3.202495537 -0.0001840068471 0)
(3.202447245 -0.0004394982817 0)
(3.202505176 -0.0009259044752 0)
(3.202688072 -0.001183777499 0)
(3.202490364 -0.0005991796872 0)
(3.202310533 -0.0001188883292 0)
(3.201541317 0.000388997993 0)
(3.200518245 0.0005401161796 0)
(3.19972592 0.0007518597735 0)
(3.199714934 0.0009523946627 0)
(3.199919201 0.000643327943 0)
(3.200270167 -2.658092238e-05 0)
(3.200598556 -0.0003585219612 0)
(3.201027227 -0.0003571087634 0)
(3.201399776 -0.0001215508695 0)
(3.201414415 -0.0001874451245 0)
(3.201053179 0.0002475346667 0)
(3.200523855 0.00139520892 0)
(3.199985152 0.00210333597 0)
(3.199869643 0.002250080982 0)
(3.199601369 0.001869868229 0)
(3.199408095 0.001080004191 0)
(3.199393732 0.0007338495551 0)
(3.199465878 0.001077439401 0)
(3.1997364 0.001496117845 0)
(3.20010425 0.001322097349 0)
(3.200466662 0.00108710352 0)
(3.200681395 0.001064225024 0)
(3.200957667 0.0009264312726 0)
(3.201164198 0.0004131766648 0)
(3.200990112 8.897579049e-05 0)
(3.200890679 -0.0002571711461 0)
(3.200590552 -0.0004174905896 0)
(3.200197573 -0.0004550821986 0)
(3.199989756 -0.0004812500508 0)
(3.199679287 -0.0002591638983 0)
(3.200380915 0.001801799423 0)
(3.202085545 0.001186137082 0)
(3.20250548 0.0005814117279 0)
(3.202526798 -0.0001747954558 0)
(3.202437853 -0.0006783944055 0)
(3.202540562 -0.000758362164 0)
(3.20235008 -0.0001420061273 0)
(3.202158703 7.707726762e-05 0)
(3.201993691 0.0003069886002 0)
(3.201644711 0.0001726663238 0)
(3.200608113 0.0002837482533 0)
(3.199692461 0.0004695134524 0)
(3.199600236 0.0005354190325 0)
(3.199812621 0.0001981730848 0)
(3.200119536 -3.3037174e-05 0)
(3.200489837 -0.0001826193136 0)
(3.200936825 -0.0002398347564 0)
(3.201231125 -0.0003065037654 0)
(3.201139649 -0.00040397464 0)
(3.200765772 -0.0001110255945 0)
(3.200469974 0.0006795066689 0)
(3.199790965 0.001011946751 0)
(3.199394521 0.001161439845 0)
(3.199302204 0.0005443477952 0)
(3.199097878 0.0005174279617 0)
(3.199106364 0.0003728208923 0)
(3.19924254 0.0002798633297 0)
(3.199501557 0.0004038355282 0)
(3.199836608 0.0001685809214 0)
(3.200182011 0.0002170684918 0)
(3.200460485 0.0005128152038 0)
(3.200815781 0.000520572586 0)
(3.200975139 0.0004340446396 0)
(3.200845445 0.0001824237063 0)
(3.200627035 -0.0002186714675 0)
(3.200389724 -0.0005497001212 0)
(3.200066125 -0.0002497913162 0)
(3.199807569 -0.0003841458457 0)
(3.199580139 -0.0002352212791 0)
(3.19992359 0.002780771762 0)
(3.200883059 0.002477925541 0)
(3.20170873 0.001249075185 0)
(3.201929874 0.000350088971 0)
(3.201784808 0.0002278855443 0)
(3.201764871 0.0005782976105 0)
(3.201614733 0.001074944506 0)
(3.201688371 0.000697948011 0)
(3.201573321 0.0002902719252 0)
(3.201277545 -9.506950168e-05 0)
(3.200324184 -0.0002047177159 0)
(3.199430513 -0.0002681662671 0)
(3.199221756 -0.0006419644955 0)
(3.199439278 -0.0007474219386 0)
(3.199730394 -0.000544918384 0)
(3.200049669 -0.0003094415446 0)
(3.20037372 -0.0003954220435 0)
(3.20058104 -0.0005124113817 0)
(3.200536777 -0.000322178611 0)
(3.200173555 -0.0002081440675 0)
(3.199934857 -0.0004137304969 0)
(3.199483888 -0.0005080920594 0)
(3.198995783 -0.0005593336871 0)
(3.198682759 -0.0008352881849 0)
(3.198409294 -0.0003531662554 0)
(3.198352315 -9.629089448e-05 0)
(3.19857681 -0.0003955970566 0)
(3.198963964 -0.00075172277 0)
(3.199260398 -0.0008971065313 0)
(3.199516583 -0.0007110917493 0)
(3.199777458 -0.0002947071035 0)
(3.200177315 -0.0001902628732 0)
(3.200403164 9.997986291e-05 0)
(3.200254406 0.000171721606 0)
(3.199985793 -7.085746534e-05 0)
(3.199758844 -0.0003809818732 0)
(3.199464334 -5.997241536e-05 0)
(3.199099125 -0.0001995519409 0)
(3.1989405 -2.732663325e-05 0)
(3.198574649 0.003009071955 0)
(3.199129706 0.001996032707 0)
(3.199782849 0.001121540381 0)
(3.200028227 0.0009237873555 0)
(3.200169728 0.001118140891 0)
(3.200292921 0.001606719991 0)
(3.200592798 0.00128205685 0)
(3.200823131 0.0004275546219 0)
(3.200729798 -0.0001935144704 0)
(3.200063303 7.079154591e-06 0)
(3.199080489 -0.0006011802788 0)
(3.19818155 -0.0009323495933 0)
(3.197839347 -0.001455213706 0)
(3.197936767 -0.001658921673 0)
(3.19824091 -0.001484824466 0)
(3.198517642 -0.001269774028 0)
(3.198727621 -0.0012841637 0)
(3.19886201 -0.00106200306 0)
(3.198997637 -0.0005990040451 0)
(3.198782299 -0.0004193964512 0)
(3.19834686 -0.0009002067845 0)
(3.197892663 -0.001429460732 0)
(3.197692694 -0.001793010997 0)
(3.197419003 -0.001353303615 0)
(3.197224933 -0.0009518890194 0)
(3.196874772 -0.0005486153925 0)
(3.196984987 -0.0007987530901 0)
(3.197219475 -0.001255036549 0)
(3.197360278 -0.001353675514 0)
(3.197610638 -0.0009357661019 0)
(3.19781807 -0.0005857584198 0)
(3.198239133 -0.0003419060964 0)
(3.198635239 -5.897356264e-05 0)
(3.198642506 0.0001584504003 0)
(3.198504984 0.0001187196445 0)
(3.198229439 -7.454498446e-05 0)
(3.197954406 -5.241855797e-05 0)
(3.197642876 -0.0001540747764 0)
(3.197525615 8.126469369e-05 0)
(3.195447888 0.00207020175 0)
(3.195873466 0.001551339521 0)
(3.196367632 0.001448642747 0)
(3.196617122 0.001684393096 0)
(3.197107819 0.00185035757 0)
(3.197530569 0.001488965345 0)
(3.19816888 0.0007885029416 0)
(3.198520212 5.431994834e-05 0)
(3.198449365 -0.0003255371305 0)
(3.197464056 -0.0008307003964 0)
(3.196406179 -0.0009605417001 0)
(3.19548915 -0.00137300555 0)
(3.195088903 -0.001594178384 0)
(3.195089257 -0.001594127869 0)
(3.195297787 -0.001534392931 0)
(3.195480065 -0.001618628443 0)
(3.195595558 -0.00157061532 0)
(3.195721027 -0.001459822222 0)
(3.195835452 -0.001059838876 0)
(3.19586205 -0.0007166057002 0)
(3.195621322 -0.0007829402352 0)
(3.195414044 -0.001391707791 0)
(3.195214728 -0.001710529882 0)
(3.195076006 -0.001531696995 0)
(3.194836349 -0.00110339056 0)
(3.194490132 -0.0007554283655 0)
(3.194292607 -0.001005892485 0)
(3.194304346 -0.001326342839 0)
(3.194319512 -0.001265803859 0)
(3.194427665 -0.0009058208803 0)
(3.19462278 -0.0004755588578 0)
(3.194928529 -2.782233103e-05 0)
(3.195319227 0.0002498968357 0)
(3.195531504 0.0003967817517 0)
(3.195576362 0.000339555589 0)
(3.195348885 8.722012271e-05 0)
(3.195087966 -0.0001409639543 0)
(3.194814405 -5.343579408e-05 0)
(3.194679352 3.081307212e-05 0)
(3.190201383 0.0007326433681 0)
(3.190685467 0.001694110798 0)
(3.191146397 0.001523075681 0)
(3.191501514 0.001357121924 0)
(3.192084051 0.001175562999 0)
(3.192736008 0.0008802171078 0)
(3.193381586 0.0003497602005 0)
(3.193771867 -0.000433260376 0)
(3.193656364 -0.00115042507 0)
(3.193155609 -0.001559766551 0)
(3.192116111 -0.001572987055 0)
(3.191182408 -0.001408980664 0)
(3.190580881 -0.001324215919 0)
(3.190456731 -0.001179857587 0)
(3.190513211 -0.001103092602 0)
(3.190584996 -0.00120809242 0)
(3.190648399 -0.001162374485 0)
(3.190795843 -0.0008448112686 0)
(3.190975529 -0.0006682266278 0)
(3.191008624 -0.0006381867161 0)
(3.190921393 -0.0007885710738 0)
(3.190745945 -0.0009020330797 0)
(3.190478169 -0.001144696229 0)
(3.190293434 -0.001168037507 0)
(3.190190156 -0.00111538752 0)
(3.189971806 -0.001098720695 0)
(3.189674903 -0.001054982969 0)
(3.189387098 -0.001097849051 0)
(3.18926722 -0.0009947130004 0)
(3.189285061 -0.0006797395108 0)
(3.189484751 -0.0001655975896 0)
(3.189637217 0.0003400391919 0)
(3.190053986 0.0005888997022 0)
(3.190403322 0.0006965506176 0)
(3.190513743 0.0006708139613 0)
(3.190512674 0.0003098803443 0)
(3.190318912 2.057752601e-05 0)
(3.190018779 0.0001682455053 0)
(3.189927881 -4.219937111e-05 0)
(3.183247611 0.001268374428 0)
(3.183663991 0.00107269712 0)
(3.184056092 0.0007597045934 0)
(3.184703805 0.0004015808989 0)
(3.185422359 0.0001645952898 0)
(3.185975018 -0.0003975517529 0)
(3.18644277 -0.001284512568 0)
(3.186352402 -0.001983439838 0)
(3.18602596 -0.002202756395 0)
(3.185344584 -0.001937379165 0)
(3.184298495 -0.001661754452 0)
(3.183522462 -0.001437705755 0)
(3.183271496 -0.001174843454 0)
(3.183207433 -0.0009751134329 0)
(3.183231589 -0.0009050164894 0)
(3.183265861 -0.000721287867 0)
(3.183453484 -0.0004134023694 0)
(3.183627236 -0.0001830864929 0)
(3.183689999 -0.0002367862724 0)
(3.183585608 -0.0002296208466 0)
(3.1834266 -0.0005853708424 0)
(3.183112712 -0.0009182949727 0)
(3.182804078 -0.00103610788 0)
(3.182633495 -0.0009855887343 0)
(3.182518492 -0.0009850772567 0)
(3.182247433 -0.0006793723694 0)
(3.18177345 -0.0004855603201 0)
(3.181604017 -0.0002908179072 0)
(3.181711854 -0.0001486138732 0)
(3.181762775 0.0002974626715 0)
(3.182058308 0.0005924041611 0)
(3.182535283 0.0008540068619 0)
(3.183034821 0.0008828012827 0)
(3.183253563 0.0007587216171 0)
(3.183338995 0.0004294980595 0)
(3.183231687 0.0001497935445 0)
(3.182937203 7.439649496e-05 0)
(3.182751962 -0.0002742175338 0)
(3.173216249 0.0007522485199 0)
(3.173645914 0.000607167172 0)
(3.174041924 -4.833537507e-05 0)
(3.174545943 -0.0004371034722 0)
(3.175244235 -0.0006523490165 0)
(3.175857262 -0.001099396082 0)
(3.176343967 -0.001925934072 0)
(3.176587937 -0.00267819799 0)
(3.176304225 -0.002719572101 0)
(3.175534374 -0.002130210959 0)
(3.17440672 -0.001678444161 0)
(3.173427124 -0.001247933273 0)
(3.173014803 -0.0007503641071 0)
(3.172814812 -0.0003419235441 0)
(3.172816373 -0.0001632070683 0)
(3.172903275 -9.693204387e-05 0)
(3.173064067 0.0002285964395 0)
(3.173357296 0.0005055581741 0)
(3.17352893 0.0004968935076 0)
(3.173465434 0.0004882376688 0)
(3.173156029 0.0003975110655 0)
(3.172762118 0.0003160773669 0)
(3.172395175 0.0002347068778 0)
(3.172122682 9.093821709e-05 0)
(3.171905049 -0.0001504352276 0)
(3.171463738 7.739709385e-05 0)
(3.171220778 0.0001700915457 0)
(3.171119773 0.0004833022174 0)
(3.171259288 0.0005812343598 0)
(3.171604499 0.0006219034939 0)
(3.171912234 0.0006356320377 0)
(3.172511702 0.0009068665545 0)
(3.173193223 0.0009120328895 0)
(3.173501669 0.000677584014 0)
(3.173697181 0.0002543059952 0)
(3.173518389 0.0001578283834 0)
(3.173287311 -0.0001712845537 0)
(3.173045961 -0.0005427245804 0)
(3.160521434 0.001738352619 0)
(3.161115741 0.001266577038 0)
(3.161504698 0.0002546457027 0)
(3.161837052 -0.000584196532 0)
(3.16238018 -0.001223385985 0)
(3.16289117 -0.001767597942 0)
(3.163373676 -0.002350636105 0)
(3.16370575 -0.003133278061 0)
(3.163452419 -0.00315385632 0)
(3.162796455 -0.002578294456 0)
(3.161725533 -0.002017733301 0)
(3.160508819 -0.001044594836 0)
(3.160010572 -5.531719026e-05 0)
(3.159713616 0.0005731243412 0)
(3.159633146 0.0008220857707 0)
(3.159788863 0.0007609957933 0)
(3.160017012 0.0008533106495 0)
(3.160383707 0.001076083591 0)
(3.160549835 0.001305156681 0)
(3.160485242 0.001435652715 0)
(3.160211387 0.001450390288 0)
(3.159890425 0.001459078523 0)
(3.159645722 0.001184789111 0)
(3.15939794 0.0008473381538 0)
(3.159078887 0.0004395411772 0)
(3.158581514 0.0005137434592 0)
(3.158488443 0.0008672899539 0)
(3.158413247 0.001208231257 0)
(3.158538682 0.001231039492 0)
(3.158948693 0.0008646529047 0)
(3.159338586 0.0006442283614 0)
(3.15997356 0.0007956013815 0)
(3.160708931 0.0006614619129 0)
(3.161173937 0.0004156418027 0)
(3.161330122 0.0001249159935 0)
(3.161137227 0.0001201317709 0)
(3.160925382 -0.0005009172161 0)
(3.160653256 -0.0008032110604 0)
(3.145229494 0.002925815636 0)
(3.146339191 0.002100940351 0)
(3.146821774 0.0004372882053 0)
(3.147014541 -0.0006367303623 0)
(3.147348652 -0.00130404058 0)
(3.147740713 -0.001827575887 0)
(3.147924575 -0.002286467928 0)
(3.14820545 -0.003130174365 0)
(3.148211043 -0.00360769327 0)
(3.147808795 -0.003033626516 0)
(3.146962537 -0.001900436023 0)
(3.145539288 -0.0001907158853 0)
(3.144877587 0.0008912972993 0)
(3.144576544 0.001511519996 0)
(3.14466059 0.001529918419 0)
(3.145024879 0.001110936106 0)
(3.145319146 0.0009294451987 0)
(3.145668707 0.0009986981402 0)
(3.145867905 0.001601166161 0)
(3.145796628 0.001857379955 0)
(3.145594402 0.001986273741 0)
(3.145140196 0.002114554192 0)
(3.144780446 0.001723972155 0)
(3.144517732 0.00151114206 0)
(3.144204306 0.001196969294 0)
(3.143949439 0.0009848733707 0)
(3.143706807 0.001335935579 0)
(3.143747613 0.001534975272 0)
(3.143838958 0.001338838738 0)
(3.144126802 0.0009503366914 0)
(3.144619209 0.0004541809417 0)
(3.145254323 0.0003506208987 0)
(3.145896762 0.0002600159111 0)
(3.146308337 0.0001978659566 0)
(3.146342087 1.259510811e-05 0)
(3.146294294 -1.647587195e-05 0)
(3.145993099 -0.0005494105112 0)
(3.145695285 -0.0008252366819 0)
(3.129226029 0.003693183773 0)
(3.130216198 0.002738692388 0)
(3.130622971 0.001297462142 0)
(3.13064354 3.489651689e-05 0)
(3.130857397 -0.0008950687621 0)
(3.131204003 -0.001426336181 0)
(3.131328547 -0.002233638932 0)
(3.13167203 -0.003398479795 0)
(3.13179481 -0.003557634251 0)
(3.131446619 -0.002717804443 0)
(3.130503485 -0.001153809996 0)
(3.129188204 0.0004309477394 0)
(3.128576795 0.001051837591 0)
(3.128337826 0.001599295963 0)
(3.128553034 0.001368236216 0)
(3.128910798 0.0008820000941 0)
(3.129179843 0.0006683529019 0)
(3.12954191 0.0007172018684 0)
(3.12983705 0.001437238995 0)
(3.129849776 0.001745532635 0)
(3.129626868 0.001904372941 0)
(3.129086887 0.001828460745 0)
(3.128480393 0.001452581313 0)
(3.127997567 0.001228805368 0)
(3.127720495 0.001149428027 0)
(3.12755173 0.0009766369249 0)
(3.127400264 0.0009716390202 0)
(3.127272195 0.0008814384832 0)
(3.127257338 0.0006313955836 0)
(3.127432969 0.0004484208698 0)
(3.127868845 0.0003321821856 0)
(3.128448082 0.0001300544065 0)
(3.129041505 -2.643748883e-05 0)
(3.129314022 -0.0002912308974 0)
(3.129353572 -0.0002432508962 0)
(3.129343667 -0.0001996182873 0)
(3.128945095 -0.000529061234 0)
(3.128641716 -0.0008159029566 0)
(3.11329155 0.003501992793 0)
(3.113498784 0.003136585844 0)
(3.113869147 0.001772276982 0)
(3.113849517 0.0006287191473 0)
(3.113843011 4.318350465e-05 0)
(3.114039473 -0.0003606015798 0)
(3.114091156 -0.001156669208 0)
(3.114139108 -0.002274003881 0)
(3.114094665 -0.002570741048 0)
(3.113754865 -0.001988122345 0)
(3.112958321 -0.0008635039715 0)
(3.112158794 2.996084065e-05 0)
(3.111598427 0.0006336877449 0)
(3.111187416 0.001127463523 0)
(3.111233393 0.0007344538162 0)
(3.111377442 0.0003781687483 0)
(3.111596744 0.0002858464366 0)
(3.111952484 0.0004635728919 0)
(3.112193401 0.001041195358 0)
(3.112217746 0.001427995535 0)
(3.111932685 0.001517498769 0)
(3.11145141 0.001237433275 0)
(3.110870451 0.0009613283632 0)
(3.110351983 0.0006484367976 0)
(3.110000921 0.0005238668199 0)
(3.109654031 0.0003627069435 0)
(3.109495923 0.0002536249095 0)
(3.109262721 0.000119542374 0)
(3.109163646 -7.397801913e-05 0)
(3.109238639 -5.458422312e-05 0)
(3.109476745 4.564530671e-05 0)
(3.109919472 -0.0001742491713 0)
(3.110583057 -0.0003045708623 0)
(3.11088302 -0.0006081625229 0)
(3.110930625 -0.0004406737046 0)
(3.110803512 -0.0004346217614 0)
(3.110504904 -0.0005398211631 0)
(3.110146367 -0.0007198302993 0)
(3.096638766 0.003192098789 0)
(3.096701099 0.002434050501 0)
(3.096578525 0.001484508479 0)
(3.096437885 0.0009690669812 0)
(3.096355869 0.0005031883848 0)
(3.096046888 -0.0003838251037 0)
(3.096081613 -0.00115458935 0)
(3.096070654 -0.001641262525 0)
(3.095864485 -0.001666821426 0)
(3.095354238 -0.001113386119 0)
(3.094611148 -0.0005488406576 0)
(3.093728923 0.0002181482458 0)
(3.093177732 0.0003200692505 0)
(3.093272106 -6.458525074e-05 0)
(3.093347621 -0.000286592325 0)
(3.093496882 -0.0003541918903 0)
(3.093639554 -4.161667283e-05 0)
(3.093772574 0.0003218770375 0)
(3.093747232 0.0005350837137 0)
(3.093365691 0.0005866712678 0)
(3.09283648 0.0003951422707 0)
(3.092106142 0.0003911481946 0)
(3.091534671 0.0002493039516 0)
(3.09118559 -8.458101786e-05 0)
(3.090801934 -0.000337501795 0)
(3.090505588 -0.0004383660601 0)
(3.090194639 -0.0004591762318 0)
(3.090010504 -0.0005547938303 0)
(3.08998263 -0.0005112657284 0)
(3.090112604 -0.00042899606 0)
(3.090465629 -0.0006524608073 0)
(3.091075227 -0.0007259437698 0)
(3.091396947 -0.0008660033602 0)
(3.091476379 -0.0004760242658 0)
(3.091304265 -0.000595832269 0)
(3.091054064 -0.0006137536516 0)
(3.090514291 -0.0006758041013 0)
(3.090058802 -0.0001691982986 0)
(3.079430079 0.003100548198 0)
(3.079261801 0.002685254062 0)
(3.079043837 0.001701434068 0)
(3.078837388 0.0009420852169 0)
(3.078756433 0.0005017709824 0)
(3.078503972 -6.443398369e-05 0)
(3.078476324 -0.0005833416452 0)
(3.078317651 -0.001287860823 0)
(3.078047174 -0.001562176439 0)
(3.077317051 -0.001234524667 0)
(3.076212754 -0.001158589947 0)
(3.075390672 -0.0008852348952 0)
(3.074841026 -0.0008127140484 0)
(3.074936406 -0.001038936224 0)
(3.074792536 -0.001163110899 0)
(3.074814678 -0.001140156646 0)
(3.074950873 -0.000865909285 0)
(3.075060728 -0.0006038251424 0)
(3.074903254 -0.0004839588035 0)
(3.074444144 -0.0004396392042 0)
(3.073827556 -0.0003049783735 0)
(3.07312805 3.890928148e-06 0)
(3.072401163 -1.229352059e-05 0)
(3.071734993 -0.0003427146792 0)
(3.071300044 -0.0007505755994 0)
(3.070905442 -0.00106074456 0)
(3.070483922 -0.001103522409 0)
(3.070200616 -0.001131715501 0)
(3.070147709 -0.0009732104702 0)
(3.070219579 -0.0009070547612 0)
(3.070511135 -0.0009668335463 0)
(3.071005645 -0.0009524087006 0)
(3.071347661 -0.0006748539484 0)
(3.071379213 -0.0004569883756 0)
(3.07120324 -0.0004959256497 0)
(3.070899477 -0.0007252015673 0)
(3.0703147 -0.0004242293177 0)
(3.069886286 0.0004143438578 0)
(3.061675438 0.002815271642 0)
(3.061638752 0.00252788524 0)
(3.061429849 0.00147896036 0)
(3.061052094 0.0005841685375 0)
(3.060674272 0.0002955442836 0)
(3.060292734 0.0002711351154 0)
(3.059957303 -0.0003450486183 0)
(3.059499088 -0.001250367501 0)
(3.059093051 -0.00168303844 0)
(3.058407287 -0.001852835338 0)
(3.057464928 -0.002277018397 0)
(3.056701361 -0.002255422212 0)
(3.056444222 -0.002102632175 0)
(3.055876997 -0.001821235813 0)
(3.055689253 -0.001772156678 0)
(3.055588909 -0.001708077546 0)
(3.055603917 -0.001572603299 0)
(3.055680443 -0.001383602213 0)
(3.055535719 -0.001186992435 0)
(3.05513795 -0.0009137453927 0)
(3.054404747 -0.0005371349544 0)
(3.053844959 -9.976220748e-05 0)
(3.053246212 8.482023657e-05 0)
(3.052493012 1.082627597e-05 0)
(3.051805409 -0.0005569380199 0)
(3.05107367 -0.001263018724 0)
(3.050481685 -0.001545121965 0)
(3.050160605 -0.001475423358 0)
(3.050113778 -0.001132470891 0)
(3.050101558 -0.001142302673 0)
(3.050321031 -0.0008264978451 0)
(3.050675702 -0.0007534217521 0)
(3.051088177 -0.0003304750641 0)
(3.051205636 -0.0002910355666 0)
(3.05104158 -0.0002300639825 0)
(3.050546155 -0.0005332147954 0)
(3.050091538 0.0001532542935 0)
(3.049648793 0.0004901368533 0)
(3.043461841 0.002632715129 0)
(3.043262781 0.002309120944 0)
(3.042844307 0.001256223023 0)
(3.042158927 0.0002744704936 0)
(3.041557563 -0.0001118312739 0)
(3.041102536 -0.0003685287696 0)
(3.041009778 -0.001375879726 0)
(3.040452028 -0.002314303597 0)
(3.039815631 -0.002799351932 0)
(3.039313928 -0.003070625059 0)
(3.038658263 -0.003505275709 0)
(3.037697684 -0.003535890182 0)
(3.036901633 -0.002772588 0)
(3.036349813 -0.002298330509 0)
(3.036018878 -0.002197928273 0)
(3.035855976 -0.00210413353 0)
(3.035806141 -0.00195056176 0)
(3.035800991 -0.001794853045 0)
(3.035703025 -0.001309510338 0)
(3.03530649 -0.0007929122598 0)
(3.034843928 -0.000598808027 0)
(3.034473074 -0.000133319912 0)
(3.033979561 0.0002726588953 0)
(3.033452206 0.0003874488152 0)
(3.032577332 -0.0001207973079 0)
(3.03155459 -0.00074355887 0)
(3.03066344 -0.001268108292 0)
(3.030282912 -0.001136228313 0)
(3.030206928 -0.0008753143617 0)
(3.030180129 -0.0008133224816 0)
(3.030399604 -0.000438014171 0)
(3.030737951 -0.0001468219194 0)
(3.031047775 -9.362820455e-05 0)
(3.031243868 5.135349896e-05 0)
(3.031114956 0.0001772046748 0)
(3.030537895 -6.431858275e-05 0)
(3.030038016 0.0004398929962 0)
(3.029280372 0.0005886964725 0)
(3.024656939 0.002880418244 0)
(3.023998139 0.002054025803 0)
(3.023455464 0.0009443662195 0)
(3.02265181 0.0002146384118 0)
(3.022336551 -0.0004885543294 0)
(3.022317555 -0.001396715081 0)
(3.022398853 -0.00252522877 0)
(3.021809936 -0.003622280006 0)
(3.021171551 -0.004135025913 0)
(3.020520253 -0.004286280053 0)
(3.019700837 -0.003939553003 0)
(3.018342556 -0.003626047414 0)
(3.017145209 -0.002978432397 0)
(3.016344045 -0.00233247666 0)
(3.015918919 -0.002058499253 0)
(3.015791163 -0.001935077274 0)
(3.015862191 -0.00178058901 0)
(3.015893951 -0.001448846389 0)
(3.015869021 -0.0008632246419 0)
(3.015671533 -0.000407035092 0)
(3.015408896 -5.206225576e-05 0)
(3.015134174 0.0002784820267 0)
(3.014721681 0.0004268746514 0)
(3.014231088 0.0005138577896 0)
(3.013532625 0.0003914328363 0)
(3.012485322 2.095797239e-05 0)
(3.011550143 -0.0002849306737 0)
(3.010938207 -0.0003888130497 0)
(3.010750805 -0.0004431692346 0)
(3.010664313 -0.0004090915882 0)
(3.010884434 -6.281935236e-05 0)
(3.011263194 0.0003417803062 0)
(3.011594677 0.0003910262412 0)
(3.011673012 0.000466377124 0)
(3.011402494 0.0005310539322 0)
(3.010957781 0.0004580741809 0)
(3.010180009 0.0005191851158 0)
(3.009316825 0.0005045481257 0)
(3.005156371 0.003135967612 0)
(3.004679921 0.002764740569 0)
(3.004004501 0.001678748202 0)
(3.003221347 0.0008045562743 0)
(3.003043062 -5.611514125e-05 0)
(3.003221534 -0.001098018886 0)
(3.003304529 -0.002266214905 0)
(3.002813746 -0.003594257427 0)
(3.002288372 -0.004377296568 0)
(3.00141165 -0.004372496899 0)
(3.000510612 -0.00373393998 0)
(2.999285117 -0.002748443699 0)
(2.99812906 -0.001727785999 0)
(2.997331585 -0.0009591918482 0)
(2.996848899 -0.0007004771586 0)
(2.996619029 -0.0007737919403 0)
(2.996507189 -0.0007475071458 0)
(2.996491755 -0.0003141563164 0)
(2.996379911 0.0003368320719 0)
(2.996269267 0.0007401712941 0)
(2.996287169 0.0008723086837 0)
(2.996129707 0.0006454617922 0)
(2.995989289 0.000485059858 0)
(2.995487729 0.0005329256174 0)
(2.994759237 0.000819012194 0)
(2.993860732 0.0007851193961 0)
(2.993072776 0.0006924434475 0)
(2.992316557 0.0005785841157 0)
(2.991924141 0.0003166944325 0)
(2.991712787 0.0002304638773 0)
(2.991691163 0.0003626886444 0)
(2.991952 0.0006203170912 0)
(2.992276801 0.000651113944 0)
(2.992390537 0.0007312661428 0)
(2.992180386 0.0007285303424 0)
(2.991712032 0.0006353935521 0)
(2.990957736 0.0004137559696 0)
(2.990099694 0.0003547020467 0)
(2.985004618 0.003504583204 0)
(2.984959415 0.003697386405 0)
(2.984464075 0.002806191664 0)
(2.983916839 0.001578415719 0)
(2.983533669 0.001060448214 0)
(2.983649159 -0.0003734471447 0)
(2.98363646 -0.001791287708 0)
(2.983334517 -0.003164882628 0)
(2.982730528 -0.003884872606 0)
(2.981907937 -0.003822451814 0)
(2.981067274 -0.003243497458 0)
(2.980128254 -0.001876195365 0)
(2.979043849 -0.0003131127108 0)
(2.978463323 0.0006599326312 0)
(2.978273722 0.0009628331845 0)
(2.97808856 0.0008137908399 0)
(2.977891353 0.0008671797551 0)
(2.977853141 0.001270266353 0)
(2.9778004 0.0016180777 0)
(2.977818544 0.001705040935 0)
(2.977998255 0.001558143126 0)
(2.978083673 0.0009658386623 0)
(2.977847569 0.0006332371058 0)
(2.97718339 0.0006636346898 0)
(2.976446052 0.001066335641 0)
(2.975777465 0.001408662626 0)
(2.975059831 0.001535105726 0)
(2.974185372 0.001327479538 0)
(2.973695 0.001041074369 0)
(2.973375519 0.0009444746675 0)
(2.97321624 0.0009028950797 0)
(2.973270392 0.0006766755064 0)
(2.973570669 0.0007349796005 0)
(2.973735 0.0007626660221 0)
(2.973651274 0.0008164703132 0)
(2.97327231 0.0005992245164 0)
(2.972693128 0.0002705826623 0)
(2.971855307 -0.0001281089106 0)
(2.964736662 0.004267420942 0)
(2.964766112 0.003764768756 0)
(2.964740904 0.002781091923 0)
(2.964244284 0.002112751189 0)
(2.963972421 0.0004608440658 0)
(2.963890294 -0.001251711064 0)
(2.963772538 -0.002699406587 0)
(2.963170913 -0.003333698596 0)
(2.962553469 -0.003211756575 0)
(2.961704912 -0.002742324415 0)
(2.960811865 -0.0012107384 0)
(2.959760781 0.0008162042293 0)
(2.959291234 0.001770181932 0)
(2.959268205 0.002065745861 0)
(2.959261558 0.001911478579 0)
(2.959344566 0.001891344818 0)
(2.959537527 0.002178899125 0)
(2.959759249 0.002531593027 0)
(2.960077642 0.002593500616 0)
(2.960296458 0.002201773041 0)
(2.960209839 0.0009852899729 0)
(2.959854088 0.0002049818921 0)
(2.959504482 0.0002190159208 0)
(2.958968535 0.0007967051616 0)
(2.958436068 0.0014127532 0)
(2.957687179 0.001862388008 0)
(2.956831885 0.001800163832 0)
(2.956333627 0.001539149438 0)
(2.956059453 0.001581596493 0)
(2.955820871 0.001425444784 0)
(2.955802645 0.0008849975439 0)
(2.956018205 0.0008121633317 0)
(2.956287381 0.0007096643255 0)
(2.956302113 0.0005915002724 0)
(2.956039033 0.0002082236001 0)
(2.955594869 -0.0002088490099 0)
(2.954927577 -0.0008023013091 0)
(2.945080307 0.004756474211 0)
(2.945744887 0.004483510578 0)
(2.946282023 0.00370704698 0)
(2.945889826 0.002906300956 0)
(2.945368776 0.00123792938 0)
(2.945328525 -0.0001508110113 0)
(2.945282198 -0.001617116376 0)
(2.944649197 -0.002419496441 0)
(2.944105425 -0.002449677591 0)
(2.943289998 -0.0021809188 0)
(2.942311695 -0.0006726981264 0)
(2.941329579 0.001191368391 0)
(2.94102371 0.001890124462 0)
(2.941220829 0.002092014347 0)
(2.94143436 0.002097022317 0)
(2.941740018 0.002270650971 0)
(2.942026874 0.002537095217 0)
(2.942445779 0.002660159632 0)
(2.94303894 0.002366630955 0)
(2.943351911 0.00145607193 0)
(2.943306486 3.833457125e-05 0)
(2.943295865 -0.0005048283634 0)
(2.943200834 -0.0002989190417 0)
(2.942888829 0.0002862505206 0)
(2.942393816 0.001258743586 0)
(2.94174441 0.001981052239 0)
(2.941048976 0.001969926752 0)
(2.940614922 0.001833509257 0)
(2.940366719 0.001922782952 0)
(2.940110819 0.001482997132 0)
(2.940196909 0.0009774184243 0)
(2.940405678 0.000521100123 0)
(2.940653808 0.0002873249501 0)
(2.940660993 -3.865928375e-05 0)
(2.94049021 -0.0003568594088 0)
(2.940180603 -0.0007182520676 0)
(2.939809721 -0.001316159822 0)
(2.927891398 0.0049220691 0)
(2.92906164 0.005140214499 0)
(2.929956383 0.00413876522 0)
(2.929867741 0.002836691074 0)
(2.929501155 0.001494300624 0)
(2.929416528 0.0005929466528 0)
(2.929230057 -0.0007051221149 0)
(2.928638533 -0.001645204305 0)
(2.927999858 -0.001865206741 0)
(2.927261551 -0.001779102786 0)
(2.926238959 -0.0005880936706 0)
(2.925288253 0.0009899620006 0)
(2.925029632 0.001648623029 0)
(2.925417595 0.001843038185 0)
(2.925802817 0.002056610031 0)
(2.926246984 0.002318228034 0)
(2.926666786 0.002449925914 0)
(2.927276665 0.002105665858 0)
(2.927921354 0.001347289362 0)
(2.928487305 0.0001589738868 0)
(2.928839734 -0.0005164342134 0)
(2.928978521 -0.0004100298935 0)
(2.928869052 -7.300752464e-05 0)
(2.928653258 0.0001618940065 0)
(2.928404732 0.000835444243 0)
(2.928042893 0.001387194093 0)
(2.927568734 0.001411244794 0)
(2.927238812 0.001256588288 0)
(2.927030219 0.001306696318 0)
(2.926811173 0.001033709916 0)
(2.926893609 0.0009214240635 0)
(2.927101354 0.0002981794378 0)
(2.92726953 -0.0001436199125 0)
(2.927322117 -0.0006025527289 0)
(2.927232733 -0.0007786549646 0)
(2.927024884 -0.001136174397 0)
(2.926934697 -0.001484550743 0)
(2.913844035 0.004029129528 0)
(2.915295711 0.003850866458 0)
(2.916243374 0.002898763343 0)
(2.91683314 0.001401695693 0)
(2.916890173 0.0002378438204 0)
(2.916534414 -0.0003437807543 0)
(2.916350206 -0.001419095571 0)
(2.915922454 -0.002250729624 0)
(2.91544113 -0.002344308862 0)
(2.915072774 -0.002178739813 0)
(2.914293607 -0.001339772424 0)
(2.913120549 -0.0001641217865 0)
(2.912667436 0.0006258201449 0)
(2.913146669 0.0008655950104 0)
(2.913634951 0.001016220848 0)
(2.914135751 0.001013858432 0)
(2.914774044 0.0008056038486 0)
(2.915522797 0.0003393809278 0)
(2.916205051 -0.0002488524158 0)
(2.916729134 -0.0007846465182 0)
(2.917149891 -0.0004140741995 0)
(2.917123316 -9.034305622e-05 0)
(2.91686013 5.599556024e-05 0)
(2.916723999 4.174043995e-05 0)
(2.916885397 0.0002922214955 0)
(2.916824632 0.0005429326521 0)
(2.916569434 0.0005733297967 0)
(2.916321453 0.0006430019848 0)
(2.916269795 0.0005752795414 0)
(2.916176016 0.0004376269225 0)
(2.916138598 0.0005145307095 0)
(2.916289422 -6.302761045e-05 0)
(2.916451216 -0.0007711160377 0)
(2.916530276 -0.001154496531 0)
(2.916507427 -0.001326490597 0)
(2.916481599 -0.001511853303 0)
(2.916552357 -0.00117542382 0)
(2.903087261 0.002917396779 0)
(2.90446632 0.002380964929 0)
(2.905558674 0.001427686988 0)
(2.906817073 -9.318654121e-06 0)
(2.907340961 -0.001152345356 0)
(2.907280012 -0.001917075803 0)
(2.907113479 -0.002990141165 0)
(2.906819081 -0.003788447696 0)
(2.906469294 -0.003954416451 0)
(2.906095712 -0.003746548421 0)
(2.905474949 -0.003218156072 0)
(2.904424871 -0.002053758781 0)
(2.903905735 -0.0009557251093 0)
(2.904245689 -0.0005624185897 0)
(2.904930214 -0.0006491555258 0)
(2.905694974 -0.0008247873692 0)
(2.906504867 -0.001099636098 0)
(2.90715879 -0.001123126385 0)
(2.907620392 -0.0008414093315 0)
(2.907689776 -0.0005873609074 0)
(2.907888002 0.0003674138037 0)
(2.907747288 0.0005341720304 0)
(2.907490409 0.000323955288 0)
(2.907448129 -0.0001639806535 0)
(2.907779211 -0.0004040789188 0)
(2.907940594 -0.0004822049769 0)
(2.90783955 -0.0002911446891 0)