/*--------------------------------*- C++ -*----------------------------------*\
  =========                 |
  \\      /  F ield         | OpenFOAM: The Open Source CFD Toolbox
   \\    /   O peration     | Website:  https://openfoam.org
    \\  /    A nd           | Version:  7
     \\/     M anipulation  |
\*---------------------------------------------------------------------------*/
FoamFile
{
    version     2.0;
    format      ascii;
    class       volScalarField;
    location    "1.7";
    object      T;
}
// * * * * * * * * * * * * * * * * * * * * * * * * * * * * * * * * * * * * * //

dimensions      [0 0 0 1 0 0 0];

internalField   nonuniform List<scalar> 
22
(
1.040477601
1.042325962
1.043823992
1.034218612
1.040935191
1.041217753
1.031703752
1.027485492
1.039723495
1.040197444
1.030449742
1.016256633
1.036854307
1.037985389
1.030254429
0.997973226
1.016778807
1.022563315
0.9654368148
0.9793496277
1.00217013
0.977492767
)
;

boundaryField
{
    inlet
    {
        type            fixedValue;
        value           nonuniform 0();
    }
    outlet
    {
        type            inletOutlet;
        inletValue      nonuniform 0();
        value           nonuniform 0();
    }
    bottom
    {
        type            slip;
    }
    top
    {
        type            slip;
    }
    obstacle
    {
        type            zeroGradient;
    }
    defaultFaces
    {
        type            empty;
    }
    procBoundary28to21
    {
        type            processor;
        value           nonuniform List<scalar> 2(1.013832805 0.997853625);
    }
    procBoundary28to22
    {
        type            processor;
        value           nonuniform List<scalar> 3(1.046442682 1.046937328 1.048836671);
    }
    procBoundary28to27
    {
        type            processor;
        value           nonuniform List<scalar> 6(0.9814643515 0.9590268783 0.9690478239 0.9690478239 0.9603576013 0.9993352781);
    }
    procBoundary28to29
    {
        type            processor;
        value           nonuniform List<scalar> 7(1.034888434 1.034888434 1.03054904 1.027946421 1.027159548 1.025265017 1.013398351);
    }
    procBoundary28to34
    {
        type            processor;
        value           nonuniform List<scalar> 4(0.974394212 0.9769738568 0.974394212 1.006776491);
    }
}


// ************************************************************************* //
