/*--------------------------------*- C++ -*----------------------------------*\
  =========                 |
  \\      /  F ield         | OpenFOAM: The Open Source CFD Toolbox
   \\    /   O peration     | Website:  https://openfoam.org
    \\  /    A nd           | Version:  7
     \\/     M anipulation  |
\*---------------------------------------------------------------------------*/
FoamFile
{
    version     2.0;
    format      ascii;
    class       volScalarField;
    location    "2.4";
    object      rho;
}
// * * * * * * * * * * * * * * * * * * * * * * * * * * * * * * * * * * * * * //

dimensions      [1 -3 0 0 0 0 0];

internalField   nonuniform List<scalar> 5(1.458260167 1.457090074 1.48842897 1.440915339 1.540836057);

boundaryField
{
    inlet
    {
        type            calculated;
        value           nonuniform 0();
    }
    outlet
    {
        type            calculated;
        value           nonuniform 0();
    }
    bottom
    {
        type            calculated;
        value           nonuniform 0();
    }
    top
    {
        type            calculated;
        value           nonuniform 0();
    }
    obstacle
    {
        type            calculated;
        value           nonuniform 0();
    }
    defaultFaces
    {
        type            empty;
    }
    procBoundary9to3
    {
        type            processor;
        value           nonuniform List<scalar> 2(1.414949741 1.441472868);
    }
    procBoundary9to4
    {
        type            processor;
        value           nonuniform List<scalar> 2(1.431868415 1.353058676);
    }
    procBoundary9to8
    {
        type            processor;
        value           uniform 1.405677137;
    }
    procBoundary9to14
    {
        type            processor;
        value           uniform 1.493308047;
    }
    procBoundary9to15
    {
        type            processor;
        value           nonuniform List<scalar> 3(1.31464686 1.31464686 1.183166584);
    }
    procBoundary9to20
    {
        type            processor;
        value           uniform 1.743551088;
    }
}


// ************************************************************************* //
