/*--------------------------------*- C++ -*----------------------------------*\
  =========                 |
  \\      /  F ield         | OpenFOAM: The Open Source CFD Toolbox
   \\    /   O peration     | Website:  https://openfoam.org
    \\  /    A nd           | Version:  7
     \\/     M anipulation  |
\*---------------------------------------------------------------------------*/
FoamFile
{
    version     2.0;
    format      ascii;
    class       volVectorField;
    location    "1.7";
    object      U;
}
// * * * * * * * * * * * * * * * * * * * * * * * * * * * * * * * * * * * * * //

dimensions      [0 1 -1 0 0 0 0];

internalField   nonuniform List<vector> 
138
(
(3 3.598012567e-15 0)
(3 1.69744041e-15 0)
(3 7.473299742e-16 0)
(3 2.563303868e-16 0)
(3 -1.096653748e-15 0)
(3 -2.78608855e-15 0)
(3 4.019398137e-17 0)
(3 -4.920601458e-16 0)
(3 -3.759610765e-15 0)
(3 -3.348698582e-15 0)
(3 -2.527693299e-15 0)
(3 -6.485767512e-16 0)
(3 -6.656577745e-16 0)
(3 6.683235233e-16 0)
(3 1.549194923e-15 0)
(3 2.557338259e-15 0)
(3 3.117779767e-15 0)
(3 4.25309733e-15 0)
(3 3.605894783e-15 0)
(3 7.079377577e-15 0)
(3 1.130094524e-14 0)
(3 9.623953118e-15 0)
(3 -4.74504147e-16 0)
(3 -4.575499197e-16 0)
(3 -7.017722174e-16 0)
(3 -1.830379694e-15 0)
(3 -1.20536421e-15 0)
(3 -2.082423055e-15 0)
(3 -1.276200852e-15 0)
(3 1.56708608e-15 0)
(3 3.15218602e-15 0)
(3 6.152369652e-15 0)
(3 9.767253724e-15 0)
(3 1.282752876e-14 0)
(3 1.633048584e-14 0)
(3 2.033876508e-14 0)
(3 2.117526563e-14 0)
(3 1.971527357e-14 0)
(3 -5.029383198e-16 0)
(3 -9.580148624e-16 0)
(3 5.795800833e-16 0)
(3 2.628458305e-16 0)
(3 -1.860097619e-15 0)
(3 -1.776358244e-15 0)
(3 -1.104645888e-15 0)
(3 -6.21931965e-16 0)
(3 2.13453036e-15 0)
(3 3.916746431e-15 0)
(3 7.225113735e-15 0)
(3 1.28256606e-14 0)
(3 1.108818315e-14 0)
(3 1.131133576e-14 0)
(3 1.379014843e-14 0)
(3 1.536070942e-14 0)
(3 -4.048221323e-16 0)
(3 -2.316368245e-15 0)
(3 -1.929296024e-15 0)
(3 -9.164438104e-16 0)
(3 -1.146342192e-15 0)
(3 -2.478595488e-16 0)
(3 -7.089074441e-16 0)
(3 -1.899773484e-15 0)
(3 -5.907438358e-16 0)
(3 -1.586429065e-15 0)
(3 -2.322441073e-15 0)
(3 -1.240220822e-15 0)
(3 -4.653832794e-15 0)
(3 -5.214470369e-15 0)
(3 -3.596740929e-15 0)
(3 2.182812348e-17 0)
(3 -7.110639653e-16 0)
(3 4.914978774e-16 0)
(3 4.139079164e-16 0)
(3 6.222555206e-16 0)
(3 -3.637876083e-16 0)
(3 -4.689765533e-16 0)
(3 -1.380824501e-15 0)
(3 -2.374532255e-15 0)
(3 -5.956610333e-15 0)
(3 -5.201825013e-15 0)
(3 -8.56030139e-15 0)
(3 -1.444687266e-14 0)
(3 -1.448692613e-14 0)
(3 -1.371482176e-14 0)
(3 -1.243369223e-14 0)
(3 -1.070350281e-14 0)
(3 7.589950286e-16 0)
(3 1.282831064e-15 0)
(3 1.544759678e-15 0)
(3 -2.218260228e-16 0)
(3 -2.066142249e-15 0)
(3 -2.747598615e-15 0)
(3 -4.782795077e-15 0)
(3 -7.001893791e-15 0)
(3 -9.945206237e-15 0)
(3 -1.096122902e-14 0)
(3 -1.053781358e-14 0)
(3 -1.061135507e-14 0)
(3 -1.261893703e-14 0)
(3 -1.255066719e-14 0)
(3 -1.14845425e-14 0)
(3 -1.009367428e-14 0)
(3 1.536963741e-15 0)
(3 -8.028794421e-16 0)
(3 -1.482919079e-15 0)
(3 -1.802060514e-15 0)
(3 3.665126099e-17 0)
(3 -4.543696542e-16 0)
(3 -2.18005507e-15 0)
(3 -5.50261131e-15 0)
(3 -8.272038529e-15 0)
(3 -1.198106425e-14 0)
(3 -1.039253183e-14 0)
(3 -8.619690822e-15 0)
(3 -6.92836995e-15 0)
(3 -4.48883858e-15 0)
(3 -3.742539275e-15 0)
(3 -5.517435284e-15 0)
(3 -2.18152862e-16 0)
(3 -3.560336018e-16 0)
(3 5.40591984e-16 0)
(3 -5.151192694e-16 0)
(3 4.935039021e-16 0)
(3 1.892131426e-15 0)
(3 1.544448017e-15 0)
(3 8.450528846e-16 0)
(3 -1.797559189e-15 0)
(3 -2.276225561e-15 0)
(3 -1.439902609e-15 0)
(3 -9.227529889e-16 0)
(3 2.566509291e-15 0)
(3 3.602676422e-15 0)
(3 3.910955115e-15 0)
(3 2.956589001e-15 0)
(3 -8.390565795e-16 0)
(3 -4.19653725e-16 0)
(3 1.582343858e-15 0)
(3 2.578235564e-15 0)
)
;

boundaryField
{
    inlet
    {
        type            fixedValue;
        value           uniform (3 0 0);
    }
    outlet
    {
        type            inletOutlet;
        inletValue      nonuniform 0();
        value           nonuniform 0();
    }
    bottom
    {
        type            slip;
    }
    top
    {
        type            slip;
    }
    obstacle
    {
        type            slip;
    }
    defaultFaces
    {
        type            empty;
    }
    procBoundary6to0
    {
        type            processor;
        value           nonuniform List<vector> 
17
(
(3 3.772336606e-15 0)
(3 2.387174311e-15 0)
(3 1.047524818e-15 0)
(3 -1.064381091e-15 0)
(3 -4.926424477e-15 0)
(3 -5.299635268e-15 0)
(3 7.847447122e-16 0)
(3 8.065583879e-16 0)
(3 7.157335781e-16 0)
(3 2.001134943e-15 0)
(3 2.230282401e-15 0)
(3 3.425323261e-15 0)
(3 1.799662153e-15 0)
(3 3.795902212e-15 0)
(3 3.982994941e-15 0)
(3 4.127371154e-15 0)
(3 4.127371154e-15 0)
)
;
    }
    procBoundary6to7
    {
        type            processor;
        value           nonuniform List<vector> 8((3 -4.230482123e-15 0) (3 9.658068637e-15 0) (3 1.740331331e-14 0) (3 1.391941713e-14 0) (3 2.522377778e-15 0) (3 -4.279924133e-15 0) (3 -6.17575494e-15 0) (3 -5.078545502e-15 0));
    }
    procBoundary6to12
    {
        type            processor;
        value           nonuniform List<vector> 
17
(
(3 2.855673393e-15 0)
(3 1.676901553e-15 0)
(3 3.828522927e-15 0)
(3 4.13024283e-15 0)
(3 5.778824159e-15 0)
(3 6.499932781e-15 0)
(3 5.883882339e-15 0)
(3 7.928044921e-15 0)
(3 8.302004712e-15 0)
(3 6.614659172e-15 0)
(3 6.894067507e-15 0)
(3 8.370752561e-15 0)
(3 3.406930702e-16 0)
(3 2.515395872e-16 0)
(3 -1.435543197e-16 0)
(3 2.855673393e-15 0)
(3 2.577579167e-16 0)
)
;
    }
    procBoundary6to13
    {
        type            processor;
        value           uniform (3 5.019246862e-16 0);
    }
}


// ************************************************************************* //
