/*--------------------------------*- C++ -*----------------------------------*\
  =========                 |
  \\      /  F ield         | OpenFOAM: The Open Source CFD Toolbox
   \\    /   O peration     | Website:  https://openfoam.org
    \\  /    A nd           | Version:  7
     \\/     M anipulation  |
\*---------------------------------------------------------------------------*/
FoamFile
{
    version     2.0;
    format      ascii;
    class       volScalarField;
    location    "2";
    object      p;
}
// * * * * * * * * * * * * * * * * * * * * * * * * * * * * * * * * * * * * * //

dimensions      [1 -1 -2 0 0 0 0];

internalField   nonuniform List<scalar> 
2223
(
0.647397359
0.6386412411
0.6350378899
1
0.9999999993
0.9999999659
0.9999992691
0.9999912385
0.999933734
0.9996552278
0.9987015154
0.9962429488
0.9912182092
0.98311009
0.9714197987
0.9565810132
0.9411162212
0.9231714921
0.9040258247
0.8887410838
0.8713699359
0.8517264765
0.8388176287
0.825078823
0.8059187538
0.7938479238
0.7842080864
0.7674963225
0.7539272138
0.7470297599
0.7350465228
0.7195012547
0.7127689735
0.7056205546
0.6916766085
0.6818726807
0.677473668
0.6690304371
0.6561979412
0.651115329
1
1
0.9999999996
0.9999999846
0.9999996783
0.9999959795
0.9999673135
0.9998152278
0.9992424157
0.9976161349
0.9940147144
0.9876967757
0.9779064017
0.9651554454
0.9508201422
0.933427105
0.9160778636
0.900772966
0.8820214703
0.8645093688
0.8520241331
0.8355134152
0.8177981162
0.8077330102
0.795357119
0.7775693022
0.7677365946
0.7595471977
0.7441679472
0.7320500044
0.7264858266
0.7164165555
0.702135144
0.6959671445
0.6903457519
0.678265368
0.6679204829
1
1
1
0.9999999998
0.9999999937
0.9999998667
0.9999982333
0.9999844539
0.9999042453
0.9995714952
0.9985318998
0.9960304972
0.9912401203
0.9833048501
0.9725400382
0.9593773242
0.9431657116
0.9274298237
0.9116327601
0.8926809594
0.8773269476
0.8638548537
0.8454674844
0.83065079
0.8205025842
0.8049378455
0.7891229472
0.7811135571
0.7700796729
0.7535420622
0.7449902172
0.7380643573
0.7244345217
0.7126255155
0.7075637415
0.699422153
0.6859643609
1
1
1
1
0.9999999999
0.9999999976
0.9999999477
0.9999992567
0.9999928821
0.9999520911
0.9997653809
0.9991236564
0.9974403176
0.9939145999
0.9876851218
0.9787445685
0.9668993371
0.9523016391
0.93780022
0.9215686305
0.9036001153
0.8895324903
0.8743518458
0.8559497972
0.8435559749
0.8317700717
0.8142150095
0.8017292814
0.7934180252
0.7791297921
0.7645842692
0.7579663504
0.7486810714
0.7335343458
0.7255921655
0.72019011
0.7088321634
1
1
1
1
1
1
0.9999999992
0.9999999805
0.9999997007
0.9999968672
0.9999768912
0.9998758358
0.999493622
0.9983967377
0.9958829915
0.9911410737
0.9838447163
0.9734809199
0.960657494
0.9470910335
0.9309222282
0.9145384879
0.9007533057
0.8840132136
0.8671846848
0.8557731957
0.8416068886
0.8243444454
0.8143645159
0.804221038
0.7877795474
0.7766614199
0.7697844502
0.7571612029
0.7432445584
0.7372505924
0.7296810188
1
1
1
1
1
1
1
0.9999999997
0.9999999931
0.9999998847
0.9999986763
0.9999892687
0.9999365836
0.9997171091
0.9990256934
0.9972925496
0.9937881036
0.9879581046
0.9791719224
0.9680819545
0.9553562923
0.9399021183
0.9250637122
0.9109140433
0.8935157066
0.8787119616
0.8669188283
0.8506514391
0.8355012885
0.8263274328
0.8135484887
0.7973305696
0.7889102214
0.7804839633
0.7654354154
0.754834629
0.7493304852
1
1
1
1
1
1
1
1
0.9999999999
0.9999999977
0.9999999576
0.9999994638
0.9999952085
0.9999687881
0.9998473883
0.9994263293
0.9982721447
0.9957566281
0.9912144043
0.9839955994
0.97450869
0.9627250265
0.9484921733
0.9348420097
0.9201848346
0.9032318213
0.8899421256
0.8769139885
0.8597610157
0.8470704576
0.8372462274
0.8219911133
0.8080265307
0.800571575
0.7895198389
0.7741165439
0.7663725592
1
1
1
1
1
1
1
1
1
1
0.9999999993
0.9999999851
0.999999792
0.9999979458
0.9999852194
0.9999205963
0.9996732296
0.9989314099
0.9971785047
0.993740872
0.9879792608
0.9799597869
0.9693049788
0.9565397246
0.9437311037
0.9288515337
0.9130880657
0.9004877803
0.8860027279
0.8694186501
0.8583940508
0.8469682668
0.8305135392
0.8193432171
0.8113305786
0.7975513128
0.784182613
1
1
1
1
1
1
1
1
1
1
1
0.9999999998
0.999999995
0.9999999229
0.9999991556
0.9999932755
0.999960206
0.9998202245
0.9993603352
0.9981761594
0.9956551822
0.9911797341
0.9845073745
0.9751472303
0.9638769512
0.9517436625
0.9371441485
0.9227732844
0.9101943269
0.8946278062
0.8795628617
0.8690685646
0.8556360561
0.8397473931
0.8305686421
0.8208670126
0.8053366142
1
1
1
1
1
1
1
1
1
1
1
1
0.9999999999
0.9999999984
0.9999999727
0.9999996677
0.9999970649
0.999980816
0.9999046258
0.9996298164
0.9988555818
0.9970668786
0.9936806415
0.9882453238
0.9802556401
0.9704040921
0.958962778
0.945135373
0.9319918426
0.9190773642
0.9031919555
0.8898172029
0.8788915017
0.8637306245
0.8497572337
0.8412320391
0.8292016902
1
1
1
1
1
1
1
1
1
1
1
1
1
1
0.9999999995
0.9999999908
0.999999875
0.9999987727
0.9999911157
0.9999512832
0.999793138
0.9993041052
0.9980770893
0.9955831561
0.9912661435
0.9846293789
0.9760944357
0.965478793
0.9527582381
0.9405637911
0.9272718203
0.9118762827
0.8997882993
0.8878008718
0.8718888746
0.860120502
0.8510143287
1
1
1
1
1
1
1
1
1
1
1
1
1
1
1
0.9999999999
0.999999997
0.9999999551
0.9999995089
0.999996053
0.999976075
0.9998885233
0.9995906134
0.9987773776
0.9969919641
0.9936592441
0.9882840096
0.9809781142
0.9713443799
0.9598930253
0.9484130446
0.9349657602
0.9206346537
0.9091916522
0.8959315479
0.8805329286
0.870312659
1
1
1
1
1
1
1
1
1
1
1
1
1
1
1
1
1
0.9999999991
0.9999999846
0.9999998122
0.9999983201
0.9999887188
0.9999421444
0.9997673861
0.999247008
0.9980069444
0.9955102807
0.9912638143
0.9851076735
0.9765848601
0.9664229781
0.9555359459
0.9423274956
0.9292609171
0.9178738368
0.9036249158
0.8896477106
1
1
1
1
1
1
1
1
1
1
1
1
1
1
1
1
1
1
0.9999999997
0.999999995
0.9999999315
0.999999316
0.9999948996
0.999971123
0.9998725398
0.9995513888
0.9987173054
0.9969048116
0.9936325161
0.9885486158
0.9812029421
0.9722747111
0.9619742917
0.9494349473
0.9375091039
0.9258189896
0.9112723713
1
1
1
1
1
1
1
1
1
1
1
1
1
1
1
1
1
1
1
0.9999999999
0.9999999984
0.9999999761
0.9999997339
0.9999977919
0.9999861586
0.9999327502
0.9997418079
0.9991995176
0.9979256798
0.9954684493
0.9913675208
0.9852001076
0.9774153055
0.9678027873
0.956247579
0.9451952844
0.9331526834
1
1
1
1
1
1
1
1
1
1
1
1
1
1
1
1
1
1
1
1
1
0.9999999995
0.9999999921
0.9999999012
0.9999990858
0.9999936377
0.9999658853
0.99985665
0.9995164072
0.9986506701
0.9968546443
0.9936345053
0.9885814652
0.9818610865
0.9730782691
0.962655165
0.9522404324
1
1
1
1
1
1
1
1
1
1
1
1
1
1
1
1
1
1
1
1
1
1
0.9999999999
0.9999999975
0.9999999651
0.9999996385
0.9999971995
0.9999833853
0.9999233306
0.9997176666
0.9991491926
0.9978739345
0.9954175874
0.9913741351
0.985652248
0.9778292534
0.9685410379
1
1
1
1
1
1
1
1
1
1
1
1
1
1
1
1
1
1
1
1
1
1
1
1
0.9999999993
0.9999999882
0.9999998636
0.9999988212
0.9999922422
0.9999605559
0.999840968
0.9994806889
0.9986028126
0.9967855981
0.993623661
0.988844812
0.9820476894
1
1
1
1
1
1
1
1
1
1
1
1
1
1
1
1
1
1
1
1
1
1
1
1
1
0.9999999998
0.9999999962
0.999999951
0.9999995261
0.9999965319
0.9999805087
0.9999137118
0.9996935722
0.9991089507
0.99780608
0.995393155
0.9914909365
1
1
1
1
1
1
1
1
1
1
1
1
1
1
1
1
1
1
1
1
1
1
1
1
1
1
0.9999999999
0.9999999989
0.9999999832
0.9999998183
0.9999985175
0.9999907624
0.999954969
0.999825459
0.9994494865
0.998545167
0.9967509599
1
1
1
1
1
1
1
1
1
1
1
1
1
1
1
1
1
1
1
1
1
1
1
1
1
1
1
1
0.9999999997
0.9999999945
0.9999999336
0.9999993948
0.9999958071
0.99997743
0.9999041728
0.9996710701
0.9990639643
1
1
1
1
1
1
1
1
1
1
1
1
1
1
1
1
1
1
1
1
1
1
1
1
1
1
1
1
1
0.9999999999
0.9999999983
0.9999999769
0.9999997643
0.9999981798
0.9999891509
0.9999493673
0.9998102408
1
1
1
1
1
1
1
1
1
1
1
1
1
1
1
1
1
1
1
1
1
1
1
1
1
1
1
1
1
1
1
0.9999999995
0.9999999924
0.9999999126
0.9999992454
0.9999950056
0.9999742927
1
1
1
1
1
1
1
1
1
1
1
1
1
1
1
1
1
1
1
1
1
1
1
1
1
1
1
1
1
1
1
1
0.9999999999
0.9999999976
0.9999999691
0.9999997016
0.9999978013
1
1
1
1
1
1
1
1
1
1
1
1
1
1
1
1
1
1
1
1
1
1
1
1
1
1
1
1
1
1
1
1
1
1
0.9999999993
0.9999999896
0.9999998876
1
1
1
1
1
1
1
1
1
1
1
1
1
1
1
1
1
1
1
1
1
1
1
1
1
1
1
1
1
1
1
1
1
1
1
0.9999999998
0.9999999967
1
1
1
1
1
1
1
1
1
1
1
1
1
1
1
1
1
1
1
1
1
1
1
1
1
1
1
1
1
1
1
1
1
1
1
1
0.9999999999
1
1
1
1
1
1
1
1
1
1
1
1
1
1
1
1
1
1
1
1
1
1
1
1
1
1
1
1
1
1
1
1
1
1
1
1
1
1
1
1
1
1
1
1
1
1
1
1
1
1
1
1
1
1
1
1
1
1
1
1
1
1
1
1
1
1
1
1
1
1
1
1
1
1
1
1
1
1
1
1
1
1
1
1
1
1
1
1
1
1
1
1
1
1
1
1
1
1
1
1
1
1
1
1
1
1
1
1
1
1
1
1
1
1
1
1
1
1
1
1
1
1
1
1
1
1
1
1
1
1
1
1
1
1
1
1
1
1
1
1
1
1
1
1
1
1
1
1
1
1
1
1
1
1
1
1
1
1
1
1
1
1
1
1
1
1
1
1
1
1
1
1
1
1
1
1
1
1
1
1
1
1
1
1
1
1
1
1
1
1
1
1
1
1
1
1
1
1
1
1
1
1
1
1
1
1
1
1
1
1
1
1
1
1
1
1
1
1
1
1
1
1
1
1
1
1
1
1
1
1
1
1
1
1
1
1
1
1
1
1
1
1
1
1
1
1
1
1
1
1
1
1
1
1
1
1
1
1
1
1
1
1
1
1
1
1
1
1
1
1
1
1
1
1
1
1
1
1
1
1
1
1
1
1
1
1
1
1
1
1
1
1
1
1
1
1
1
1
1
1
1
1
1
1
1
1
1
1
1
1
1
1
1
1
1
1
1
1
1
1
1
1
1
1
1
1
1
1
1
1
1
1
1
1
1
1
1
1
1
1
1
1
1
1
1
1
1
1
1
1
1
1
1
1
1
1
1
1
1
1
1
1
1
1
1
1
1
1
1
1
1
1
1
1
1
1
1
1
1
1
1
1
1
1
1
1
1
1
1
1
1
1
1
1
1
1
1
1
1
1
1
1
1
1
1
1
1
1
1
1
1
1
1
1
1
1
1
1
1
1
1
1
1
1
1
1
1
1
1
1
1
1
1
1
1
1
1
1
1
1
1
1
1
1
1
1
1
1
1
1
1
1
1
1
1
1
1
1
1
1
1
1
1
1
1
1
1
1
1
1
1
1
1
1
1
1
1
1
1
1
1
1
1
1
1
1
1
1
1
1
1
1
1
1
1
1
1
1
1
1
1
1
1
1
1
1
1
1
1
1
1
1
1
1
1
1
1
1
1
1
1
1
1
1
1
1
1
1
1
1
1
1
1
1
1
1
1
1
1
1
1
1
1
1
1
1
1
1
1
1
1
1
1
1
1
1
1
1
1
1
1
1
1
1
1
1
1
1
1
1
1
1
1
1
1
1
1
1
1
1
1
1
1
1
1
1
1
1
1
1
1
1
1
1
1
1
1
1
1
1
1
1
1
1
1
1
1
1
1
1
1
1
1
1
1
1
1
1
1
1
1
1
1
1
1
1
1
1
1
1
1
1
1
1
1
1
1
1
1
1
1
1
1
1
1
1
1
1
1
1
1
1
1
1
1
1
1
1
1
1
1
1
1
1
1
1
1
1
1
1
1
1
1
1
1
1
1
1
1
1
1
1
1
1
1
1
1
1
1
1
1
1
1
1
1
1
1
1
1
1
1
1
1
1
1
1
1
1
1
1
1
1
1
1
1
1
1
1
1
1
1
1
1
1
1
1
1
1
1
1
1
1
1
1
1
1
1
1
1
1
1
1
1
1
1
1
1
1
1
1
1
1
1
1
1
1
1
1
1
1
1
1
1
1
1
1
1
1
1
1
1
1
1
1
1
1
1
1
1
1
1
1
1
1
1
1
1
1
1
1
1
1
1
1
1
1
1
1
1
1
1
1
1
1
1
1
1
1
1
1
1
1
1
1
1
1
1
1
1
1
1
1
1
1
1
1
1
1
1
1
1
1
1
1
1
1
1
1
1
1
1
1
1
1
1
1
1
1
1
1
1
1
1
1
1
1
1
1
1
1
1
1
1
1
1
1
1
1
1
1
1
1
1
1
1
1
1
1
1
1
1
1
1
1
1
1
1
1
1
1
1
1
1
1
1
1
1
1
1
1
1
1
1
1
1
1
1
1
1
1
1
1
1
1
1
1
1
1
1
1
1
1
1
1
1
1
1
1
1
1
1
1
1
1
1
1
1
1
1
1
1
1
1
1
1
1
1
1
1
1
1
1
1
1
1
1
1
1
1
1
1
1
1
1
1
1
1
1
1
1
1
1
1
1
1
1
1
1
1
1
1
1
1
1
1
1
1
1
1
1
1
1
1
1
1
1
1
1
1
1
1
1
1
1
1
1
1
1
1
1
1
1
1
1
1
1
1
1
1
1
1
1
1
1
1
1
1
1
1
1
1
1
1
1
1
1
1
1
1
1
1
1
1
1
1
1
1
1
1
1
1
1
1
1
1
1
1
1
1
1
1
1
1
1
1
1
1
1
1
1
1
1
1
1
1
1
1
1
1
1
1
1
1
1
1
1
1
1
1
1
1
1
1
1
1
1
1
1
1
1
1
1
1
1
1
1
1
1
1
1
1
1
1
1
1
1
1
1
1
1
1
1
1
1
1
1
1
1
1
1
1
1
1
1
1
1
1
1
1
1
1
1
1
1
1
1
1
1
1
1
1
1
1
1
1
1
1
1
1
1
1
1
1
1
1
1
1
1
1
1
1
1
1
1
1
1
1
1
1
1
1
1
1
1
1
1
1
1
1
1
1
1
1
1
1
1
1
1
1
1
1
1
1
1
1
1
1
1
1
1
1
1
1
1
1
1
1
1
1
1
1
)
;

boundaryField
{
    inlet
    {
        type            fixedValue;
        value           nonuniform 0();
    }
    outlet
    {
        type            zeroGradient;
    }
    bottom
    {
        type            slip;
    }
    top
    {
        type            slip;
    }
    obstacle
    {
        type            zeroGradient;
    }
    defaultFaces
    {
        type            empty;
    }
    procBoundary33to26
    {
        type            processor;
        value           nonuniform List<scalar> 
28
(
1
1
1
1
1
1
1
1
1
1
1
1
1
1
1
1
1
1
1
1
1
1
1
1
1
1
1
1
)
;
    }
    procBoundary33to27
    {
        type            processor;
        value           nonuniform List<scalar> 
38
(
0.626667336
0.6229765093
0.6190384887
0.9999999997
0.9999999369
0.9999984556
0.9999817299
0.9998702346
0.9993768191
0.9978391815
0.9942443093
0.9874538792
0.9773044775
0.9637863351
0.9468939445
0.9301792212
0.9123129874
0.8916806509
0.8755305386
0.8600564658
0.8396089724
0.8245851757
0.8131475653
0.7952804317
0.7795603215
0.7711402697
0.7579083213
0.7408753209
0.7331917144
0.7249139457
0.7093083566
0.6995893484
0.6945190134
0.6838773471
0.6707411394
0.6656486755
0.6597881036
0.6597881036
)
;
    }
    procBoundary33to32
    {
        type            processor;
        value           nonuniform List<scalar> 
32
(
1
1
1
1
1
1
1
1
1
1
1
1
1
1
1
1
1
1
1
1
1
1
1
1
1
1
1
1
1
1
1
1
)
;
    }
    procBoundary33to34
    {
        type            processor;
        value           nonuniform List<scalar> 
61
(
0.6275990262
0.6470847455
0.6639395793
0.6792496531
0.6969085375
0.7159918599
0.7390307674
0.7594445396
0.7779461558
0.7950162652
0.8139519938
0.8367402098
0.8597407561
0.8799412279
0.898880435
0.9190552054
0.9400633547
0.9586561667
0.97384232
0.9857274743
0.9936453743
0.9977669022
0.9994165442
0.9998944764
0.9999874775
0.9999990756
0.9999999597
0.999999999
1
1
1
1
1
1
1
1
1
1
1
1
1
1
1
1
1
1
1
1
1
1
1
1
1
1
1
1
1
1
1
1
1
)
;
    }
}


// ************************************************************************* //
