/*--------------------------------*- C++ -*----------------------------------*\
  =========                 |
  \\      /  F ield         | OpenFOAM: The Open Source CFD Toolbox
   \\    /   O peration     | Website:  https://openfoam.org
    \\  /    A nd           | Version:  7
     \\/     M anipulation  |
\*---------------------------------------------------------------------------*/
FoamFile
{
    version     2.0;
    format      ascii;
    class       volScalarField;
    location    "3";
    object      p;
}
// * * * * * * * * * * * * * * * * * * * * * * * * * * * * * * * * * * * * * //

dimensions      [1 -1 -2 0 0 0 0];

internalField   nonuniform List<scalar> 
2222
(
1.006425533
1.006384901
1.00640441
1.006406512
1.005077293
1.00494318
1.004685556
1.004655648
1.004844071
1.005045586
1.005322181
1.005688339
1.00597489
1.006169548
1.006241321
1.00621286
1.006034557
1.005898193
1.005687751
1.005363836
1.005204866
1.005316299
1.005334204
1.005363897
1.005368656
1.005706638
1.006277801
1.006718908
1.006853193
1.006695691
1.006523218
1.006355133
1.006261461
1.006246985
1.00509947
1.005569701
1.00568639
1.005660747
1.005593887
1.005323938
1.005064031
1.00520644
1.005430811
1.005410225
1.00541404
1.005552458
1.005765742
1.005894177
1.00601785
1.006022545
1.005889645
1.005725147
1.005526851
1.005268285
1.005113948
1.005270987
1.005446557
1.005576412
1.005903431
1.006555305
1.006969731
1.007030507
1.006926474
1.006723986
1.006445859
1.006217107
1.006043642
1.006039773
1.005095184
1.005452818
1.005623316
1.005792932
1.005934198
1.0059019
1.005650439
1.005589209
1.005580279
1.005508335
1.005339058
1.005422795
1.005476443
1.00578238
1.005901462
1.005884935
1.005799785
1.005621962
1.005422884
1.005249545
1.00514388
1.005290899
1.005585802
1.006065226
1.006847903
1.007169896
1.007128897
1.006965634
1.006804647
1.006613237
1.006334566
1.005871768
1.005700148
1.005713836
1.004934078
1.005277798
1.005509754
1.005756868
1.006187294
1.006326463
1.006080153
1.005671709
1.005493047
1.005443861
1.005257489
1.0051029
1.005443675
1.005872812
1.006026983
1.005976858
1.005828836
1.005613161
1.005417384
1.005332334
1.005257523
1.00540668
1.0059235
1.006935798
1.007441662
1.00730986
1.007109356
1.006862611
1.006609101
1.00633488
1.005935607
1.005716487
1.005736955
1.005722074
1.004684588
1.005038454
1.005403264
1.005718064
1.006166289
1.006299214
1.006136768
1.005611317
1.005320217
1.005225334
1.005013694
1.005047251
1.005393279
1.006000745
1.006311892
1.006290986
1.006011808
1.005699882
1.005464154
1.005406094
1.005362043
1.005634125
1.006479046
1.007337663
1.007436329
1.007254956
1.006977218
1.006711065
1.006374196
1.005838103
1.005381014
1.005309169
1.005498476
1.005647739
1.00445255
1.004798294
1.005207918
1.005670401
1.006071119
1.006179432
1.006048779
1.005495733
1.005015659
1.004803565
1.004671999
1.004861033
1.005407543
1.006258406
1.006585991
1.006616982
1.006250929
1.005700403
1.005430723
1.005404282
1.005455557
1.005946192
1.006780882
1.007266957
1.007332239
1.007122352
1.006781272
1.006385824
1.005796517
1.005269459
1.005041648
1.005069222
1.005321659
1.005599985
1.004324949
1.004674083
1.005035312
1.005459724
1.005830555
1.00592435
1.005782041
1.005243873
1.004522127
1.004440079
1.00446961
1.004782995
1.005666551
1.006489733
1.006693187
1.006711765
1.006379873
1.005690934
1.00541073
1.005392232
1.005582337
1.006130082
1.006776819
1.007083423
1.007156946
1.006954465
1.006473339
1.005607469
1.004910528
1.004846263
1.005039346
1.005192322
1.005620216
1.005901489
1.00456348
1.00485778
1.005179624
1.005521929
1.005594698
1.00539556
1.004800379
1.004427613
1.004373245
1.004469782
1.004988525
1.0059424
1.006453792
1.006620559
1.006634537
1.006344053
1.005774244
1.005455266
1.005428975
1.005660443
1.006115181
1.006652839
1.006904187
1.006916978
1.006606992
1.005802416
1.005031214
1.004759564
1.004728704
1.004940855
1.005633876
1.006176921
1.006253558
1.004573915
1.004738233
1.004971953
1.005173373
1.005225182
1.005009242
1.004672971
1.004379536
1.004420576
1.004709149
1.005203813
1.005897443
1.006278366
1.006433492
1.006478099
1.006240243
1.005725531
1.005511151
1.005560617
1.005624814
1.00597335
1.006417521
1.006568513
1.006426966
1.005765553
1.005130063
1.005022348
1.004983317
1.005087219
1.005707652
1.006363269
1.006476036
1.006328372
1.004672728
1.004753253
1.004835427
1.004936768
1.004985449
1.004851255
1.004635805
1.004574104
1.004755108
1.004983035
1.005226112
1.005705654
1.006076244
1.006189805
1.006242169
1.005993665
1.005638586
1.00560669
1.00566368
1.005575635
1.005793477
1.006020749
1.00593937
1.005728921
1.005396244
1.005016812
1.004874856
1.005326789
1.006019262
1.006485082
1.006516472
1.006473255
1.006258371
1.00480734
1.004901291
1.004833901
1.004845157
1.004893688
1.00480882
1.004877387
1.004858816
1.004943149
1.005010354
1.005100637
1.005513334
1.005838926
1.005929144
1.005986103
1.005820726
1.00563856
1.005705175
1.005611744
1.00545091
1.005643379
1.005513802
1.005295591
1.005320316
1.005421095
1.005273634
1.005565682
1.006529974
1.006901396
1.006669602
1.006407886
1.006335793
1.006119261
1.004858513
1.005059351
1.004919431
1.004881472
1.004973817
1.005048304
1.004984058
1.004865502
1.004870103
1.00492741
1.004965425
1.005303318
1.005549271
1.005672456
1.005851353
1.005776501
1.005745883
1.005692773
1.005500577
1.0052365
1.005145478
1.005003601
1.005128849
1.005246004
1.005379259
1.005894353
1.00671201
1.007150143
1.00702456
1.006742049
1.006429523
1.006152476
1.005920152
1.004809765
1.005037259
1.004988964
1.005106416
1.005274878
1.005217449
1.004960863
1.004707305
1.004747513
1.004822676
1.004805319
1.004979602
1.005312193
1.005568263
1.005796087
1.005899406
1.005841585
1.005575372
1.005321248
1.004799188
1.0046831
1.004930129
1.005187008
1.005556637
1.006316592
1.007073302
1.0070878
1.006921509
1.006895459
1.006612344
1.006290545
1.006027648
1.005621931
1.004674676
1.004927046
1.004965873
1.005263843
1.005494356
1.005312698
1.004910655
1.00455686
1.004570574
1.004637749
1.004500694
1.004751727
1.005271716
1.005588359
1.005957788
1.006085211
1.00583596
1.005414759
1.005027771
1.00458766
1.00461042
1.004955033
1.005537305
1.006530175
1.007347142
1.007433837
1.007153829
1.006780925
1.006577142
1.006260118
1.005879946
1.005463778
1.005297291
1.004492192
1.004738025
1.004906127
1.005235597
1.00548065
1.005364952
1.004893727
1.00439524
1.004325678
1.004330099
1.004440769
1.004784558
1.005370944
1.005829257
1.006158388
1.00610115
1.005747926
1.005219473
1.004718608
1.004614831
1.004752415
1.005340485
1.006540122
1.007539551
1.007549372
1.007368122
1.007029229
1.006673097
1.006249683
1.005681942
1.005076257
1.004844701
1.005195224
1.004414061
1.004664609
1.004874316
1.005196897
1.005374368
1.005276939
1.004919064
1.004216021
1.004090588
1.004171475
1.004374911
1.004803026
1.005617432
1.006089822
1.006211058
1.006096006
1.005598539
1.005046822
1.004632166
1.004533298
1.004987753
1.006349652
1.007536198
1.007735961
1.007629604
1.007356452
1.006792023
1.006116594
1.005263272
1.004661386
1.004611192
1.00473903
1.005097781
1.004265681
1.00459341
1.004932818
1.005162265
1.005251055
1.005160426
1.004778155
1.004335547
1.004055362
1.004148671
1.00445001
1.005175053
1.005998188
1.006161257
1.006177719
1.00610779
1.005550954
1.004980175
1.004832326
1.005068601
1.005913506
1.007158608
1.007634794
1.007694463
1.007572639
1.007280182
1.006535189
1.005095214
1.004171578
1.004178661
1.004497667
1.004854816
1.005438093
1.004216778
1.004573487
1.004979524
1.005180918
1.005267137
1.005014291
1.004667004
1.004358002
1.004187484
1.004313521
1.004875311
1.005641318
1.006185553
1.006217309
1.00615942
1.006087179
1.005668788
1.00528139
1.005338059
1.005878842
1.006500565
1.007158096
1.007580329
1.007587155
1.007411739
1.006836825
1.005483933
1.004292941
1.004108431
1.004129555
1.004387511
1.004974815
1.006270642
1.004200531
1.004620294
1.004984583
1.005202962
1.005295904
1.005089786
1.004714586
1.004445814
1.004427729
1.004779243
1.005276759
1.005680043
1.006165435
1.006320081
1.006293948
1.00616113
1.005898641
1.005877929
1.006098537
1.006057114
1.006359835
1.007013588
1.007351253
1.007313621
1.006767933
1.005505163
1.004654891
1.004468419
1.004397011
1.004447346
1.004807411
1.00578435
1.006993618
1.004195035
1.004769023
1.005027167
1.005237462
1.005359946
1.005238214
1.004980772
1.004820141
1.004864318
1.005120929
1.005332608
1.005608582
1.006094872
1.006392932
1.006507987
1.006507675
1.006453315
1.006384268
1.006307225
1.006081504
1.006209671
1.006692318
1.006881201
1.006417371
1.005533386
1.004878821
1.004555813
1.004548814
1.004704272
1.005125114
1.005851109
1.006531239
1.00689993
1.004385129
1.004943499
1.005121801
1.005365212
1.005532136
1.005468959
1.005250384
1.005012388
1.004956517
1.005130951
1.005290552
1.005517586
1.005980974
1.006357941
1.006555114
1.006720638
1.00665044
1.006478174
1.006247307
1.006003026
1.006117407
1.006272265
1.005872924
1.00513592
1.004914211
1.00488149
1.004765023
1.005030796
1.005694241
1.006409183
1.006676148
1.00672623
1.006809614
1.004631198
1.004998813
1.004950604
1.00517089
1.005397677
1.005459007
1.005224913
1.004972571
1.004903019
1.005069036
1.005229684
1.005370802
1.00586803
1.006297157
1.006515455
1.006751375
1.00663117
1.006422553
1.006132976
1.005781134
1.005575594
1.005221054
1.00478084
1.004881744
1.004845131
1.004729752
1.005185511
1.00613836
1.006946316
1.007115727
1.006987941
1.006774826
1.006761946
1.004688786
1.004895117
1.004888511
1.005026463
1.005217084
1.005247714
1.005057076
1.004862344
1.004791417
1.004931793
1.005075609
1.005234061
1.005725977
1.006244431
1.006467164
1.006715784
1.006588511
1.006286233
1.006086526
1.005362736
1.004338136
1.004316074
1.004629005
1.00487137
1.005061513
1.005514319
1.006385144
1.006943463
1.007125587
1.007131475
1.00703917
1.006790618
1.006509413
1.004859399
1.00489591
1.004959545
1.005137317
1.005110132
1.004848677
1.004612732
1.004540884
1.004641493
1.004693736
1.005089141
1.005714329
1.006186417
1.00646684
1.006549762
1.006463055
1.006058968
1.005421472
1.004737923
1.004350316
1.004304076
1.004772885
1.005231797
1.006030699
1.006650728
1.006703616
1.006730787
1.006894634
1.007032536
1.007005799
1.006685058
1.005915084
1.00487789
1.004903831
1.004973287
1.005125829
1.005037688
1.0047105
1.004374355
1.004183415
1.004237791
1.004465911
1.004980735
1.005698763
1.00604838
1.006230044
1.006183461
1.00588852
1.00510449
1.004432687
1.004290782
1.004232673
1.004292229
1.004928623
1.006158806
1.006957338
1.006941926
1.006825384
1.006675062
1.006588665
1.006630975
1.006602301
1.006104596
1.005610411
1.004817134
1.004901274
1.004900715
1.004977488
1.004894805
1.004555226
1.004235108
1.004092403
1.004153246
1.00443712
1.004881002
1.005573765
1.005835031
1.005842358
1.005723232
1.005262989
1.004569141
1.004269743
1.004311567
1.00425302
1.004578501
1.005723062
1.006848216
1.00705004
1.006959558
1.006844004
1.006664738
1.006332033
1.006106193
1.005821762
1.005666156
1.00557981
1.004633262
1.004744233
1.004727643
1.004861385
1.00486231
1.004637094
1.004341589
1.004170167
1.004194092
1.00453864
1.004892372
1.005438665
1.005654109
1.00562835
1.005658493
1.005141514
1.004553797
1.004327147
1.004530815
1.004710454
1.005478988
1.006476266
1.006837272
1.006981766
1.006897114
1.006746551
1.006369848
1.005793973
1.005422925
1.005368807
1.005597058
1.005659589
1.004448837
1.00450375
1.004560176
1.004787524
1.004864251
1.00473851
1.004484699
1.004369993
1.004463172
1.004819943
1.005016138
1.005471217
1.005702658
1.005707975
1.005639726
1.005213968
1.004546086
1.004560131
1.005282515
1.005662701
1.006255832
1.00669565
1.006920232
1.006910721
1.006763606
1.006363093
1.005701706
1.005391518
1.005376375
1.005419176
1.005599014
1.006063498
1.004352224
1.00441236
1.00453476
1.00479064
1.004907457
1.004770337
1.004651507
1.004560501
1.004681687
1.004955567
1.005106827
1.005598418
1.005872043
1.005899794
1.005633723
1.005533869
1.005134794
1.005122454
1.005194668
1.00574736
1.006264312
1.006807373
1.007002558
1.006859911
1.006496022
1.005820418
1.005344075
1.005356989
1.005510813
1.005628319
1.005899627
1.00643697
1.004295027
1.00447998
1.004716434
1.005026126
1.005134141
1.004916902
1.004689545
1.004539186
1.004668845
1.004965687
1.005163076
1.005694379
1.005987524
1.005972014
1.00586102
1.005856747
1.005273266
1.005142567
1.005242814
1.005807538
1.006063468
1.006505819
1.006722471
1.006612143
1.006117221
1.005572751
1.005394147
1.005434997
1.005793411
1.006192346
1.006491096
1.006624807
1.004221298
1.004604344
1.00494905
1.005318962
1.005419737
1.005185727
1.004836707
1.00460419
1.004604208
1.004960942
1.005177006
1.005666271
1.006028206
1.006072992
1.006098832
1.006166538
1.005544722
1.005245553
1.005287572
1.005771593
1.006064909
1.006278909
1.006294112
1.006205282
1.005883771
1.005628252
1.005621274
1.005709784
1.005952768
1.006368341
1.006706419
1.006775304
1.004247273
1.004713257
1.005094938
1.005415358
1.005521933
1.005340156
1.004985411
1.004713946
1.004599797
1.004867121
1.00517354
1.005656627
1.00606411
1.006153248
1.006223738
1.006282918
1.005743452
1.005348143
1.005284997
1.0056228
1.006033392
1.006235935
1.006181953
1.006015128
1.005756744
1.005684125
1.00582165
1.00605295
1.006282755
1.006492052
1.006683064
1.006710555
1.004477141
1.004974388
1.00529248
1.00549428
1.005506127
1.005260098
1.004914907
1.004617902
1.004481246
1.00474256
1.005110357
1.005534617
1.005937188
1.006039067
1.006175619
1.006238702
1.005730637
1.005380807
1.005318533
1.005532279
1.005874007
1.00616519
1.006206998
1.006063262
1.005837476
1.005790515
1.005956919
1.006265667
1.006483653
1.006583876
1.006658378
1.006612737
1.004805828
1.005237381
1.00544407
1.005547584
1.005445852
1.005148355
1.004783706
1.004493902
1.004388779
1.00466456
1.005016099
1.005378484
1.005759864
1.005864054
1.005998832
1.006055107
1.005551991
1.005274931
1.005270702
1.005427878
1.005758525
1.006032731
1.006118869
1.006097847
1.005974891
1.005923354
1.006010623
1.006212425
1.006394693
1.006501883
1.006602986
1.006547152
1.004967062
1.005282874
1.005499736
1.005506669
1.00521776
1.004906338
1.004577152
1.004402214
1.004385658
1.004671523
1.004968517
1.005277824
1.005631115
1.005688421
1.00571652
1.005695301
1.005345222
1.005249663
1.005329151
1.005433298
1.005791932
1.006096151
1.006142996
1.006113223
1.006006967
1.005936473
1.005967894
1.006108943
1.006286366
1.006415076
1.006540983
1.006490129
1.004994519
1.005365646
1.005551045
1.00531862
1.004978866
1.004747969
1.004549226
1.004467662
1.004502976
1.004765613
1.004977691
1.005166568
1.005523391
1.005630884
1.005641276
1.005531196
1.005314011
1.005336553
1.005469812
1.005550858
1.00594407
1.006221271
1.006204281
1.006026926
1.005909182
1.005862455
1.005884918
1.006025008
1.006177923
1.006260718
1.006453961
1.006513893
1.005122615
1.005422778
1.005366621
1.005056915
1.004894875
1.004768754
1.004650668
1.004551404
1.004574265
1.004762579
1.004928155
1.005137391
1.005566617
1.005735372
1.005798291
1.005733313
1.005530297
1.005507305
1.00563492
1.005710018
1.006030425
1.006135318
1.005919861
1.005626194
1.005641287
1.005693814
1.005757935
1.005930909
1.006104927
1.006278887
1.006529563
1.006634562
1.005167472
1.005241384
1.005018948
1.005039293
1.005070165
1.005008276
1.004872473
1.004689715
1.004658773
1.004832267
1.005060237
1.005289329
1.005669442
1.005850337
1.005976588
1.005924111
1.005690083
1.005619417
1.005734871
1.005784015
1.005850928
1.005632114
1.005358252
1.005557311
1.005743394
1.005782626
1.005824901
1.006014325
1.006197661
1.006402589
1.006653153
1.006680263
1.004969265
1.005050247
1.005043301
1.005137913
1.005214956
1.005180561
1.004938369
1.004678129
1.004609958
1.004827653
1.005177123
1.0054173
1.005725084
1.005880206
1.005966078
1.005884904
1.005558499
1.005324828
1.005368998
1.005219457
1.005032358
1.004978041
1.005294021
1.00568139
1.005884002
1.005896565
1.005920131
1.00613276
1.006348241
1.006578848
1.0066351
1.006373538
1.004430781
1.004663497
1.0048987
1.005139721
1.005228962
1.005109665
1.004790744
1.004505915
1.004406044
1.004646546
1.005115353
1.005353565
1.005549392
1.005630457
1.005613185
1.005488042
1.005305497
1.005177804
1.005212704
1.005161646
1.005201189
1.005500354
1.005890711
1.006099808
1.006093079
1.006010229
1.005925741
1.005859823
1.005881416
1.005968396
1.006028224
1.00608898
1.0049554
1.005055324
1.005091981
1.005219428
1.005188076
1.004955907
1.004545201
1.004349698
1.004322196
1.004604921
1.00514283
1.005494471
1.005680949
1.005757509
1.005717717
1.005537988
1.005346089
1.005328177
1.005399659
1.005595794
1.005748757
1.005907406
1.00607133
1.006153512
1.006110501
1.005997603
1.005881038
1.005784759
1.005871729
1.006067824
1.006186156
1.006250585
1.004747815
1.004815419
1.004876606
1.004972583
1.004912361
1.004610211
1.004294558
1.004247946
1.004414765
1.004946637
1.005510602
1.005768879
1.005878038
1.005862587
1.005736052
1.005447825
1.005239557
1.005201617
1.005292531
1.005493472
1.005696011
1.005881324
1.006034249
1.006114702
1.006040985
1.005926387
1.005845437
1.005836916
1.006011962
1.006144502
1.006165478
1.006107778
1.004591839
1.004496549
1.004393251
1.004298377
1.004117959
1.003881573
1.003856409
1.003991246
1.004437603
1.005084579
1.005551482
1.005828751
1.005815346
1.005685036
1.005430201
1.005088732
1.004924929
1.005014386
1.005177211
1.00542243
1.005692323
1.005887083
1.006019426
1.006029582
1.005952163
1.005870291
1.005822159
1.005852452
1.006076933
1.006230971
1.006248955
1.006183779
1.003881571
1.003748102
1.003654974
1.003602877
1.003495953
1.003474568
1.003641189
1.003998752
1.004590404
1.005126951
1.005533412
1.005658924
1.005580768
1.00533432
1.00503734
1.004769039
1.004743417
1.004902048
1.005181142
1.005491953
1.005787693
1.005950756
1.005930223
1.005761145
1.005668393
1.005639887
1.005639042
1.005744638
1.00610466
1.006265778
1.006272556
1.006210587
1.003292125
1.003193358
1.00318941
1.003352804
1.003421062
1.003577499
1.00388197
1.004364756
1.004885935
1.005375306
1.005751735
1.005804718
1.005679519
1.005374057
1.005037547
1.004755023
1.00475362
1.004940562
1.005337571
1.0057202
1.005988055
1.006048927
1.005932147
1.005634424
1.00553514
1.005536376
1.005551845
1.005716606
1.006188073
1.006348726
1.006363022
1.006302183
1.002593403
1.002823642
1.003235461
1.003509009
1.003796227
1.004110391
1.004385862
1.004547291
1.004767419
1.00521175
1.005654714
1.005738468
1.005661431
1.005344679
1.00487589
1.0047825
1.0048024
1.005075964
1.005522203
1.005902528
1.006104511
1.00609042
1.005881514
1.005462233
1.005302115
1.005308285
1.005393004
1.005717215
1.006342268
1.006510794
1.00654418
1.006506507
1.002252877
1.002986835
1.003631185
1.004101377
1.004461464
1.004541776
1.004402562
1.004365998
1.004477281
1.004889822
1.005445209
1.005597276
1.005564867
1.005272928
1.004812794
1.004727552
1.004829166
1.005122279
1.005537403
1.005972448
1.006081833
1.006015604
1.0057433
1.005281914
1.005097933
1.005110236
1.005266877
1.005751237
1.006462281
1.006699028
1.006717106
1.006645781
1.002122244
1.003276219
1.004464021
1.00488225
1.004826915
1.004560818
1.004170749
1.003963793
1.003982087
1.004392607
1.005137703
1.005412547
1.005392458
1.005103775
1.004752109
1.004715603
1.004839554
1.005080923
1.005507375
1.005957509
1.00601517
1.005883638
1.005518485
1.005015787
1.004798798
1.004832471
1.005097317
1.005724395
1.006434071
1.00672968
1.006727121
1.006583648
1.002395964
1.004003338
1.005176496
1.005259802
1.004917218
1.004314273
1.003797321
1.003609478
1.003587426
1.003959739
1.004749142
1.005134871
1.005182543
1.00504996
1.004763668
1.004711658
1.004809381
1.005034257
1.005466177
1.005862772
1.005910344
1.005809931
1.005388802
1.004823738
1.004616353
1.004688786
1.00504388
1.005731277
1.006487309
1.00671274
1.006688808
1.006465064
1.003248988
1.00467636
1.005433936
1.005426763
1.005015661
1.003696326
1.002996976
1.002798989
1.002814094
1.003377007
1.004425749
1.00487282
1.005004559
1.004978367
1.004763583
1.004720885
1.004785509
1.004926638
1.005344752
1.005736599
1.005756736
1.005655473
1.005242305
1.004736923
1.004578676
1.004664661
1.005063759
1.005803796
1.006527887
1.006737796
1.006698645
1.006318466
1.003987933
1.004833221
1.005382985
1.005385893
1.004862928
1.003757794
1.002540529
1.002192477
1.002312366
1.003012163
1.00428968
1.004816591
1.004936148
1.00492724
1.004778923
1.004666036
1.004681893
1.004743924
1.005131444
1.005544727
1.005564416
1.005481132
1.005152502
1.004715113
1.004647711
1.004780176
1.005206305
1.00590172
1.006502165
1.006681774
1.006621181
1.006092683
1.004126296
1.004594751
1.005247885
1.005340964
1.004663863
1.003403971
1.002352925
1.001891139
1.002068198
1.002933571
1.004332954
1.0050712
1.005297724
1.005248291
1.004813445
1.00454206
1.004477282
1.004487485
1.00479862
1.005298813
1.005386383
1.005350088
1.005123152
1.004800126
1.004764714
1.004925646
1.00532807
1.005899791
1.006360153
1.006535417
1.006475789
1.006056378
1.003459339
1.004167013
1.005167326
1.005104871
1.004328269
1.003219445
1.002240042
1.001956129
1.002270393
1.003317211
1.004748426
1.005678476
1.005867879
1.005587376
1.00486074
1.004292242
1.004137488
1.004135428
1.004378613
1.005042315
1.005208925
1.005194486
1.005106135
1.004907744
1.004907575
1.005055911
1.005342519
1.005791485
1.006240169
1.006372301
1.006306081
1.005951796
1.002719608
1.004185869
1.005128573
1.004938476
1.004144553
1.003295414
1.002675683
1.002653403
1.003128555
1.004155624
1.005283498
1.00604571
1.006143937
1.005671599
1.004715671
1.003916075
1.003552469
1.003521485
1.003870387
1.004780079
1.005179154
1.005196274
1.005161768
1.005017467
1.005011915
1.005104521
1.005297781
1.0056617
1.006080753
1.006169408
1.006098982
1.005863867
1.003537986
1.004756333
1.005176615
1.004910146
1.004329081
1.003933181
1.003742229
1.003605703
1.003986264
1.004687976
1.005289416
1.005920922
1.005991042
1.005396266
1.004310613
1.003414182
1.002996987
1.003119011
1.003730396
1.004680514
1.005248464
1.005389059
1.005393886
1.005147056
1.005047055
1.005074438
1.005185214
1.005472857
1.005878628
1.005947176
1.005918227
1.005847915
1.005184707
1.005239766
1.005210753
1.005208471
1.005264669
1.00516639
1.004729541
1.003767688
1.003771791
1.004350082
1.004988472
1.005567179
1.0055355
1.004830061
1.003820129
1.00323253
1.002872943
1.003068082
1.003807328
1.004762648
1.005428674
1.00580199
1.005685787
1.005200777
1.004904812
1.004898178
1.004962415
1.005243003
1.005709768
1.005856937
1.005856096
1.005763721
1.004227455
1.004354209
1.005372001
1.006684915
1.006513612
1.005906649
1.004241767
1.003356869
1.003479969
1.003994896
1.004571177
1.005126522
1.00494986
1.00426607
1.003664184
1.003354903
1.003003922
1.003222931
1.004018544
1.004915522
1.005512755
1.005821148
1.005625852
1.005055873
1.004628241
1.004597028
1.004675236
1.005035136
1.005613721
1.005748195
1.005737287
1.00568
1.001522151
1.004285656
1.007779431
1.008031514
1.007142182
1.004690764
1.003327575
1.003018189
1.003464338
1.004290574
1.004738013
1.004944483
1.004830994
1.004323806
1.004003711
1.003773519
1.003359341
1.00350871
1.004236585
1.004863362
1.005301599
1.005589332
1.005315682
1.004698132
1.004327875
1.004195774
1.00433209
1.004850631
1.005567178
1.005718285
1.005701093
1.005605571
1.000077548
1.007887475
1.009420188
1.007395652
1.004141768
1.002959268
1.003443825
1.004067328
1.004283646
1.004319385
1.004389404
1.004672199
1.004895808
1.004708702
1.004385209
1.004121426
1.003357243
1.003382664
1.004014104
1.00453735
1.004833391
1.00512312
1.004784836
1.004230711
1.0041234
1.004139597
1.00438199
1.004932623
1.005551629
1.005727147
1.005714409
1.005533233
1.009476528
1.010222112
1.00701825
1.00215168
1.002437764
1.004083674
1.006278701
1.005571207
1.004408927
1.003977934
1.004260803
1.005049581
1.005240476
1.005065857
1.00455131
1.003767517
1.003296545
1.003417475
1.003897243
1.004090298
1.004191808
1.004490899
1.004559676
1.004300181
1.004234549
1.004179149
1.004438001
1.00501087
1.005474637
1.005743809
1.005728595
1.005424043
1.001051397
0.9987041455
0.9964935816
0.9995785762
1.005606106
1.009066733
1.007350954
1.004665703
1.002972808
1.003503293
1.005243073
1.005674515
1.005459735
1.004344859
1.003643682
1.003458637
1.00341247
1.003755587
1.004133095
1.004152009
1.004211738
1.004454704
1.004458424
1.004400507
1.004354952
1.004245435
1.004407133
1.004997033
1.005344163
1.005513915
1.00552757
1.005209248
0.9285548273
0.9635313894
0.9912559586
1.005948117
1.011746349
1.009691813
1.002699741
1.00111936
1.00226289
1.0052175
1.006606022
1.005886915
1.004201047
1.003502728
1.00359051
1.00382868
1.003951347
1.00423735
1.004233459
1.004141747
1.004239871
1.004474999
1.00443392
1.004366951
1.004467893
1.00428585
1.004398983
1.004883918
1.005132453
1.005190026
1.005145697
1.005005324
0.7980120762
0.9095603259
0.9761947771
0.9928926688
1.004428382
0.9971735361
0.9956089169
0.9999067174
1.004972502
1.007069899
1.005777386
1.003963986
1.003390438
1.003875073
1.004620822
1.004300398
1.00385996
1.003802739
1.003887088
1.004137009
1.004260247
1.004496608
1.004389467
1.004293227
1.004272233
1.004339363
1.004582557
1.004859479
1.00488333
1.004841269
1.004899314
1.004971128
0.633925139
0.7155184424
0.8264886432
0.898170854
0.9603472158
0.9747569405
0.9969692481
1.00882171
1.007627314
1.004753955
1.00369881
1.003956685
1.004961184
1.00592095
1.005440904
1.004218007
1.003316439
1.003353062
1.00385664
1.004243762
1.004397456
1.004063304
1.003732464
1.003920788
1.004270624
1.004541335
1.004674436
1.004681614
1.004635524
1.004560076
1.00469591
1.004724929
0.5770649709
0.5945561972
0.6504147019
0.7527611232
0.8634022484
0.9434672234
0.9897808746
1.002746799
0.9941162811
0.9963515343
1.003043377
1.007712434
1.007623109
1.006276433
1.003387593
1.002504384
1.002923436
1.003998942
1.004667401
1.004602142
1.004127136
1.003663108
1.00367279
1.004004256
1.004391181
1.004621342
1.004735056
1.004743803
1.00467463
1.004608485
1.004498565
1.004404823
0.5773113607
0.5785322248
0.5842754628
0.6133389587
0.6742474745
0.7801024375
0.8796423412
0.9428374561
0.9608365051
0.9922839049
1.011755839
1.010655113
1.006854744
1.000327938
0.9999869579
1.001451172
1.004935084
1.005843781
1.005458742
1.004703647
1.004030391
1.003803984
1.003954474
1.004242917
1.004400143
1.004484338
1.004600479
1.004710373
1.004643022
1.004386246
1.004122357
1.004088982
0.5867308096
0.5832452295
0.5805315838
0.5815479445
0.5888427601
0.6280376656
0.7034402226
0.8091603538
0.9061723663
0.9764254502
1.00078026
1.001526992
0.9918734479
0.9931237065
0.9992261591
1.005736493
1.006734968
1.006172302
1.004741415
1.004721914
1.004868332
1.004793372
1.004482214
1.003856231
1.003834743
1.004054896
1.004603601
1.004769118
1.004518848
1.004082372
1.003790255
1.003863876
0.5993696979
0.5922390195
0.5864225583
0.5828454056
0.5835738271
0.5865407837
0.6005156313
0.6468113015
0.7366860574
0.8379053906
0.9049988589
0.9549547731
0.9759937685
0.9970954567
1.009759803
1.009130059
1.005809046
1.00283639
1.004252752
1.006672954
1.006565102
1.005662476
1.003780345
1.003141692
1.003309413
1.004045933
1.004808319
1.004680808
1.004293715
1.003870521
1.003679106
1.003817113
0.6150887815
0.6089399181
0.6028006493
0.5958808269
0.590964708
0.5886991803
0.5875361546
0.5902708487
0.6117534665
0.6629850102
0.7608441654
0.8733966659
0.9559190409
0.9863259175
1.004827052
1.001072868
)
;

boundaryField
{
    inlet
    {
        type            fixedValue;
        value           nonuniform 0();
    }
    outlet
    {
        type            zeroGradient;
    }
    bottom
    {
        type            slip;
    }
    top
    {
        type            slip;
    }
    obstacle
    {
        type            zeroGradient;
    }
    defaultFaces
    {
        type            empty;
    }
    procBoundary29to23
    {
        type            processor;
        value           nonuniform List<scalar> 
36
(
1.005937493
1.006152289
1.006318348
1.006440176
1.00488677
1.004925053
1.004653801
1.004447893
1.004416204
1.004489652
1.005007835
1.005753375
1.00620033
1.00640752
1.006483412
1.006444589
1.006244319
1.006080509
1.005885947
1.005700482
1.005544051
1.005418368
1.005348299
1.005340736
1.005299317
1.00536814
1.005533958
1.005892147
1.006296049
1.006433008
1.006433008
1.004983203
1.005337994
1.005378106
1.005205037
1.005205037
)
;
    }
    procBoundary29to28
    {
        type            processor;
        value           nonuniform List<scalar> 
69
(
1.004654995
1.004715145
1.004640125
1.004502084
1.00436972
1.00421687
1.004342096
1.004342096
1.004435494
1.004523192
1.004531796
1.004538567
1.004500913
1.004451993
1.004400944
1.004264909
1.004129676
1.004159368
1.00401374
1.003892905
1.00396279
1.00419333
1.004507512
1.004728933
1.004728933
1.004711461
1.004650364
1.004516295
1.004413783
1.004323434
1.00414153
1.004025824
1.004055137
1.004134109
1.004280412
1.004517866
1.004610376
1.00468286
1.004837591
1.004823836
1.004352085
1.004727245
1.004602634
1.004758622
1.004079603
1.003432269
1.002542777
1.001890797
1.001682457
1.001751773
1.002265328
1.003035334
1.003633827
1.003247932
1.002193966
1.001800629
1.004391925
1.005640246
1.000527305
0.9930220561
0.9949134746
0.9871212221
0.8795766922
0.6903490303
0.5862845242
0.5743540454
0.5769909315
0.5923344681
0.6056558833
)
;
    }
    procBoundary29to34
    {
        type            processor;
        value           uniform 0.6209094324;
    }
    procBoundary29to35
    {
        type            processor;
        value           nonuniform List<scalar> 
33
(
0.9946023721
1.000099085
1.007194097
1.008301835
1.007065696
1.003542179
1.002732106
1.003108344
1.004246797
1.004931316
1.004681772
1.004457848
1.0041863
1.003974922
1.003918388
1.003969482
0.6274113279
0.6218523275
0.6156946222
0.6094969573
0.6025921183
0.595933621
0.590017527
0.5904543471
0.59193235
0.5979139517
0.6272086166
0.6911979294
0.7939208087
0.8808158898
0.9509680745
0.9946023721
0.9669705079
)
;
    }
}


// ************************************************************************* //
