/*--------------------------------*- C++ -*----------------------------------*\
  =========                 |
  \\      /  F ield         | OpenFOAM: The Open Source CFD Toolbox
   \\    /   O peration     | Website:  https://openfoam.org
    \\  /    A nd           | Version:  7
     \\/     M anipulation  |
\*---------------------------------------------------------------------------*/
FoamFile
{
    version     2.0;
    format      ascii;
    class       volScalarField;
    location    "1.8";
    object      p;
}
// * * * * * * * * * * * * * * * * * * * * * * * * * * * * * * * * * * * * * //

dimensions      [1 -1 -2 0 0 0 0];

internalField   nonuniform List<scalar> 
22
(
1.000011599
1.00005586
1.000214777
1.000649166
1.002091325
1.005168801
1.011049998
1.020680599
1.035686232
1.056583493
1.081451201
1.047880999
1.073980378
1.10697341
1.141420891
1.181235277
1.216470946
1.275360476
1.442073612
1.489204943
1.527480733
1.574368076
)
;

boundaryField
{
    inlet
    {
        type            fixedValue;
        value           nonuniform 0();
    }
    outlet
    {
        type            zeroGradient;
    }
    bottom
    {
        type            slip;
    }
    top
    {
        type            slip;
    }
    obstacle
    {
        type            zeroGradient;
    }
    defaultFaces
    {
        type            empty;
    }
    procBoundary14to7
    {
        type            processor;
        value           uniform 1.000001429;
    }
    procBoundary14to8
    {
        type            processor;
        value           nonuniform List<scalar> 8(0.9999999952 1.000000016 1.000000389 1.000002599 1.001710234 1.001710234 1.004328953 1.006575729);
    }
    procBoundary14to9
    {
        type            processor;
        value           nonuniform List<scalar> 3(1.241016517 1.27711383 1.19258048);
    }
    procBoundary14to13
    {
        type            processor;
        value           nonuniform List<scalar> 2(1.000663002 1.025840189);
    }
    procBoundary14to20
    {
        type            processor;
        value           nonuniform List<scalar> 4(1.26173382 1.328156079 1.386801623 1.386801623);
    }
}


// ************************************************************************* //
