/*--------------------------------*- C++ -*----------------------------------*\
  =========                 |
  \\      /  F ield         | OpenFOAM: The Open Source CFD Toolbox
   \\    /   O peration     | Website:  https://openfoam.org
    \\  /    A nd           | Version:  7
     \\/     M anipulation  |
\*---------------------------------------------------------------------------*/
FoamFile
{
    version     2.0;
    format      ascii;
    class       volScalarField;
    location    "1.6";
    object      T;
}
// * * * * * * * * * * * * * * * * * * * * * * * * * * * * * * * * * * * * * //

dimensions      [0 0 0 1 0 0 0];

internalField   nonuniform List<scalar> 
22
(
0.9807407224
0.9276044465
0.9438100117
0.9977252293
0.9303325931
0.9550255369
1.015116548
0.932495186
0.9677663864
1.029973706
0.9347737114
0.9808863491
1.043553164
0.9400143678
0.99968493
1.057832913
0.9536608662
1.028563863
0.9735188576
1.060646495
0.9822005865
1.091793428
)
;

boundaryField
{
    inlet
    {
        type            fixedValue;
        value           nonuniform 0();
    }
    outlet
    {
        type            inletOutlet;
        inletValue      nonuniform 0();
        value           nonuniform 0();
    }
    bottom
    {
        type            slip;
    }
    top
    {
        type            slip;
    }
    obstacle
    {
        type            zeroGradient;
    }
    defaultFaces
    {
        type            empty;
    }
    procBoundary15to9
    {
        type            processor;
        value           nonuniform List<scalar> 4(0.9592402048 0.9222138836 0.9342150042 0.9342150042);
    }
    procBoundary15to10
    {
        type            processor;
        value           nonuniform List<scalar> 3(1.027851309 1.034448009 1.040789631);
    }
    procBoundary15to16
    {
        type            processor;
        value           nonuniform List<scalar> 7(1.047053798 1.052229073 1.059696118 1.070290599 1.070290599 1.080716542 1.08623634);
    }
    procBoundary15to21
    {
        type            processor;
        value           nonuniform List<scalar> 2(0.9823005985 1.083963856);
    }
}


// ************************************************************************* //
