/*--------------------------------*- C++ -*----------------------------------*\
  =========                 |
  \\      /  F ield         | OpenFOAM: The Open Source CFD Toolbox
   \\    /   O peration     | Website:  https://openfoam.org
    \\  /    A nd           | Version:  7
     \\/     M anipulation  |
\*---------------------------------------------------------------------------*/
FoamFile
{
    version     2.0;
    format      ascii;
    class       volScalarField;
    location    "1";
    object      T;
}
// * * * * * * * * * * * * * * * * * * * * * * * * * * * * * * * * * * * * * //

dimensions      [0 0 0 1 0 0 0];

internalField   nonuniform List<scalar> 
22
(
1.047421937
1.027311937
1.052247587
1.051210581
1.038802936
1.066511702
1.064177233
1.040263939
0.9993719864
1.074138691
1.044088769
0.9899836604
0.960341967
1.07039925
0.9711112327
0.9516373161
0.9689646829
0.9316539518
0.9282494365
0.9592276725
0.9221996634
0.9344534799
)
;

boundaryField
{
    inlet
    {
        type            fixedValue;
        value           nonuniform 0();
    }
    outlet
    {
        type            inletOutlet;
        inletValue      nonuniform 0();
        value           nonuniform 0();
    }
    bottom
    {
        type            slip;
    }
    top
    {
        type            slip;
    }
    obstacle
    {
        type            zeroGradient;
    }
    defaultFaces
    {
        type            empty;
    }
    procBoundary9to3
    {
        type            processor;
        value           nonuniform List<scalar> 5(1.040416741 1.004128821 1.027623195 1.04870512 1.04870512);
    }
    procBoundary9to4
    {
        type            processor;
        value           nonuniform List<scalar> 2(1.034899715 1.006814187);
    }
    procBoundary9to8
    {
        type            processor;
        value           uniform 1.001913254;
    }
    procBoundary9to10
    {
        type            processor;
        value           nonuniform List<scalar> 5(0.9774742173 0.9654432006 0.9981936446 1.016668724 1.016668724);
    }
    procBoundary9to14
    {
        type            processor;
        value           nonuniform List<scalar> 3(1.023100642 1.07219381 1.141910231);
    }
    procBoundary9to15
    {
        type            processor;
        value           nonuniform List<scalar> 4(0.9811115822 0.9275892289 0.9811115822 0.9437657757);
    }
}


// ************************************************************************* //
