/*--------------------------------*- C++ -*----------------------------------*\
  =========                 |
  \\      /  F ield         | OpenFOAM: The Open Source CFD Toolbox
   \\    /   O peration     | Website:  https://openfoam.org
    \\  /    A nd           | Version:  7
     \\/     M anipulation  |
\*---------------------------------------------------------------------------*/
FoamFile
{
    version     2.0;
    format      ascii;
    class       volScalarField;
    location    "4.9";
    object      T;
}
// * * * * * * * * * * * * * * * * * * * * * * * * * * * * * * * * * * * * * //

dimensions      [0 0 0 1 0 0 0];

internalField   nonuniform List<scalar> 
555
(
1.110625256
1.110641423
1.110596908
1.110577037
1.110354655
1.109918306
1.116363656
1.114721628
1.11274602
1.113249746
1.113860577
1.113684374
1.113682227
1.115020974
1.114992416
1.114334118
1.113142283
1.111924424
1.111265516
1.110838575
1.1108616
1.11082756
1.110621925
1.110361426
1.109820892
1.11622361
1.114705414
1.112546194
1.11237267
1.112792714
1.112693509
1.112612137
1.113888539
1.114198794
1.114054385
1.113055586
1.111944927
1.111198743
1.110829474
1.11071065
1.11065992
1.110451948
1.110218244
1.109611873
1.11395238
1.112724206
1.110586674
1.109977508
1.110341611
1.11065054
1.110697347
1.112015436
1.112623199
1.11248072
1.111634379
1.110703628
1.110220492
1.109994176
1.109717011
1.109609089
1.109425181
1.109243523
1.108846095
1.109084306
1.108381307
1.106295652
1.105741936
1.106110235
1.106845972
1.107053482
1.108571253
1.109531296
1.109472312
1.108767418
1.107984106
1.107594257
1.107437779
1.107218754
1.107146167
1.107109135
1.107009697
1.106837328
1.102610633
1.102267993
1.100387668
1.099772601
1.100485073
1.101037241
1.101787378
1.103526678
1.104591342
1.104576433
1.104004105
1.103647038
1.103286092
1.103074522
1.103081225
1.103163309
1.103360012
1.10347393
1.103466806
1.094827017
1.095142186
1.093732822
1.092834712
1.093340822
1.094166379
1.095079268
1.09709593
1.098559974
1.098649871
1.098173282
1.097344166
1.096941657
1.09688599
1.097198531
1.097699908
1.098117377
1.098388973
1.0984253
1.087206669
1.086062305
1.085064935
1.085431066
1.086125681
1.087014024
1.088919573
1.090650297
1.091132955
1.09084868
1.090308167
1.089828951
1.089807812
1.090228535
1.090796697
1.091344637
1.091687603
1.091759694
1.078889191
1.077907656
1.077063695
1.077328706
1.0778845
1.078577642
1.080359508
1.082088707
1.082933959
1.082795355
1.082344811
1.081915241
1.081921826
1.082298614
1.082931236
1.083504532
1.083800899
1.083909705
1.070772813
1.069822399
1.069145379
1.069321081
1.069859378
1.070342437
1.071859307
1.073471067
1.074517937
1.074504847
1.07415309
1.073861866
1.073796885
1.074054008
1.074613319
1.075082346
1.075323374
1.075413084
1.075295718
1.063233432
1.062267605
1.061579174
1.061536572
1.061979971
1.06237667
1.063619381
1.065075846
1.066375571
1.066365659
1.066100346
1.065911859
1.065757262
1.06584311
1.066225558
1.066518133
1.066705828
1.066754772
1.066615727
1.056113459
1.055312131
1.054491014
1.054075235
1.054209424
1.05432501
1.055139313
1.056509139
1.057851557
1.058452971
1.058269793
1.058044898
1.057833466
1.057838971
1.058011243
1.058150636
1.058254298
1.058260536
1.058088219
1.049072818
1.048499717
1.047637313
1.04671951
1.046580856
1.046534857
1.047221386
1.048504667
1.049822636
1.050236136
1.050112782
1.049887547
1.049739834
1.04977638
1.049954495
1.050185799
1.050254346
1.050201718
1.049947523
1.04128032
1.040461702
1.039458635
1.039140566
1.038932827
1.039565
1.040846606
1.042056033
1.042367878
1.042213612
1.041906264
1.041739952
1.041784407
1.041895219
1.042349069
1.042524096
1.042424699
1.042092327
1.033763821
1.033010649
1.032161815
1.03176591
1.031471736
1.032139332
1.033397078
1.03431974
1.034552827
1.034347198
1.034097637
1.033887773
1.033899403
1.034002164
1.034357404
1.034512629
1.034395376
1.034041359
1.025896261
1.025501881
1.025076741
1.024656708
1.024336517
1.025026513
1.026208203
1.027028347
1.027293312
1.027078085
1.026541702
1.026232528
1.026195792
1.026321396
1.026569468
1.026711558
1.026639071
1.02626905
1.018496011
1.018219266
1.018209482
1.017810754
1.017472644
1.018101054
1.019172266
1.019952359
1.020222957
1.01996533
1.01941902
1.019032365
1.018906975
1.019020007
1.019140792
1.019223053
1.019143493
1.01873269
1.01177116
1.011256726
1.011282631
1.011120239
1.010727452
1.011203014
1.012114117
1.012939695
1.013450865
1.013343102
1.012817331
1.012316775
1.012087898
1.012151852
1.012174329
1.012198904
1.012073335
1.011611693
1.005553979
1.004618157
1.004736478
1.004813882
1.004365438
1.004606153
1.005379893
1.00623889
1.006939748
1.0069435
1.006523493
1.006130458
1.005808605
1.005838879
1.005889358
1.00589473
1.005760032
1.005365287
0.9994790298
0.9983395523
0.9985087639
0.9988936918
0.9984022654
0.9984416665
0.9992040049
1.000200154
1.00106019
1.001145261
1.000954132
1.000539315
1.000232626
1.000294048
1.000495329
1.000538511
1.000424534
1.000141618
0.9926856424
0.9930486346
0.9936280705
0.9930873039
0.992995063
0.9937540314
0.9948548564
0.9959034096
0.9961012718
0.9960577411
0.9956937977
0.995555667
0.9957116078
0.9960295405
0.9961423661
0.9960657039
0.9958744197
0.9881045725
0.988624927
0.9893078984
0.9886444248
0.9886730137
0.9894397263
0.9904965047
0.9915679682
0.9919098196
0.9918928149
0.9916712364
0.9917888305
0.9920878867
0.9924241217
0.9926138186
0.9926064586
0.9924778996
0.9848115937
0.9854203208
0.9864334221
0.9858261189
0.9859683795
0.9866700517
0.9875559195
0.9883761915
0.9887135507
0.9887184749
0.9887319814
0.9890195347
0.9894390662
0.9898447517
0.9901119801
0.990100445
0.9899848908
0.9829452016
0.9836513932
0.9849631253
0.984441878
0.9844177117
0.9850136687
0.9856883767
0.9861834913
0.9865446046
0.9866343428
0.986837587
0.9872632152
0.9878164952
0.9882300797
0.988455115
0.988458182
0.9884434264
0.9883229778
0.9821412977
0.9828026429
0.9842791474
0.9837903375
0.9835301609
0.9840206189
0.9844322218
0.9847259359
0.985121306
0.9853669162
0.9856757868
0.9861468709
0.986735972
0.9870777599
0.9872275633
0.9872568882
0.9873467136
0.9874095302
0.9817078043
0.9820819715
0.9838765772
0.9834715278
0.9831089655
0.9834380867
0.9838740822
0.9840789844
0.9844229534
0.9847359453
0.9850663942
0.9855039202
0.9859668755
0.9863774949
0.9865508221
0.9865401221
0.986538516
0.9868224956
0.9812466084
0.9813072113
0.9835738232
0.9832705476
0.9829272499
0.9831667011
0.9836875353
0.9840240475
0.9843543784
0.9847244437
0.9850594672
0.9854127621
0.9858059093
0.9861749584
0.9863477066
0.9863083843
0.9863013416
0.9865801205
0.9809627942
0.9834442147
0.9831836002
0.9828783833
0.9830908708
0.9836259697
0.9840343364
0.9845034971
0.9850355662
0.9854554564
0.9857250172
0.986093627
0.986442938
0.9866134192
0.986589401
0.986536021
0.9866277991
0.981018393
0.9835348425
0.9832697748
0.9828946419
0.982985112
0.9835576291
0.984073499
0.9848895648
0.985547987
0.9860082504
0.9862599643
0.9866381634
0.9870126956
0.9871774781
0.9871951029
0.9870790264
0.9868141926
0.981225885
0.9836675661
0.9833824474
0.9829563944
0.9832285484
0.9838174547
0.984505825
0.9855396848
0.9862119539
0.9865889526
0.9868596076
0.9872630131
0.9876673069
0.9878348629
0.9878753242
0.9876969629
0.98720741
0.9818708819
0.9844534298
0.9842725805
0.9840567675
0.9844517923
0.984954845
0.9856182298
0.9865587894
0.9871587572
0.9874299732
0.9876956326
0.9880683041
0.9884349734
0.988598839
0.9886328465
0.9884079329
0.9879398594
0.9832793585
0.9863296436
0.9862142805
0.9859308544
0.9862426846
0.9867053896
)
;

boundaryField
{
    inlet
    {
        type            fixedValue;
        value           nonuniform 0();
    }
    outlet
    {
        type            inletOutlet;
        inletValue      nonuniform 0();
        value           nonuniform 0();
    }
    bottom
    {
        type            slip;
    }
    top
    {
        type            slip;
    }
    obstacle
    {
        type            zeroGradient;
    }
    defaultFaces
    {
        type            empty;
    }
    procBoundary22to16
    {
        type            processor;
        value           nonuniform List<scalar> 
20
(
1.109896865
1.110010338
1.110063593
1.110180248
1.110047464
1.109799333
1.116348953
1.114689246
1.112540412
1.112849966
1.113809005
1.113623429
1.113589016
1.114904456
1.114728685
1.114118645
1.11284654
1.111628926
1.110973168
1.110973168
)
;
    }
    procBoundary22to17
    {
        type            processor;
        value           uniform 1.109395148;
    }
    procBoundary22to21
    {
        type            processor;
        value           nonuniform List<scalar> 
35
(
1.116623622
1.116254342
1.113486778
1.107800764
1.100283028
1.091609336
1.0866212
1.0866212
1.078471321
1.070418328
1.062737859
1.05534413
1.047861541
1.041725837
1.041725837
1.034289054
1.026557739
1.018847547
1.011835959
1.005724651
1.00036806
0.9937703948
0.9937703948
0.9890869823
0.985780758
0.9840229562
0.9834743449
0.9834288233
0.9833571444
0.9808748833
0.9808748833
0.9807525403
0.9814263474
0.9829480736
0.9849560966
)
;
    }
    procBoundary22to23
    {
        type            processor;
        value           nonuniform List<scalar> 
32
(
1.109141438
1.108773409
1.108237696
1.106473226
1.103192902
1.098194727
1.091575283
1.083772626
1.083772626
1.075208468
1.06641088
1.057749007
1.049429052
1.041503212
1.033526946
1.025774645
1.018260012
1.01128263
1.005113897
0.9998590856
0.9954917505
0.9920648892
0.989716022
0.989716022
0.9883143564
0.9876079117
0.987180669
0.986851906
0.9865957268
0.986463337
0.9867936635
0.9877063065
)
;
    }
    procBoundary22to28
    {
        type            processor;
        value           nonuniform List<scalar> 
18
(
0.9873382646
0.9880245594
0.9884867288
0.9886736694
0.9888816848
0.989124034
0.9893420843
0.9894670437
0.9895839785
0.9894877887
0.9892459649
0.9856129472
0.9887878482
0.9887514589
0.9883136108
0.9886141707
0.9873382646
0.9890747782
)
;
    }
}


// ************************************************************************* //
