/*--------------------------------*- C++ -*----------------------------------*\
  =========                 |
  \\      /  F ield         | OpenFOAM: The Open Source CFD Toolbox
   \\    /   O peration     | Website:  https://openfoam.org
    \\  /    A nd           | Version:  7
     \\/     M anipulation  |
\*---------------------------------------------------------------------------*/
FoamFile
{
    version     2.0;
    format      ascii;
    class       volScalarField;
    location    "0.6";
    object      rho;
}
// * * * * * * * * * * * * * * * * * * * * * * * * * * * * * * * * * * * * * //

dimensions      [1 -3 0 0 0 0 0];

internalField   nonuniform List<scalar> 
555
(
0.9923747313
1.127622281
1.29867944
1.372522686
1.382081036
1.392585572
1.384836248
1.369777554
0.8080756166
0.7926330692
0.8312691574
0.8893987879
0.9178396648
0.9179279853
0.9201101787
0.9223900612
0.9341952503
0.9788126036
1.090182881
1.25287739
1.353069016
1.380950801
1.390999249
1.384961978
1.366648415
0.8101373062
0.791367644
0.8291452635
0.8884626038
0.9208538016
0.9194254586
0.9196933838
0.9206357067
0.9265252967
0.9615201763
1.062369953
1.210269735
1.328237181
1.377287431
1.392270516
1.384874874
1.364266673
0.8126768963
0.7902353412
0.8269779459
0.8872335966
0.923670435
0.9201844932
0.9200357407
0.9187203599
0.9211002659
0.9437512369
1.029321891
1.175445891
1.298522382
1.37286411
1.392086578
1.385553277
1.362107254
0.8158788041
0.7894506779
0.8249922378
0.8860025136
0.9261816139
0.9228281863
0.9193624748
0.9163079952
0.916986999
0.9325953259
0.9958647254
1.146099273
1.291088979
1.368680929
1.391771974
1.386471223
1.360134883
1.381084784
0.8198484272
0.7887958261
0.8227064368
0.8852033034
0.928536241
0.9248166812
0.9189395939
0.9145748618
0.9138840039
0.9233149066
0.9788213767
1.108377968
1.277646742
1.356533181
1.388621876
1.387394344
1.358406981
1.380504208
0.8248023884
0.7871623329
0.8194875893
0.8848693321
0.9308740298
0.9261580744
0.9179956834
0.9128301563
0.9112214479
0.9173739366
0.9581418244
1.080195153
1.244614119
1.345575929
1.383993491
1.387402968
1.356650687
1.379064892
0.8311303901
0.7862509694
0.8166091789
0.8854523534
0.9330545994
0.9272362034
0.9194183108
0.9115031145
0.9087979595
0.9128356765
0.938362707
1.04649089
1.21093318
1.339667883
1.382498805
1.387852199
1.354149785
1.37670118
0.8388975718
0.7867267705
0.8118713952
0.8871347799
0.9358078761
0.9283005993
0.919831775
0.9099299688
0.9062248687
0.9090421297
0.9274093496
1.000587703
1.179977698
1.327494889
1.38207623
1.388842765
1.351217629
1.374717415
0.8484983565
0.7874782783
0.8089918632
0.8920003849
0.9383741305
0.9292457167
0.9202940352
0.9092509448
0.9039477154
0.905916872
0.9207576414
0.9717644757
1.126211487
1.293073763
1.371829117
1.389453536
1.348377655
1.372893184
0.8590290747
0.7884827679
0.8130986972
0.9014288249
0.941759628
0.9305675298
0.920996359
0.9084388977
0.9021091376
0.9038770995
0.9148650567
0.958914142
1.074077929
1.245563324
1.355448464
1.390288829
1.344585304
1.370156815
0.899252976
0.7882515621
0.8156042177
0.9045923395
0.9449490466
0.9323943311
0.92171812
0.9085848681
0.9000379675
0.9016683295
0.9085694855
0.9401066784
1.026388604
1.186161461
1.333352407
1.38913443
1.341991457
1.368881398
1.455512672
1.022730828
0.9728799502
0.9699202896
0.9575677477
0.9352884826
0.9222991239
0.9055877881
0.895352527
0.8942355157
0.8947596182
0.9026040359
0.9405613498
1.054891255
1.233017698
1.303959383
1.331374613
1.370639525
1.757311339
1.546102501
1.316726216
1.150421696
1.008649151
0.9259156959
0.9153178324
0.8987606287
0.8958755842
0.8960185836
0.8944212418
0.8904486156
0.8909649117
0.9105100644
0.9760748332
1.116580344
1.258154108
1.340761641
1.814491769
1.740801622
1.561595954
1.345266649
1.161962976
1.026342034
0.9941389269
0.975523525
0.9434103261
0.9084535879
0.8919150239
0.8853021389
0.8889153509
0.8925895581
0.8990623642
0.9346989137
1.039494538
1.184419229
1.818570198
1.800711752
1.724346054
1.562634862
1.404776412
1.251057993
1.112178994
1.054194887
0.9925181891
0.9278609026
0.9259959879
0.928469067
0.9193036158
0.9056194443
0.8990245133
0.9012020022
0.9205982745
0.9790240197
1.820111005
1.814050942
1.78877698
1.712734264
1.578884528
1.434287562
1.284103948
1.160517791
1.097989093
1.041043077
1.008030188
0.9843907654
0.9494272913
0.91703191
0.9061872141
0.9085180267
0.9102303938
0.913707285
1.825688309
1.819983253
1.809410628
1.779277336
1.703300068
1.588693758
1.466424669
1.322784554
1.235621619
1.16294703
1.069134161
1.017888244
0.9923384738
0.9605007436
0.9504503567
0.9465550012
0.9310374763
0.913573293
1.830769449
1.826222323
1.818760598
1.804769311
1.771056672
1.700007897
1.599123623
1.479926065
1.35424809
1.272853789
1.184449625
1.104883392
1.083377415
1.04721317
0.9970829403
0.9723792673
0.9532493275
0.9253920839
1.83965284
1.835253164
1.827454906
1.818810195
1.804055018
1.767567061
1.698784658
1.606159991
1.490477327
1.388010346
1.312122412
1.223602748
1.153342139
1.107488022
1.054367486
1.010137422
1.002842056
0.981380861
1.837970887
1.830483525
1.826946286
1.82779698
1.821950542
1.802754047
1.760865467
1.693955251
1.606951121
1.50349691
1.412605265
1.327294997
1.24196198
1.18741643
1.148216866
1.098816621
1.063097202
1.031478447
1.802558773
1.816464007
1.828902285
1.83799531
1.835015901
1.821479031
1.796507904
1.754087627
1.689989873
1.608563042
1.515878317
1.430838418
1.349584673
1.278823531
1.222323014
1.165511969
1.114367531
1.084025179
1.738174402
1.80695329
1.839407035
1.837768577
1.830364086
1.82715104
1.816546011
1.792684173
1.749928614
1.686738348
1.60903128
1.526390774
1.442705565
1.369786212
1.299698798
1.238395601
1.187611755
1.153661111
1.582011812
1.723002862
1.817803979
1.816420903
1.818483351
1.826056836
1.825705916
1.815197918
1.789113179
1.744159228
1.684432539
1.611583003
1.532794747
1.456268974
1.388957679
1.323747709
1.264073475
1.213665077
1.447052229
1.583820695
1.746464552
1.791772192
1.82054082
1.83300761
1.831363781
1.827048579
1.81256548
1.784451763
1.739740397
1.681787582
1.613682479
1.537328021
1.467668607
1.402016286
1.336441047
1.279170848
1.405467928
1.460464174
1.585393936
1.717599132
1.808895312
1.82834571
1.827887958
1.827040958
1.823062684
1.809468682
1.780636569
1.736436926
1.679809861
1.61400073
1.543536123
1.47774166
1.414365597
1.350422536
1.400313647
1.410492287
1.462720951
1.590744869
1.727914058
1.78208762
1.813990446
1.829849277
1.827786236
1.822127647
1.806970722
1.777562816
1.733259688
1.678509649
1.614299892
1.547553161
1.487009385
1.424631006
1.400013864
1.401036918
1.412357418
1.469933789
1.587229748
1.713827175
1.802228186
1.822983546
1.826848734
1.82424634
1.817864369
1.802858104
1.773960564
1.730707909
1.676815011
1.615792956
1.551245371
1.494937138
1.400005172
1.400061252
1.401579399
1.414528166
1.470095958
1.594488282
1.726110534
1.780646226
1.81414699
1.824524872
1.821854352
1.815864072
1.801162141
1.771603384
1.728576804
1.675727267
1.615775178
1.556127579
1.400005041
1.400006891
1.400131962
1.401946357
1.416069519
1.475986142
1.588934328
1.712550096
1.800430174
1.816005028
1.820790364
1.820158929
1.814708455
1.798799875
1.768149153
1.72571307
1.673901166
1.616079137
1.40000504
1.400005076
1.400012432
1.400164592
1.402469025
1.417114399
1.475861343
1.594596335
1.722897479
1.776129275
1.812375826
1.820966999
1.819428323
1.813747222
1.796726697
1.765954248
1.722590008
1.671752059
1.40000504
1.400005041
1.400005322
1.400014034
1.400241462
1.402557114
1.418657426
1.479253272
1.589083409
1.716047489
)
;

boundaryField
{
    inlet
    {
        type            calculated;
        value           nonuniform 0();
    }
    outlet
    {
        type            calculated;
        value           nonuniform 0();
    }
    bottom
    {
        type            calculated;
        value           nonuniform 0();
    }
    top
    {
        type            calculated;
        value           nonuniform 0();
    }
    obstacle
    {
        type            calculated;
        value           nonuniform List<scalar> 
11
(
0.8080756166
0.8101373062
0.8126768963
0.8158788041
0.8198484272
0.8248023884
0.8311303901
0.8388975718
0.8484983565
0.8590290747
0.899252976
)
;
    }
    defaultFaces
    {
        type            empty;
    }
    procBoundary27to20
    {
        type            processor;
        value           nonuniform List<scalar> 
16
(
1.826645475
1.820890868
1.817995397
1.818705032
1.822974291
1.83452599
1.832928583
1.838477829
1.837998305
1.777737247
1.636839808
1.465961516
1.404728483
1.400030697
1.400005002
1.400005032
)
;
    }
    procBoundary27to21
    {
        type            processor;
        value           nonuniform List<scalar> 
18
(
1.020601112
1.181842727
1.323526254
1.378304872
1.385682232
1.394147746
1.385579824
1.374358025
0.8064267202
0.794122168
0.8333816044
0.890546333
0.9145215242
0.9163106773
0.9212372371
0.9259490079
0.9426169187
0.9426169187
)
;
    }
    procBoundary27to26
    {
        type            processor;
        value           nonuniform List<scalar> 4(1.40000504 1.40000504 1.40000504 1.40000504);
    }
    procBoundary27to28
    {
        type            processor;
        value           nonuniform List<scalar> 
28
(
1.384471807
1.38234449
1.381339193
1.380799385
1.380799385
1.381657509
1.381128393
1.380238709
1.378749066
1.376086524
1.374851627
1.373723124
1.374072002
1.37690025
1.35472326
1.28356184
1.111456165
0.9445126137
0.9144011019
0.9229106346
0.9586008283
0.9861771366
1.046717671
1.121534303
1.173399587
1.237558211
1.301698258
1.362760554
)
;
    }
    procBoundary27to33
    {
        type            processor;
        value           nonuniform List<scalar> 
19
(
1.79884089
1.813102761
1.820274859
1.818540739
1.811621465
1.793821591
1.762992097
1.719938291
1.40000504
1.40000504
1.400005047
1.400005357
1.400020967
1.40024376
1.403109089
1.418803938
1.479975886
1.79884089
1.597213225
)
;
    }
    procBoundary27to34
    {
        type            processor;
        value           nonuniform List<scalar> 4(1.432675176 1.499597072 1.560660791 1.616483169);
    }
}


// ************************************************************************* //
