/*--------------------------------*- C++ -*----------------------------------*\
  =========                 |
  \\      /  F ield         | OpenFOAM: The Open Source CFD Toolbox
   \\    /   O peration     | Website:  https://openfoam.org
    \\  /    A nd           | Version:  7
     \\/     M anipulation  |
\*---------------------------------------------------------------------------*/
FoamFile
{
    version     2.0;
    format      ascii;
    class       volScalarField;
    location    "4.7";
    object      p;
}
// * * * * * * * * * * * * * * * * * * * * * * * * * * * * * * * * * * * * * //

dimensions      [1 -1 -2 0 0 0 0];

internalField   nonuniform List<scalar> 
555
(
1.003281074
1.001131964
0.9984685562
0.9984269002
0.9985943639
0.9999815448
0.9992004205
0.9980152963
0.9971944623
0.9962323344
0.9968271302
0.9974437541
0.9981630986
0.9990582422
1.00060245
1.001993796
1.002100478
1.001238868
0.9980117464
0.9965281423
0.9965024737
0.9968179557
0.9994398218
0.9972234925
0.9955957565
0.9951207712
0.995621533
0.9976157115
0.999640879
1.001741328
1.003469132
1.004416277
1.003418691
1.001065062
0.9969368595
0.9938788433
0.9942733814
0.9945593071
0.9957342189
0.9967756767
0.9949628088
0.9941473764
0.9943892125
0.9962833203
0.998756601
1.001612771
1.004479535
1.00579363
1.005531371
1.003780471
0.9970601073
0.9920549371
0.992225195
0.9939091647
0.9945213007
0.9960357569
0.9958595277
0.9953263127
0.9951531756
0.995604443
0.997504994
1.000254879
1.003081546
1.005122026
1.005945112
1.005367759
0.9996800098
0.9920329794
0.9916473764
0.993187644
0.9946862562
0.9952944217
0.9969652974
0.9955086619
0.9950235374
0.9956555138
0.9964937312
0.9984638907
1.000959608
1.002740484
1.003841871
1.003510951
0.9992578861
0.9938927994
0.9937415138
0.9945432304
0.9960627617
0.9970949528
0.998078137
0.9993318434
0.9955689158
0.9950389361
0.9954813335
0.9966481743
0.9986506861
1.000932879
1.001392848
0.9997875953
0.996000099
0.9930170773
0.9937682072
0.9957500363
0.9977032807
0.9990241534
0.9997485886
1.001174587
1.002120036
0.9957098667
0.9965360723
0.9978312176
0.9989901808
0.9991146205
0.9967847068
0.9933765602
0.9915776766
0.9925729782
0.9944423035
0.9976425937
0.9999961425
1.00114418
1.001873938
1.003774069
1.004127324
0.9973633667
0.9974526744
0.9970150743
0.9972008527
0.9966079672
0.9941503567
0.9924891876
0.9921949014
0.9931173367
0.9959171346
0.9994104952
1.001238178
1.00224509
1.003306926
1.00547331
1.004278578
0.998790371
0.9984517127
0.9975752144
0.9968330254
0.9952996727
0.994221466
0.9929711915
0.9931590398
0.994944609
0.9980971211
1.000711542
1.001654305
1.003402832
1.004638668
1.004296841
1.002529682
1.001387476
0.9997600585
0.9988580992
0.9964748473
0.9948150216
0.9942643227
0.9944671555
0.9954629373
0.9975566743
1.000031479
1.001084461
1.002350933
1.002552287
1.002774942
1.001831581
0.9990396564
1.003207633
1.001544657
0.9996337627
0.9963910209
0.9941814454
0.9950500731
0.9970501289
0.9985687114
0.9997944291
1.001194481
1.001598162
1.002577935
1.002609857
1.001382004
0.9990142463
0.9956955248
1.00257789
1.000020896
0.9964842748
0.9939823077
0.9936287199
0.9961471824
0.9989687398
1.000655676
1.001606899
1.002029686
1.002529037
1.00269528
1.002096772
0.9995873556
0.9950366067
0.994820663
0.9975913424
0.9969608241
0.9961165937
0.9959726317
0.9958549648
0.9968422011
0.9988884521
1.001200817
1.002480661
1.002728359
1.002952371
1.002366835
1.000814042
0.9958436271
0.9935686152
0.9948439301
0.994568515
0.9945085546
0.9946022401
0.9961397724
0.998051804
0.9982969619
0.9983712946
1.000302641
1.001545975
1.001696752
1.001578818
1.001116062
0.9980791753
0.9952513267
0.9949522823
0.9974933342
0.993061032
0.9930669267
0.9933369967
0.9954196889
0.9981326626
0.9993866462
0.999506912
0.9989289048
0.9994491354
0.9990756136
0.998949568
0.9978961581
0.9942631883
0.995335385
0.9975289018
1.000951848
0.991741215
0.9928482279
0.9933719627
0.9945355753
0.9973594343
1.000115864
1.000552233
0.9984113348
0.9967170564
0.9950932507
0.9936441381
0.9921780767
0.9929098725
0.995502309
0.9999014548
1.005185254
0.9907155076
0.9926028687
0.9935715439
0.9952313332
0.9985495947
1.001480677
1.000916144
0.998321093
0.9961318217
0.9949038126
0.9931986725
0.9915480274
0.9923976808
0.996534562
1.003096641
1.006036879
0.9942921571
0.9981168278
0.9990618952
0.9998832797
1.001308085
1.002358011
0.9998190711
0.9965154235
0.9943858859
0.993327344
0.9926850485
0.9921177683
0.9932525708
0.9991152062
1.00285788
1.004419779
1.000554285
1.004959834
1.004876375
1.004020335
1.00061652
1.000605421
0.9981466409
0.9958056487
0.9947310794
0.9941665772
0.9941415064
0.9946524562
0.9966245432
0.9999758963
1.001147543
1.000803683
0.9996397071
0.9989155432
0.997984061
0.9974486011
0.9975372234
0.9976587548
0.9981767909
0.9986862171
0.9989270674
0.999069176
0.9992320313
0.9994194054
0.9996415947
0.9994784807
0.9991896371
0.9982788028
0.9987049996
0.9985626139
0.9978637108
0.9972792353
0.9974068804
0.9977764149
0.9980042509
0.9980996328
0.998277781
0.9986777475
0.9989571742
0.9990747284
0.9992086914
0.9991935863
0.9990866744
0.9991773185
0.9990895821
0.9985568998
0.9979013714
0.9977722974
0.99783805
0.9979609792
0.9979335841
0.9979063807
0.998130908
0.9986828311
0.9989870384
0.9991441528
0.9992039766
0.9991605614
0.999055144
0.9989779235
0.9982634922
0.9982741153
0.9986968412
0.9994447519
0.9997928235
0.9997369679
0.999427696
0.9988545554
0.9985544174
0.9986504117
0.9987273167
0.9987799089
0.9987770522
0.9986682123
0.9985051748
0.9983776044
0.9978712333
0.998117916
0.9988755653
0.9997727759
1.000435386
1.000611708
1.000148903
0.9994398017
0.9991165601
0.9990852614
0.9990949057
0.9989882582
0.9987151496
0.9983327759
0.9979578812
0.9978229004
0.9974622375
0.9978541893
0.9983824853
0.9990749667
0.9998221306
1.000064948
0.9996834573
0.9992140667
0.9992305003
0.9994847001
0.9997207227
0.999616193
0.9992691347
0.9987264111
0.9981411658
0.9979451297
0.9972189444
0.9971869217
0.996612035
0.9966165201
0.9973431002
0.9983301728
0.9984927437
0.9988251648
0.9991637775
0.9995235769
0.9997902359
0.9999432218
0.9998919233
0.9995510856
0.9990098854
0.9987454792
0.9964437561
0.9948065682
0.9935019326
0.9936737135
0.994837076
0.9966244986
0.9977473999
0.9983652585
0.9988093005
0.9991040499
0.9993898152
0.9998239343
1.000007635
0.9998353703
0.9996734784
0.9996008476
0.993925066
0.9930671541
0.9927227183
0.9935787888
0.9951739821
0.9963488241
0.9972766549
0.9977836348
0.9976986635
0.9976673371
0.997950072
0.9988735085
0.9997994819
0.9998639243
0.9998273683
0.9998061562
0.9905276699
0.993287733
0.9957151406
0.9976062805
0.9980580438
0.9976260961
0.9974565193
0.9968022302
0.9966447327
0.9967417431
0.9972694768
0.9984867165
0.9996096441
0.9998650332
0.9997095938
0.9995759022
0.9922037672
0.9943837116
0.9965898968
0.9980210774
0.9977687691
0.997366501
0.9961890934
0.995929213
0.9965785182
0.9975405011
0.9986204899
0.9996550407
1.000041526
0.9998941342
0.9994846026
0.9992954134
0.9774262664
0.9868312226
0.9920873255
0.9913472958
0.9914270543
0.9941076782
0.9952799562
0.9962305529
0.9977133607
0.9989521881
0.999923229
1.000295114
1.000391623
0.9998441891
0.9993796129
0.9993840106
0.8975288313
0.9511807726
0.9732079463
0.9753134477
0.9850463787
0.9925207579
0.9965577138
0.9973268003
0.9974043092
0.9977870434
0.9981014169
0.9988954145
0.9995201837
0.9995373778
0.9996956813
1.000267314
0.7816691491
0.8918900403
0.9484625787
0.9656795812
0.9913179077
0.9971731693
0.9967479274
0.9964737011
0.9934797756
0.9925438384
0.9938843802
0.9972074384
0.9989794124
0.9995362465
1.000081872
1.000615345
0.6538166209
0.7195269602
0.8238361443
0.9162017094
0.9801144874
0.9842325922
0.9900005637
0.9896527699
0.9872118981
0.9885462282
0.9929412356
0.9979323625
0.9996055056
0.999791047
0.999666918
0.9990430889
)
;

boundaryField
{
    inlet
    {
        type            fixedValue;
        value           nonuniform 0();
    }
    outlet
    {
        type            zeroGradient;
    }
    bottom
    {
        type            slip;
    }
    top
    {
        type            slip;
    }
    obstacle
    {
        type            zeroGradient;
    }
    defaultFaces
    {
        type            empty;
    }
    procBoundary29to23
    {
        type            processor;
        value           nonuniform List<scalar> 
18
(
1.003200603
1.002524789
1.000339268
1.000002352
1.000133408
0.999699713
0.9992065677
0.9987666507
0.9984968905
0.9972387083
0.9957363374
0.9949136762
0.9945312315
0.995009876
0.9968319222
0.9992031746
1.002273478
1.002273478
)
;
    }
    procBoundary29to28
    {
        type            processor;
        value           nonuniform List<scalar> 
34
(
0.9989586729
0.9993752294
0.998142405
0.9966907018
0.9964470741
0.9962013904
0.9958748969
0.9958748969
0.9974546863
0.9996833049
1.001980228
1.002904437
1.002888753
0.999208351
0.9950635108
0.9931158335
0.9908934825
0.9900619185
0.9911401097
0.9962762415
0.9993031792
0.9984589851
0.9989407961
0.9983712637
0.9978373525
0.9962361681
0.9965481578
0.9981058913
0.9938954152
0.9845712195
0.9847838537
0.9704494469
0.8404440158
0.6753903127
)
;
    }
    procBoundary29to34
    {
        type            processor;
        value           uniform 0.6184272931;
    }
    procBoundary29to35
    {
        type            processor;
        value           nonuniform List<scalar> 
16
(
0.6218802204
0.6328477396
0.6846190908
0.7722140343
0.8769365878
0.917275427
0.964858508
0.9810492228
0.9873723822
0.9940280239
0.9989896348
1.000976376
1.000708737
0.9996259353
0.9966006778
0.9959394813
)
;
    }
}


// ************************************************************************* //
