/*--------------------------------*- C++ -*----------------------------------*\
  =========                 |
  \\      /  F ield         | OpenFOAM: The Open Source CFD Toolbox
   \\    /   O peration     | Website:  https://openfoam.org
    \\  /    A nd           | Version:  7
     \\/     M anipulation  |
\*---------------------------------------------------------------------------*/
FoamFile
{
    version     2.0;
    format      ascii;
    class       volScalarField;
    location    "1";
    object      p;
}
// * * * * * * * * * * * * * * * * * * * * * * * * * * * * * * * * * * * * * //

dimensions      [1 -1 -2 0 0 0 0];

internalField   nonuniform List<scalar> 
2223
(
1.367983388
1.311239543
1.269932885
1
1
1
1
1
1
1
1.000000011
1.000000467
1.000055182
1.000853756
1.019235859
1.133805681
1.471318213
1.854597822
2.044162182
2.055202757
2.039555642
2.040179825
2.047715676
2.047612803
2.040642474
2.025509044
2.000727422
1.967565207
1.917499287
1.857117213
1.802779841
1.733006297
1.662101248
1.613147838
1.555653475
1.486153724
1.445304935
1.407498598
1.349303034
1.305067735
1
1
1
1
1
1
1
1
1.000000015
1.000002667
1.00005616
1.00253328
1.025925915
1.19193823
1.577164295
1.947219534
1.980416964
2.016403375
2.047857751
2.058736184
2.053173338
2.045678047
2.037132939
2.020511115
1.993528703
1.950603957
1.894142307
1.841907085
1.777054662
1.706164147
1.656147044
1.600020827
1.529503406
1.485689558
1.447408286
1.388907183
1.34170938
1
1
1
1
1
1
1
1
1
1.000000069
1.00000229
1.000215765
1.003170811
1.047254108
1.254031338
1.671326278
1.905720815
2.03862185
2.061972929
2.056228134
2.048469093
2.048062249
2.045536067
2.035859532
2.014715909
1.978694271
1.928015449
1.879108498
1.820077802
1.750068071
1.698501037
1.643514848
1.57320728
1.526455489
1.487310273
1.428086444
1.377912402
1
1
1
1
1
1
1
1
1
1.000000001
1.000000064
1.000012365
1.000251399
1.007429076
1.066244457
1.33221734
1.749812874
2.00517434
2.018592521
2.029382862
2.04203074
2.053958315
2.053029871
2.0452541
2.028403864
2.000667906
1.958426453
1.913800217
1.860626957
1.792752917
1.739661183
1.685474211
1.615473874
1.566321989
1.526794482
1.467647058
1.414281272
1
1
1
1
1
1
1
1
1
1
1.000000002
1.000000507
1.000013748
1.000805892
1.010721048
1.102660736
1.437017063
1.834745433
1.94519791
2.011530348
2.057033707
2.056432379
2.048626811
2.044419148
2.037329288
2.01825446
1.983737014
1.943587267
1.89665101
1.833081811
1.779404924
1.726573941
1.657483258
1.606050333
1.565976569
1.506918557
1.450756523
1
1
1
1
1
1
1
1
1
1
1
1.000000016
1.000000563
1.000065684
1.001102358
1.021147463
1.15279401
1.513446711
1.848706333
2.039006015
2.053823439
2.040778082
2.039899935
2.045743434
2.044641184
2.032382188
2.004213596
1.968928115
1.928750908
1.871449268
1.817936246
1.766819554
1.699578824
1.64661634
1.606159491
1.547167464
1.487794189
1
1
1
1
1
1
1
1
1
1
1
1
1.000000018
1.000003825
1.00007944
1.002971938
1.031261158
1.219335547
1.600505562
1.957672427
1.984435716
2.016118549
2.045731649
2.058960671
2.053815653
2.040932173
2.01975841
1.991854583
1.958454474
1.907927247
1.855203459
1.80613735
1.741680507
1.687401841
1.646395037
1.587883607
1.525961415
1
1
1
1
1
1
1
1
1
1
1
1
1
1.000000145
1.000004025
1.000287845
1.004211431
1.055887892
1.289636494
1.701788705
1.910358438
2.030955785
2.063751352
2.058650275
2.049254031
2.043282374
2.031685493
2.011091319
1.983686521
1.940752912
1.890907855
1.844591095
1.783699971
1.727849054
1.68559092
1.627370428
1.563388709
1
1
1
1
1
1
1
1
1
1
1
1
1
1.000000003
1.000000136
1.000019401
1.000372052
1.009317465
1.083069504
1.357718791
1.7759485
2.021795358
2.036818407
2.035324599
2.039535911
2.044761589
2.041296863
2.025931015
2.002916288
1.968129414
1.923484685
1.880400363
1.823424667
1.766202852
1.722720828
1.66537997
1.600108424
1
1
1
1
1
1
1
1
1
1
1
1
1
1
1.000000003
1.00000086
1.000022042
1.001057935
1.01405859
1.118222236
1.469713776
1.870659911
1.958696677
2.013121776
2.053153636
2.05018619
2.039800245
2.029274077
2.015176818
1.9902407
1.951760132
1.911829886
1.859569083
1.802463171
1.758304073
1.702417279
1.636576375
1
1
1
1
1
1
1
1
1
1
1
1
1
1
1
1.000000024
1.000000869
1.000084334
1.001477359
1.024981411
1.175213555
1.554481924
1.864612225
2.038496876
2.052159327
2.043063131
2.034778435
2.035077718
2.029171981
2.010985797
1.977324966
1.940457778
1.893900211
1.838537486
1.793720862
1.739559929
1.673450375
1
1
1
1
1
1
1
1
1
1
1
1
1
1
1
1
1.000000024
1.000004751
1.000104763
1.003588789
1.037749261
1.249347853
1.643690949
1.971352033
1.987995184
2.01326317
2.040832188
2.049147314
2.042248599
2.026619058
1.998957388
1.966875247
1.926764922
1.874541116
1.828972482
1.776754194
1.711157586
1
1
1
1
1
1
1
1
1
1
1
1
1
1
1
1
1.000000001
1.000000191
1.000005354
1.000357451
1.005338064
1.067106671
1.327630434
1.732059437
1.909146642
2.025516321
2.057616241
2.052993862
2.044334992
2.035369039
2.016687818
1.989660642
1.954776917
1.906639131
1.861907904
1.812830072
1.748872396
1
1
1
1
1
1
1
1
1
1
1
1
1
1
1
1
1
1.000000005
1.000000197
1.000025706
1.000484635
1.011628838
1.0981527
1.387947813
1.796967073
2.023012548
2.039683105
2.030293892
2.036021272
2.039484868
2.029180438
2.006323189
1.975885585
1.933407118
1.891316972
1.846069038
1.784855793
1
1
1
1
1
1
1
1
1
1
1
1
1
1
1
1
1
1
1.000000005
1.00000125
1.000029232
1.001352469
1.016922749
1.136324466
1.496004369
1.888321741
1.956792797
2.005294636
2.047521127
2.046577502
2.038157767
2.019575265
1.995167025
1.959277985
1.919168446
1.87645188
1.818592518
1
1
1
1
1
1
1
1
1
1
1
1
1
1
1
1
1
1
1
1.000000038
1.000001201
1.000108783
1.001823496
1.030268147
1.189865389
1.583178784
1.874212077
2.038402035
2.050497341
2.041939173
2.035377177
2.029236422
2.015150642
1.986257813
1.947363808
1.906712309
1.853278859
1
1
1
1
1
1
1
1
1
1
1
1
1
1
1
1
1
1
1
1.000000001
1.000000035
1.000006261
1.000134474
1.004455986
1.042804898
1.269238154
1.674130932
1.98211767
1.994761709
2.012992641
2.040984885
2.042162403
2.030055535
2.005641098
1.971790519
1.935845353
1.88820508
1
1
1
1
1
1
1
1
1
1
1
1
1
1
1
1
1
1
1
1
1.000000001
1.000000266
1.000007214
1.000459579
1.006343001
1.076273276
1.362073997
1.75704353
1.918996866
2.024004684
2.052875399
2.047765094
2.035339711
2.016429549
1.991146354
1.960784401
1.918413508
1
1
1
1
1
1
1
1
1
1
1
1
1
1
1
1
1
1
1
1
1
1.000000008
1.000000287
1.000035083
1.0006201
1.014427446
1.114527084
1.42592374
1.826694583
2.027636083
2.042168642
2.027393969
2.025459679
2.023949998
2.008475243
1.981223936
1.943245707
1
1
1
1
1
1
1
1
1
1
1
1
1
1
1
1
1
1
1
1
1
1
1.000000008
1.000001869
1.00004136
1.00184729
1.02090702
1.163538875
1.534763066
1.90424624
1.967306464
2.006668704
2.035487499
2.032271124
2.021018712
1.999784714
1.968205138
1
1
1
1
1
1
1
1
1
1
1
1
1
1
1
1
1
1
1
1
1
1
1
1.000000062
1.000001847
1.000157475
1.002388318
1.038632663
1.216402064
1.614411021
1.891727119
2.03911459
2.04525644
2.033362124
2.025095436
2.015601114
1.995106336
1
1
1
1
1
1
1
1
1
1
1
1
1
1
1
1
1
1
1
1
1
1
1
1.000000001
1.000000054
1.000008902
1.000179489
1.005841933
1.050525552
1.295339564
1.705648755
1.984649884
1.997530011
2.00956776
2.030951854
2.029776685
2.014763294
1
1
1
1
1
1
1
1
1
1
1
1
1
1
1
1
1
1
1
1
1
1
1
1
1.000000001
1.00000035
1.000009346
1.000594134
1.007488165
1.087058942
1.391166546
1.763400211
1.921878021
2.018483696
2.044461868
2.039564099
2.026318294
1
1
1
1
1
1
1
1
1
1
1
1
1
1
1
1
1
1
1
1
1
1
1
1
1
1.00000001
1.000000363
1.000044211
1.000733905
1.017226089
1.125212062
1.452815495
1.84272421
2.027959246
2.034337831
2.022773984
2.019563247
1
1
1
1
1
1
1
1
1
1
1
1
1
1
1
1
1
1
1
1
1
1
1
1
1
1
1.000000011
1.000002443
1.000052081
1.002327389
1.023896604
1.18629983
1.568072968
1.904973978
1.96382591
2.003486897
2.031252647
1
1
1
1
1
1
1
1
1
1
1
1
1
1
1
1
1
1
1
1
1
1
1
1
1
1
1
1.000000093
1.000002678
1.000216673
1.002971768
1.047888564
1.243352306
1.63871339
1.910337319
2.037405147
2.041200216
1
1
1
1
1
1
1
1
1
1
1
1
1
1
1
1
1
1
1
1
1
1
1
1
1
1
1
1.000000002
1.000000093
1.000013413
1.000248065
1.007839564
1.060636986
1.326877414
1.744376779
1.991755592
1.999311437
1
1
1
1
1
1
1
1
1
1
1
1
1
1
1
1
1
1
1
1
1
1
1
1
1
1
1
1
1.000000002
1.000000532
1.000013661
1.00082549
1.009342639
1.103545026
1.428770714
1.782680715
1.917525874
1
1
1
1
1
1
1
1
1
1
1
1
1
1
1
1
1
1
1
1
1
1
1
1
1
1
1
1
1
1.000000013
1.000000499
1.000058871
1.000911431
1.021491531
1.140417872
1.482842478
1.869687274
1
1
1
1
1
1
1
1
1
1
1
1
1
1
1
1
1
1
1
1
1
1
1
1
1
1
1
1
1
1
1.000000014
1.000002965
1.000063337
1.00292087
1.02743995
1.208531473
1.622410284
1
1
1
1
1
1
1
1
1
1
1
1
1
1
1
1
1
1
1
1
1
1
1
1
1
1
1
1
1
1
1
1.000000109
1.000003326
1.000272126
1.003486361
1.057122084
1.272279305
1
1
1
1
1
1
1
1
1
1
1
1
1
1
1
1
1
1
1
1
1
1
1
1
1
1
1
1
1
1
1
1.000000003
1.000000131
1.000017253
1.000306803
1.009935261
1.070092418
1
1
1
1
1
1
1
1
1
1
1
1
1
1
1
1
1
1
1
1
1
1
1
1
1
1
1
1
1
1
1
1
1.000000004
1.000000719
1.000018411
1.001110323
1.01109433
1
1
1
1
1
1
1
1
1
1
1
1
1
1
1
1
1
1
1
1
1
1
1
1
1
1
1
1
1
1
1
1
1
1.000000018
1.000000738
1.000079584
1.00113913
1
1
1
1
1
1
1
1
1
1
1
1
1
1
1
1
1
1
1
1
1
1
1
1
1
1
1
1
1
1
1
1
1
1
1.000000021
1.000003767
1.000080661
1
1
1
1
1
1
1
1
1
1
1
1
1
1
1
1
1
1
1
1
1
1
1
1
1
1
1
1
1
1
1
1
1
1
1.000000001
1.000000122
1.000004273
1
1
1
1
1
1
1
1
1
1
1
1
1
1
1
1
1
1
1
1
1
1
1
1
1
1
1
1
1
1
1
1
1
1
1
1.000000003
1.000000176
1
1
1
1
1
1
1
1
1
1
1
1
1
1
1
1
1
1
1
1
1
1
1
1
1
1
1
1
1
1
1
1
1
1
1
1
1.000000006
1
1
1
1
1
1
1
1
1
1
1
1
1
1
1
1
1
1
1
1
1
1
1
1
1
1
1
1
1
1
1
1
1
1
1
1
1
1
1
1
1
1
1
1
1
1
1
1
1
1
1
1
1
1
1
1
1
1
1
1
1
1
1
1
1
1
1
1
1
1
1
1
1
1
1
1
1
1
1
1
1
1
1
1
1
1
1
1
1
1
1
1
1
1
1
1
1
1
1
1
1
1
1
1
1
1
1
1
1
1
1
1
1
1
1
1
1
1
1
1
1
1
1
1
1
1
1
1
1
1
1
1
1
1
1
1
1
1
1
1
1
1
1
1
1
1
1
1
1
1
1
1
1
1
1
1
1
1
1
1
1
1
1
1
1
1
1
1
1
1
1
1
1
1
1
1
1
1
1
1
1
1
1
1
1
1
1
1
1
1
1
1
1
1
1
1
1
1
1
1
1
1
1
1
1
1
1
1
1
1
1
1
1
1
1
1
1
1
1
1
1
1
1
1
1
1
1
1
1
1
1
1
1
1
1
1
1
1
1
1
1
1
1
1
1
1
1
1
1
1
1
1
1
1
1
1
1
1
1
1
1
1
1
1
1
1
1
1
1
1
1
1
1
1
1
1
1
1
1
1
1
1
1
1
1
1
1
1
1
1
1
1
1
1
1
1
1
1
1
1
1
1
1
1
1
1
1
1
1
1
1
1
1
1
1
1
1
1
1
1
1
1
1
1
1
1
1
1
1
1
1
1
1
1
1
1
1
1
1
1
1
1
1
1
1
1
1
1
1
1
1
1
1
1
1
1
1
1
1
1
1
1
1
1
1
1
1
1
1
1
1
1
1
1
1
1
1
1
1
1
1
1
1
1
1
1
1
1
1
1
1
1
1
1
1
1
1
1
1
1
1
1
1
1
1
1
1
1
1
1
1
1
1
1
1
1
1
1
1
1
1
1
1
1
1
1
1
1
1
1
1
1
1
1
1
1
1
1
1
1
1
1
1
1
1
1
1
1
1
1
1
1
1
1
1
1
1
1
1
1
1
1
1
1
1
1
1
1
1
1
1
1
1
1
1
1
1
1
1
1
1
1
1
1
1
1
1
1
1
1
1
1
1
1
1
1
1
1
1
1
1
1
1
1
1
1
1
1
1
1
1
1
1
1
1
1
1
1
1
1
1
1
1
1
1
1
1
1
1
1
1
1
1
1
1
1
1
1
1
1
1
1
1
1
1
1
1
1
1
1
1
1
1
1
1
1
1
1
1
1
1
1
1
1
1
1
1
1
1
1
1
1
1
1
1
1
1
1
1
1
1
1
1
1
1
1
1
1
1
1
1
1
1
1
1
1
1
1
1
1
1
1
1
1
1
1
1
1
1
1
1
1
1
1
1
1
1
1
1
1
1
1
1
1
1
1
1
1
1
1
1
1
1
1
1
1
1
1
1
1
1
1
1
1
1
1
1
1
1
1
1
1
1
1
1
1
1
1
1
1
1
1
1
1
1
1
1
1
1
1
1
1
1
1
1
1
1
1
1
1
1
1
1
1
1
1
1
1
1
1
1
1
1
1
1
1
1
1
1
1
1
1
1
1
1
1
1
1
1
1
1
1
1
1
1
1
1
1
1
1
1
1
1
1
1
1
1
1
1
1
1
1
1
1
1
1
1
1
1
1
1
1
1
1
1
1
1
1
1
1
1
1
1
1
1
1
1
1
1
1
1
1
1
1
1
1
1
1
1
1
1
1
1
1
1
1
1
1
1
1
1
1
1
1
1
1
1
1
1
1
1
1
1
1
1
1
1
1
1
1
1
1
1
1
1
1
1
1
1
1
1
1
1
1
)
;

boundaryField
{
    inlet
    {
        type            fixedValue;
        value           nonuniform 0();
    }
    outlet
    {
        type            zeroGradient;
    }
    bottom
    {
        type            slip;
    }
    top
    {
        type            slip;
    }
    obstacle
    {
        type            zeroGradient;
    }
    defaultFaces
    {
        type            empty;
    }
    procBoundary33to26
    {
        type            processor;
        value           nonuniform List<scalar> 
25
(
1
1
1
1
1
1
1
1
1
1
1
1
1
1
1
1
1
1
1
1
1
1
1
1
1
)
;
    }
    procBoundary33to27
    {
        type            processor;
        value           nonuniform List<scalar> 
38
(
1.329619471
1.273518714
1.234250159
1
1
1
1
1
1
1.000000002
1.000000332
1.000009575
1.000695084
1.008258378
1.096157359
1.398626322
1.797314689
1.94064088
2.038266426
2.064795889
2.061617539
2.05304772
2.047924832
2.042588673
2.031245769
2.010445101
1.978064947
1.937579999
1.878938423
1.815989041
1.760744876
1.687473846
1.617998601
1.570365617
1.511342436
1.443404157
1.405191613
1.405191613
)
;
    }
    procBoundary33to32
    {
        type            processor;
        value           nonuniform List<scalar> 
35
(
1
1
1
1
1
1
1
1
1
1
1
1
1
1
1
1
1
1
1
1
1
1
1
1
1
1
1
1
1
1
1
1
1
1
1
)
;
    }
    procBoundary33to34
    {
        type            processor;
        value           nonuniform List<scalar> 
61
(
1.242981285
1.276956149
1.311808954
1.346885125
1.381725884
1.417016139
1.452260032
1.488245004
1.523785337
1.558930692
1.594585036
1.630629221
1.66707753
1.703054349
1.737551048
1.770890797
1.805574468
1.840891006
1.872449135
1.900539273
1.929582832
1.960256699
1.983706165
1.999070929
2.011506056
2.025396547
2.029355117
2.008675714
2.016106077
2.018690756
1.871345657
1.644149603
1.357861839
1.126011874
1.027377517
1.00377763
1.000343773
1.000021063
1.000000838
1.00000002
1
1
1
1
1
1
1
1
1
1
1
1
1
1
1
1
1
1
1
1
1
)
;
    }
}


// ************************************************************************* //
