/*--------------------------------*- C++ -*----------------------------------*\
  =========                 |
  \\      /  F ield         | OpenFOAM: The Open Source CFD Toolbox
   \\    /   O peration     | Website:  https://openfoam.org
    \\  /    A nd           | Version:  7
     \\/     M anipulation  |
\*---------------------------------------------------------------------------*/
FoamFile
{
    version     2.0;
    format      ascii;
    class       volVectorField;
    location    "4.3";
    object      U;
}
// * * * * * * * * * * * * * * * * * * * * * * * * * * * * * * * * * * * * * //

dimensions      [0 1 -1 0 0 0 0];

internalField   nonuniform List<vector> 
2222
(
(3 2.228072325e-14 0)
(3 2.155523153e-14 0)
(3 2.038731931e-14 0)
(3 1.911271913e-14 0)
(3 1.874534701e-14 0)
(3 1.811125304e-14 0)
(3 1.781550176e-14 0)
(3 1.655328959e-14 0)
(3 1.509901611e-14 0)
(3 1.223167682e-14 0)
(3 1.151868349e-14 0)
(3 9.981048783e-15 0)
(3 9.556158412e-15 0)
(3 7.879771951e-15 0)
(3 3.842461414e-15 0)
(3 -2.592991343e-15 0)
(3 -3.674922859e-15 0)
(3 -2.849215875e-15 0)
(3 8.616154304e-16 0)
(3 4.159925833e-15 0)
(3 6.19277915e-15 0)
(3 3.735465234e-15 0)
(3 2.824459273e-15 0)
(3 3.1795895e-16 0)
(3 9.92212286e-16 0)
(3 1.449274752e-15 0)
(3 2.841316877e-15 0)
(3 3.097901656e-15 0)
(3 2.163820294e-15 0)
(3 1.988824811e-15 0)
(3 3.183802291e-15 0)
(3 4.232512576e-15 0)
(3 5.555058537e-15 0)
(3 5.90491632e-15 0)
(3 5.944272164e-15 0)
(3 6.19493364e-15 0)
(3 6.964665175e-15 0)
(3 8.380063966e-15 0)
(3 7.773066198e-15 0)
(3 8.275168294e-15 0)
(3 8.375426682e-15 0)
(3 7.704941673e-15 0)
(3 7.773915236e-15 0)
(3 8.700950078e-15 0)
(3 9.179111005e-15 0)
(3 9.277547729e-15 0)
(3 8.900117854e-15 0)
(3 8.326439963e-15 0)
(3 7.923275786e-15 0)
(3 8.350151454e-15 0)
(3 8.02598255e-15 0)
(3 7.782834672e-15 0)
(3 5.685924713e-15 0)
(3 2.619277879e-15 0)
(3 5.6144199e-16 0)
(3 2.604398479e-14 0)
(3 2.636015299e-14 0)
(3 2.421060533e-14 0)
(3 2.379059797e-14 0)
(3 2.301946114e-14 0)
(3 2.223556391e-14 0)
(3 2.051058409e-14 0)
(3 1.867250503e-14 0)
(3 1.713339169e-14 0)
(3 1.49055274e-14 0)
(3 1.20676671e-14 0)
(3 8.939815061e-15 0)
(3 6.678314889e-15 0)
(3 3.709259185e-15 0)
(3 -2.020543873e-16 0)
(3 -3.645738305e-15 0)
(3 -5.111162634e-15 0)
(3 -3.918048068e-15 0)
(3 -3.125268344e-15 0)
(3 -3.18760606e-15 0)
(3 -3.117967848e-15 0)
(3 -2.851730308e-15 0)
(3 -4.172974192e-15 0)
(3 -7.198689307e-15 0)
(3 -7.459558928e-15 0)
(3 -5.743289293e-15 0)
(3 -4.84705944e-15 0)
(3 -4.813417889e-15 0)
(3 -4.507542037e-15 0)
(3 -3.960641332e-15 0)
(3 -2.868924136e-15 0)
(3 -1.462604963e-15 0)
(3 6.745938647e-16 0)
(3 3.614822995e-15 0)
(3 5.615634916e-15 0)
(3 9.51080756e-15 0)
(3 1.319683494e-14 0)
(3 1.587155632e-14 0)
(3 1.634186907e-14 0)
(3 1.684976243e-14 0)
(3 1.787170497e-14 0)
(3 1.653127081e-14 0)
(3 1.478373448e-14 0)
(3 1.361576276e-14 0)
(3 1.286212297e-14 0)
(3 1.207920098e-14 0)
(3 1.253204558e-14 0)
(3 1.457629705e-14 0)
(3 1.613274133e-14 0)
(3 1.445158822e-14 0)
(3 1.151368796e-14 0)
(3 9.381061548e-15 0)
(3 8.31347334e-15 0)
(3 7.763615819e-15 0)
(3 7.243766276e-15 0)
(3 2.53781773e-15 0)
(3 -3.241379839e-15 0)
(3 -4.241066187e-15 0)
(3 -6.006829978e-15 0)
(3 -6.924412368e-15 0)
(3 -6.956650018e-15 0)
(3 -6.664261189e-15 0)
(3 -6.891155431e-15 0)
(3 -6.298158575e-15 0)
(3 -5.533129272e-15 0)
(3 -5.229705122e-15 0)
(3 -4.81587421e-15 0)
(3 1.507968967e-14 0)
(3 1.492523463e-14 0)
(3 1.477144478e-14 0)
(3 1.47228752e-14 0)
(3 1.569700987e-14 0)
(3 1.533773107e-14 0)
(3 1.422698461e-14 0)
(3 1.049415799e-14 0)
(3 8.518250712e-15 0)
(3 8.260860951e-15 0)
(3 6.97963305e-15 0)
(3 6.343309935e-15 0)
(3 3.998047675e-15 0)
(3 2.046947046e-15 0)
(3 -4.918021183e-17 0)
(3 -2.967605835e-15 0)
(3 -5.705540214e-15 0)
(3 -8.173918692e-15 0)
(3 -1.170446981e-14 0)
(3 -1.263832019e-14 0)
(3 -1.295512653e-14 0)
(3 -1.096562637e-14 0)
(3 -1.281177614e-14 0)
(3 -1.068529468e-14 0)
(3 -8.803375532e-15 0)
(3 -7.046212641e-15 0)
(3 -6.441816595e-15 0)
(3 -6.253634257e-15 0)
(3 -5.080572113e-15 0)
(3 -3.898482755e-15 0)
(3 -3.394482996e-15 0)
(3 -3.278634023e-15 0)
(3 -1.109686116e-15 0)
(3 3.423572838e-15 0)
(3 6.803632116e-15 0)
(3 1.184373888e-14 0)
(3 1.776246003e-14 0)
(3 2.045800765e-14 0)
(3 2.065888182e-14 0)
(3 2.171251342e-14 0)
(3 2.200529911e-14 0)
(3 2.313191461e-14 0)
(3 2.259991022e-14 0)
(3 2.190981255e-14 0)
(3 1.926060329e-14 0)
(3 1.858774164e-14 0)
(3 1.872481901e-14 0)
(3 2.032683852e-14 0)
(3 1.933117276e-14 0)
(3 1.845926354e-14 0)
(3 1.582086626e-14 0)
(3 1.301744684e-14 0)
(3 1.253881166e-14 0)
(3 1.227155581e-14 0)
(3 1.219176229e-14 0)
(3 7.714913472e-15 0)
(3 2.557713399e-15 0)
(3 -1.26224062e-15 0)
(3 -3.398422336e-15 0)
(3 -4.423818378e-15 0)
(3 -4.289261501e-15 0)
(3 -4.452480575e-15 0)
(3 -4.568375155e-15 0)
(3 -2.109505723e-15 0)
(3 -7.261430321e-16 0)
(3 4.724839729e-16 0)
(3 2.139313553e-15 0)
(3 1.317994338e-14 0)
(3 1.332671055e-14 0)
(3 1.333662895e-14 0)
(3 1.386536104e-14 0)
(3 1.48784558e-14 0)
(3 1.709393136e-14 0)
(3 1.826308362e-14 0)
(3 1.970418209e-14 0)
(3 2.087794087e-14 0)
(3 1.688459717e-14 0)
(3 1.483611858e-14 0)
(3 1.319280698e-14 0)
(3 1.10750516e-14 0)
(3 6.224702159e-15 0)
(3 3.987169921e-15 0)
(3 1.792144136e-15 0)
(3 -1.309177657e-15 0)
(3 -7.433540741e-15 0)
(3 -1.249832165e-14 0)
(3 -1.409589534e-14 0)
(3 -1.371452663e-14 0)
(3 -1.574024021e-14 0)
(3 -1.649870417e-14 0)
(3 -1.076523947e-14 0)
(3 -1.037192534e-14 0)
(3 -6.586801187e-15 0)
(3 -3.160465193e-15 0)
(3 -2.909227481e-16 0)
(3 4.278702752e-16 0)
(3 9.508230852e-16 0)
(3 -3.198627874e-17 0)
(3 3.224948046e-16 0)
(3 1.440205237e-15 0)
(3 7.961086223e-15 0)
(3 1.078296597e-14 0)
(3 1.221228296e-14 0)
(3 1.486521729e-14 0)
(3 1.772563035e-14 0)
(3 2.012023779e-14 0)
(3 2.127967484e-14 0)
(3 2.357462519e-14 0)
(3 2.537646429e-14 0)
(3 2.616887833e-14 0)
(3 2.479438188e-14 0)
(3 2.433345056e-14 0)
(3 2.638249478e-14 0)
(3 2.685157633e-14 0)
(3 2.438676365e-14 0)
(3 2.229462089e-14 0)
(3 1.930349392e-14 0)
(3 1.801944682e-14 0)
(3 1.718820486e-14 0)
(3 1.566398781e-14 0)
(3 1.429002045e-14 0)
(3 1.309556516e-14 0)
(3 1.016918792e-14 0)
(3 6.741661008e-15 0)
(3 6.142564286e-15 0)
(3 6.048421553e-15 0)
(3 5.752696374e-15 0)
(3 5.732053324e-15 0)
(3 3.520283199e-15 0)
(3 1.860827907e-15 0)
(3 3.255872589e-15 0)
(3 6.928439245e-15 0)
(3 7.617765715e-15 0)
(3 7.749890786e-15 0)
(3 6.562984628e-15 0)
(3 6.759269518e-15 0)
(3 7.52667415e-15 0)
(3 1.040142526e-14 0)
(3 1.259522939e-14 0)
(3 1.423209427e-14 0)
(3 1.485061457e-14 0)
(3 1.515293622e-14 0)
(3 1.297342356e-14 0)
(3 8.750939072e-15 0)
(3 4.213742485e-15 0)
(3 -2.929660008e-17 0)
(3 -7.150750487e-16 0)
(3 9.072954548e-16 0)
(3 2.27904667e-15 0)
(3 3.228208935e-15 0)
(3 3.105995846e-15 0)
(3 1.050493758e-15 0)
(3 -1.606828287e-15 0)
(3 -7.043975666e-15 0)
(3 -1.312430318e-14 0)
(3 -1.444188302e-14 0)
(3 -1.232382832e-14 0)
(3 -9.869120955e-15 0)
(3 -8.502350246e-15 0)
(3 -5.403953518e-15 0)
(3 -1.442836403e-15 0)
(3 1.074958881e-15 0)
(3 4.621696846e-15 0)
(3 5.520360629e-15 0)
(3 7.188514582e-15 0)
(3 8.31785439e-15 0)
(3 1.004554322e-14 0)
(3 1.285107523e-14 0)
(3 1.311149541e-14 0)
(3 1.291714821e-14 0)
(3 1.420745102e-14 0)
(3 1.802441945e-14 0)
(3 2.290565641e-14 0)
(3 2.331653063e-14 0)
(3 2.315750817e-14 0)
(3 2.210270213e-14 0)
(3 2.10604837e-14 0)
(3 1.943539043e-14 0)
(3 1.870970543e-14 0)
(3 2.024959545e-14 0)
(3 2.023006521e-14 0)
(3 1.903591512e-14 0)
(3 1.74573996e-14 0)
(3 1.661795921e-14 0)
(3 1.577221564e-14 0)
(3 1.443894338e-14 0)
(3 1.327378056e-14 0)
(3 1.113912855e-14 0)
(3 1.028973749e-14 0)
(3 1.136159382e-14 0)
(3 1.268045911e-14 0)
(3 1.236577636e-14 0)
(3 1.273278602e-14 0)
(3 1.318000218e-14 0)
(3 1.223627273e-14 0)
(3 1.219254214e-14 0)
(3 1.110441347e-14 0)
(3 1.157839908e-14 0)
(3 1.291720023e-14 0)
(3 1.331788336e-14 0)
(3 1.32936458e-14 0)
(3 3.470482231e-16 0)
(3 -7.685426069e-16 0)
(3 -7.289149131e-16 0)
(3 2.77819667e-15 0)
(3 5.222717891e-15 0)
(3 6.950502273e-15 0)
(3 8.323477006e-15 0)
(3 1.061572992e-14 0)
(3 1.136036484e-14 0)
(3 1.049082791e-14 0)
(3 7.831178978e-15 0)
(3 5.000002318e-15 0)
(3 4.445022299e-15 0)
(3 5.178016229e-15 0)
(3 7.203228462e-15 0)
(3 7.703075753e-15 0)
(3 7.243680434e-15 0)
(3 5.935793072e-15 0)
(3 2.34164711e-15 0)
(3 -1.333294436e-15 0)
(3 -2.455801512e-15 0)
(3 1.130198223e-16 0)
(3 1.017602168e-15 0)
(3 -2.162727163e-15 0)
(3 -3.356826861e-15 0)
(3 -2.542171364e-15 0)
(3 5.600012024e-16 0)
(3 1.572305052e-15 0)
(3 7.17084909e-15 0)
(3 1.266611547e-14 0)
(3 1.686128319e-14 0)
(3 1.799770596e-14 0)
(3 1.911342359e-14 0)
(3 1.639942901e-14 0)
(3 1.505790432e-14 0)
(3 1.485844956e-14 0)
(3 1.550700872e-14 0)
(3 1.561169334e-14 0)
(3 1.717809122e-14 0)
(3 1.789025815e-14 0)
(3 1.815839347e-14 0)
(3 1.805609042e-14 0)
(3 1.782941531e-14 0)
(3 1.807553629e-14 0)
(3 1.764761009e-14 0)
(3 1.674828293e-14 0)
(3 1.663820923e-14 0)
(3 1.654986467e-14 0)
(3 1.528145216e-14 0)
(3 1.410616532e-14 0)
(3 1.244878191e-14 0)
(3 1.03080243e-14 0)
(3 9.119354351e-15 0)
(3 8.887176474e-15 0)
(3 8.791563622e-15 0)
(3 9.382025063e-15 0)
(3 1.026321804e-14 0)
(3 1.189076773e-14 0)
(3 1.336306283e-14 0)
(3 1.509696284e-14 0)
(3 1.584602159e-14 0)
(3 1.737347154e-14 0)
(3 1.676272221e-14 0)
(3 1.755524443e-14 0)
(3 2.151174317e-14 0)
(3 2.274898982e-14 0)
(3 2.001885888e-14 0)
(3 -4.036777344e-15 0)
(3 -4.139936193e-15 0)
(3 -4.238094843e-15 0)
(3 -3.894398287e-15 0)
(3 -3.573885707e-15 0)
(3 -4.97653511e-15 0)
(3 -4.151345267e-15 0)
(3 -1.544283141e-15 0)
(3 -7.185862603e-16 0)
(3 -1.803030239e-18 0)
(3 -2.654773123e-17 0)
(3 1.982940085e-15 0)
(3 3.367711984e-15 0)
(3 4.415656581e-15 0)
(3 5.986206969e-15 0)
(3 7.496140172e-15 0)
(3 9.247934534e-15 0)
(3 8.847542047e-15 0)
(3 8.081625549e-15 0)
(3 7.344852011e-15 0)
(3 6.876853556e-15 0)
(3 7.829796689e-15 0)
(3 7.146125223e-15 0)
(3 6.145424005e-15 0)
(3 6.587722243e-15 0)
(3 6.391377827e-15 0)
(3 5.660723537e-15 0)
(3 6.909306935e-15 0)
(3 8.876543313e-15 0)
(3 1.229091246e-14 0)
(3 1.669828057e-14 0)
(3 1.731200748e-14 0)
(3 1.770020059e-14 0)
(3 1.5625014e-14 0)
(3 1.404992785e-14 0)
(3 1.318672262e-14 0)
(3 1.208604727e-14 0)
(3 1.133719205e-14 0)
(3 1.007860329e-14 0)
(3 1.005330034e-14 0)
(3 1.066016564e-14 0)
(3 1.200737356e-14 0)
(3 1.200579377e-14 0)
(3 1.144902006e-14 0)
(3 1.060139282e-14 0)
(3 1.010220497e-14 0)
(3 8.984841293e-15 0)
(3 8.037117229e-15 0)
(3 7.005224432e-15 0)
(3 4.968173344e-15 0)
(3 3.8308379e-15 0)
(3 3.967843325e-15 0)
(3 3.504532208e-15 0)
(3 3.414954627e-15 0)
(3 2.428183924e-15 0)
(3 2.282031883e-15 0)
(3 3.885149471e-15 0)
(3 5.259296907e-15 0)
(3 8.160574641e-15 0)
(3 1.31447369e-14 0)
(3 1.633927624e-14 0)
(3 1.866939478e-14 0)
(3 1.943537414e-14 0)
(3 2.126096885e-14 0)
(3 2.452931419e-14 0)
(3 2.50650535e-14 0)
(3 2.439693291e-14 0)
(3 -8.877933165e-15 0)
(3 -9.149625201e-15 0)
(3 -8.771493873e-15 0)
(3 -1.018643151e-14 0)
(3 -1.220504823e-14 0)
(3 -1.483488359e-14 0)
(3 -1.588304839e-14 0)
(3 -1.475686863e-14 0)
(3 -1.418729874e-14 0)
(3 -1.318065778e-14 0)
(3 -1.047757128e-14 0)
(3 -5.096049439e-15 0)
(3 -2.234206713e-15 0)
(3 -1.17911942e-15 0)
(3 2.759555763e-16 0)
(3 3.261741904e-15 0)
(3 6.699847465e-15 0)
(3 9.447445292e-15 0)
(3 1.32281103e-14 0)
(3 1.417668958e-14 0)
(3 1.49598917e-14 0)
(3 1.572670371e-14 0)
(3 1.664095496e-14 0)
(3 1.815497597e-14 0)
(3 2.032219431e-14 0)
(3 1.939707409e-14 0)
(3 1.70496595e-14 0)
(3 1.530384717e-14 0)
(3 1.304123138e-14 0)
(3 1.229295619e-14 0)
(3 1.42204347e-14 0)
(3 1.506191912e-14 0)
(3 1.57268006e-14 0)
(3 1.601853355e-14 0)
(3 1.471726426e-14 0)
(3 1.346122006e-14 0)
(3 1.180711301e-14 0)
(3 1.05750617e-14 0)
(3 8.373080816e-15 0)
(3 5.759193339e-15 0)
(3 4.494370028e-15 0)
(3 3.614952523e-15 0)
(3 3.814742217e-15 0)
(3 1.694574632e-15 0)
(3 1.780210662e-18 0)
(3 -9.604505631e-16 0)
(3 -1.474786476e-15 0)
(3 -1.597983442e-15 0)
(3 -1.912335536e-15 0)
(3 -2.443679073e-15 0)
(3 -2.138856439e-15 0)
(3 6.65956332e-16 0)
(3 2.216717005e-15 0)
(3 2.880819098e-15 0)
(3 3.623506708e-15 0)
(3 3.996735551e-15 0)
(3 5.890248092e-15 0)
(3 8.245969562e-15 0)
(3 1.042178023e-14 0)
(3 1.37065902e-14 0)
(3 1.70486345e-14 0)
(3 2.140687871e-14 0)
(3 2.446172229e-14 0)
(3 2.523726433e-14 0)
(3 2.554316059e-14 0)
(3 2.799887855e-14 0)
(3 2.821854274e-14 0)
(3 -1.255088853e-14 0)
(3 -1.381046861e-14 0)
(3 -1.351979711e-14 0)
(3 -1.258939283e-14 0)
(3 -1.411352619e-14 0)
(3 -1.59016573e-14 0)
(3 -1.560122047e-14 0)
(3 -1.506428171e-14 0)
(3 -1.349311059e-14 0)
(3 -1.121639308e-14 0)
(3 -9.171364007e-15 0)
(3 -6.828904254e-15 0)
(3 -5.722393074e-15 0)
(3 -5.027568703e-15 0)
(3 -4.695170545e-15 0)
(3 -3.47764923e-15 0)
(3 -2.170599904e-16 0)
(3 7.571624212e-15 0)
(3 1.614945178e-14 0)
(3 2.273025244e-14 0)
(3 2.433237945e-14 0)
(3 2.421001499e-14 0)
(3 2.580048376e-14 0)
(3 2.669927165e-14 0)
(3 2.602326917e-14 0)
(3 2.420203421e-14 0)
(3 2.394427468e-14 0)
(3 2.376797203e-14 0)
(3 1.986456213e-14 0)
(3 1.67429199e-14 0)
(3 1.64880395e-14 0)
(3 1.620730138e-14 0)
(3 1.629137139e-14 0)
(3 1.520057941e-14 0)
(3 1.532777924e-14 0)
(3 1.407650702e-14 0)
(3 1.087510945e-14 0)
(3 7.524053691e-15 0)
(3 7.11100195e-15 0)
(3 4.776516628e-15 0)
(3 1.459801866e-15 0)
(3 -3.391791468e-15 0)
(3 -5.772196687e-15 0)
(3 -5.638467815e-15 0)
(3 -5.329999732e-15 0)
(3 -5.19901884e-15 0)
(3 -4.658469293e-15 0)
(3 -4.189173699e-15 0)
(3 -2.689565452e-15 0)
(3 7.407305351e-16 0)
(3 2.627701862e-15 0)
(3 1.519612988e-15 0)
(3 1.229669216e-15 0)
(3 2.83433342e-15 0)
(3 6.316746841e-15 0)
(3 8.706094243e-15 0)
(3 1.106921491e-14 0)
(3 1.480376178e-14 0)
(3 1.546154133e-14 0)
(3 1.556195077e-14 0)
(3 1.797786042e-14 0)
(3 2.118428067e-14 0)
(3 2.355669133e-14 0)
(3 2.404054596e-14 0)
(3 2.427329622e-14 0)
(3 2.636503927e-14 0)
(3 2.755389941e-14 0)
(3 -9.637427428e-15 0)
(3 -1.112592157e-14 0)
(3 -1.388740719e-14 0)
(3 -1.477029037e-14 0)
(3 -1.659245375e-14 0)
(3 -1.734588752e-14 0)
(3 -1.753925573e-14 0)
(3 -1.690496511e-14 0)
(3 -1.737469313e-14 0)
(3 -1.851566916e-14 0)
(3 -1.745732618e-14 0)
(3 -1.433326828e-14 0)
(3 -1.032459496e-14 0)
(3 -4.889232173e-15 0)
(3 1.444258915e-16 0)
(3 4.048548823e-15 0)
(3 6.833539013e-15 0)
(3 1.093329105e-14 0)
(3 1.293481661e-14 0)
(3 1.726773056e-14 0)
(3 2.223251941e-14 0)
(3 2.349418824e-14 0)
(3 2.371573117e-14 0)
(3 2.430784535e-14 0)
(3 2.433299718e-14 0)
(3 2.464593096e-14 0)
(3 2.545764295e-14 0)
(3 2.613966324e-14 0)
(3 2.423242174e-14 0)
(3 1.883966459e-14 0)
(3 1.699087254e-14 0)
(3 1.655354895e-14 0)
(3 1.63613175e-14 0)
(3 1.523665904e-14 0)
(3 1.455699241e-14 0)
(3 1.164572694e-14 0)
(3 6.801649715e-15 0)
(3 4.169189911e-15 0)
(3 8.356203727e-16 0)
(3 -1.57337266e-15 0)
(3 -3.146138116e-15 0)
(3 -4.845113455e-15 0)
(3 -6.122300127e-15 0)
(3 -5.165741537e-15 0)
(3 -2.915379333e-15 0)
(3 -3.090890979e-15 0)
(3 -3.887639731e-15 0)
(3 -4.534733069e-15 0)
(3 -3.275542344e-15 0)
(3 -7.47302425e-16 0)
(3 -4.248876185e-16 0)
(3 -8.39783731e-16 0)
(3 -1.301534212e-15 0)
(3 -1.288643702e-16 0)
(3 2.562863806e-15 0)
(3 4.67938705e-15 0)
(3 7.783771045e-15 0)
(3 1.190815467e-14 0)
(3 1.290556273e-14 0)
(3 1.51670157e-14 0)
(3 1.882933393e-14 0)
(3 2.006086771e-14 0)
(3 2.145004069e-14 0)
(3 2.197020448e-14 0)
(3 2.344873461e-14 0)
(3 2.337283295e-14 0)
(3 2.352679761e-14 0)
(3 -4.222904923e-15 0)
(3 -7.405382945e-15 0)
(3 -1.282503003e-14 0)
(3 -1.443053235e-14 0)
(3 -1.463914832e-14 0)
(3 -1.357042507e-14 0)
(3 -1.11552412e-14 0)
(3 -1.000953956e-14 0)
(3 -1.111177662e-14 0)
(3 -1.331115254e-14 0)
(3 -1.403569946e-14 0)
(3 -1.363420191e-14 0)
(3 -9.340241684e-15 0)
(3 -8.686386625e-15 0)
(3 -7.687112793e-15 0)
(3 -4.219076417e-15 0)
(3 -3.519343878e-15 0)
(3 -2.223051501e-15 0)
(3 2.096233e-15 0)
(3 7.158945828e-15 0)
(3 1.256533435e-14 0)
(3 1.274691301e-14 0)
(3 1.467604963e-14 0)
(3 1.59878519e-14 0)
(3 1.852035186e-14 0)
(3 1.939428316e-14 0)
(3 2.062930159e-14 0)
(3 2.06172316e-14 0)
(3 1.98970561e-14 0)
(3 1.989735845e-14 0)
(3 1.809674954e-14 0)
(3 1.888416202e-14 0)
(3 1.812770806e-14 0)
(3 1.593583118e-14 0)
(3 1.229819465e-14 0)
(3 8.930133809e-15 0)
(3 8.063253442e-15 0)
(3 7.428050677e-15 0)
(3 4.145030447e-15 0)
(3 2.819180395e-16 0)
(3 -1.783819065e-15 0)
(3 -1.792771666e-15 0)
(3 -1.923560227e-15 0)
(3 -9.016910182e-16 0)
(3 7.99003607e-16 0)
(3 1.118121851e-15 0)
(3 1.264629284e-15 0)
(3 1.193423452e-15 0)
(3 1.553190668e-15 0)
(3 8.071480513e-16 0)
(3 -3.028973858e-16 0)
(3 -8.270933465e-16 0)
(3 -1.770911151e-15 0)
(3 -2.138723169e-15 0)
(3 -1.963397348e-15 0)
(3 -3.766350236e-16 0)
(3 3.044212833e-15 0)
(3 8.295099767e-15 0)
(3 1.149522668e-14 0)
(3 1.35745722e-14 0)
(3 1.880298759e-14 0)
(3 2.088441223e-14 0)
(3 2.123660913e-14 0)
(3 2.280831341e-14 0)
(3 2.089717539e-14 0)
(3 1.978647968e-14 0)
(3 1.916069583e-14 0)
(3 3.813804229e-16 0)
(3 -1.691920509e-16 0)
(3 -4.506165663e-15 0)
(3 -8.489451704e-15 0)
(3 -8.041163485e-15 0)
(3 -4.90934e-15 0)
(3 -3.196695029e-15 0)
(3 -2.468586431e-15 0)
(3 -2.006533129e-15 0)
(3 -2.217924945e-15 0)
(3 -3.171304039e-15 0)
(3 -3.512527339e-15 0)
(3 -2.732156783e-15 0)
(3 -2.703178187e-15 0)
(3 -3.299458038e-15 0)
(3 -3.195046642e-15 0)
(3 -3.109573809e-15 0)
(3 -2.576001872e-15 0)
(3 -2.849646286e-15 0)
(3 -2.498998533e-15 0)
(3 2.885199897e-15 0)
(3 3.777091592e-15 0)
(3 4.925272821e-15 0)
(3 5.344602576e-15 0)
(3 3.989553042e-15 0)
(3 4.19220316e-15 0)
(3 8.580789027e-15 0)
(3 1.085147203e-14 0)
(3 1.538740421e-14 0)
(3 1.682971851e-14 0)
(3 1.708285298e-14 0)
(3 1.656854379e-14 0)
(3 1.589442275e-14 0)
(3 1.377812187e-14 0)
(3 1.04137835e-14 0)
(3 9.433831458e-15 0)
(3 9.903420384e-15 0)
(3 9.882595009e-15 0)
(3 8.631611119e-15 0)
(3 6.441567623e-15 0)
(3 3.606404542e-15 0)
(3 2.623966108e-15 0)
(3 2.438940959e-15 0)
(3 2.095943852e-15 0)
(3 1.469350235e-15 0)
(3 2.56108167e-15 0)
(3 4.623610141e-15 0)
(3 5.425751853e-15 0)
(3 4.480495979e-15 0)
(3 1.301650735e-15 0)
(3 2.69266751e-16 0)
(3 1.408514385e-16 0)
(3 -2.605860348e-16 0)
(3 -1.168657202e-16 0)
(3 5.206273146e-16 0)
(3 1.75874157e-15 0)
(3 3.595907669e-15 0)
(3 6.825210287e-15 0)
(3 9.603511739e-15 0)
(3 1.24090003e-14 0)
(3 1.507194516e-14 0)
(3 1.713873765e-14 0)
(3 1.563972951e-14 0)
(3 1.471727119e-14 0)
(3 1.291491357e-14 0)
(3 1.5930705e-14 0)
(3 1.657461365e-14 0)
(3 6.651566726e-15 0)
(3 6.714506439e-15 0)
(3 4.304109382e-15 0)
(3 2.934756824e-15 0)
(3 3.780165983e-15 0)
(3 4.095137397e-15 0)
(3 4.100532166e-15 0)
(3 4.392580812e-15 0)
(3 4.722470953e-15 0)
(3 5.336122072e-15 0)
(3 6.167341954e-15 0)
(3 6.379535126e-15 0)
(3 2.060039217e-15 0)
(3 1.830158551e-15 0)
(3 1.965904543e-15 0)
(3 4.758293298e-16 0)
(3 -4.347956167e-16 0)
(3 -3.14406678e-15 0)
(3 -5.777671876e-15 0)
(3 -6.574512868e-15 0)
(3 -5.678314748e-15 0)
(3 -2.162714031e-15 0)
(3 -1.986383558e-15 0)
(3 -3.684703943e-15 0)
(3 -4.121381618e-15 0)
(3 -2.061645993e-15 0)
(3 -2.86669412e-16 0)
(3 1.972287003e-15 0)
(3 5.208571086e-15 0)
(3 8.281838586e-15 0)
(3 1.15459468e-14 0)
(3 1.213853693e-14 0)
(3 1.095699179e-14 0)
(3 8.102120035e-15 0)
(3 6.607129235e-15 0)
(3 6.40077116e-15 0)
(3 6.793449028e-15 0)
(3 7.745883463e-15 0)
(3 7.74727123e-15 0)
(3 6.194075173e-15 0)
(3 5.324809465e-15 0)
(3 3.242998138e-15 0)
(3 2.004198244e-15 0)
(3 1.06692804e-15 0)
(3 4.124039714e-17 0)
(3 4.298114752e-16 0)
(3 1.311417142e-15 0)
(3 2.407539923e-15 0)
(3 2.413581992e-15 0)
(3 2.423775871e-15 0)
(3 3.863222498e-15 0)
(3 4.262139747e-15 0)
(3 5.684650352e-15 0)
(3 5.720772497e-15 0)
(3 6.48821465e-15 0)
(3 6.936032352e-15 0)
(3 6.36395185e-15 0)
(3 6.683972995e-15 0)
(3 8.251680095e-15 0)
(3 9.976974096e-15 0)
(3 1.008337069e-14 0)
(3 8.456874349e-15 0)
(3 9.606562543e-15 0)
(3 1.013525159e-14 0)
(3 9.821946724e-15 0)
(3 1.19885346e-14 0)
(3 1.345371795e-14 0)
(3 1.139529952e-14 0)
(3 1.155232558e-14 0)
(3 1.127475115e-14 0)
(3 1.34248706e-14 0)
(3 1.471119752e-14 0)
(3 1.195476974e-14 0)
(3 8.862716425e-15 0)
(3 8.457904291e-15 0)
(3 8.949246647e-15 0)
(3 1.291317189e-14 0)
(3 1.290209525e-14 0)
(3 1.055809242e-14 0)
(3 7.669975269e-15 0)
(3 5.626484771e-15 0)
(3 4.200863573e-15 0)
(3 1.231118824e-15 0)
(3 -1.729745644e-15 0)
(3 -3.235022428e-15 0)
(3 -3.179249185e-15 0)
(3 -2.810087683e-15 0)
(3 -2.288655559e-15 0)
(3 -2.544841129e-15 0)
(3 -2.817702431e-15 0)
(3 -3.486189379e-15 0)
(3 -3.680179137e-15 0)
(3 -4.680226192e-15 0)
(3 -5.22602022e-15 0)
(3 -4.926526831e-15 0)
(3 -3.767308781e-15 0)
(3 -2.801675033e-15 0)
(3 9.318699097e-16 0)
(3 3.713304878e-15 0)
(3 4.056234573e-15 0)
(3 4.379923327e-15 0)
(3 5.618038255e-15 0)
(3 6.730863414e-15 0)
(3 7.788969237e-15 0)
(3 9.221961866e-15 0)
(3 9.147803705e-15 0)
(3 8.977767225e-15 0)
(3 7.907612948e-15 0)
(3 6.917027886e-15 0)
(3 5.442977613e-15 0)
(3 3.828834168e-15 0)
(3 1.594541159e-15 0)
(3 -9.417488044e-16 0)
(3 -8.880822847e-16 0)
(3 1.303584827e-15 0)
(3 5.36322376e-15 0)
(3 7.151626536e-15 0)
(3 8.010207381e-15 0)
(3 8.676007647e-15 0)
(3 8.224608964e-15 0)
(3 7.35815454e-15 0)
(3 6.82297711e-15 0)
(3 6.351882226e-15 0)
(3 5.942019449e-15 0)
(3 6.950961465e-15 0)
(3 7.89049407e-15 0)
(3 6.854168813e-15 0)
(3 3.6593456e-15 0)
(3 3.332858043e-15 0)
(3 1.237005663e-15 0)
(3 8.318901802e-16 0)
(3 5.839435979e-17 0)
(3 7.934937095e-16 0)
(3 3.01013963e-16 0)
(3 1.634701066e-14 0)
(3 1.740062968e-14 0)
(3 1.825813369e-14 0)
(3 1.828639838e-14 0)
(3 1.478104383e-14 0)
(3 1.267695906e-14 0)
(3 1.134055896e-14 0)
(3 1.391825889e-14 0)
(3 1.326688966e-14 0)
(3 1.2661736e-14 0)
(3 1.011940871e-14 0)
(3 1.01717881e-14 0)
(3 8.812053377e-15 0)
(3 8.797534559e-15 0)
(3 6.476250618e-15 0)
(3 5.778273257e-15 0)
(3 6.124356169e-15 0)
(3 5.446521144e-15 0)
(3 3.152288423e-15 0)
(3 -1.224108092e-16 0)
(3 -2.691740419e-15 0)
(3 -4.541473046e-15 0)
(3 -3.532637481e-15 0)
(3 -8.748525211e-16 0)
(3 -1.18001683e-15 0)
(3 -1.967439254e-15 0)
(3 -2.921642249e-15 0)
(3 -3.043849694e-15 0)
(3 -4.797008827e-15 0)
(3 -5.867363251e-15 0)
(3 -5.849225503e-15 0)
(3 -4.879658036e-15 0)
(3 -1.3224277e-15 0)
(3 1.864601852e-15 0)
(3 3.583312454e-15 0)
(3 4.866134228e-15 0)
(3 5.502629166e-15 0)
(3 8.761095736e-15 0)
(3 1.111102631e-14 0)
(3 1.152460291e-14 0)
(3 1.129110409e-14 0)
(3 1.07984433e-14 0)
(3 9.549805576e-15 0)
(3 8.446233647e-15 0)
(3 6.238673214e-15 0)
(3 3.807903925e-15 0)
(3 2.522275693e-15 0)
(3 1.988174404e-15 0)
(3 2.470635915e-15 0)
(3 3.854257507e-15 0)
(3 4.163041253e-15 0)
(3 2.924413267e-15 0)
(3 2.750271665e-15 0)
(3 4.02249961e-15 0)
(3 4.577451594e-15 0)
(3 4.543053694e-15 0)
(3 4.257360329e-15 0)
(3 2.472452441e-15 0)
(3 7.317323917e-16 0)
(3 1.079280927e-15 0)
(3 7.832415048e-16 0)
(3 -1.635284922e-15 0)
(3 -2.967250838e-15 0)
(3 -4.309074153e-15 0)
(3 -6.301663654e-15 0)
(3 -8.938394809e-15 0)
(3 -1.120310696e-14 0)
(3 1.764719976e-14 0)
(3 1.920165813e-14 0)
(3 1.960083934e-14 0)
(3 1.870914838e-14 0)
(3 1.624005118e-14 0)
(3 1.499422517e-14 0)
(3 1.614354511e-14 0)
(3 1.807003502e-14 0)
(3 1.822848775e-14 0)
(3 1.650155899e-14 0)
(3 1.311569745e-14 0)
(3 1.134859021e-14 0)
(3 1.162080734e-14 0)
(3 1.233917136e-14 0)
(3 1.350679736e-14 0)
(3 1.399741124e-14 0)
(3 1.209461279e-14 0)
(3 1.199499989e-14 0)
(3 9.878104727e-15 0)
(3 5.349820385e-15 0)
(3 1.855766904e-15 0)
(3 -2.216138197e-15 0)
(3 -2.839210695e-15 0)
(3 -2.402810191e-15 0)
(3 -1.132302212e-16 0)
(3 2.011676054e-15 0)
(3 1.795904471e-15 0)
(3 3.443304516e-16 0)
(3 -1.438466134e-15 0)
(3 -4.217122615e-15 0)
(3 -6.064855585e-15 0)
(3 -6.04946839e-15 0)
(3 -5.270301397e-15 0)
(3 -3.962290597e-15 0)
(3 6.50694372e-16 0)
(3 2.401238729e-15 0)
(3 2.58119245e-15 0)
(3 3.897669311e-15 0)
(3 4.776762985e-15 0)
(3 5.75419149e-15 0)
(3 6.338194243e-15 0)
(3 6.083283575e-15 0)
(3 6.194596846e-15 0)
(3 6.120753008e-15 0)
(3 5.642674675e-15 0)
(3 4.910845376e-15 0)
(3 3.135466183e-15 0)
(3 5.135974344e-16 0)
(3 -2.844543085e-16 0)
(3 1.350044106e-15 0)
(3 3.514625065e-15 0)
(3 3.867343597e-15 0)
(3 2.949989395e-15 0)
(3 2.331749264e-15 0)
(3 2.712509978e-15 0)
(3 2.537494033e-15 0)
(3 1.334243929e-15 0)
(3 -3.872189579e-15 0)
(3 -8.844893596e-15 0)
(3 -1.112799847e-14 0)
(3 -8.388186197e-15 0)
(3 -8.781913501e-15 0)
(3 -9.966444915e-15 0)
(3 -1.13129481e-14 0)
(3 -1.161900302e-14 0)
(3 -1.194237138e-14 0)
(3 -1.532236755e-14 0)
(3 1.165122149e-14 0)
(3 1.215861641e-14 0)
(3 1.231599893e-14 0)
(3 1.227032773e-14 0)
(3 1.499000444e-14 0)
(3 1.69595762e-14 0)
(3 1.845623838e-14 0)
(3 1.902788281e-14 0)
(3 2.002207038e-14 0)
(3 2.047453615e-14 0)
(3 2.024116455e-14 0)
(3 1.990392768e-14 0)
(3 2.030226853e-14 0)
(3 2.025673779e-14 0)
(3 2.087506295e-14 0)
(3 2.014584338e-14 0)
(3 1.701188497e-14 0)
(3 1.678894887e-14 0)
(3 1.376252196e-14 0)
(3 1.353127319e-14 0)
(3 1.043101952e-14 0)
(3 8.526469406e-15 0)
(3 4.945412998e-15 0)
(3 2.266639454e-15 0)
(3 3.49803629e-16 0)
(3 -9.270995754e-16 0)
(3 -2.025282903e-15 0)
(3 -3.80596924e-15 0)
(3 -5.537093056e-15 0)
(3 -6.744842106e-15 0)
(3 -7.298519052e-15 0)
(3 -7.819434637e-15 0)
(3 -7.360904145e-15 0)
(3 -5.833927675e-15 0)
(3 -4.813784414e-16 0)
(3 1.101590785e-15 0)
(3 2.373110313e-15 0)
(3 3.198592177e-16 0)
(3 4.342187331e-16 0)
(3 1.284234592e-15 0)
(3 3.205765033e-15 0)
(3 3.94456788e-15 0)
(3 3.506363315e-15 0)
(3 4.499350949e-15 0)
(3 5.267942877e-15 0)
(3 5.277142703e-15 0)
(3 4.823401677e-15 0)
(3 2.781626487e-15 0)
(3 6.066080041e-16 0)
(3 -6.067753815e-16 0)
(3 -8.936644027e-16 0)
(3 -1.802547826e-16 0)
(3 -8.232683116e-17 0)
(3 1.637503064e-16 0)
(3 3.969005371e-16 0)
(3 -3.155590713e-16 0)
(3 -5.284223678e-15 0)
(3 -7.995050556e-15 0)
(3 -1.119911187e-14 0)
(3 -1.563773891e-14 0)
(3 -1.562164462e-14 0)
(3 -1.529893838e-14 0)
(3 -1.836454667e-14 0)
(3 -1.915156007e-14 0)
(3 -1.89568445e-14 0)
(3 -1.823309572e-14 0)
(3 -1.963629792e-14 0)
(3 -5.545608333e-16 0)
(3 9.896985737e-16 0)
(3 3.678803408e-15 0)
(3 5.76019195e-15 0)
(3 7.753211276e-15 0)
(3 1.182462306e-14 0)
(3 1.34431954e-14 0)
(3 1.501096285e-14 0)
(3 1.559459461e-14 0)
(3 1.654122543e-14 0)
(3 1.826220916e-14 0)
(3 2.214379595e-14 0)
(3 2.311662314e-14 0)
(3 2.256518327e-14 0)
(3 2.097114893e-14 0)
(3 2.002141297e-14 0)
(3 1.97929995e-14 0)
(3 1.887565092e-14 0)
(3 1.796861469e-14 0)
(3 1.927059599e-14 0)
(3 1.798837533e-14 0)
(3 1.610482798e-14 0)
(3 1.368910556e-14 0)
(3 9.693836125e-15 0)
(3 4.351474747e-15 0)
(3 -6.837586676e-16 0)
(3 -2.32496634e-15 0)
(3 -3.115508043e-15 0)
(3 -4.370277455e-15 0)
(3 -4.878323337e-15 0)
(3 -4.400357913e-15 0)
(3 -4.406387705e-15 0)
(3 -5.696228738e-15 0)
(3 -6.519617006e-15 0)
(3 -6.316419602e-15 0)
(3 -5.118568722e-15 0)
(3 -4.009580736e-15 0)
(3 -3.571365677e-15 0)
(3 -2.228305702e-15 0)
(3 4.335000032e-16 0)
(3 1.135941089e-15 0)
(3 3.214032365e-15 0)
(3 4.13323377e-15 0)
(3 5.422808549e-15 0)
(3 6.496771936e-15 0)
(3 7.68563782e-15 0)
(3 8.23703071e-15 0)
(3 6.780230543e-15 0)
(3 4.399070685e-15 0)
(3 9.982634292e-16 0)
(3 -2.885207076e-15 0)
(3 -4.51897852e-15 0)
(3 -5.311404131e-15 0)
(3 -6.370440303e-15 0)
(3 -6.61617764e-15 0)
(3 -6.481554225e-15 0)
(3 -1.037794721e-14 0)
(3 -1.700150032e-14 0)
(3 -2.079750901e-14 0)
(3 -2.283708706e-14 0)
(3 -2.361976359e-14 0)
(3 -2.289800374e-14 0)
(3 -2.175254021e-14 0)
(3 -2.157100327e-14 0)
(3 -2.213594019e-14 0)
(3 -2.328786094e-14 0)
(3 -2.343149103e-14 0)
(3 -6.805352029e-15 0)
(3 -3.977381007e-15 0)
(3 1.278928485e-15 0)
(3 3.5270161e-15 0)
(3 3.36606593e-15 0)
(3 3.310942823e-15 0)
(3 4.446211804e-15 0)
(3 7.284639424e-15 0)
(3 8.230418708e-15 0)
(3 1.056392436e-14 0)
(3 1.325030157e-14 0)
(3 1.438254964e-14 0)
(3 1.588485178e-14 0)
(3 1.796583678e-14 0)
(3 1.78701287e-14 0)
(3 1.735517798e-14 0)
(3 1.87510417e-14 0)
(3 1.974973574e-14 0)
(3 1.882555558e-14 0)
(3 1.657364505e-14 0)
(3 1.484357383e-14 0)
(3 1.405962273e-14 0)
(3 1.093316062e-14 0)
(3 7.373016604e-15 0)
(3 2.303576109e-15 0)
(3 -6.007166058e-16 0)
(3 -1.415002495e-15 0)
(3 4.338300457e-16 0)
(3 1.942169545e-15 0)
(3 -1.270613663e-16 0)
(3 -2.128049805e-15 0)
(3 -3.755006128e-15 0)
(3 -7.244661887e-15 0)
(3 -8.563892187e-15 0)
(3 -6.271729854e-15 0)
(3 -5.569759862e-15 0)
(3 -3.814430071e-15 0)
(3 -3.791826952e-15 0)
(3 -4.192614101e-15 0)
(3 -4.408082038e-15 0)
(3 -2.951045137e-15 0)
(3 -1.034940683e-15 0)
(3 1.249530366e-15 0)
(3 2.564772849e-15 0)
(3 3.95225307e-15 0)
(3 5.312551506e-15 0)
(3 7.810019007e-15 0)
(3 9.59327043e-15 0)
(3 8.123135932e-15 0)
(3 2.580428146e-15 0)
(3 -1.424573687e-15 0)
(3 -4.05879695e-15 0)
(3 -8.110695246e-15 0)
(3 -1.034869667e-14 0)
(3 -1.104311228e-14 0)
(3 -8.244725248e-15 0)
(3 -7.112691898e-15 0)
(3 -1.551725923e-14 0)
(3 -2.376184804e-14 0)
(3 -2.587382086e-14 0)
(3 -2.79833667e-14 0)
(3 -2.802409886e-14 0)
(3 -2.768303855e-14 0)
(3 -2.721890497e-14 0)
(3 -2.728444143e-14 0)
(3 -2.726176877e-14 0)
(3 -2.814949882e-14 0)
(3 -1.079838182e-14 0)
(3 -9.56642899e-15 0)
(3 -7.159946356e-15 0)
(3 -4.874200167e-15 0)
(3 -2.475666822e-15 0)
(3 -6.27440611e-16 0)
(3 2.90744749e-16 0)
(3 2.428766542e-15 0)
(3 2.094285021e-15 0)
(3 3.610972836e-15 0)
(3 4.030819756e-15 0)
(3 5.836158949e-15 0)
(3 7.933641819e-15 0)
(3 8.966073636e-15 0)
(3 1.020587726e-14 0)
(3 1.091122917e-14 0)
(3 1.193118342e-14 0)
(3 1.616978257e-14 0)
(3 1.854060519e-14 0)
(3 1.926678025e-14 0)
(3 1.928914587e-14 0)
(3 1.741408341e-14 0)
(3 1.305408021e-14 0)
(3 8.446798212e-15 0)
(3 1.075568948e-15 0)
(3 -1.94246819e-16 0)
(3 -1.333798515e-15 0)
(3 3.997684502e-16 0)
(3 2.78876648e-15 0)
(3 2.850543286e-15 0)
(3 1.415895072e-15 0)
(3 -5.657062545e-17 0)
(3 -1.191657802e-15 0)
(3 -3.26481831e-15 0)
(3 -4.179985347e-15 0)
(3 -5.052780752e-15 0)
(3 -4.842605339e-15 0)
(3 -5.12757954e-15 0)
(3 -6.426712143e-15 0)
(3 -6.847535607e-15 0)
(3 -5.093003289e-15 0)
(3 -4.701142237e-15 0)
(3 -4.193317629e-15 0)
(3 -2.75680275e-15 0)
(3 -1.306936174e-15 0)
(3 -2.604943133e-16 0)
(3 1.819265729e-15 0)
(3 3.115094569e-15 0)
(3 3.539296844e-15 0)
(3 2.92613997e-15 0)
(3 -3.285718079e-16 0)
(3 -1.865047663e-15 0)
(3 -4.95361918e-15 0)
(3 -1.006597064e-14 0)
(3 -1.310682465e-14 0)
(3 -1.369114806e-14 0)
(3 -1.391926987e-14 0)
(3 -1.734828386e-14 0)
(3 -2.297693189e-14 0)