/*--------------------------------*- C++ -*----------------------------------*\
  =========                 |
  \\      /  F ield         | OpenFOAM: The Open Source CFD Toolbox
   \\    /   O peration     | Website:  https://openfoam.org
    \\  /    A nd           | Version:  7
     \\/     M anipulation  |
\*---------------------------------------------------------------------------*/
FoamFile
{
    version     2.0;
    format      ascii;
    class       volVectorField;
    location    "3.2";
    object      U;
}
// * * * * * * * * * * * * * * * * * * * * * * * * * * * * * * * * * * * * * //

dimensions      [0 1 -1 0 0 0 0];

internalField   nonuniform List<vector> 
2222
(
(3.201968649 -0.005623329735 0)
(3.201057814 -0.0009806931884 0)
(3.199494602 0.001973459571 0)
(3.198678647 0.001908879936 0)
(3.198368469 -0.0006743047447 0)
(3.199118523 -0.0001406711621 0)
(3.199901168 -0.0001653779118 0)
(3.200243649 -0.001392070581 0)
(3.199840456 -0.002518653603 0)
(3.199075372 -0.001775521328 0)
(3.198385312 -0.001268159376 0)
(3.198559414 -0.0003811199239 0)
(3.199229745 0.000156641859 0)
(3.199819092 0.0003552660434 0)
(3.199630581 0.001059443468 0)
(3.199071661 0.001597629407 0)
(3.198753221 0.002146910261 0)
(3.198767253 0.001986725692 0)
(3.214831479 -0.1329246827 0)
(3.263456393 -0.1388129904 0)
(3.203498219 -0.004756723841 0)
(3.19553023 -0.002393538397 0)
(3.197184038 0.001174205301 0)
(3.199696883 0.005254337269 0)
(3.200383485 0.00435533546 0)
(3.199836509 0.000780987813 0)
(3.199179456 -0.003677385023 0)
(3.198944807 -0.001295079345 0)
(3.198933328 0.001892606527 0)
(3.199475796 0.002421876568 0)
(3.199779566 0.0002103845502 0)
(3.199429441 -0.001850085623 0)
(3.198700066 -0.002292314756 0)
(3.198039192 -0.000664386641 0)
(3.198328402 0.0007637651464 0)
(3.199041746 0.001678305742 0)
(3.199518591 0.001783078133 0)
(3.199407091 0.0007680131777 0)
(3.198850268 -0.001095998068 0)
(3.198493449 -0.0005131281248 0)
(3.198386745 0.000514927262 0)
(3.279005192 -0.1890464838 0)
(3.288367315 -0.2009708884 0)
(3.212336141 -0.03564366381 0)
(3.191408376 -0.002757098448 0)
(3.193096849 0.002539881156 0)
(3.196765804 0.01051155494 0)
(3.199405388 0.004252733548 0)
(3.200098943 -0.004405798954 0)
(3.199888988 -0.00498163873 0)
(3.199145525 -0.0005166517976 0)
(3.198664149 0.002635582701 0)
(3.198702666 0.001655151892 0)
(3.198585069 0.0002007747818 0)
(3.198071714 -6.279802504e-05 0)
(3.197589678 -0.00024538528 0)
(3.197533431 0.0005947045107 0)
(3.197779674 0.00175730538 0)
(3.19841444 0.002199722778 0)
(3.198753576 0.001533192914 0)
(3.198565366 -0.001192227262 0)
(3.197928503 -0.002661711818 0)
(3.19719062 -0.001903052115 0)
(3.197437629 -0.0001935686228 0)
(3.314829704 -0.2324641376 0)
(3.290635894 -0.2172627569 0)
(3.212658861 -0.06562369424 0)
(3.188743084 -0.007829759556 0)
(3.189273135 0.0003035786498 0)
(3.192528069 0.00451103784 0)
(3.197132633 0.00168505526 0)
(3.198391706 -0.0009750602174 0)
(3.197979627 0.0004407253447 0)
(3.196684249 0.001819868278 0)
(3.196192316 0.0003837692892 0)
(3.195870077 -0.002943272042 0)
(3.195786571 -0.001284007757 0)
(3.195903698 9.796101631e-05 0)
(3.195762969 0.0009943863459 0)
(3.195660479 0.001588261298 0)
(3.195654313 0.001415192423 0)
(3.195853997 0.0006863826454 0)
(3.196074744 -0.0004501478754 0)
(3.195855453 -0.001618181857 0)
(3.19521304 -0.00119046157 0)
(3.19470373 -0.00100168654 0)
(3.194899623 -0.0004626585088 0)
(3.325571945 -0.2639715427 0)
(3.295752396 -0.262481457 0)
(3.215800361 -0.07023972806 0)
(3.188563686 -0.01254862033 0)
(3.185485943 0.0003550937977 0)
(3.188570118 -0.002558919017 0)
(3.19280557 -0.004246695485 0)
(3.194129536 0.001117877685 0)
(3.194082565 0.003364126295 0)
(3.192424894 0.001238520699 0)
(3.191452736 -0.004274729858 0)
(3.190295089 -0.005788415472 0)
(3.19066417 -0.00325186909 0)
(3.191780396 -0.001581122156 0)
(3.192096236 0.000358325619 0)
(3.191632978 0.0005514471401 0)
(3.191070931 -0.0005525794629 0)
(3.190741304 -0.001394572969 0)
(3.190651179 -0.00179577979 0)
(3.190634354 -0.001363527084 0)
(3.19027976 -0.0002169158854 0)
(3.190114133 -0.000316910931 0)
(3.19012097 -0.001207263911 0)
(3.32874805 -0.3026264974 0)
(3.308431118 -0.3083533553 0)
(3.223697996 -0.1157995622 0)
(3.186581387 -0.01951629335 0)
(3.181206529 -0.001439250213 0)
(3.185477657 -0.003504317332 0)
(3.187474841 -0.002255998112 0)
(3.18907556 0.002333866206 0)
(3.188493587 0.004309565052 0)
(3.187442459 0.0002152668987 0)
(3.184038269 -0.003389809763 0)
(3.181455346 -0.003647357254 0)
(3.183622184 -0.002456803888 0)
(3.18538885 -0.002483843159 0)
(3.185690912 -0.001856675573 0)
(3.185226819 -0.001162292779 0)
(3.184421384 -0.001207131756 0)
(3.183480255 -0.001523044651 0)
(3.183016619 -0.001539016764 0)
(3.18294613 -0.001042386115 0)
(3.182824716 -0.0003330022512 0)
(3.182768902 -0.0005800738485 0)
(3.182896547 -0.001110247649 0)
(3.18316598 -0.001854543999 0)
(3.339310834 -0.3346456164 0)
(3.320854249 -0.3420532091 0)
(3.246062899 -0.1907943046 0)
(3.186794283 -0.05813936766 0)
(3.178314765 -0.008907370529 0)
(3.178916129 -0.0008433879021 0)
(3.181760391 0.004484235255 0)
(3.183051658 0.005137289333 0)
(3.182365889 0.001712740566 0)
(3.180411825 -0.00209040554 0)
(3.176026949 -0.001231694424 0)
(3.172894446 0.0006240914898 0)
(3.174160931 -0.0005586617677 0)
(3.175895998 -0.001606315216 0)
(3.176773178 -0.001936985506 0)
(3.176261242 -0.002100939258 0)
(3.175094944 -0.001748771922 0)
(3.173675778 -0.001067153462 0)
(3.172747024 -0.0007597387394 0)
(3.172464684 -0.0007517091013 0)
(3.172449468 -0.001625371167 0)
(3.172633802 -0.001937233052 0)
(3.172811461 -0.001351328282 0)
(3.172994349 -0.0009711284256 0)
(3.339269248 -0.3513058841 0)
(3.327134601 -0.346909125 0)
(3.283521708 -0.2518230915 0)
(3.212400885 -0.1056480314 0)
(3.178013381 -0.0211381527 0)
(3.172718135 0.0008282416845 0)
(3.174866179 0.008660986012 0)
(3.176030714 0.00671117724 0)
(3.175596666 -0.0005044261485 0)
(3.171235595 -0.002221462355 0)
(3.16753462 0.001309258261 0)
(3.165610511 0.002515311208 0)
(3.164079568 0.0005555027031 0)
(3.164391065 -0.0006332652935 0)
(3.164926976 -0.001122771539 0)
(3.164144651 -0.001027809021 0)
(3.162779934 -0.0002891723425 0)
(3.161084958 0.0004534407783 0)
(3.160169868 0.0005220701559 0)
(3.159881668 -8.064359523e-05 0)
(3.160010502 -0.00229006567 0)
(3.160030478 -0.002747475165 0)
(3.160055599 -0.001678105794 0)
(3.160027368 -0.0002935613165 0)
(3.332387929 -0.3668824939 0)
(3.32783662 -0.3692031498 0)
(3.293865492 -0.255598356 0)
(3.22385123 -0.1160669895 0)
(3.17695771 -0.03269425194 0)
(3.165806445 0.001881094089 0)
(3.164695866 0.007017999834 0)
(3.166629861 0.001960384261 0)
(3.165354671 -0.001480766904 0)
(3.161886005 0.001182070392 0)
(3.158753653 0.003506330348 0)
(3.156900243 0.002276432166 0)
(3.154071937 -0.0003329000821 0)
(3.152811534 -0.001250927047 0)
(3.151626754 -0.000774388038 0)
(3.15041682 -3.609026131e-05 0)
(3.149253992 0.0007707443516 0)
(3.147764074 0.001114042533 0)
(3.146787243 0.001255226944 0)
(3.146411586 -1.646696804e-05 0)
(3.145354902 -0.002343970356 0)
(3.144927933 -0.002434705274 0)
(3.145034847 -0.001248767252 0)
(3.145194145 0.0003354731595 0)
(3.328200762 -0.3856963363 0)
(3.327437589 -0.3871636547 0)
(3.297205237 -0.299607703 0)
(3.229850521 -0.144063076 0)
(3.1746915 -0.03176763244 0)
(3.15520216 0.003781475168 0)
(3.154159452 0.0007256887064 0)
(3.154319895 -0.002466633124 0)
(3.152524438 -0.0008559855892 0)
(3.151703231 0.003553358364 0)
(3.149837077 0.003462640741 0)
(3.146793265 -4.911891486e-05 0)
(3.142926221 -0.002561318444 0)
(3.140224674 -0.002381871358 0)
(3.138476765 -0.001336837094 0)
(3.137104676 -0.0001566045683 0)
(3.13587195 0.0005258892195 0)
(3.13440997 0.0005053346779 0)
(3.133056714 0.000243318218 0)
(3.131704691 -0.0009951954851 0)
(3.129890857 -0.002298021529 0)
(3.129272079 -0.001595209747 0)
(3.129257088 -0.0004293733004 0)
(3.129612968 0.0007367300473 0)
(3.331094597 -0.3989667441 0)
(3.329036296 -0.4009536659 0)
(3.30339034 -0.336898232 0)
(3.231054486 -0.209588947 0)
(3.1663482 -0.07352175785 0)
(3.139989141 -0.01027925955 0)
(3.138115648 -0.0049216134 0)
(3.136202629 -0.003750115375 0)
(3.137660108 0.002433599243 0)
(3.139046012 0.004233335581 0)
(3.136883258 0.001755290572 0)
(3.134127469 -0.002618939938 0)
(3.129412143 -0.00384581756 0)
(3.125835209 -0.003464147827 0)
(3.12396319 -0.001851021308 0)
(3.122807394 -0.0005695324061 0)
(3.121542741 -0.0003595427761 0)
(3.11969125 -0.000627330188 0)
(3.117989961 -0.001154153645 0)
(3.116054453 -0.001721001556 0)
(3.114206928 -0.001659553238 0)
(3.113459075 -0.001115371304 0)
(3.113142924 -0.0001153097832 0)
(3.113435405 0.0006010072756 0)
(3.326390126 -0.4038276127 0)
(3.326729848 -0.4002384081 0)
(3.304427865 -0.3579058057 0)
(3.251685481 -0.2808204269 0)
(3.165544889 -0.1296504943 0)
(3.125144196 -0.03254844514 0)
(3.11561037 -0.00713371509 0)
(3.117318331 0.0003508998099 0)
(3.120126966 0.005279628209 0)
(3.121969122 0.003070986223 0)
(3.121108842 -0.001004687823 0)
(3.117252555 -0.003471261271 0)
(3.112300013 -0.004427934147 0)
(3.109043906 -0.003912812201 0)
(3.107757714 -0.00271660664 0)
(3.1067301 -0.001831408828 0)
(3.10542316 -0.001553310263 0)
(3.103357358 -0.001826006534 0)
(3.101331004 -0.001760571943 0)
(3.099413673 -0.001601461693 0)
(3.098242148 -0.0009195366853 0)
(3.097211701 -0.001406537352 0)
(3.096727776 -0.000943950741 0)
(3.096777113 -0.000619772868 0)
(3.097133755 0.0005303154514 0)
(3.321549586 -0.41219203 0)
(3.323266698 -0.4073523258 0)
(3.30124722 -0.3731174339 0)
(3.25200562 -0.2905694426 0)
(3.176222312 -0.1768438584 0)
(3.118611734 -0.05768602786 0)
(3.098620745 -0.005893530715 0)
(3.098773616 0.006272530634 0)
(3.101172679 0.005725480112 0)
(3.102206295 0.0003847643801 0)
(3.10083465 -0.002376434463 0)
(3.097649567 -0.0035503 0)
(3.094420223 -0.003449998717 0)
(3.091696172 -0.003193345502 0)
(3.090210438 -0.003094862961 0)
(3.088868474 -0.002462398226 0)
(3.087527251 -0.001823473376 0)
(3.085849173 -0.001183682315 0)
(3.08413459 -0.0005430838033 0)
(3.082532068 -5.876932942e-05 0)
(3.081678206 -0.0005678992644 0)
(3.080333272 -0.002143236765 0)
(3.079571788 -0.002301342469 0)
(3.079413183 -0.001954427559 0)
(3.079613163 -0.0005242452713 0)
(3.320373714 -0.420332905 0)
(3.319853074 -0.4141615948 0)
(3.301598128 -0.3945802745 0)
(3.25070295 -0.310047753 0)
(3.176320005 -0.1800637181 0)
(3.107557314 -0.06163118281 0)
(3.084149306 -0.002424854218 0)
(3.079448037 0.006714646647 0)
(3.079614713 0.002394779204 0)
(3.079499731 -0.001701376836 0)
(3.078638193 -0.00254609865 0)
(3.077643779 -0.001326266156 0)
(3.074972007 -0.0007351128483 0)
(3.072772547 -0.001795386464 0)
(3.071263728 -0.002696439997 0)
(3.070172827 -0.002234380217 0)
(3.06914937 -0.001085135325 0)
(3.068032082 0.0003189917394 0)
(3.06653983 0.001068014005 0)
(3.065276031 0.001173501527 0)
(3.063673523 -0.000610996923 0)
(3.061970912 -0.002571310928 0)
(3.061197603 -0.002868176376 0)
(3.061111315 -0.002834745664 0)
(3.061367985 -0.001181426848 0)
(3.318356766 -0.4232761102 0)
(3.316997816 -0.4195390688 0)
(3.299550546 -0.4017811217 0)
(3.251501502 -0.3478807259 0)
(3.172519876 -0.2316699027 0)
(3.096419836 -0.07274763963 0)
(3.066620098 0.001270789605 0)
(3.057021335 0.0029496532 0)
(3.056916061 -0.001358586873 0)
(3.055246879 -0.002983621935 0)
(3.056319206 0.0002008831566 0)
(3.055881708 0.00182584639 0)
(3.054047731 0.0009225502367 0)
(3.052056778 -0.001224552211 0)
(3.050883717 -0.002217888732 0)
(3.050487371 -0.001743703466 0)
(3.050124692 -0.0004335341488 0)
(3.049375294 0.0009970890136 0)
(3.048262329 0.001616396158 0)
(3.046703659 0.001163763284 0)
(3.044625291 -0.00103701476 0)
(3.042585022 -0.002982979928 0)
(3.041947545 -0.003192103394 0)
(3.042251392 -0.002751070906 0)
(3.042557019 -0.001352816829 0)
(3.315471695 -0.4245798699 0)
(3.312805861 -0.4208050288 0)
(3.296096687 -0.4032449603 0)
(3.256112026 -0.3730977581 0)
(3.180835695 -0.2909109561 0)
(3.092223324 -0.1393896212 0)
(3.047928073 -0.0296097861 0)
(3.033799222 -0.003948529434 0)
(3.03151709 -0.004512339354 0)
(3.032172141 -0.0005220301909 0)
(3.033685651 0.003191458051 0)
(3.034445308 0.002924397078 0)
(3.033614534 0.0006509408752 0)
(3.031517666 -0.001792878603 0)
(3.029992605 -0.002772731074 0)
(3.029607931 -0.00209886263 0)
(3.029753683 -0.0008789833096 0)
(3.029436383 0.0001260359619 0)
(3.028760826 0.000860134661 0)
(3.027485842 0.0002244432741 0)
(3.025523597 -0.001592785707 0)
(3.023979438 -0.00289257338 0)
(3.023345973 -0.002775094009 0)
(3.023277624 -0.002025674499 0)
(3.023511225 -0.0009113772975 0)
(3.311872454 -0.4276646251 0)
(3.309226367 -0.4253456434 0)
(3.291613966 -0.4092199821 0)
(3.2531961 -0.3763606878 0)
(3.189158129 -0.3230231341 0)
(3.101285502 -0.2044478843 0)
(3.032168742 -0.07326740866 0)
(3.015105403 -0.01529772255 0)
(3.008810528 -0.003378393525 0)
(3.010685357 0.003629363208 0)
(3.012687633 0.004845499713 0)
(3.013392008 0.002896083756 0)
(3.012126345 -0.0002898943124 0)
(3.009930528 -0.002814493065 0)
(3.008530725 -0.003851142276 0)
(3.00819403 -0.003620901922 0)
(3.008665682 -0.002640366526 0)
(3.008993723 -0.001753686462 0)
(3.008568357 -0.0008136987994 0)
(3.007606347 -0.001021459681 0)
(3.006266229 -0.001831619294 0)
(3.004816121 -0.002211220636 0)
(3.004098734 -0.00224764454 0)
(3.003970826 -0.001405763482 0)
(3.004298074 -0.000584098289 0)
(3.30912795 -0.4304973197 0)
(3.306394137 -0.4283965766 0)
(3.288450455 -0.415753667 0)
(3.248200939 -0.388652312 0)
(3.188615341 -0.3288358433 0)
(3.106817504 -0.2294391342 0)
(3.028498 -0.1099724151 0)
(2.99781519 -0.02431934765 0)
(2.991192614 0.002487654723 0)
(2.990953146 0.006212227377 0)
(2.991553263 0.004628931663 0)
(2.991356858 0.00181116584 0)
(2.989931488 -0.001254153717 0)
(2.988496606 -0.00357625325 0)
(2.987218786 -0.00489317998 0)
(2.987016998 -0.004811162973 0)
(2.987660144 -0.003815301809 0)
(2.988284135 -0.002858100406 0)
(2.988167832 -0.002167539777 0)
(2.987410266 -0.002034957749 0)
(2.986189472 -0.00151095391 0)
(2.984456064 -0.00202924799 0)
(2.983385248 -0.002601735513 0)
(2.983662246 -0.001443197991 0)
(2.98398968 -0.0008861250382 0)
(3.307867509 -0.4323303543 0)
(3.303572324 -0.4279923777 0)
(3.285918523 -0.4210772162 0)
(3.246173314 -0.401777922 0)
(3.184749247 -0.3553020214 0)
(3.107957966 -0.2470789339 0)
(3.025378334 -0.1120068624 0)
(2.980621743 -0.02299275301 0)
(2.972723535 0.005708299718 0)
(2.970781151 0.004792712304 0)
(2.971104059 0.002880041523 0)
(2.97099642 0.0001527804013 0)
(2.970543545 -0.001574751029 0)
(2.969408224 -0.002828687577 0)
(2.967846615 -0.003899912791 0)
(2.967377466 -0.00351986709 0)
(2.967425982 -0.002749997275 0)
(2.967970952 -0.002040370802 0)
(2.968156467 -0.00170781177 0)
(2.967728057 -0.001360913328 0)
(2.966611495 -0.001033205595 0)
(2.964656327 -0.002322173016 0)
(2.962732767 -0.003423549258 0)
(2.962678172 -0.002287764515 0)
(2.963187671 -0.001466266905 0)
(2.964669404 0.0008352683513 0)
(3.306145375 -0.433247956 0)
(3.301377761 -0.4292493616 0)
(3.282158969 -0.4223494858 0)
(3.242842154 -0.4055814763 0)
(3.187364404 -0.3798093394 0)
(3.110017102 -0.2987300356 0)
(3.020156993 -0.1422977219 0)
(2.965161868 -0.02392114532 0)
(2.952102884 0.004181372417 0)
(2.95088074 0.0001323079004 0)
(2.951804129 -2.865901564e-05 0)
(2.95298881 -0.0001225996109 0)
(2.952973281 6.902710937e-05 0)
(2.951537716 -0.001168110088 0)
(2.949724339 -0.002285720521 0)
(2.948784519 -0.0021659143 0)
(2.948227973 -0.001719347218 0)
(2.948532155 -0.001305049166 0)
(2.94908864 -0.0008986024385 0)
(2.949172458 -0.0003271566372 0)
(2.948134739 -0.0002545215767 0)
(2.945540533 -0.002220717974 0)
(2.942934226 -0.003372295027 0)
(2.942457631 -0.002315592093 0)
(2.943231353 -0.00103708767 0)
(2.944801066 0.001312512269 0)
(3.304456789 -0.431908512 0)
(3.299965692 -0.4311651429 0)
(3.280302283 -0.4259341516 0)
(3.239062007 -0.4070729779 0)
(3.184020636 -0.3833846483 0)
(3.115834797 -0.3343740196 0)
(3.035317565 -0.2134492509 0)
(2.960677552 -0.07097430809 0)
(2.935202738 -0.01096117388 0)
(2.932137946 -0.00394867872 0)
(2.934119016 -0.001987474899 0)
(2.935785677 0.0005818977706 0)
(2.936539209 0.001435050294 0)
(2.935543034 -0.0002134701966 0)
(2.933501298 -0.002033308524 0)
(2.931754876 -0.002105293286 0)
(2.930795887 -0.001679442897 0)
(2.930778133 -0.001056783291 0)
(2.931663597 -6.669904731e-05 0)
(2.932148077 0.0007317808251 0)
(2.931121863 0.0005335842516 0)
(2.928313301 -0.001717299433 0)
(2.925879715 -0.002525288836 0)
(2.925275703 -0.00171108484 0)
(2.925885414 4.782322705e-05 0)
(2.926918655 0.001899391104 0)
(3.30380298 -0.4311833113 0)
(3.299343381 -0.4329438396 0)
(3.278662105 -0.4272678882 0)
(3.235162453 -0.4108927867 0)
(3.180155833 -0.388599729 0)
(3.11600371 -0.3439704295 0)
(3.040759981 -0.2479449251 0)
(2.96069779 -0.1154190905 0)
(2.920665059 -0.03511145922 0)
(2.916402311 -0.005668049985 0)
(2.919015594 4.998551163e-05 0)
(2.921000179 0.002515710183 0)
(2.922582332 0.00215425716 0)
(2.922230485 0.0002170482473 0)
(2.920007649 -0.001527094765 0)
(2.917544659 -0.002850877602 0)
(2.916112886 -0.002994541078 0)
(2.915840229 -0.002299652296 0)
(2.91657235 -0.0006292475555 0)
(2.917190418 0.0009636663014 0)
(2.916547649 0.0005739271563 0)
(2.915340616 -0.001080771693 0)
(2.913937113 -0.001417816574 0)
(2.912483162 -0.0009467392837 0)
(2.912045353 0.0004873830411 0)
(2.912510357 0.001484167416 0)
(3.305212911 -0.431502055 0)
(3.299062101 -0.4339548924 0)
(3.276035836 -0.4270850181 0)
(3.233174146 -0.415423317 0)
(3.176771851 -0.3969455272 0)
(3.113244099 -0.3573970624 0)
(3.044166472 -0.2700887072 0)
(2.968913451 -0.1416209307 0)
(2.91305836 -0.04668352992 0)
(2.903926232 -0.006445865564 0)
(2.906903613 0.003726734838 0)
(2.908362478 0.003624237111 0)
(2.909442996 0.002734275087 0)
(2.909114554 0.0006971697922 0)
(2.907219205 -0.001815045399 0)
(2.90517477 -0.003724013935 0)
(2.904053314 -0.004278610538 0)
(2.903842574 -0.003606668766 0)
(2.904049912 -0.001693898455 0)
(2.904882819 -0.0002555013802 0)
(2.905180901 -0.0004259631758 0)
(2.905107979 -0.001602470617 0)
(2.903969791 -0.002370475347 0)
(2.903029693 -0.002214688316 0)
(2.902552186 -0.0008080725517 0)
(2.902729026 -7.642731562e-06 0)
(3.306400347 -0.4326576658 0)
(3.299089058 -0.4344294523 0)
(3.27446639 -0.4280576616 0)
(3.230257755 -0.4165474892 0)
(3.173678324 -0.4018289614 0)
(3.112802572 -0.3784315754 0)
(3.042986729 -0.3019438282 0)
(2.972202181 -0.1683221833 0)
(2.912715543 -0.05600301636 0)
(2.893233983 -0.006337818846 0)
(2.895380807 0.005531099712 0)
(2.895922782 0.003495516124 0)
(2.897293542 0.002217776136 0)
(2.897431412 0.0005954623779 0)
(2.896213158 -0.002209121107 0)
(2.895435679 -0.004435104276 0)
(2.894886485 -0.00464987423 0)
(2.89469087 -0.003846636945 0)
(2.89437634 -0.002749070902 0)
(2.894927892 -0.001844390319 0)
(2.895743775 -0.002266446547 0)
(2.895882546 -0.002715015151 0)
(2.895449855 -0.003160186864 0)
(2.895736731 -0.002962021437 0)
(2.895562185 -0.002155334278 0)
(2.895438426 -0.0009265773598 0)
(3.308203667 -0.4344896437 0)
(3.300168807 -0.4348317695 0)
(3.274204167 -0.4294612981 0)
(3.22748102 -0.4180148863 0)
(3.170059859 -0.4041453954 0)
(3.109992918 -0.3862748058 0)
(3.050646171 -0.3415380462 0)
(2.977217685 -0.2219656774 0)
(2.910532095 -0.08127720967 0)
(2.886415969 -0.01101069808 0)
(2.883289475 0.002838678676 0)
(2.886752935 0.001162606408 0)
(2.888675433 0.0006258799156 0)
(2.888959834 -0.0004737334141 0)
(2.888106031 -0.003021328388 0)
(2.887896932 -0.004078973496 0)
(2.88785724 -0.003396087873 0)
(2.887825356 -0.002815434459 0)
(2.887234743 -0.002157276367 0)
(2.887026205 -0.00205269451 0)
(2.887719765 -0.002098631064 0)
(2.888770167 -0.002427467483 0)
(2.889448917 -0.00352355025 0)
(2.88931495 -0.002575743381 0)
(2.888688964 -0.002072353041 0)
(2.888659426 -0.0004182106193 0)
(2.889021603 0.0009484139942 0)
(3.309845276 -0.43534582 0)
(3.302129172 -0.4340852844 0)
(3.274549664 -0.4305100419 0)
(3.225715092 -0.4203693542 0)
(3.166472324 -0.4064616223 0)
(3.106255038 -0.3887812548 0)
(3.048689298 -0.3489580452 0)
(2.990726119 -0.2669317828 0)
(2.931417617 -0.1360903161 0)
(2.884992516 -0.03245074544 0)
(2.875453917 -0.003361798392 0)
(2.880081393 -0.001345364762 0)
(2.881091093 -0.0006196757559 0)
(2.881666155 -0.001586182923 0)
(2.881374168 -0.003705464381 0)
(2.881101447 -0.003612848577 0)
(2.881006056 -0.003142745296 0)
(2.881173658 -0.002728980315 0)
(2.881083179 -0.002327951104 0)
(2.880897615 -0.001250485853 0)
(2.881462452 -0.0009693974359 0)
(2.882464053 -0.001535972868 0)
(2.883031075 -0.002866120397 0)
(2.882961851 -0.001885100642 0)
(2.883458663 -0.001044428936 0)
(2.883765175 0.0002640627746 0)
(2.884253923 0.001161842344 0)
(3.3120362 -0.4356043763 0)
(3.304916677 -0.433210689 0)
(3.275777215 -0.4310098528 0)
(3.224109528 -0.4209291787 0)
(3.163140106 -0.4082643781 0)
(3.102882462 -0.3945630365 0)
(3.046756506 -0.3598065198 0)
(2.993788162 -0.2792609342 0)
(2.936342322 -0.1596742598 0)
(2.888515983 -0.060768794 0)
(2.873076785 -0.01378240743 0)
(2.874261959 -0.001667361119 0)
(2.87448867 -0.0005906674334 0)
(2.875049057 -0.001155433039 0)
(2.875456274 -0.002050819539 0)
(2.874879338 -0.002973149186 0)
(2.874954296 -0.003354896556 0)
(2.875011243 -0.003787440793 0)
(2.87527099 -0.002939756438 0)
(2.875482547 -0.00178101019 0)
(2.875893054 -0.000412547218 0)
(2.876666062 -0.0002969737585 0)
(2.877618398 -0.001467592739 0)
(2.87816903 -0.001562508311 0)
(2.878797498 -0.0008420788799 0)
(2.878924296 0.0001149064358 0)
(2.879170167 0.0008977303793 0)
(3.314928448 -0.4340702698 0)
(3.308294274 -0.432836719 0)
(3.278024658 -0.4307241371 0)
(3.223816655 -0.4206834752 0)
(3.15987686 -0.4077303013 0)
(3.099406633 -0.3972331131 0)
(3.045773139 -0.375083167 0)
(2.99347727 -0.308115167 0)
(2.941643655 -0.1914868706 0)
(2.895908093 -0.07442445724 0)
(2.871806639 -0.01575682848 0)
(2.869637717 -0.0004246297012 0)
(2.870198712 0.001622092763 0)
(2.870469262 0.0006405998684 0)
(2.870569139 -0.0009200342653 0)
(2.870522039 -0.002687214545 0)
(2.870828312 -0.004375595377 0)
(2.870845675 -0.004887648459 0)
(2.870848867 -0.004174592789 0)
(2.870868394 -0.002549118852 0)
(2.871163395 -0.0006466291592 0)
(2.871720689 -0.0003555021829 0)
(2.872900462 -0.001142303163 0)
(2.873742257 -0.001298770396 0)
(2.873830872 -0.001176020624 0)
(2.873923958 -0.000251885818 0)
(2.874445356 2.161924086e-05 0)
(3.318568091 -0.4327260791 0)
(3.312499724 -0.4327108968 0)
(3.281300639 -0.4308024774 0)
(3.22410782 -0.4215453055 0)
(3.157741096 -0.4087375978 0)
(3.095487571 -0.3984054283 0)
(3.045325319 -0.3841501885 0)
(2.999195046 -0.3410706684 0)
(2.94729646 -0.2338024355 0)
(2.901469527 -0.1008935386 0)
(2.873567526 -0.02108369376 0)
(2.865894857 0.000427160167 0)
(2.866891458 0.002460229642 0)
(2.867155634 0.001956694741 0)
(2.867283653 0.0005785489022 0)
(2.867396142 -0.00319827632 0)
(2.868173134 -0.005637249852 0)
(2.868613569 -0.006272476679 0)
(2.868168178 -0.005289597921 0)
(2.867778218 -0.00309527084 0)
(2.867551865 -0.001078389281 0)
(2.867870021 -0.0007084416557 0)
(2.868612346 -0.001904615851 0)
(2.869808461 -0.002793781911 0)
(2.87048617 -0.002550891808 0)
(2.87094036 -0.0009972596911 0)
(2.871735843 0.0002776231369 0)
(3.323832979 -0.432396661 0)
(3.317455318 -0.4324951831 0)
(3.285081859 -0.4310327574 0)
(3.224825579 -0.4231299877 0)
(3.155597435 -0.4108207512 0)
(3.091703526 -0.3998438147 0)
(3.042419042 -0.3852224694 0)
(3.001478049 -0.3531027153 0)
(2.963175615 -0.2830987714 0)
(2.909491105 -0.1455845972 0)
(2.872929999 -0.03685122083 0)
(2.863699807 -0.004339728585 0)
(2.864092733 0.001142768098 0)
(2.864462592 0.001749967583 0)
(2.86455786 -7.853178007e-05 0)
(2.865280672 -0.003667441867 0)
(2.866275797 -0.005679713268 0)
(2.866626177 -0.005289258078 0)
(2.866108511 -0.004302405918 0)
(2.865478238 -0.00302390332 0)
(2.865170178 -0.001566356009 0)
(2.865442096 -0.001920246596 0)
(2.866076887 -0.003547667668 0)
(2.867172378 -0.003776338189 0)
(2.868481421 -0.001758192336 0)
(2.868825965 -0.0005764873619 0)
(2.869565727 0.000586630947 0)
(3.330106077 -0.4321807372 0)
(3.321879361 -0.4326312422 0)
(3.288146618 -0.4312617338 0)
(3.226531222 -0.4239069357 0)
(3.154274933 -0.4116963369 0)
(3.088162755 -0.4013386002 0)
(3.039277936 -0.3904357648 0)
(3.001228862 -0.3591375951 0)
(2.967065608 -0.2955231396 0)
(2.929910822 -0.1985755842 0)
(2.880353016 -0.0694235672 0)
(2.863985249 -0.01203978761 0)
(2.862769764 -0.0002051232652 0)
(2.862847774 0.0006836050156 0)
(2.863080475 -0.001041203063 0)
(2.864217017 -0.004430567185 0)
(2.865103541 -0.003849953263 0)
(2.865320128 -0.003231799513 0)
(2.8647904 -0.003130019772 0)
(2.864067519 -0.002240977651 0)
(2.863914855 -0.001963693182 0)
(2.864105277 -0.00252247716 0)
(2.864613881 -0.00373345729 0)
(2.865484921 -0.003252790866 0)
(2.866690506 -0.001303073614 0)
(2.866807405 -5.574901414e-05 0)
(2.867371762 0.0010556538 0)
(3.334456481 -0.4332771028 0)
(3.326478599 -0.4332517363 0)
(3.291274215 -0.4314597755 0)
(3.228422931 -0.4240580368 0)
(3.152928764 -0.4116309941 0)
(3.084340047 -0.4011978429 0)
(3.036555937 -0.3935851973 0)
(3.000275806 -0.371488762 0)
(2.969566028 -0.3207306461 0)
(2.93568963 -0.2123931189 0)
(2.895029227 -0.1017474085 0)
(2.868993796 -0.024218182 0)
(2.863055126 -0.003029924961 0)
(2.862434563 -0.001074349263 0)
(2.862880251 -0.002267832799 0)
(2.863518971 -0.002775305611 0)
(2.864580308 -0.001630057665 0)
(2.865153662 -0.002320462223 0)
(2.865006818 -0.002647967789 0)
(2.864110975 -0.002387094729 0)
(2.863702023 -0.002450477415 0)
(2.863661156 -0.002530333999 0)
(2.863851493 -0.003071620708 0)
(2.864686443 -0.002685134394 0)
(2.865505607 -0.0008687020255 0)
(2.865727762 0.000547064717 0)
(2.866262568 0.001707546988 0)
(2.86660822 0.002243547569 0)
(3.3396344 -0.4373328595 0)
(3.33165157 -0.4330073976 0)
(3.295481275 -0.4309509967 0)
(3.23057951 -0.4237433574 0)
(3.152277478 -0.4111112211 0)
(3.080780023 -0.4008124231 0)
(3.033317108 -0.3932772146 0)
(3.00171071 -0.3801745119 0)
(2.974633072 -0.3454488276 0)
(2.943473722 -0.2553702996 0)
(2.90614369 -0.1089825097 0)
(2.876407387 -0.02750124752 0)
(2.863888569 -0.003845912222 0)
(2.86233438 -0.00123665411 0)
(2.86295157 -0.001537773859 0)
(2.863621945 -3.449711087e-05 0)
(2.864987084 -0.001155704061 0)
(2.865914285 -0.002948087163 0)
(2.86596365 -0.003662285455 0)
(2.86514532 -0.003418735441 0)
(2.864471917 -0.002878709727 0)
(2.864144028 -0.002132556987 0)
(2.864183822 -0.002375567238 0)
(2.864607802 -0.002300358921 0)
(2.865436281 -0.0008159630189 0)
(2.865735882 0.0007051155342 0)
(2.866144819 0.002334162471 0)
(2.866417153 0.002856390315 0)
(3.345876131 -0.4390134409 0)
(3.337580637 -0.431739098 0)
(3.301112877 -0.4300418225 0)
(3.233061469 -0.4233123703 0)
(3.15188505 -0.4105564139 0)
(3.078720144 -0.4009499443 0)
(3.030479351 -0.3937430411 0)
(3.001300561 -0.3812507495 0)
(2.979323675 -0.3584497025 0)
(2.954604641 -0.293078529 0)
(2.914575614 -0.1521112571 0)
(2.883568438 -0.03859581459 0)
(2.866399985 -0.004117447715 0)
(2.863673203 -0.0003215363245 0)
(2.864138531 0.0006714437305 0)
(2.865030112 0.001377918128 0)
(2.866382687 -0.001950457767 0)
(2.86725614 -0.003752543175 0)
(2.86724213 -0.004449721453 0)
(2.866476256 -0.003906827896 0)
(2.865908238 -0.002904865122 0)
(2.865582956 -0.001887351732 0)
(2.865322569 -0.001918750947 0)
(2.865923686 -0.002228692557 0)
(2.866485175 -0.0009013404074 0)
(2.866724982 0.0002898589867 0)
(2.867066884 0.00150599331 0)
(2.867241935 0.001998844619 0)
(3.350764544 -0.4388659761 0)
(3.342195583 -0.4308321848 0)
(3.306198986 -0.4293242752 0)
(3.235404123 -0.4228403123 0)
(3.151394156 -0.410318642 0)
(3.07645062 -0.4014986566 0)
(3.028391457 -0.3946487404 0)
(3.000651508 -0.3839093303 0)
(2.980947658 -0.3614983108 0)
(2.96270218 -0.3176824564 0)
(2.931171882 -0.2086895786 0)
(2.888797272 -0.07523081354 0)
(2.870340637 -0.01551966838 0)
(2.866683575 -0.0004305987594 0)
(2.866476911 0.003181809394 0)
(2.86737143 0.0009311161136 0)
(2.868373331 -0.002906015326 0)
(2.869158693 -0.004783200987 0)
(2.869434089 -0.004824945456 0)
(2.869106539 -0.003976086941 0)
(2.868510076 -0.002653084036 0)
(2.868158868 -0.001453041269 0)
(2.867914136 -0.001528829978 0)
(2.868435272 -0.002542959448 0)
(2.86887682 -0.002210412325 0)
(2.869139614 -0.001129711286 0)
(2.869265643 9.73931803e-05 0)
(2.869407933 0.0005683603938 0)
(3.353275123 -0.4386210441 0)
(3.345175991 -0.4307612655 0)
(3.309653733 -0.4290876878 0)
(3.236949304 -0.4224719378 0)
(3.15050302 -0.4114050685 0)
(3.074291638 -0.4023260869 0)
(3.026779306 -0.3956048614 0)
(3.000570803 -0.3873700062 0)
(2.981616014 -0.370679617 0)
(2.966574333 -0.3313850301 0)
(2.944980108 -0.2460199871 0)
(2.90326455 -0.1202551867 0)
(2.879179064 -0.03189846723 0)
(2.870594626 -0.001401696735 0)
(2.869622616 0.003779414553 0)
(2.869780831 -0.0007586393574 0)
(2.870502284 -0.004272664569 0)
(2.871625181 -0.004797917962 0)
(2.872350645 -0.004251437355 0)
(2.872481907 -0.003515485249 0)
(2.872098559 -0.002123844323 0)
(2.871783378 -0.000698171264 0)
(2.871561005 -0.001669518725 0)
(2.871826662 -0.003718035976 0)
(2.872352782 -0.003256883941 0)
(2.872699221 -0.001881035656 0)
(2.872596287 -0.0005596079946 0)
(2.87261116 6.29457595e-05 0)
(3.353757109 -0.4385653956 0)
(3.346530431 -0.4305763063 0)
(3.311280931 -0.428618769 0)
(3.237783972 -0.4223137596 0)
(3.149864728 -0.4120733491 0)
(3.07405789 -0.4020170487 0)
(3.026328569 -0.3955636975 0)
(3.000651961 -0.3886129289 0)
(2.983976941 -0.378117995 0)
(2.970603263 -0.3535480395 0)
(2.951385046 -0.2617210634 0)
(2.92263442 -0.1500874948 0)
(2.8924468 -0.04624070479 0)
(2.876507772 -0.002259124559 0)
(2.873624024 0.001509386683 0)
(2.872806382 -0.003214762888 0)
(2.873404512 -0.00447874756 0)
(2.874295419 -0.004131643294 0)
(2.875210667 -0.004356905899 0)
(2.875869239 -0.003636683999 0)
(2.875982615 -0.001796072813 0)
(2.875884182 -0.0009459843634 0)
(2.875633762 -0.002674071709 0)
(2.876035641 -0.004324502541 0)
(2.876010423 -0.003121420195 0)
(2.876393535 -0.001727600812 0)