/*--------------------------------*- C++ -*----------------------------------*\
  =========                 |
  \\      /  F ield         | OpenFOAM: The Open Source CFD Toolbox
   \\    /   O peration     | Website:  https://openfoam.org
    \\  /    A nd           | Version:  7
     \\/     M anipulation  |
\*---------------------------------------------------------------------------*/
FoamFile
{
    version     2.0;
    format      ascii;
    class       volScalarField;
    location    "2.3";
    object      p;
}
// * * * * * * * * * * * * * * * * * * * * * * * * * * * * * * * * * * * * * //

dimensions      [1 -1 -2 0 0 0 0];

internalField   nonuniform List<scalar> 
2222
(
0.5427293459
0.5403993389
0.5356703583
0.5283655344
0.7902179489
0.7700560152
0.7563017887
0.742625635
0.727365869
0.7116167364
0.6991660113
0.6867610215
0.6738693361
0.6603915547
0.6498693026
0.640185561
0.6311830218
0.6226539755
0.6154122908
0.6080384933
0.6009205839
0.5932723713
0.5862490791
0.5794802521
0.5719814333
0.5641402271
0.5592488919
0.5542309641
0.5485068073
0.5429949591
0.5382504279
0.5332753796
0.5301239022
0.5261384293
0.5188487971
0.7663066766
0.7471208741
0.7344525265
0.7217035403
0.7075328265
0.6925604105
0.680777144
0.6689486913
0.6568021214
0.6438746605
0.634149252
0.6250785565
0.6163995843
0.6078407479
0.6006203009
0.5931428194
0.5856562081
0.5783798446
0.571774536
0.5651265035
0.5583206471
0.551180556
0.5472223295
0.5433053866
0.5384947572
0.5330573334
0.5281963329
0.5235804242
0.5186067101
0.5153708047
0.508621915
0.7427340979
0.7245486963
0.7127214545
0.7008218395
0.6874694141
0.6729589631
0.6616160039
0.6503536619
0.6389715401
0.6267955236
0.6175715482
0.6090879966
0.6009152441
0.5926896686
0.5862426666
0.5793910579
0.5728877024
0.5666163832
0.5602684148
0.5538004493
0.5477425368
0.5411734844
0.5368864115
0.5329511238
0.5280077489
0.5215959475
0.516884198
0.5134877091
0.5087903654
0.5055133865
0.500534014
0.7198361999
0.7026955138
0.6918785282
0.6808375045
0.6684229043
0.6546720841
0.6441894836
0.6339517914
0.6234183193
0.6115852388
0.6025496559
0.5944074566
0.5868312044
0.5793203404
0.5732502875
0.5669320418
0.5605565351
0.5539813025
0.5472474827
0.5408178654
0.5344524357
0.5282296998
0.5242957071
0.5207922254
0.516587025
0.5112681606
0.5068965362
0.5039037907
0.4997987695
0.4958609981
0.4909852421
0.6973925611
0.6812038949
0.6708543403
0.6603867639
0.6487021544
0.6355256775
0.6253830865
0.6155662637
0.6056130104
0.5945245206
0.5865335934
0.579298965
0.5723909987
0.5650418339
0.5589411211
0.5525689783
0.5459955202
0.5394022311
0.53382189
0.5281570129
0.5228054374
0.5175859973
0.5139274063
0.5106858072
0.507150628
0.5018688875
0.4973828623
0.4941205847
0.4902648777
0.4855168998
0.4805134118
0.6759560075
0.6601906386
0.6506659859
0.6411453108
0.6305790057
0.618319223
0.6088011513
0.5996028974
0.5903870474
0.57997522
0.5721832261
0.5652428706
0.5585984669
0.5513118784
0.5456365124
0.5399736112
0.5343822418
0.5287809815
0.5233767673
0.5177567762
0.5123432341
0.5069024907
0.5034266396
0.499901692
0.4960626915
0.4908466934
0.486527706
0.4840893188
0.4811713221
0.4769126305
0.4701324144
0.6542720562
0.6400601588
0.6309872442
0.6219035919
0.611904256
0.5998230406
0.5906522069
0.5822400096
0.5738436183
0.5641255368
0.5571768273
0.5509334932
0.5447044659
0.5381204018
0.5328107066
0.5275846592
0.5220404653
0.5162931551
0.5106488649
0.5051284916
0.4995975981
0.4943430817
0.4914065417
0.4886297967
0.4853396695
0.4819227104
0.477779858
0.4753894957
0.471739381
0.4664757091
0.4570436251
0.6346948634
0.6210532893
0.6122796175
0.6034825107
0.5937979773
0.582556509
0.5742515041
0.5663951806
0.5585714908
0.5494496545
0.5429099291
0.5370525013
0.5312250509
0.5250194103
0.5199275006
0.5146203798
0.5093112211
0.5034821327
0.4984208458
0.4934279695
0.4890596841
0.4847701966
0.4823614813
0.4796206976
0.4767695217
0.4722162116
0.4685507723
0.4650822622
0.4614605475
0.4553716468
0.4523145438
0.6135378112
0.6004942621
0.5926578601
0.5848399213
0.5765032032
0.5663744851
0.5583124918
0.5510204715
0.5436809686
0.534646231
0.528543277
0.523336637
0.5180836131
0.51228967
0.5072966672
0.5024325421
0.4974092212
0.4922190697
0.4872423377
0.4829570199
0.4789993338
0.4748640507
0.4721359013
0.4694796236
0.4660327686
0.4613577342
0.4569209207
0.45410493
0.4521196338
0.4499458659
0.4598397595
0.5944681259
0.5833574946
0.576276353
0.5688519816
0.5603900555
0.5495366703
0.5414799379
0.5345538619
0.5278582656
0.520031945
0.5148786994
0.5105308868
0.505759972
0.5002836812
0.4954264222
0.4906522379
0.4857339567
0.4803794963
0.475654795
0.4718881923
0.4677994559
0.4630618989
0.4606325465
0.4586161005
0.4552404634
0.4507042709
0.4464733966
0.4480628323
0.4498236107
0.4721269804
0.5831946565
0.5752171512
0.5641768772
0.5569224225
0.5498518851
0.5419804512
0.5321382361
0.525519289
0.520096215
0.5146046612
0.507365922
0.5021525136
0.4978397036
0.493182446
0.4874533187
0.4830710953
0.4784844305
0.4739321825
0.469142391
0.4649636336
0.4606496753
0.4570100691
0.4530473902
0.4517094129
0.4494118824
0.446037023
0.4401625439
0.4403954132
0.4467785707
0.5033910488
0.6507488235
0.8358849465
0.5582525298
0.5467357579
0.5401415161
0.5339567819
0.5271771739
0.518738628
0.5119739909
0.5062605748
0.5005507547
0.4924766948
0.4875411173
0.4839598691
0.4798546478
0.4755586835
0.4716972526
0.467609329
0.4629886541
0.4583391258
0.4535310273
0.450062844
0.4469780931
0.4443690783
0.4414286396
0.438835072
0.434813365
0.4355276531
0.4529474072
0.546136869
0.7398326029
0.9184477687
0.9462325165
0.5385067978
0.5284662575
0.5228180428
0.5175835017
0.5115277281
0.5027256069
0.4956348955
0.4900060156
0.4846989514
0.4784125073
0.4747408782
0.472246758
0.4691377648
0.4652892053
0.4610380314
0.4563025285
0.4516024855
0.4463473871
0.4424542542
0.4398969925
0.4369148151
0.4327297791
0.4294814341
0.4300860219
0.4332415189
0.4796692074
0.6108115289
0.7968119994
0.9053900817
0.9802260117
0.9783843612
0.522158183
0.514076637
0.5079042079
0.5018810058
0.4954287368
0.4861427515
0.4804088824
0.476799498
0.4730130608
0.4675960844
0.4637367497
0.4608896642
0.4575241917
0.4524266392
0.4478179772
0.4439931236
0.4401825633
0.4360864234
0.4329266619
0.4294650673
0.4252140871
0.4216129551
0.4229553774
0.4363820669
0.5103960731
0.7024147915
0.9001060074
0.9864152979
0.9894265935
0.9998547749
1.002110379
0.5064131248
0.497400502
0.4908952304
0.4853341842
0.4796792586
0.4729800507
0.4682351802
0.464486982
0.4603990979
0.4535746627
0.4494906399
0.4470459524
0.4437706065
0.4399769649
0.4372070494
0.434234162
0.4305055389
0.4261221631
0.4213069633
0.4167593372
0.4166837413
0.4187548986
0.4470282596
0.5709620858
0.7908655787
0.8839521849
0.961018329
1.011196566
1.002970158
1.004653397
1.006512788
0.4884713737
0.4788796593
0.4738997736
0.4701348843
0.4658825469
0.4600053766
0.4548237622
0.4502030727
0.4457806489
0.4397952468
0.4365236708
0.4351840341
0.4333364831
0.4309174333
0.4277238984
0.4242278102
0.4194425542
0.4125433703
0.4091388116
0.409882989
0.4193718198
0.4779036009
0.6473071362
0.8572717474
0.992823189
0.9922889923
0.9889006528
1.000023997
0.999625419
1.000588424
1.003741808
0.4717227241
0.4654826046
0.4609383384
0.4567902385
0.4522814887
0.4448112557
0.4393788901
0.4361380606
0.4331179387
0.4293384099
0.4267726626
0.425244449
0.4232805942
0.4196245387
0.4156158154
0.4117076016
0.4064898495
0.4024553612
0.4046860335
0.4286472145
0.5540243007
0.7358867942
0.8908650421
0.9475124884
1.005828663
1.012908828
1.006105668
1.000109747
0.9947995395
0.9938613554
0.9962499835
0.458405177
0.4507254079
0.4446064581
0.4401435779
0.4358416479
0.430152981
0.4263385372
0.4244774833
0.4221219179
0.4182619195
0.4151032481
0.4131948036
0.4104220648
0.4067246997
0.4031185946
0.4005272959
0.3987759704
0.4031816795
0.4664044618
0.6237854973
0.8084235491
0.9592177314
0.9986023153
0.9833599402
0.993652497
1.006807361
1.006131847
1.003281917
0.9977058384
0.9944397693
0.9951004681
0.4416368517
0.4323110088
0.4280146863
0.4256888688
0.4229772842
0.4188636814
0.4154938155
0.4130231168
0.4102868062
0.4050468679
0.40178881
0.4004060057
0.3982957136
0.3946561404
0.393321548
0.3948297117
0.412976358
0.5125307965
0.7364345807
0.929322194
0.9617613693
0.9952628222
1.012420507
1.008027081
0.9994131116
1.001741217
1.004565501
1.004834411
1.001669949
0.9978714053
0.9980446542
0.4255093996
0.4197122418
0.4167433442
0.4142869107
0.4112616272
0.4050290643
0.4014717671
0.3991997383
0.3965538713
0.3939681466
0.3912873777
0.389770525
0.3872053113
0.3857039344
0.3897521996
0.4446605292
0.5945315451
0.8140844373
0.8982449669
0.981397078
0.9811445717
0.9931568243
1.007926522
1.009398212
1.00596564
1.002024629
1.001705125
1.002145543
1.001809887
1.000639575
1.00119386
0.4143597748
0.4082816731
0.4032996716
0.399217878
0.3953550396
0.3893447401
0.3875180526
0.3873668601
0.3863129887
0.3840026174
0.3804842629
0.3789464645
0.3793211931
0.3966372635
0.4900335815
0.7056076428
0.9040727221
0.9924677517
0.9786738871
0.9879442501
0.9853557549
0.9860145655
0.9962234815
1.006146405
1.006180252
1.003206023
1.000881594
1.000429457
1.001066207
1.002259275
1.003126823
0.3985247482
0.3902003628
0.3870525453
0.3854170383
0.383021119
0.3788692042
0.3773826365
0.3770875466
0.3758956795
0.3707885273
0.3703059654
0.3736921889
0.4190197494
0.5765493707
0.8081180695
0.8920428016
0.9609722019
1.010378536
1.005154422
0.9981822995
0.9926272563
0.9910360983
0.9938674006
1.001502574
1.004438412
1.004263253
1.002522628
0.9999682786
0.9991571116
0.9996323183
1.000439376
0.3838106058
0.3790036114
0.3763239175
0.374532022
0.3716730901
0.3673659785
0.3653612721
0.364630472
0.3626270554
0.3626669081
0.3775382796
0.4667482246
0.685342842
0.8841159574
0.9906990592
0.9870139477
0.9823928932
0.9964103092
1.001277053
0.9985095602
0.998689698
0.999222973
0.9998116313
1.002131873
1.003139741
1.004021206
1.003478315
1.000861996
0.9978861282
0.9968485424
0.9964787758
0.3712442769
0.3682658813
0.3653215704
0.3622074871
0.3586037223
0.3538092877
0.3517592557
0.3531620266
0.3577670186
0.4006323379
0.5631371718
0.7973960283
0.9040085335
0.9479786668
1.007223897
1.007720282
1.000654123
0.9948314578
0.9952920453
0.9966385485
1.000017539
1.00320155
1.004936218
1.004551445
1.002500578
1.002101
1.001850561
1.000656781
0.998943058
0.9978991457
0.9973083506
0.3571682782
0.3537659765
0.350477124
0.3475293995
0.3447813727
0.3421972611
0.3431180046
0.3586022354
0.463743754
0.6691319761
0.8449240065
0.9817503971
0.9916302529
0.9741000076
0.9856464647
1.000871301
1.001517615
0.99880107
0.9956504432
0.9950023728
0.9971826431
1.002036896
1.005676234
1.00487348
1.002370585
1.000121868
0.9997732954
0.9998245212
0.9997148944
0.9994859601
0.9993566657
0.3441025748
0.3397562498
0.3379332994
0.3365961982
0.33503038
0.3378674153
0.378811767
0.5546285583
0.788074008
0.9537302959
0.9698832764
0.9934914118
1.005717601
0.99494484
0.9883184126
0.9937722224
1.000878528
1.001263384
0.9986005549
0.9949465804
0.9948068204
0.9975148093
1.001703215
1.003097191
1.001613986
0.9994947994
0.9983344974
0.9981829425
0.9985187445
0.9992680179
1.000047503
0.3273775062
0.3268113234
0.3268675146
0.3275788745
0.339319373
0.4478363123
0.6714309469
0.860520446
0.9345977205
0.9906543297
0.9901026114
0.9959129235
1.002695009
1.001220089
0.9944827296
0.9934063597
0.9955498702
0.9983841986
0.9979982481
0.9966525562
0.9962135826
0.9969388559
0.9986140249
1.000466527
1.000648584
0.9995674393
0.998173092
0.9973644711
0.9974067578
0.9981891209
0.9995242424
0.319326683
0.3171523476
0.3187633211
0.3692965969
0.539464025
0.7595592366
0.9421054832
0.975571636
0.9773598007
0.9938386758
0.9958378078
0.9939646916
0.9968789095
1.000306786
0.997210206
0.9947006749
0.9938892751
0.9955800329
0.9977050208
0.9987220717
0.9991526047
0.9989384286
0.9992484077
0.9997886803
1.00017371
0.9995269686
0.9983405021
0.9973534066
0.9967108985
0.9970744235
0.9981245218
0.3097055408
0.3163362907
0.4089978737
0.6609659852
0.8902798828
0.9367160625
0.981367009
0.9998307044
0.9907251067
0.9924217115
0.9935612989
0.9915917438
0.9916078114
0.9941050557
0.9961815022
0.9965446882
0.9965232726
0.9967509264
0.9975717922
0.9989090298
0.9997725647
1.000605335
1.000818656
1.00092742
1.000464961
0.9995001044
0.9987414476
0.9978064195
0.9972443956
0.997290701
0.9981758251
0.3222411889
0.5111640904
0.8270733632
0.9093863308
0.9748618994
0.9829514014
0.9823516624
0.9922227715
0.9919500671
0.9927251169
0.994139368
0.9927918661
0.9910503906
0.9916770925
0.9934516383
0.9962087983
0.997967463
0.9981022922
0.9978882259
0.9985365671
0.9996105956
1.001051371
1.001335994
1.001036085
1.000231399
0.9987257382
0.9980802931
0.9978784267
0.9980069859
0.9986529035
0.9996032964
0.3047534225
0.4652220821
0.8295057834
0.9851671833
0.9743176717
0.9844540653
0.983831557
0.9887159675
0.990638278
0.993372218
0.9938398999
0.994472545
0.993218531
0.9907434938
0.9905115755
0.9924342764
0.9956436586
0.997874512
0.9982811137
0.9977307562
0.9979606615
0.9988615413
1.000762069
1.001314529
1.001350628
1.000749611
0.9988978583
0.9975524553
0.9974442122
0.9981642117
1.000077652
1.001443161
0.3141630013
0.6370974956
0.9095920458
0.9912903691
0.9745675356
0.9843154495
0.9839489817
0.9895143286
0.9908923324
0.9934736954
0.9939099994
0.9944417889
0.9930479749
0.990733004
0.9904116572
0.9926585919
0.9963961741
0.9985393739
0.9988450262
0.9978671695
0.9978017406
0.9984716925
1.000380126
1.000951663
1.001052137
1.000814982
0.9991770121
0.9973000051
0.9969953396
0.9977504754
0.9999984638
1.001962602
0.3572759937
0.7584393687
0.9385361208
0.9949931002
0.975828746
0.9867799871
0.9844947662
0.9895455876
0.991078679
0.9940115511
0.9942165462
0.9946886106
0.9933451983
0.9906645715
0.9901555713
0.9923695478
0.9962707792
0.9987281117
0.9989607635
0.9977869377
0.9977225821
0.9984961296
1.000115088
1.000559278
1.000587191
1.000092239
0.9986704693
0.997460834
0.9975586831
0.9984576526
1.000151094
1.001893243
0.48314177
0.8298383888
0.9532397162
0.9997055985
0.9761115853
0.9875977485
0.984866537
0.989895746
0.9912168984
0.9933603137
0.9935329765
0.9944901206
0.993306171
0.9906364142
0.9898609931
0.9919250001
0.9960472954
0.9988209239
0.9991042507
0.9981021305
0.9983099131
0.999028369
1.000120654
1.000455288
1.000087093
0.9988455205
0.9980413122
0.9981354795
0.998738449
0.9994069686
1.00024069
1.001707902
0.6440041847
0.9209183616
0.9576388772
1.000027579
0.979490438
0.9876307158
0.9853336104
0.9900899095
0.9914907599
0.9933265825
0.9935407457
0.9945633372
0.9937201251
0.9911401644
0.9896806891
0.9914966277
0.9955352657
0.9983740771
0.9985659518
0.9977362054
0.9982167965
0.9993265054
1.000679763
1.00072936
0.9998027857
0.9983555459
0.9975283844
0.9978671105
0.9988254295
1.000302853
1.000989794
1.001858038
0.7323218398
0.9777384437
0.9601816019
0.9982084479
0.9792878403
0.9860466894
0.9850157462
0.9901760768
0.992129997
0.9937156252
0.9936558582
0.9946304736
0.9933784069
0.9910748401
0.9901781208
0.9925167345
0.9968516943
0.9987212199
0.9985304315
0.9972792633
0.9977122449
0.9988057799
1.000489421
1.000860883
1.000189246
0.9982398957
0.9968805076
0.9971023886
0.9979148681
0.9997856252
1.001741431
1.002327407
0.8459959109
0.9769419793
0.9642299389
0.9985932101
0.9785076555
0.9873169167
0.987245785
0.9906367722
0.991974844
0.9936250023
0.9940561418
0.9951822367
0.993670732
0.9907600416
0.9900316366
0.9926165009
0.9973198572
0.9994157595
0.9991400726
0.9973288844
0.9973650989
0.9981071075
0.9997647918
1.000307541
1.000126359
0.9990939893
0.997412549
0.9961113078
0.9966585406
0.9985304669
1.001397405
1.00318534
0.9580331992
0.960119098
0.962782833
1.000279444
0.9790615297
0.9898748713
0.9898345694
0.9925831836
0.9914802232
0.9926668911
0.9931552779
0.9948382508
0.9935616676
0.9908420273
0.9901754762
0.992863623
0.9976236172
0.9996242198
0.9992158436
0.9973388535
0.9968471417
0.9975255495
0.9990998916
0.9995243814
0.9994608108
0.998818201
0.9977889873
0.9967310952
0.9966207581
0.997843154
1.000409768
1.003106771
0.9778757181
0.9588183077
0.9633871866
1.003034708
0.981362318
0.9899492554
0.9895118122
0.9926417372
0.992018404
0.9936264515
0.9933736337
0.9948943918
0.9935135432
0.9908185443
0.9902262591
0.9929531454
0.9978691696
0.999585157
0.9990481722
0.9971876969
0.9964707001
0.9971678602
0.9987766224
0.9992192545
0.9992476325
0.9984150698
0.9973219688
0.9969013259
0.9971891784
0.9985696245
1.000397534
1.002774185
0.8877463112
0.9725599107
0.9624435653
0.9672166878
1.003188731
0.9836981204
0.9889683615
0.9883812871
0.9916111146
0.992891389
0.9937068659
0.994431905
0.996171735
0.9941690535
0.9910989894
0.9902795121
0.9927129007
0.9974048443
0.999024183
0.9984006729
0.9967260482
0.9965092634
0.9975159116
0.9988452928
0.9989955952
0.9984974437
0.997615195
0.9970468245
0.9971607614
0.9977932634
0.999048249
1.00057221
1.002884817
0.9184174367
0.9587679216
0.9805764444
0.9709175436
1.001995579
0.9834338763
0.987919423
0.9881202713
0.9910744868
0.9925155853
0.9928974754
0.9936976543
0.9956057919
0.9945292099
0.9915037816
0.9904038351
0.9926144674
0.9973054815
0.9992190525
0.9986717507
0.9971158136
0.997128557
0.9976996334
0.9987122041
0.9985917483
0.9976970856
0.9967519394
0.9965904007
0.9972249502
0.9985036158
0.9999487529
1.00093243
1.00265545
0.9305562975
0.966286156
0.9900435206
0.971073613
1.000296542
0.9825726299
0.9877432423
0.9891081866
0.9915073495
0.9918814407
0.9918152432
0.9928255157
0.9948419982
0.9938510754
0.99146214
0.9907428692
0.9931691731
0.9979297294
0.9995901731
0.9989136359
0.9971134041
0.9965282805
0.9970907421
0.9981929249
0.9984352423
0.9978797506
0.9969718854
0.9968027173
0.997413056
0.9987283497
1.00058078
1.001665844
1.002601725
0.9647927107
0.9894293215
0.9906897041
0.9707606909
1.000029381
0.982371074
0.9891960319
0.9917059085
0.9931470527
0.9916992801
0.9916405614
0.992347086
0.9941448917
0.9932729688
0.9911727331
0.9911437371
0.9940329027
0.9985204024
0.9993695523
0.9984295428
0.9962691111
0.9954405399
0.9967657783
0.9982116696
0.9987572798
0.998387606
0.9972240774
0.9964384061
0.9966549468
0.9978706715
1.000156359
1.00222521
1.003231724
0.9938417125
0.9959376393
0.9868403816
0.9691817223
1.000444176
0.983047846
0.9914693689
0.9932198084
0.9937333947
0.9920238363
0.9917676664
0.9921980288
0.9940681599
0.9932427793
0.9910848549
0.9914471628
0.9945011545
0.9986800385
0.9992722297
0.9982369414
0.9957914085
0.9950539424
0.9965481791
0.9977634859
0.9981213978
0.9976375845
0.9967317467
0.9957217357
0.9958119695
0.9970997831
0.9998866931
1.002932261
1.004323173
0.9955486722
0.9953299376
0.9754629259
0.9687784248
1.001976619
0.9849848707
0.9917113259
0.9928709382
0.9933294718
0.992235001
0.9917384671
0.9921418638
0.9942255469
0.9939260245
0.9913409273
0.9916169211
0.9943211743
0.9986015471
0.9993500293
0.9984067134
0.996080722
0.9952234877
0.996038151
0.9970631213
0.9972917011
0.9967213163
0.9959772086
0.9955463489
0.9958610797
0.9973301383
1.000399293
1.003504271
1.004571159
0.991845473
0.9876357515
0.9728385344
0.9693907524
1.002874861
0.9866530065
0.9914113174
0.9921235074
0.9925094839
0.9918698914
0.991304113
0.9918881205
0.9941052576
0.9945798015
0.9918900588
0.9918165747
0.9940538763
0.9984559096
0.9992826728
0.9986236881
0.9967956685
0.9954590364
0.9956625431
0.9962880106
0.9962878356
0.996043906
0.9956411541
0.9959210898
0.9966796185
0.9981815273
1.000405622
1.002718943
1.003951993
0.9787430544
0.9785696777
0.9759970955
0.9722384716
1.002577985
0.9868541802
0.9910727368
0.9919915283
0.9923146743
0.9915084213
0.9906244335
0.9915409407
0.9937804093
0.9944060139
0.9923317499
0.9921865781
0.9942246275
0.9982913632
0.99886258
0.9982532902
0.9967477802
0.995478667
0.9956926498
0.9957323764
0.9957464883
0.9957852782
0.9958169044
0.9962678614
0.9972819852
0.9987615953
1.000304597
1.002135306
0.9710828462
0.9724221562
0.9791959888
0.9861508735
0.9739462448
1.002095411
0.9867162396
0.9911865427
0.9928657538
0.9930637429
0.9916369122
0.9904449866
0.9910350551
0.9932634885
0.993992978
0.9923458208
0.9925177642
0.9947871837
0.9982510916
0.9984264051
0.9976936359
0.9962682144
0.9950789912
0.9956259452
0.9958887399
0.9956128401
0.9957167385
0.9956241917
0.9959419601
0.9969385665
0.9987144219
1.000540077
1.002464551
0.9719088998
0.9759592122
0.9863821812
0.9905844313
0.973652639
1.000914552
0.986638146
0.9917554513
0.9945940417
0.9942330306
0.992103496
0.9903673341
0.990252542
0.9927837225
0.993505083
0.9922799107
0.9928274041
0.9953979744
0.9984428145
0.9983534098
0.9973127745
0.9958221837
0.9947600494
0.9952975977
0.9957442115
0.995853468
0.9955802941
0.99520676
0.995384936
0.9963037761
0.9984295416
1.00099067
1.003433539
0.9820226809
0.9865780326
0.9945952169
0.9899080496
0.9727614789
1.000421991
0.987047269
0.9933414259
0.9955375444
0.9942978373
0.9922571017
0.9902655213
0.989311055
0.9924006038
0.9932156632
0.9925002185
0.9932705357
0.9957184178
0.9986932084
0.9986313846
0.9974889711
0.9957421159
0.9946601082
0.9948678921
0.995380191
0.9956283929
0.9956120857
0.9953355421
0.9953360268
0.9960039651
0.998358029
1.001725614
1.004007178
0.9936843781
0.9910325542
0.9947344767
0.986470145
0.9714032567
1.000462193
0.988911429
0.9944817292
0.9953038712
0.9939002853
0.9919689205
0.9900226174
0.989059854
0.9923082569
0.9934877043
0.9930970111
0.9936578854
0.9957675403
0.9987203902
0.9987028815
0.9977365639
0.9959461202
0.9945399774
0.9941309787
0.994710856
0.9951463886
0.9952571661
0.9953982084
0.9957999111
0.9967889732
0.9990528762
1.001799173
1.003649188
0.9937431591
0.9897845089
0.9920739411
0.9807964546
0.9716145748
1.000875495
0.9912016717
0.9945352019
0.9947793013
0.9934201252
0.9915961588
0.9896678447
0.9886719179
0.991969392
0.9938510824
0.9933540572
0.9937695428
0.9957004634
0.9984144191
0.9983754594
0.9976993212
0.9959552861
0.9941478984
0.9935230752
0.993772762
0.9943870295
0.9948791223
0.9954865765
0.9965537414
0.9982123557
0.9998932644
1.001603452
1.003019786
0.9904224089
0.9843493981
0.9864316248
0.9803491654
0.9727095152
1.000754464
0.9917675228
0.9943656257
0.9945503509
0.9933257427
0.9913952142
0.9892663258
0.9880653754
0.9911858839
0.9936982652
0.9933326035
0.9938208484
0.9955006887
0.9979933481
0.9979510811
0.9973640156
0.9958328575
0.9939706352
0.9931489517
0.9932691091
0.9938645336
0.9946525733
0.9958311444
0.997118631
0.9988303601
1.000584951
1.001992961
1.002949272
0.9811076938
0.981277962
0.9860092813
0.9833402524
0.9746184487
1.000334565
0.9917410774
0.9944582749
0.994885767
0.9939872871
0.991585286
0.9888464065
0.9874322474
0.9904631906
0.9932162088
0.9931725273
0.9939821433
0.9954771599
0.9975434407
0.9974068543
0.9968551435
0.9956480479
0.9940932722
0.9933669557
0.9930825946
0.9936372883
0.9947259474
0.9957521087
0.9968275975
0.9985018405
1.000690287
1.002494904
1.003533694
0.9795163689
0.9816082655
0.988010692
0.9881414748
0.9750497733
0.9998120282
0.9919009325
0.9951753045
0.9959356727
0.9948472708
0.9920959109
0.9884717854
0.9870163601
0.9901262445
0.9927562975
0.9931408636
0.9942946586
0.9956104696
0.9971756946
0.9971315308
0.9965712999
0.995571375
0.9944118847
0.9941590054
0.9934614553
0.9937048283
0.9945118764
0.9952810147
0.9962422915
0.9979950653
1.000595096
1.002988952
1.004239044
0.9780883981
0.982438891
0.986487831
0.9920375367
0.9886025308
0.9748070217
0.9988645548
0.992533757
0.9964698012
0.996432711
0.9949911474
0.9924222107
0.9879118292
0.9866913556
0.9900929413
0.9927172676
0.9937175314
0.9947725325
0.9955895584
0.9970169527
0.9971341589
0.9966101003
0.9957586612
0.9949814106
0.9946003245
0.9940446094
0.9938653494
0.9944509738
0.995048012
0.9959258112
0.9976552018
1.000673781
1.003124735
1.004338159
0.9883422929
0.9915935028
0.98989878
0.9924542502
0.9881691692
0.9740305802
0.9980003307
0.9939565386
0.9973187512
0.9962602829
0.9947534511
0.9924059752
0.9876590708
0.9866357198
0.9900175959
0.9933890538
0.9946349383
0.9951967113
0.9955896309
0.9969990825
0.9973043527
0.9967812867
0.9960148223
0.995105198
0.994405063
0.9941327816
0.9943352706
0.9949756041
0.9955636481
0.996192393
0.9979858624
1.000698922
1.002850665
1.004171753
0.9950283159
0.9941293831
0.989991052
0.9921543818
0.9859162045
0.973444842
0.9974847793
0.9955748175
0.9975616233
0.9959425023
0.9945064628
0.9922211654
0.9874139586
0.9864349004
0.9897939755
0.9939736451
0.9949533827
0.9952734039
0.9957327164
0.9970560728
0.9971312625
0.996587461
0.9954994331
0.9942707371
0.9937032149
0.9938902971
0.9944388893
0.9954467525
0.9969093195
0.9976910116
0.9985940974
1.000364763
1.00247816
1.003961649
0.9932696326
0.9922177669
0.9874987659
0.9901239049
0.9841864905
0.9739113155
0.9970515098
0.9961175375
0.9974664682
0.9957266695
0.994418915
0.9920124935
0.9868075891
0.9858575821
0.9892233299
0.9938282879
0.9948371534
0.9952843625
0.9956399948
0.9967760408
0.9967524092
0.9960859752
0.9948273435
0.9934458299
0.9930669155
0.9937590536
0.9945521513
0.9957644122
0.9979260714
0.9996882932
0.9999494244
1.00055275
1.00231308
1.003724278
0.9888602851
0.9877725656
0.9846888566
0.9899492785
0.9848759493
0.975477763
0.9968264323
0.9964473908
0.9974704503
0.9956591572
0.994618823
0.9920060865
0.9863089474
0.9851922397
0.9885153646
0.9934289579
0.9948152889
0.9954553754
0.9957848199
0.9965862927
0.9963586036
0.99560951
0.9945562457
0.993302667
0.9930538356
0.9933457411
0.9942529182
0.995972213
0.9981358562
1.000512234
1.001461004
1.001912843
1.002737217
1.003473226
0.9853540438
0.986449245
0.9851391012
0.9909703058
0.9875047813
0.9771325
0.9967009491
0.9968940633
0.9976835357
0.995949801
0.9949810843
0.9923606991
0.9859363526
0.9850305839
0.9883645907
0.9932313028
0.9951419128
0.9956828009
0.995947923
0.9964166038
0.9961692756
0.995505742
0.9945448604
0.993581402
0.9932974147
0.9934093763
0.9941804567
0.9958225574
0.9980866432
1.0005072
1.002416302
1.003431178
1.003880812
1.003601917
0.986089963
0.9872543149
0.9868387511
0.9923674638
0.9894579967
0.9773847205
0.9963854635
0.9973644706
0.9977688751
0.9961423483
0.9952747106
0.9926359715
0.9861969656
0.9853087774
0.9885752149
0.99368619
0.9958839449
0.9961736759
0.9960908715
0.9964628237
0.9963546768
0.9956802374
0.9949095008
0.994219602
0.9936521431
0.9934619389
0.9940865969
0.995686166
0.9979774346
1.000670641
1.003119818
1.00429278
1.004536066
1.004370093
0.9897150472
0.9904478473
0.988326235
0.9926680253
0.9895860156
0.977268236
0.9955275164
0.9975080056
0.9975381704
0.9961142484
0.9954070273
0.9927792883
0.9863295017
0.9856177906
0.989059827
0.9947060035
0.9964586617
0.9961055553
0.995945353
0.9964171745
0.9964755965
0.9959130004
0.9952101752
0.9945786432
0.9939158225
0.9937599607
0.9942965126
0.9958572197
0.9983268204
1.001295023
1.0038056
1.004541095
1.004618204
0.9947910489
0.993950484
0.9920347174
0.9885646724
0.9924673114
0.9890689149
0.9764615266
0.9941504467
0.9974305953
0.9968744513
0.9957266408
0.9951205086
0.9921569289
0.986009599
0.985729318
0.9892527653
0.9953864652
0.9965577978
0.9962571326
0.9957196546
0.9959953254
0.996492444
0.9960490692
0.9954150505
0.9947753825
0.994116662
0.9941222922
0.9947856895
0.9964328638
0.9990488137
1.001850596
1.003979722
1.004655405
1.004609194
0.9960197941
0.9947786976
0.9924165568
0.9882806676
0.9920803668
0.988383927
0.9758591753
0.9929896956
0.9974162224
0.9963285058
0.9950794476
0.9946215831
0.9915597228
0.9853852784
0.9852672721
0.989021607
0.995611754
0.9967527935
0.9964043158
0.9958440274
0.9956441967
0.9959275235
0.9956215103
0.9952378362
0.9945469005
0.9941795677
0.9945066088
0.9953376693
0.9972087924
0.9997323339
1.002125696
1.003950882
1.004471257
1.00447192
0.9937431625
0.9928039305
0.9905954629
0.9875098967
0.9922160171
0.9888576973
0.9762347829
0.9927642346
0.9975482264
0.9960590129
0.9948962905
0.9945855381
0.9915353316
0.9852138034
0.9849291644
0.9886760005
0.9954190981
0.9969168049
0.9966022678
0.996141864
0.9957089938
0.995434137
0.9948130608
0.9946164541
0.9941815564
0.994057613
0.9944787185
0.9957392059
0.9976580399
1.000059261
1.002374839
1.003797692
1.004328118
1.004427454
0.9900659947
0.9901725201
0.9890397676
0.9880682689
0.9928875486
0.9897830179
0.9770728591
0.9930771552
0.9979002719
0.9956642832
0.9946527289
0.9948380517
0.9920421671
0.985699099
0.9852272415
0.9887329703
0.9950866089
0.9968935416
0.9967075998
0.9963847099
0.9959483202
0.9952448755
0.9944852338
0.9943218038
0.994177705
0.9942202721
0.9946535314
0.9959976839
0.9980085517
1.000230273
1.002316221
1.003826736
1.004289513
1.004385734
0.9901127186
0.9902985544
0.9896859229
0.9892982692
0.9939586916
0.9919017008
0.9779340297
0.9935393638
0.9982209202
0.9949623868
0.9942123478
0.9950609052
0.992732908
0.9864866043
0.9857749086
0.9891479474
0.9952813178
0.996790264
0.9965050054
0.9962062723
0.9960533627
0.9954955833
0.9947680525
0.9946257012
0.9944714953
0.9945259189
0.9949773862
0.9963240371
0.9982554492
1.000148967
1.002090651
1.003804543
1.004296443
1.004419393
0.9912713663
0.9914441926
0.9910258869
0.9918066274
0.9942785396
0.9925255772
0.9782827416
0.9933858806
0.9981791614
0.9940547833
0.9933587452
0.9947805683
0.9928271842
0.987027173
0.9864422948
0.9897941892
0.9959439553
0.9968275579
0.9963854606
0.9956637001
0.9956092053
0.9956759578
0.9951458097
0.9950453941
0.9949239874
0.994930824
0.995584422
0.9971353612
0.9989405985
1.000496572
1.002095731
1.003439412
)
;

boundaryField
{
    inlet
    {
        type            fixedValue;
        value           nonuniform 0();
    }
    outlet
    {
        type            zeroGradient;
    }
    bottom
    {
        type            slip;
    }
    top
    {
        type            slip;
    }
    obstacle
    {
        type            zeroGradient;
    }
    defaultFaces
    {
        type            empty;
    }
    procBoundary10to4
    {
        type            processor;
        value           nonuniform List<scalar> 
32
(
0.5540517433
0.5509325648
0.5447514995
0.5367123613
0.8142103888
0.7930780841
0.7786988043
0.7644295723
0.7482902173
0.7317666757
0.7186838223
0.7055871393
0.6920989818
0.6782638577
0.6672136345
0.6567883392
0.6470043922
0.6376430969
0.6297733681
0.6215906285
0.6136130513
0.6056806869
0.5987660372
0.5916472813
0.5840354937
0.5768980065
0.5718645678
0.5663439738
0.5604699851
0.5542858006
0.5479386247