/*--------------------------------*- C++ -*----------------------------------*\
  =========                 |
  \\      /  F ield         | OpenFOAM: The Open Source CFD Toolbox
   \\    /   O peration     | Website:  https://openfoam.org
    \\  /    A nd           | Version:  7
     \\/     M anipulation  |
\*---------------------------------------------------------------------------*/
FoamFile
{
    version     2.0;
    format      ascii;
    class       volVectorField;
    location    "4.9";
    object      U;
}
// * * * * * * * * * * * * * * * * * * * * * * * * * * * * * * * * * * * * * //

dimensions      [0 1 -1 0 0 0 0];

internalField   nonuniform List<vector> 
22
(
(2.987486447 0.03335053119 0)
(2.983709658 0.0471013309 0)
(2.999995492 8.125500681e-06 0)
(2.999982349 3.098586691e-05 0)
(2.999925178 0.0001480981276 0)
(2.999809758 0.0003775941921 0)
(2.99944435 0.001204401603 0)
(2.998874531 0.00255307557 0)
(2.997978284 0.00462829189 0)
(2.999999987 3.263072257e-08 0)
(2.999999862 1.64094324e-07 0)
(2.999998956 1.72976753e-06 0)
(2.999995498 7.115872155e-06 0)
(2.999966939 6.603647845e-05 0)
(2.999967508 5.328993245e-05 0)
(3.000000001 -1.418012797e-09 0)
(3.000000001 -1.666311618e-09 0)
(3 1.837362283e-10 0)
(3.000000002 -4.603635947e-09 0)
(2.999999787 3.910281904e-07 0)
(2.999999984 1.303097449e-07 0)
(3 -3.882178031e-10 0)
)
;

boundaryField
{
    inlet
    {
        type            fixedValue;
        value           nonuniform 0();
    }
    outlet
    {
        type            inletOutlet;
        inletValue      nonuniform 0();
        value           nonuniform 0();
    }
    bottom
    {
        type            slip;
    }
    top
    {
        type            slip;
    }
    obstacle
    {
        type            slip;
    }
    defaultFaces
    {
        type            empty;
    }
    procBoundary26to20
    {
        type            processor;
        value           nonuniform List<vector> 8((2.931972985 0.1720487627 0) (2.914078036 0.2224952129 0) (2.999341876 0.001284869674 0) (2.998498418 0.003167319765 0) (2.996993558 0.006736789751 0) (2.994758325 0.01254591591 0) (2.991598304 0.02130957691 0) (2.991598304 0.02130957691 0));
    }
    procBoundary26to25
    {
        type            processor;
        value           nonuniform List<vector> 4((2.99999956 5.96104096e-07 0) (3.000000015 -1.291225624e-08 0) (3.000000015 -1.291225624e-08 0) (3.000000001 -1.419169389e-09 0));
    }
    procBoundary26to27
    {
        type            processor;
        value           nonuniform List<vector> 3((2.948111765 0.122655945 0) (2.979020108 0.05127904857 0) (2.996303013 0.008876037181 0));
    }
    procBoundary26to31
    {
        type            processor;
        value           uniform (3 -2.05408163e-10 0);
    }
    procBoundary26to32
    {
        type            processor;
        value           nonuniform List<vector> 7((3 -7.474019219e-10 0) (3 -7.520221441e-10 0) (3.000000001 -1.43483618e-09 0) (3 -1.181313766e-09 0) (3 -9.121600027e-10 0) (3 -7.474019219e-10 0) (3 -2.042730932e-11 0));
    }
    procBoundary26to33
    {
        type            processor;
        value           uniform (2.999767582 0.0005322779918 0);
    }
}


// ************************************************************************* //
