/*--------------------------------*- C++ -*----------------------------------*\
  =========                 |
  \\      /  F ield         | OpenFOAM: The Open Source CFD Toolbox
   \\    /   O peration     | Website:  https://openfoam.org
    \\  /    A nd           | Version:  7
     \\/     M anipulation  |
\*---------------------------------------------------------------------------*/
FoamFile
{
    version     2.0;
    format      ascii;
    class       volVectorField;
    location    "1.4";
    object      U;
}
// * * * * * * * * * * * * * * * * * * * * * * * * * * * * * * * * * * * * * //

dimensions      [0 1 -1 0 0 0 0];

internalField   nonuniform List<vector> 
138
(
(2.979995152 -0.0004152093916 0)
(2.981211347 -0.003601198075 0)
(2.979194098 0.003462583138 0)
(2.981551437 -0.001904293919 0)
(2.984582033 -0.002290484721 0)
(2.982921911 0.003193327308 0)
(2.978565226 0.004328369563 0)
(3.043859443 0.008336947328 0)
(3.03965065 -0.003180538105 0)
(3.036110626 -0.006411491157 0)
(3.032633389 0.002147727351 0)
(3.033235439 -0.001672672752 0)
(3.034821633 -0.0008525286255 0)
(3.03237126 0.004824102056 0)
(3.027283364 0.006056759157 0)
(3.096724344 -0.0004669454323 0)
(3.09274702 -0.003707472721 0)
(3.088728702 -0.00336490024 0)
(3.082818126 0.005064143642 0)
(3.082505788 0.0006784980031 0)
(3.082119783 4.940408068e-05 0)
(3.078898699 0.005509122271 0)
(3.074131793 0.00608972069 0)
(3.140931304 -0.007947454695 0)
(3.134700584 -0.004078489533 0)
(3.133760364 -0.002179288354 0)
(3.128233444 0.005775609594 0)
(3.127000859 0.002677895528 0)
(3.124852334 0.001620141634 0)
(3.121875895 0.005187126206 0)
(3.117668101 0.004278611124 0)
(3.18108377 -0.008784438062 0)
(3.1772293 -0.005575213234 0)
(3.175312357 -0.003198712065 0)
(3.169363237 0.004169914101 0)
(3.167367591 0.002285225785 0)
(3.163809151 0.0006455767144 0)
(3.160574193 0.002695973494 0)
(3.156868234 0.002220472664 0)
(3.221952988 0.004142433374 0)
(3.21636507 0.000779888035 0)
(3.216158945 -0.005365569356 0)
(3.211648034 -0.004919459468 0)
(3.205623621 0.002014193893 0)
(3.203773889 -0.0003342074628 0)
(3.198955878 -0.001398126086 0)
(3.195010161 0.001690892691 0)
(3.191316119 0.001689868895 0)
(3.255792688 0.01485070088 0)
(3.249017791 0.00990877023 0)
(3.24872384 -0.003999793403 0)
(3.242094572 -0.006394837514 0)
(3.236160739 0.0005110112923 0)
(3.234840163 -0.003138672581 0)
(3.232285198 -0.001942222406 0)
(3.228743437 0.003221154621 0)
(3.225425496 0.00290469434 0)
(3.280506291 0.01261358 0)
(3.27620114 0.009330550504 0)
(3.274450223 -0.004021400519 0)
(3.269573304 -0.004599386987 0)
(3.264507126 0.001189569811 0)
(3.263569798 -0.00342944327 0)
(3.263315246 -5.028087257e-05 0)
(3.261210061 0.00600904392 0)
(3.258478217 0.0047807766 0)
(3.297626157 0.001352939346 0)
(3.29461842 0.003755943601 0)
(3.295000058 -0.003250088561 0)
(3.293052544 0.00018478215 0)
(3.288895317 0.004690831682 0)
(3.287884299 0.0001692935243 0)
(3.287208542 0.002354294901 0)
(3.285669128 0.0073026145 0)
(3.28262201 0.004198369459 0)
(3.302280921 -0.009485499701 0)
(3.302459047 -0.00183002667 0)
(3.305536191 0.0005089778431 0)
(3.303679335 0.003832607557 0)
(3.299424901 0.00746658203 0)
(3.298794154 0.002227534011 0)
(3.298153782 -0.0005084571107 0)
(3.297018519 0.003557038638 0)
(3.29396693 0.0008822255509 0)
(3.296403586 -0.008426534427 0)
(3.296257548 -0.002619869093 0)
(3.298428362 0.004649422648 0)
(3.2964729 0.003811604112 0)
(3.293710051 0.004416378309 0)
(3.294162837 -0.0006212881824 0)
(3.294501845 -0.0003305874251 0)
(3.293841551 0.002663492473 0)
(3.291294846 -0.0001043228379 0)
(3.279889132 0.002384851932 0)
(3.277002099 -0.001943489398 0)
(3.278693637 -0.001863044816 0)
(3.277783204 -0.0009086052497 0)
(3.276854754 0.003531209699 0)
(3.278947254 0.0003083765279 0)
(3.280712046 -0.001192485393 0)
(3.280078401 -0.0001522754244 0)
(3.277862945 0.0005077737875 0)
(3.254919184 0.01216584033 0)
(3.253450343 0.005710883387 0)
(3.25677411 -0.006690295802 0)
(3.259221208 -0.009789870234 0)
(3.257259774 -0.005307313507 0)
(3.256948508 -0.001110541077 0)
(3.260701454 -0.002232036259 0)
(3.262448992 -0.003234475247 0)
(3.261254123 -0.001223974401 0)
(3.260964669 0.0006211667871 0)
(3.227974664 0.01446178267 0)
(3.231909132 0.01083037234 0)
(3.240582572 -0.003149931745 0)
(3.243865297 -0.007886218114 0)
(3.242313786 -0.002497030852 0)
(3.241353213 -0.0009692823443 0)
(3.244388705 -0.003663249788 0)
(3.245665211 -0.003050371726 0)
(3.246474891 0.0005869189777 0)
(3.247622943 0.003877226102 0)
(3.214951632 0.002836449766 0)
(3.21913764 0.005501569758 0)
(3.226063378 0.00268060485 0)
(3.230790275 -0.0002390912556 0)
(3.231653736 0.0003519483337 0)
(3.232674264 0.001231024991 0)
(3.23502006 -0.0006207781077 0)
(3.236579662 0.001295151995 0)
(3.239183585 0.003440637463 0)
(3.206384631 -0.0104989563 0)
(3.212309339 -0.002812722919 0)
(3.218587481 0.007646208927 0)
(3.224187103 0.006914911537 0)
(3.226299056 0.004692095056 0)
(3.229167564 0.004103375999 0)
(3.232398286 0.002404108656 0)
)
;

boundaryField
{
    inlet
    {
        type            fixedValue;
        value           nonuniform 0();
    }
    outlet
    {
        type            inletOutlet;
        inletValue      nonuniform 0();
        value           nonuniform 0();
    }
    bottom
    {
        type            slip;
    }
    top
    {
        type            slip;
    }
    obstacle
    {
        type            slip;
    }
    defaultFaces
    {
        type            empty;
    }
    procBoundary16to10
    {
        type            processor;
        value           nonuniform List<vector> 9((2.925142736 -0.003619588034 0) (2.932417163 -0.006313367085 0) (2.929594884 0.00212019653 0) (2.931395275 -0.001341212173 0) (2.935213266 -0.001931365108 0) (2.934084142 0.002222141307 0) (2.932687206 0.001575415754 0) (2.981928707 0.007451224066 0) (2.981928707 0.007451224066 0));
    }
    procBoundary16to11
    {
        type            processor;
        value           uniform (2.974193381 0.002491183691 0);
    }
    procBoundary16to15
    {
        type            processor;
        value           nonuniform List<vector> 
16
(
(3.050292374 -0.002371724368 0)
(3.104658943 -0.01295738027 0)
(3.148939637 -0.01858236638 0)
(3.186104199 -0.01309900281 0)
(3.186104199 -0.01309900281 0)
(3.225988418 -0.008755333637 0)
(3.262102033 -0.0001321347605 0)
(3.286763561 -0.0008533866361 0)
(3.300342729 -0.01148090972 0)
(3.304786234 -0.01732492357 0)
(3.301460136 -0.01258407273 0)
(3.283802156 0.001991266418 0)
(3.283802156 0.001991266418 0)
(3.263295984 0.008678548151 0)
(3.229145323 0.002989433441 0)
(3.212137942 -0.005053097151 0)
)
;
    }
    procBoundary16to17
    {
        type            processor;
        value           nonuniform List<vector> 
15
(
(3.021403209 0.003175728771 0)
(3.068215025 0.002187351548 0)
(3.111928827 0.001335900512 0)
(3.149567054 0.0008784577568 0)
(3.184496447 0.0006906759948 0)
(3.220265264 0.001818802719 0)
(3.252693715 0.003364533267 0)
(3.276879115 0.003090493016 0)
(3.289816607 -0.0001007116963 0)
(3.289047332 0.0002190351581 0)
(3.277647115 0.0004358375556 0)
(3.2620871 0.0005339298325 0)
(3.248659682 -0.001330431764 0)
(3.240253461 0.002468272424 0)
(3.240253461 0.002468272424 0)
)
;
    }
    procBoundary16to21
    {
        type            processor;
        value           uniform (3.202863386 -0.01050923475 0);
    }
    procBoundary16to22
    {
        type            processor;
        value           nonuniform List<vector> 10((3.234111132 0.004194616056 0) (3.235890314 0.00388162306 0) (3.205963328 -0.01478228478 0) (3.216023938 -0.006012753563 0) (3.220822208 0.006916480286 0) (3.226833416 0.007662511038 0) (3.227330647 0.002050817571 0) (3.229305199 0.001784950348 0) (3.234111132 0.004194616056 0) (3.231855531 0.001884161792 0));
    }
}


// ************************************************************************* //
