/*--------------------------------*- C++ -*----------------------------------*\
  =========                 |
  \\      /  F ield         | OpenFOAM: The Open Source CFD Toolbox
   \\    /   O peration     | Website:  https://openfoam.org
    \\  /    A nd           | Version:  7
     \\/     M anipulation  |
\*---------------------------------------------------------------------------*/
FoamFile
{
    version     2.0;
    format      ascii;
    class       volVectorField;
    location    "4.2";
    object      U;
}
// * * * * * * * * * * * * * * * * * * * * * * * * * * * * * * * * * * * * * //

dimensions      [0 1 -1 0 0 0 0];

internalField   nonuniform List<vector> 
138
(
(3 -1.172934002e-14 0)
(3 -1.253370786e-14 0)
(3 -1.142124508e-14 0)
(3 -1.165492597e-14 0)
(3 -1.769313619e-14 0)
(3 -5.699843748e-14 0)
(3 -3.076734233e-13 0)
(3 -8.705158852e-13 0)
(3 -4.06743403e-15 0)
(3 -3.736756813e-15 0)
(3 -3.073341554e-15 0)
(3 -1.350120495e-15 0)
(3 -1.87943111e-16 0)
(3 -2.843776494e-16 0)
(3 -2.836867312e-15 0)
(3 -1.411443758e-14 0)
(3 -4.694876412e-14 0)
(3 8.222909828e-15 0)
(3 8.5325228e-15 0)
(3 7.823102593e-15 0)
(3 7.378952329e-15 0)
(3 5.56296944e-15 0)
(3 2.642737587e-15 0)
(3 2.253428883e-15 0)
(3 2.501970532e-15 0)
(3 6.162830896e-16 0)
(3 7.914484986e-15 0)
(3 6.857611519e-15 0)
(3 5.224212383e-15 0)
(3 3.076221405e-15 0)
(3 2.566870777e-15 0)
(3 2.370820822e-15 0)
(3 2.737195913e-15 0)
(3 3.391306493e-15 0)
(3 3.931718679e-15 0)
(3 8.084945971e-15 0)
(3 8.163485597e-15 0)
(3 7.719419933e-15 0)
(3 6.654487797e-15 0)
(3 6.74873936e-15 0)
(3 8.215339212e-15 0)
(3 8.237159239e-15 0)
(3 7.997246194e-15 0)
(3 8.217611429e-15 0)
(3 1.050583582e-14 0)
(3 1.088881347e-14 0)
(3 1.12295491e-14 0)
(3 1.07596652e-14 0)
(3 1.060061861e-14 0)
(3 1.071762256e-14 0)
(3 1.124663234e-14 0)
(3 1.153213395e-14 0)
(3 1.028371569e-14 0)
(3 8.153775832e-15 0)
(3 9.070930886e-15 0)
(3 8.393481561e-15 0)
(3 8.636001408e-15 0)
(3 7.970663372e-15 0)
(3 7.921525764e-15 0)
(3 7.744463723e-15 0)
(3 6.334152393e-15 0)
(3 5.850560452e-15 0)
(3 -1.471429044e-15 0)
(3 -1.379455694e-15 0)
(3 -1.159370739e-15 0)
(3 -2.075996156e-15 0)
(3 -1.762045871e-15 0)
(3 -1.575463321e-15 0)
(3 -2.19865295e-15 0)
(3 -3.55597142e-15 0)
(3 -4.902709547e-15 0)
(3 -1.072481273e-14 0)
(3 -1.068857527e-14 0)
(3 -1.125281058e-14 0)
(3 -3.977915724e-15 0)
(3 -4.023017183e-15 0)
(3 -4.492230372e-15 0)
(3 -4.573994686e-15 0)
(3 -2.59622182e-15 0)
(3 -5.671281586e-16 0)
(3 -1.8317944e-15 0)
(3 -3.638492371e-15 0)
(3 1.329054652e-15 0)
(3 1.337558487e-15 0)
(3 -1.041278912e-15 0)
(3 -9.946092103e-16 0)
(3 -5.400729738e-16 0)
(3 1.708448105e-16 0)
(3 2.959320431e-15 0)
(3 5.904248025e-15 0)
(3 2.243643898e-15 0)
(3 6.291685461e-16 0)
(3 1.497542998e-15 0)
(3 2.831316553e-15 0)
(3 5.150469266e-15 0)
(3 8.823600006e-15 0)
(3 9.706235198e-15 0)
(3 8.569996813e-15 0)
(3 3.464360343e-15 0)
(3 2.527982154e-15 0)
(3 3.278283114e-15 0)
(3 5.096935554e-15 0)
(3 7.286537363e-15 0)
(3 7.89261279e-15 0)
(3 7.877711913e-15 0)
(3 7.640388876e-15 0)
(3 -1.81337902e-15 0)
(3 -1.809752649e-15 0)
(3 -7.364865577e-16 0)
(3 1.233513298e-15 0)
(3 2.629658016e-15 0)
(3 2.304415954e-15 0)
(3 3.823181768e-15 0)
(3 8.040710539e-15 0)
(3 -2.163936784e-15 0)
(3 -9.351107874e-16 0)
(3 1.031698914e-15 0)
(3 2.272143776e-15 0)
(3 2.170487969e-15 0)
(3 7.396674863e-15 0)
(3 8.09255619e-15 0)
(3 8.785732446e-15 0)
(3 1.97524882e-15 0)
(3 3.99962534e-15 0)
(3 5.867948863e-15 0)
(3 5.944103587e-15 0)
(3 4.941442229e-15 0)
(3 4.747176249e-15 0)
(3 2.604020964e-15 0)
(3 3.069199973e-16 0)
(3 2.88363583e-15 0)
(3 2.592417618e-15 0)
(3 1.429105434e-15 0)
(3 1.626490614e-15 0)
(3 -6.689944388e-16 0)
(3 -3.362365213e-15 0)
(3 -7.382410119e-15 0)
(3 -1.008921364e-14 0)
)
;

boundaryField
{
    inlet
    {
        type            fixedValue;
        value           nonuniform 0();
    }
    outlet
    {
        type            inletOutlet;
        inletValue      nonuniform 0();
        value           nonuniform 0();
    }
    bottom
    {
        type            slip;
    }
    top
    {
        type            slip;
    }
    obstacle
    {
        type            slip;
    }
    defaultFaces
    {
        type            empty;
    }
    procBoundary25to19
    {
        type            processor;
        value           nonuniform List<vector> 
17
(
(3 -1.615480119e-14 0)
(3 -1.483170974e-14 0)
(3 -2.870319103e-14 0)
(3 -2.674411016e-13 0)
(3 -9.624373899e-13 0)
(3 -3.235581125e-12 0)
(3 -7.271776662e-12 0)
(3 -1.051650488e-11 0)
(3 -1.724625622e-14 0)
(3 -1.167878419e-14 0)
(3 -1.15974394e-14 0)
(3 -1.094241579e-14 0)
(3 -1.070572739e-14 0)
(3 -1.197366484e-14 0)
(3 -1.100551584e-14 0)
(3 -1.052230832e-14 0)
(3 -1.052230832e-14 0)
)
;
    }
    procBoundary25to24
    {
        type            processor;
        value           nonuniform List<vector> 7((3 -5.837535064e-15 0) (3 1.360667665e-15 0) (3 3.32316827e-15 0) (3 4.629198058e-15 0) (3 -7.304056859e-16 0) (3 -3.124791018e-15 0) (3 1.368921942e-15 0));
    }
    procBoundary25to26
    {
        type            processor;
        value           nonuniform List<vector> 9((3 -2.180603339e-12 0) (3 -2.180603339e-12 0) (3 -2.070576088e-13 0) (3 -6.837280339e-16 0) (3 4.418632424e-15 0) (3 7.555810452e-15 0) (3 8.765176164e-15 0) (3 4.174410726e-15 0) (3 -5.244084008e-15 0));
    }
    procBoundary25to30
    {
        type            processor;
        value           uniform (3 2.983593527e-15 0);
    }
    procBoundary25to31
    {
        type            processor;
        value           nonuniform List<vector> 
18
(
(3 -9.684482594e-15 0)
(3 -9.660242363e-15 0)
(3 -9.870079607e-15 0)
(3 -1.036596901e-14 0)
(3 -1.11573869e-14 0)
(3 -1.109134334e-14 0)
(3 -1.279675699e-14 0)
(3 -1.495751434e-14 0)
(3 -9.684482594e-15 0)
(3 -1.463126329e-14 0)
(3 5.280195309e-15 0)
(3 4.56790658e-16 0)
(3 -2.384840303e-15 0)
(3 -4.34083148e-15 0)
(3 -5.316490677e-15 0)
(3 -8.299206894e-15 0)
(3 -1.307988241e-14 0)
(3 -1.462301864e-14 0)
)
;
    }
}


// ************************************************************************* //
