/*--------------------------------*- C++ -*----------------------------------*\
  =========                 |
  \\      /  F ield         | OpenFOAM: The Open Source CFD Toolbox
   \\    /   O peration     | Website:  https://openfoam.org
    \\  /    A nd           | Version:  7
     \\/     M anipulation  |
\*---------------------------------------------------------------------------*/
FoamFile
{
    version     2.0;
    format      ascii;
    class       volVectorField;
    location    "3.8";
    object      U;
}
// * * * * * * * * * * * * * * * * * * * * * * * * * * * * * * * * * * * * * //

dimensions      [0 1 -1 0 0 0 0];

internalField   nonuniform List<vector> 
23
(
(2.974528678 0.06437566157 0)
(2.961227087 0.09552587886 0)
(2.961876511 0.09652941888 0)
(2.999767582 0.0005322785282 0)
(2.992184464 0.01835879311 0)
(2.977556177 0.05599594613 0)
(2.96224957 0.1028071388 0)
(2.999992948 1.622711277e-05 0)
(2.998869116 0.002606329201 0)
(2.992273735 0.01977259291 0)
(2.97618234 0.06291396306 0)
(2.999999917 1.86445889e-07 0)
(2.999898639 0.0002461866493 0)
(2.998687484 0.003340107342 0)
(2.990277622 0.02420326418 0)
(3 1.011095634e-09 0)
(2.999995184 1.212552871e-05 0)
(2.999845789 0.0003992350604 0)
(2.998193401 0.004452293641 0)
(3 -6.006758363e-12 0)
(2.999999772 2.653346024e-07 0)
(2.999986929 1.387462477e-05 0)
(2.999661287 0.0003946050242 0)
)
;

boundaryField
{
    inlet
    {
        type            fixedValue;
        value           nonuniform 0();
    }
    outlet
    {
        type            inletOutlet;
        inletValue      nonuniform 0();
        value           nonuniform 0();
    }
    bottom
    {
        type            slip;
    }
    top
    {
        type            slip;
    }
    obstacle
    {
        type            slip;
    }
    defaultFaces
    {
        type            empty;
    }
    procBoundary33to26
    {
        type            processor;
        value           uniform (2.999999984 1.303098261e-07 0);
    }
    procBoundary33to27
    {
        type            processor;
        value           nonuniform List<vector> 5((2.950019373 0.1322452046 0) (2.952384985 0.1238447047 0) (2.965924631 0.08442726692 0) (2.996303011 0.008876042471 0) (2.996303011 0.008876042471 0));
    }
    procBoundary33to32
    {
        type            processor;
        value           nonuniform List<vector> 4((3 -9.121590448e-10 0) (3 -6.852351258e-10 0) (3 -1.737160663e-10 0) (3 -1.172748612e-11 0));
    }
    procBoundary33to34
    {
        type            processor;
        value           nonuniform List<vector> 6((2.972097217 0.07857938914 0) (2.963755182 0.0980464083 0) (2.968371469 0.07925680705 0) (2.979676849 0.04890041025 0) (2.990753088 0.02419689482 0) (2.997027956 0.003066026541 0));
    }
}


// ************************************************************************* //
