/*--------------------------------*- C++ -*----------------------------------*\
  =========                 |
  \\      /  F ield         | OpenFOAM: The Open Source CFD Toolbox
   \\    /   O peration     | Website:  https://openfoam.org
    \\  /    A nd           | Version:  7
     \\/     M anipulation  |
\*---------------------------------------------------------------------------*/
FoamFile
{
    version     2.0;
    format      ascii;
    class       volScalarField;
    location    "0.9";
    object      p;
}
// * * * * * * * * * * * * * * * * * * * * * * * * * * * * * * * * * * * * * //

dimensions      [1 -1 -2 0 0 0 0];

internalField   nonuniform List<scalar> 8(1.002337421 1.005743459 1.000001319 1.000027678 1.000032423 0.9999999834 0.9999999716 1.000000126);

boundaryField
{
    inlet
    {
        type            fixedValue;
        value           nonuniform 0();
    }
    outlet
    {
        type            zeroGradient;
    }
    bottom
    {
        type            slip;
    }
    top
    {
        type            slip;
    }
    obstacle
    {
        type            zeroGradient;
    }
    defaultFaces
    {
        type            empty;
    }
    procBoundary32to26
    {
        type            processor;
        value           nonuniform List<scalar> 4(1.047695211 1.095642209 1.000793772 1.000793772);
    }
    procBoundary32to31
    {
        type            processor;
        value           nonuniform List<scalar> 2(0.99999993 0.9999999876);
    }
    procBoundary32to33
    {
        type            processor;
        value           nonuniform List<scalar> 3(1.059572764 1.015104078 1.001527675);
    }
}


// ************************************************************************* //
