/*--------------------------------*- C++ -*----------------------------------*\
  =========                 |
  \\      /  F ield         | OpenFOAM: The Open Source CFD Toolbox
   \\    /   O peration     | Website:  https://openfoam.org
    \\  /    A nd           | Version:  7
     \\/     M anipulation  |
\*---------------------------------------------------------------------------*/
FoamFile
{
    version     2.0;
    format      ascii;
    class       volScalarField;
    location    "4.9";
    object      T;
}
// * * * * * * * * * * * * * * * * * * * * * * * * * * * * * * * * * * * * * //

dimensions      [0 0 0 1 0 0 0];

internalField   nonuniform List<scalar> 
555
(
1.006109376
1.006265619
1.006486632
1.006467995
1.006415082
0.888708914
0.9165934178
0.9534023597
0.9843654837
1.000130311
1.000660858
1.00282799
1.00383136
1.005022383
1.005976507
1.006313001
1.006270855
1.006594406
1.006774261
1.006809097
1.006769103
0.9379690544
0.9758939762
0.9853321454
0.9952599966
1.005073495
1.004525684
1.00496923
1.005754526
1.006644105
1.007209429
1.007249315
1.006920855
1.006521122
1.006321941
1.006346192
1.006562191
0.977870852
1.001180335
1.003751992
1.003889146
1.00485475
1.004708627
1.004980995
1.005862253
1.006398721
1.006903116
1.007365851
1.007328196
1.006918572
1.006505662
1.00644743
1.006644381
1.001053663
1.005075494
1.00730626
1.007242473
1.006656214
1.005939141
1.005516863
1.005406211
1.005617173
1.006292529
1.007208237
1.007405393
1.007343165
1.00712504
1.006905324
1.00699323
1.004009449
1.004466161
1.005966988
1.007172668
1.007023225
1.006755123
1.006305127
1.005913126
1.005993122
1.00641231
1.007129716
1.007449028
1.007492104
1.007462159
1.007431266
1.007387051
1.004199506
1.003884317
1.004654502
1.006072249
1.006753861
1.006897283
1.006958133
1.006887801
1.006849034
1.007059277
1.00737704
1.007558762
1.007593724
1.007550467
1.007518979
1.007468758
1.006024234
1.005397764
1.005714518
1.00638984
1.00673047
1.006915067
1.007204173
1.007392399
1.007542693
1.007740349
1.007862396
1.007860389
1.007809953
1.007700025
1.007558772
1.007475846
1.007308458
1.007381682
1.007578942
1.007586934
1.007464791
1.007398067
1.007485791
1.007675297
1.007886865
1.008091781
1.00825316
1.008246445
1.008168558
1.008032789
1.007838694
1.007710259
1.007759869
1.008094209
1.008342138
1.008338753
1.00825784
1.00809057
1.008104206
1.008227392
1.008292733
1.008487193
1.008722659
1.00886484
1.008842652
1.008749267
1.008543169
1.008323795
1.008017622
1.008416853
1.008729151
1.009006381
1.009042334
1.009021525
1.009096618
1.00926598
1.009374448
1.009426928
1.009582679
1.009688188
1.009706127
1.009676307
1.009550539
1.009341239
1.008957661
1.009061688
1.009312986
1.009698025
1.010044857
1.010257727
1.010477128
1.010688605
1.010818124
1.01076049
1.010783937
1.010793636
1.010768815
1.010738178
1.010711284
1.010609271
1.010803754
1.010822599
1.010963436
1.011265642
1.011546846
1.011748085
1.011866718
1.011974457
1.011998391
1.011936798
1.011862702
1.011768085
1.01169315
1.011673433
1.011763904
1.011792448
1.01263905
1.01261318
1.012660415
1.01282218
1.01296945
1.013047482
1.013071957
1.01311539
1.013151437
1.013098767
1.012970129
1.012821356
1.012745549
1.01269389
1.01270063
1.012727534
1.013947111
1.013804421
1.013741108
1.013682585
1.013653949
1.013671494
1.013745182
1.013856745
1.013888988
1.013867847
1.013765036
1.01363375
1.013549857
1.013453181
1.0134103
1.013416085
1.014464126
1.014198319
1.014015804
1.013862527
1.013724811
1.013713312
1.013840404
1.014087526
1.014244905
1.014238377
1.014117929
1.013964545
1.013723414
1.013687756
1.013825272
1.014049177
1.015126674
1.014917525
1.014766223
1.014609649
1.014322551
1.013786584
1.013357098
1.013259282
1.013876718
1.014662975
1.014894103
1.014883834
1.014497802
1.014019621
1.013507799
1.013105996
1.01532214
1.015197749
1.015121308
1.015056218
1.014893459
1.01440826
1.013433846
1.012786331
1.012874655
1.014318233
1.015342336
1.015480202
1.015146033
1.014571407
1.013934241
1.012977226
1.014735866
1.014818242
1.014936836
1.015017068
1.014885404
1.014372267
1.013542306
1.01270386
1.012704679
1.013492095
1.014856371
1.015537048
1.015238371
1.014705461
1.014075279
1.013213176
1.013020686
1.012946455
1.013112444
1.01342224
1.01381908
1.013824766
1.013184723
1.012799405
1.012705596
1.013057921
1.013845178
1.014697621
1.014838998
1.014568791
1.014031601
1.012789538
1.011353769
1.010952352
1.01089314
1.011114756
1.011682378
1.012465702
1.012824656
1.012715303
1.012589582
1.012614121
1.012764739
1.013186978
1.01360615
1.013986001
1.013745317
1.012517924
1.009766301
1.009377497
1.009338343
1.009436233
1.009869073
1.010873942
1.012131087
1.012503138
1.012231605
1.011847989
1.011781131
1.011813478
1.012044502
1.012629701
1.012456826
1.012060581
1.008725876
1.008478502
1.008468432
1.008530711
1.008772097
1.009553758
1.010844508
1.011780143
1.011568391
1.010824867
1.010409346
1.009951847
1.010325165
1.010751077
1.010796196
1.011187761
1.007944195
1.007707866
1.007630666
1.007669255
1.008016593
1.00851094
1.009379857
1.010337398
1.010336002
1.009699624
1.008960721
1.008306115
1.008604082
1.008809817
1.009304392
1.010074098
1.00829803
1.008081938
1.007729312
1.007250494
1.006925519
1.007135699
1.007712767
1.008499529
1.00883858
1.008625101
1.008002142
1.00747933
1.007556384
1.007727163
1.008194955
1.008802898
1.008485911
1.008560506
1.008412149
1.007907139
1.006877784
1.005985312
1.006195118
1.006931848
1.007604404
1.007632461
1.007264836
1.006689897
1.006607538
1.006795744
1.007307814
1.007394821
1.007552385
1.00761607
1.007676194
1.007580034
1.007231956
1.006385916
1.005686956
1.005784049
1.006380838
1.006584415
1.006495192
1.006060721
1.005788964
1.005843626
1.006144512
1.00589989
1.006186338
1.006201325
1.006237962
1.006211333
1.006118561
1.005837856
1.005596996
1.005341447
1.005413852
1.005617994
1.005734865
1.005564269
1.005277014
1.004982295
1.004792118
1.004136042
1.004109788
1.004083002
1.004263487
1.004384346
1.004388743
1.004421394
1.00446459
1.004395367
1.004350564
1.004469558
1.004629614
1.004543602
1.00430804
1.004092865
1.003703703
1.002473983
1.001629615
1.001724944
1.001800025
1.001844257
1.002099439
1.002488965
1.002794475
1.002824764
1.002726052
1.002739211
1.002955753
1.003115386
1.003047362
1.002821619
1.002463237
1.001786096
1.001150311
0.9993194912
0.9993623499
0.9994256439
0.9996029344
0.9997916087
1.00004092
1.000322884
1.000388472
1.000368689
1.00046124
1.000735587
1.000891325
1.000860631
1.000666266
1.000264338
0.9993938683
0.9988604193
0.9969982036
0.9970459661
0.9971528876
0.9972778105
0.9974537462
0.9975288054
0.9975704149
0.9975627784
0.997561256
0.9976902551
0.9979100767
0.9980616414
0.9980689279
0.9979244798
0.9973941289
0.9965062345
0.9964235378
0.994748262
0.9947318008
0.9949311839
0.9949791758
0.9949698795
0.9949002697
0.9947791328
0.9947780002
0.9948406435
0.9949280727
0.9949844142
0.9950789632
0.9951384641
0.9949917323
0.9944047845
0.9939290128
0.9943585761
0.9927710481
0.9926529231
0.9927031983
0.9927100138
0.9926033609
0.9923883534
0.99224959
0.9923031753
0.9923906834
0.9923746384
0.9922797903
0.9921706385
0.9922730479
0.9922273247
0.9919807236
0.9920187429
0.9927358666
0.9910979892
0.9909659769
0.9907062131
0.9906337181
0.9905827873
0.9904250606
0.9903053408
0.9903069928
0.9903638944
0.9902977964
0.9901144106
0.9899627229
0.9901407621
0.9903911884
0.9904235668
0.9906655493
0.9915010188
)
;

boundaryField
{
    inlet
    {
        type            fixedValue;
        value           nonuniform 0();
    }
    outlet
    {
        type            inletOutlet;
        inletValue      uniform 1;
        value           nonuniform List<scalar> 
35
(
1.013103308
1.012839761
1.012958973
1.012503359
1.012438699
1.012053039
1.011329392
1.010325953
1.009014438
1.007505177
1.005893374
1.004029715
1.002063985
1.000965819
0.9988342571
0.996585067
0.99444771
0.9930435869
0.9916394511
1.006416298
1.006764588
1.006558216
1.006647447
1.006998755
1.007389612
1.007469287
1.007474384
1.007709487
1.008321237
1.009337657
1.010606808
1.01179217
1.012727175
1.013413159
1.01407459
)
;
    }
    bottom
    {
        type            slip;
    }
    top
    {
        type            slip;
    }
    obstacle
    {
        type            zeroGradient;
    }
    defaultFaces
    {
        type            empty;
    }
    procBoundary11to5
    {
        type            processor;
        value           nonuniform List<scalar> 
17
(
1.005439558
1.005424874
1.005031284
1.005033192
1.005670859
0.8743413891
0.8793746349
0.9018345629
0.9319926753
0.9645757452
0.9813522556
0.995922012
0.9984515698
1.001789964
1.004748099
1.005506089
1.005506089
)
;
    }
    procBoundary11to10
    {
        type            processor;
        value           nonuniform List<scalar> 
34
(
0.8746204192
0.8982765401
0.9522633232
0.9981983334
1.004942719
1.004687409
1.006637002
1.007240494
1.007417056
1.007789401
1.009070551
1.010930557
1.012726034
1.014048669
1.014727475
1.015292248
1.015403743
1.014747324
1.013492602
1.012037107
1.010403038
1.009180001
1.008261736
1.008386085
1.008474604
1.007615969
1.006280151
1.004158701
1.004158701
1.001697179
0.9994331455
0.9970542006
0.9948074527
0.9929502811
)
;
    }
    procBoundary11to16
    {
        type            processor;
        value           uniform 0.9911443514;
    }
    procBoundary11to17
    {
        type            processor;
        value           nonuniform List<scalar> 
17
(
0.9894907146
0.9895083935
0.9893315842
0.9892966953
0.9893755913
0.9893286781
0.9892891273
0.9892815359
0.9893477087
0.9893714399
0.9891823803
0.9889414928
0.9891214468
0.9894705017
0.9897714558
0.9901940407
0.9903764712
)
;
    }
}


// ************************************************************************* //
