/*--------------------------------*- C++ -*----------------------------------*\
  =========                 |
  \\      /  F ield         | OpenFOAM: The Open Source CFD Toolbox
   \\    /   O peration     | Website:  https://openfoam.org
    \\  /    A nd           | Version:  7
     \\/     M anipulation  |
\*---------------------------------------------------------------------------*/
FoamFile
{
    version     2.0;
    format      ascii;
    class       volScalarField;
    location    "4.9";
    object      p;
}
// * * * * * * * * * * * * * * * * * * * * * * * * * * * * * * * * * * * * * //

dimensions      [1 -1 -2 0 0 0 0];

internalField   nonuniform List<scalar> 
143
(
1.002557425
1.033173863
1.13205303
1.270675268
1.394234903
1.397499733
1.387400938
1.337113839
1.00000026
1.000175431
1.005202424
1.033681023
1.138556457
1.296714163
1.363254122
1.375878923
1.375341606
1.000000001
1.00000807
1.00049668
1.00515891
1.043830227
1.140431082
1.275008905
1.351193221
1.379721655
1
1.000000255
1.000029647
1.000508559
1.008209461
1.042080591
1.143764948
1.274424301
1.366767344
1
1.000000006
1.000001147
1.000032563
1.000960553
1.00784329
1.047741032
1.144732007
1.282966401
1
1
1.000000029
1.000001384
1.000071569
1.000945189
1.009623956
1.049923143
1.147069263
1
1
1
1.000000039
1.000003528
1.000074042
1.001243753
1.011057236
1.049040973
1
1
1
1.000000001
1.000000117
1.000003815
1.000108234
1.001539946
1.010311892
1
1
1
1
1.000000003
1.000000132
1.000006271
1.000134899
1.001454771
1
1
1
1
1
1.000000003
1.000000241
1.000007607
1.000133416
1
1
1
1
1
1
1.000000006
1.00000027
1.000008373
1
1
1
1
1
1
1
1.000000006
1.000000353
1
1
1
1
1
1
1
1
1.00000001
1
1
1
1
1
1
1
1
1
1
1
1
1
1
1
1
1
1
1
1
1
1
1
1
1
1
1
)
;

boundaryField
{
    inlet
    {
        type            fixedValue;
        value           nonuniform 0();
    }
    outlet
    {
        type            zeroGradient;
    }
    bottom
    {
        type            slip;
    }
    top
    {
        type            slip;
    }
    obstacle
    {
        type            zeroGradient;
    }
    defaultFaces
    {
        type            empty;
    }
    procBoundary33to26
    {
        type            processor;
        value           nonuniform List<scalar> 6(0.9999999932 0.9999999999 1 1 1 1);
    }
    procBoundary33to27
    {
        type            processor;
        value           nonuniform List<scalar> 10(1.022799119 1.123742626 1.30630182 1.372943471 1.40638007 1.39805522 1.345705208 1.243301945 1.000022945 1.000022945);
    }
    procBoundary33to32
    {
        type            processor;
        value           nonuniform List<scalar> 9(1 1 1 1 1 1 1 1 1);
    }
    procBoundary33to34
    {
        type            processor;
        value           nonuniform List<scalar> 
16
(
1.248737569
1.338666346
1.373772066
1.365626546
1.325987392
1.26227811
1.146350538
1.055193887
1.012835605
1.001936885
1.000185219
1.00001167
1.000000474
1.000000013
1
1
)
;
    }
}


// ************************************************************************* //
