/*--------------------------------*- C++ -*----------------------------------*\
  =========                 |
  \\      /  F ield         | OpenFOAM: The Open Source CFD Toolbox
   \\    /   O peration     | Website:  https://openfoam.org
    \\  /    A nd           | Version:  7
     \\/     M anipulation  |
\*---------------------------------------------------------------------------*/
FoamFile
{
    version     2.0;
    format      ascii;
    class       volScalarField;
    location    "3.2";
    object      T;
}
// * * * * * * * * * * * * * * * * * * * * * * * * * * * * * * * * * * * * * //

dimensions      [0 0 0 1 0 0 0];

internalField   nonuniform List<scalar> 
555
(
1
1
1
1
1
1
1
1
1
1
1
1
1
1
1
1
1
1
1
1
1
1
1
1
1
1
1
1
1
1
1
1
1
1
1
1
1
1
1
1
1
1
1
1
0.9999999998
1
1
1
1
1
1
1
1
1
1
1
1
1
1
1
1
1
1
1
1
1
1
1
1
1
1
1
1
1
1
1
1
0.9999999966
1
1
1
1
1
1
1
1
1
1
1
1
1
1
1
1
1
1
1
1
1
1
1
1
1
1
1
1
1
1
1.000000002
1.000000104
0.9999999866
1
1
1
1
1
1
1
1
1
1
1
1
1
1
1
1
1
1
1
1
1
1
1
1
1
1
1.000000003
1.000000023
1.000000117
1.000000644
1.000002222
1.000020312
1.000008436
1
1
1
1
1
1
1
1
1
1
1
1
1
1
1
1
1
1
1
1
1
1.000000001
1.000000006
1.000000036
1.000000184
1.000000885
1.000003434
1.000013259
1.000040404
1.000129965
1.000310656
1.000955973
1.001372951
1
1
1
1
1
1
1
1
1
1
1
1
1
1
1
1
1
1.000000001
1.00000001
1.000000058
1.000000293
1.000001309
1.000005081
1.000018263
1.000055943
1.00016599
1.000414157
1.001020689
1.002115075
1.00438441
1.007546145
1.013447424
1.019288286
1
1
1
1
1
1
1
1
1
1
1
1
1
1.000000003
1.000000018
1.0000001
1.000000476
1.000002027
1.00000754
1.000026219
1.000078107
1.00022125
1.000543467
1.001289557
1.002611215
1.005174021
1.008984571
1.015217128
1.022859225
1.032925129
1.043442392
1.055598615
1.067391064
1
1
1
1
1
1
1
1
1.000000001
1.000000006
1.000000035
1.000000177
1.000000794
1.000003228
1.000011476
1.000038384
1.000111188
1.000303759
1.000729258
1.001648461
1.00328196
1.006280641
1.010664065
1.0174475
1.026020637
1.036150867
1.046898834
1.059362502
1.072152346
1.081666651
1.089793062
1.095813478
1.103202118
1
1
1
1
1.000000002
1.000000014
1.000000073
1.000000343
1.000001421
1.000005461
1.000018573
1.00005725
1.000161642
1.000419618
1.000963859
1.002134368
1.004161761
1.007643072
1.013079297
1.020216617
1.029039946
1.040617018
1.052438909
1.063760825
1.075068558
1.084720083
1.094867377
1.102060885
1.107207537
1.110862446
1.114293759
1.116396019
1.118424903
1.000000007
1.000000036
1.000000166
1.000000708
1.000002719
1.000009552
1.000030823
1.000089765
1.000239154
1.000601135
1.001331651
1.002776036
1.005369655
1.009344748
1.015434239
1.023818408
1.032870283
1.044555486
1.058067207
1.068452834
1.079113123
1.088499738
1.095578047
1.1031341
1.108424863
1.109979837
1.11179958
1.11318374
1.113851012
1.114883235
1.116627491
1.1178119
1.118566507
1.000005697
1.000018069
1.000053243
1.00014901
1.00036958
1.0008637
1.001885191
1.003640053
1.006829787
1.011816334
1.018181948
1.027655768
1.038713339
1.049728151
1.062345058
1.073726421
1.084235904
1.094772808
1.101419307
1.10640741
1.112710647
1.116305028
1.117938713
1.120286591
1.120949647
1.120694406
1.120420029
1.120244959
1.119943247
1.119435719
1.118950452
1.118299447
1.117628716
1.000592257
1.0012685
1.00264121
1.005035988
1.008692982
1.014739821
1.022289782
1.031312393
1.044027673
1.055857031
1.066774
1.078955298
1.088202423
1.097333284
1.105053058
1.107615845
1.110393304
1.113594473
1.114455709
1.115718454
1.117004563
1.117821759
1.118661447
1.119664151
1.120398123
1.120465882
1.120477293
1.120477519
1.120294644
1.120003125
1.119612759
1.119000703
1.118035727
1.011410645
1.017693453
1.027138127
1.03715972
1.04858757
1.061905598
1.073192699
1.085247144
1.095054539
1.101814197
1.109151282
1.11531619
1.117738929
1.120205003
1.122430472
1.122410479
1.122461913
1.122596637
1.122410639
1.122104898
1.121378512
1.120106338
1.118547775
1.117560731
1.11758888
1.117753089
1.117609863
1.117223749
1.116779987
1.116406053
1.116109646
1.115707498
1.115071135
1.0543913
1.066528508
1.077709266
1.086488262
1.097203609
1.103524135
1.107807582
1.112759029
1.115508254
1.116654475
1.118020033
1.118523827
1.11894139
1.120138114
1.121947597
1.122484625
1.122624377
1.122553729
1.122322554
1.121857271
1.121247391
1.120453959
1.119190436
1.117870351
1.116993088
1.116259403
1.11558177
1.114849726
1.114405323
1.114266106
1.114169089
1.113966909
1.114014576
1.104390549
1.11157711
1.114855405
1.117522902
1.121690917
1.122926063
1.123346532
1.123809761
1.123737258
1.123442686
1.12305524
1.12222
1.121185982
1.119518455
1.11888217
1.118927667
1.118622631
1.11809491
1.117402065
1.116684837
1.11627262
1.11588512
1.115262369
1.114621564
1.114365296
1.114159623
1.113848098
1.113499667
1.113224046
1.113204322
1.113255648
1.113393874
1.113975973
1.113140287
1.11867367
1.121035033
1.12286871
1.123944036
1.12418104
1.123829094
1.122873559
1.122032618
1.121695069
1.121178504
1.120155712
1.118537809
1.117286761
1.11686917
1.116432802
1.115714582
1.115092571
1.115089022
1.115168307
1.115032966
1.114825817
1.114814852
1.114920453
1.11514223
1.115177394
1.115073939
1.114955271
1.114889135
1.114831145
1.114842294
1.114845291
1.115007208
1.112520363
1.112740387
1.112786176
1.112836885
1.113062261
1.113618253
1.114404274
1.115045752
1.115460024
1.115823491
1.116278526
1.116599888
1.116815585
1.116815316
1.116724308
)
;

boundaryField
{
    inlet
    {
        type            fixedValue;
        value           nonuniform 0();
    }
    outlet
    {
        type            inletOutlet;
        inletValue      nonuniform 0();
        value           nonuniform 0();
    }
    bottom
    {
        type            slip;
    }
    top
    {
        type            slip;
    }
    obstacle
    {
        type            zeroGradient;
    }
    defaultFaces
    {
        type            empty;
    }
    procBoundary14to7
    {
        type            processor;
        value           nonuniform List<scalar> 2(1 1);
    }
    procBoundary14to8
    {
        type            processor;
        value           nonuniform List<scalar> 
35
(
1
1
1
1
1
1
1
1
1
1
1
1
1
1
1
1
1
1
1
1
1
1
1
1
1
1
1
1
1
1
1
1
1
1
1
)
;
    }
    procBoundary14to9
    {
        type            processor;
        value           nonuniform List<scalar> 
17
(
1.00000004
1.000003416
1.00012519
1.002095238
1.015592403
1.051246649
1.089745325
1.107822327
1.11824996
1.11884455
1.116819685
1.115604473
1.114250175
1.11395649
1.113156106
1.101583018
1.049066989
)
;
    }
    procBoundary14to13
    {
        type            processor;
        value           nonuniform List<scalar> 
16
(
1
1
1
1
1
1
1
1
1
1.000000001
1.000001646
1.00025198
1.006874736
1.043097504
1.096284847
1.10868335
)
;
    }
    procBoundary14to20
    {
        type            processor;
        value           nonuniform List<scalar> 
19
(
1.138393217
1.135496796
1.132339593
1.127631954
1.123336323
1.121592133
1.120330481
1.118679646
1.117658312
1.117131754
1.116487625
1.115327818
1.113958954
1.113679372
1.113476449
1.112949187
1.112373838
1.112313971
1.112313971
)
;
    }
}


// ************************************************************************* //
