/*--------------------------------*- C++ -*----------------------------------*\
  =========                 |
  \\      /  F ield         | OpenFOAM: The Open Source CFD Toolbox
   \\    /   O peration     | Website:  https://openfoam.org
    \\  /    A nd           | Version:  7
     \\/     M anipulation  |
\*---------------------------------------------------------------------------*/
FoamFile
{
    version     2.0;
    format      ascii;
    class       volScalarField;
    location    "2";
    object      T;
}
// * * * * * * * * * * * * * * * * * * * * * * * * * * * * * * * * * * * * * //

dimensions      [0 0 0 1 0 0 0];

internalField   nonuniform List<scalar> 
2222
(
1.061962064
1.059775834
1.058049109
1.060934158
1.060894652
1.059731698
1.058513037
1.057762909
1.057683092
1.057941365
1.058398031
1.058932484
1.05918703
1.059282839
1.059485799
1.059751845
1.059859314
1.059818205
1.059942464
1.060007131
1.06034118
1.060662564
1.061085841
1.061407581
1.055423574
1.056574925
1.058523271
1.059924117
1.05970187
1.058962245
1.058293924
1.057472144
1.054812562
1.055479449
1.062922828
1.060281769
1.0580864
1.060951994
1.060640205
1.059277036
1.058088304
1.057379485
1.057603239
1.057845357
1.058280017
1.058795287
1.058984921
1.058884488
1.059108142
1.059442018
1.059595535
1.059768281
1.060082325
1.05998799
1.060322085
1.060674352
1.061151026
1.061428784
1.054142621
1.056517054
1.059260817
1.061206266
1.060810962
1.059459289
1.058447039
1.057704798
1.055013065
1.055744128
1.063847134
1.060811436
1.058235152
1.060947215
1.060394247
1.058836624
1.057681499
1.057155824
1.057497229
1.057773367
1.058189739
1.058659366
1.058747178
1.058609586
1.058754727
1.059207349
1.059596134
1.059771804
1.059988874
1.059913301
1.060236797
1.060577103
1.060995634
1.061245879
1.051296488
1.055133108
1.059491182
1.061781806
1.061625302
1.060052794
1.058306468
1.057621348
1.055079463
1.055870634
1.064339889
1.061119695
1.058443512
1.060843902
1.060152166
1.058490479
1.057431621
1.05721456
1.057704632
1.058023312
1.058362327
1.058662566
1.058752998
1.058446693
1.05841925
1.058603064
1.059117332
1.059478755
1.059717024
1.059854913
1.060140334
1.060430422
1.060744416
1.060972412
1.050064426
1.053644897
1.057997671
1.061358584
1.061500799
1.060217791
1.057973319
1.057343153
1.055087687
1.055920569
1.064641728
1.061231119
1.058489506
1.060640969
1.059982032
1.058263151
1.057251519
1.057438994
1.057991128
1.058218727
1.058543144
1.058695074
1.058401266
1.057987377
1.057843075
1.058056829
1.058623879
1.059168749
1.059525301
1.059845904
1.060069886
1.060317853
1.060496674
1.0607365
1.050915481
1.053696453
1.057241753
1.059844625
1.060765656
1.059894733
1.057905111
1.0573619
1.055041715
1.055898845
1.064866075
1.061253412
1.058292029
1.060368404
1.05977358
1.058093269
1.057351657
1.057771349
1.058050379
1.058130421
1.058455644
1.058506076
1.058050856
1.057534363
1.057214237
1.057423274
1.057964803
1.058836702
1.059370542
1.059763968
1.060026446
1.060248263
1.06034923
1.060625597
1.054439168
1.055662111
1.057431603
1.05922567
1.059543627
1.059141732
1.057671453
1.057242013
1.054955015
1.055837191
1.065112387
1.061200144
1.058084058
1.060156307
1.059609767
1.057970698
1.057621994
1.057871209
1.058069777
1.058060249
1.058337862
1.058229672
1.057638579
1.057037126
1.056722357
1.056921402
1.057440917
1.058360255
1.059193597
1.059680318
1.059988191
1.060233034
1.060359482
1.060685722
1.058192739
1.059440406
1.059246898
1.058726291
1.058018189
1.057281355
1.057049832
1.054520152
1.055525706
1.065555431
1.06100192
1.057996345
1.060100144
1.059623665
1.057932418
1.057622003
1.057885572
1.05818408
1.058186869
1.058360346
1.058065278
1.057343999
1.05666674
1.056496658
1.05670849
1.057256842
1.05805392
1.059140287
1.059637194
1.059944846
1.060258876
1.060502298
1.060857915
1.058515965
1.06020278
1.060401042
1.058976798
1.057341472
1.056676018
1.056533296
1.053906457
1.055146382
1.066106043
1.060886263
1.057800707
1.059838695
1.059407946
1.057880883
1.057592381
1.057905612
1.058282701
1.058321927
1.058395995
1.05808066
1.057182455
1.056458842
1.056456177
1.056709773
1.057235948
1.057947494
1.058792534
1.059531747
1.059863293
1.060275128
1.060657134
1.060978497
1.061299314
1.057243006
1.059753958
1.06043522
1.059881078
1.057699103
1.056307448
1.056062415
1.053704271
1.055051092
1.066479078
1.060743693
1.057498006
1.059523339
1.05920277
1.057918179
1.057735015
1.058176382
1.058692076
1.058839866
1.058800031
1.058284654
1.057204044
1.056513237
1.056488158
1.056680994
1.057111199
1.0578211
1.058591741
1.059246243
1.059800012
1.060320224
1.0607403
1.060977849
1.061221441
1.052816565
1.056974693
1.059409678
1.059460277
1.05832845
1.056363519
1.056111098
1.053814032
1.055276719
1.066631559
1.060427662
1.057265802
1.059383228
1.059236426
1.058156265
1.058088442
1.058797117
1.059293307
1.059402467
1.059239563
1.058588146
1.057381402
1.056507896
1.056465662
1.056597226
1.056981585
1.057687498
1.05847425
1.059116392
1.059754617
1.06033304
1.060666316
1.060870417
1.061133783
1.051156589
1.053106455
1.055798688
1.058657561
1.058428844
1.057015781
1.056541883
1.054280793
1.055663157
1.066618061
1.059879538
1.057181788
1.059468826
1.059430605
1.058658792
1.058655671
1.05936065
1.05956092
1.05956763
1.059336015
1.058692267
1.057506905
1.056463267
1.056461511
1.056570859
1.05693317
1.057623474
1.058458547
1.059074176
1.059675525
1.060236674
1.060568042
1.060715294
1.060996866
1.052318638
1.052192326
1.053803585
1.05638005
1.058237589
1.057397392
1.057143599
1.054552625
1.055787344
1.066525523
1.059105413
1.057107043
1.059695357
1.059864878
1.059208595
1.058894711
1.059359872
1.059592049
1.059571718
1.059323945
1.058638152
1.057458061
1.056378419
1.056486514
1.056625328
1.056936997
1.057643731
1.058534452
1.059141639
1.059625614
1.06014672
1.060433109
1.060756567
1.061032578
1.057037958
1.054222237
1.053660187
1.055234958
1.056776654
1.05768345
1.057516763
1.05467951
1.055799993
1.066379907
1.058104276
1.057037116
1.059884096
1.060058476
1.059237925
1.058855261
1.05934687
1.059604335
1.059509129
1.05925655
1.058548744
1.057462747
1.056411296
1.05653678
1.05674667
1.05706186
1.057709939
1.058558791
1.059170863
1.059643076
1.060154876
1.060477081
1.060794045
1.061136906
1.058376712
1.057842472
1.056457796
1.055142847
1.055966245
1.057523636
1.057647492
1.054553158
1.055620563
1.066161887
1.057100159
1.056878878
1.060018649
1.060172156
1.059366237
1.058879377
1.05934045
1.059631811
1.059402032
1.059179034
1.058565929
1.057565662
1.056520897
1.056691029
1.056968685
1.057239994
1.057742695
1.058510233
1.059193205
1.059650448
1.06018523
1.060606752
1.060971945
1.061252701
1.058193579
1.058555503
1.057807181
1.056377082
1.057251037
1.056601511
1.053217102
1.054690711
1.06596909
1.056561412
1.056530834
1.060114558
1.060293663
1.059481897
1.058996674
1.059390172
1.059554652
1.059377325
1.059231026
1.058705023
1.057859462
1.056927563
1.056941488
1.057123511
1.057350048
1.057823307
1.058477309
1.059116239
1.059699313
1.060352382
1.060815395
1.061089701
1.061293454
1.057505709
1.059117127
1.059321413
1.058610736
1.057365264
1.056024899
1.052357507
1.054217837
1.065928802
1.056296846
1.056275129
1.060192342
1.060366226
1.059617866
1.059118555
1.05944652
1.059282751
1.059366616
1.059457644
1.059219162
1.058586348
1.05751166
1.05709568
1.057249072
1.057499459
1.057865024
1.05848945
1.059048897
1.059758431
1.060544761
1.060984516
1.061189
1.061290319
1.05149752
1.05640879
1.059294281
1.059640622
1.058729375
1.056565582
1.05261297
1.054382544
1.066076963
1.056206248
1.056147938
1.060307323
1.060445904
1.05977258
1.059137856
1.059349115
1.059364136
1.05968438
1.060182939
1.060109591
1.059209331
1.057735706
1.057238658
1.057409607
1.057700364
1.058070028
1.058605119
1.059090289
1.059744273
1.060705608
1.061156151
1.061297076
1.061294
1.04812318
1.051062145
1.055996773
1.05962315
1.059483173
1.058352757
1.05353182
1.055191983
1.066111686
1.056203481
1.056167692
1.06041165
1.060639995
1.059697881
1.059288312
1.059358701
1.059734703
1.060188773
1.060695357
1.060332812
1.059333305
1.057878186
1.057359659
1.057596625
1.057940449
1.058322709
1.058733618
1.059224638
1.059871695
1.060758539
1.061273584
1.061353741
1.061223346
1.049385648
1.049456717
1.052264093
1.057259646
1.059657078
1.058775723
1.054350648
1.055939547
1.066420157
1.056266749
1.056260618
1.060562928
1.060832596
1.059744813
1.059244918
1.059648863
1.060265109
1.060677299
1.060754674
1.060456921
1.059440593
1.058017774
1.057469091
1.057763996
1.058172397
1.058561424
1.059012048
1.059561931
1.060134278
1.060826181
1.061260027
1.061276004
1.061057776
1.056156981
1.052972775
1.051753051
1.054292019
1.058241528
1.05899366
1.054853263
1.056468503
1.066668132
1.056231387
1.0562532
1.060644008
1.061072904
1.059973653
1.059586203
1.060057766
1.060681899
1.061011393
1.060933558
1.060610085
1.059524597
1.05818274
1.057660336
1.057944335
1.058411429
1.058795302
1.059245863
1.059817643
1.060385626
1.060920469
1.061198821
1.061169603
1.060884121
1.05351971
1.058916328
1.055513096
1.054036719
1.056672744
1.058358526
1.054942258
1.056789532
1.066427679
1.055911408
1.056219717
1.06085982
1.061304679
1.060302974
1.059945657
1.06042329
1.061001164
1.061330821
1.06119932
1.060741337
1.059549025
1.058428881
1.057907383
1.058188599
1.05868574
1.059057601
1.05945401
1.059985448
1.060478623
1.0609533
1.06124138
1.061201926
1.06086143
1.035811189
1.059283644
1.059724777
1.057106133
1.0567796
1.056791502
1.05304218
1.05609669
1.06628731
1.055583185
1.056236461
1.061324534
1.061527541
1.060638862
1.060238477
1.060723232
1.061282349
1.061592896
1.061448539
1.060828458
1.059743249
1.058746114
1.058209575
1.058475353
1.059012055
1.059371672
1.059688815
1.060103105
1.060457884
1.060972224
1.061407659
1.061356293
1.061003804
1.057366681
1.059870714
1.060405306
1.05910522
1.056198743
1.051477294
1.055427988
1.066360136
1.055468869
1.05625201
1.061822569
1.061622341
1.060870128
1.06039238
1.060859873
1.061484503
1.061637125
1.061464035
1.060941155
1.060083895
1.059139661
1.058585632
1.058843214
1.059433314
1.059724309
1.059997589
1.060258786
1.060485701
1.060974135
1.061657497
1.061639513
1.061309944
1.038548804
1.058418387
1.06054276
1.061628016
1.057648824
1.051443266
1.05543142
1.066452649
1.055477085
1.056442666
1.062327077
1.0618388
1.061085132
1.060290928
1.060812702
1.06155564
1.061808561
1.061597547
1.061205483
1.060377201
1.059499088
1.058978691
1.059174162
1.059821435
1.060095542
1.060163613
1.060280111
1.060561756
1.061058882
1.061803039
1.061831321
1.061519331
1.061308379
1.017935235
1.048500806
1.058883524
1.062517808
1.060898019
1.052501295
1.056030016
1.066703174
1.05560049
1.056779599
1.062796731
1.06214573
1.061166221
1.060117531
1.060785475
1.061560748
1.062037058
1.061839312
1.061501882
1.060634156
1.059472218
1.059073718
1.059392604
1.060114503
1.060419228
1.060465389
1.060607947
1.060940203
1.06130842
1.061853033
1.061819466
1.06152227
1.061365614
1.004630643
1.03951973
1.051885911
1.061220197
1.061591787
1.054958486
1.057963299
1.067115732
1.055823841
1.057147008
1.063248743
1.062339856
1.061108562
1.060085952
1.060842924
1.061931222
1.062321538
1.062102091
1.061774227
1.060839454
1.05972361
1.059058531
1.059402874
1.06033758
1.060663602
1.060670654
1.060855354
1.061290763
1.061683619
1.062027388
1.061888123
1.061513374
1.061383237
0.9507796569
1.036874123
1.048210268
1.055516833
1.061655833
1.055848639
1.059077868
1.067346434
1.056010993
1.057471037
1.063568011
1.062551546
1.061264193
1.060272002
1.06111825
1.062244329
1.062489882
1.062312593
1.06201898
1.061134379
1.060032257
1.059137015
1.059487924
1.060472694
1.060862339
1.060932091
1.06109924
1.061584667
1.061993972
1.062246919
1.062039942
1.061620499
1.061501711
0.8453794461
1.035734437
1.050526708
1.05276278
1.059948621
1.056063485
1.059891224
1.067000764
1.055734189
1.05778476
1.063681872
1.062804114
1.061458554
1.060613652
1.061526797
1.062522266
1.062516008
1.062543704
1.062360531
1.061539065
1.060212127
1.059228818
1.05964736
1.060682923
1.061161527
1.06127535
1.061433086
1.061775854
1.062255593
1.06253563
1.062299025
1.061792782
1.061830419
0.7605647309
1.015923627
1.055996176
1.054266
1.05618672
1.055835653
1.060251518
1.066632743
1.055752435
1.058086528
1.06387038
1.063085762
1.06177108
1.060897936
1.061822967
1.062657218
1.062641825
1.062912886
1.062714616
1.061851466
1.060551105
1.05944943
1.059897142
1.060972866
1.061585338
1.061736431
1.0617936
1.06193522
1.062322775
1.062761352
1.062558837
1.062153032
1.062235273
0.7020751091
0.934725782
1.052321856
1.059329827
1.054804151
1.053319366
1.060042908
1.066484492
1.055724635
1.058628755
1.064259278
1.063301647
1.06197723
1.061026176
1.06197489
1.062629371
1.063088134
1.0632733
1.063002462
1.062146813
1.060890322
1.059835885
1.06029652
1.061440632
1.062098731
1.062204768
1.062285013
1.062315734
1.062387405
1.062686467
1.062593141
1.062493576
1.062613566
0.8472250778
1.032056776
1.060489672
1.055865826
1.051294456
1.058972372
1.066695999
1.055932109
1.059123659
1.064643065
1.063415598
1.061903108
1.060822976
1.061893884
1.062903173
1.063488183
1.063504632
1.063291178
1.062520389
1.061356253
1.060280152
1.060642003
1.061834602
1.062681625
1.062803614
1.062912748
1.063022927
1.062909623
1.062895125
1.062732914
1.062606411
1.062717252
0.7593819082
0.9819523653
1.058311618
1.0586403
1.050922667
1.058680516
1.066902867
1.056249852
1.059492146
1.064937469
1.063309266
1.061510586
1.060851111
1.06208129
1.063374792
1.063681094
1.063587809
1.063538326
1.063052016
1.06203588
1.061005533
1.061178938
1.062274264
1.063349663
1.063402055
1.063516602
1.063826061
1.063835921
1.06368195
1.063507242
1.063357353
1.063389274
0.6974467345
0.9314163329
1.039866918
1.059398324
1.051167741
1.058785722
1.066740416
1.056550582
1.059939472
1.06479081
1.063089548
1.061653395
1.061201277
1.06256148
1.063733684
1.063662042
1.064013451
1.064278893
1.064003109
1.063146053
1.062218553
1.062089832
1.06310117
1.064230415
1.064246765
1.064380009
1.064660169
1.06471731
1.064713432
1.064662354
1.064616645
1.064633435
0.6900574942
0.8500777185
1.013493185
1.059187368
1.052116791
1.060098426
1.06642049
1.056612065
1.060436027
1.064947534
1.06396514
1.062497365
1.062036404
1.063441141
1.064248261
1.06477624
1.065537404
1.065945989
1.065738105
1.064915244
1.06410889
1.063713461
1.064699327
1.065876407
1.065919014
1.066161645
1.06652277
1.06650548
1.066166472
1.066090574
1.066101449
1.066067902
0.6892671463
0.749561537
0.9944529592
1.052363718
1.051843626
1.061157762
1.067005132
1.05754031
1.062324421
1.067166824
1.066110711
1.064336694
1.06359168
1.065162606
1.066340814
1.067172307
1.067836309
1.068204251
1.068094014
1.067425931
1.066592102
1.066055813
1.066898497
1.068062122
1.068033611
1.068265769
1.068637217
1.068462583
1.067805419
1.067645365
1.067731449
1.067641665
0.6896751711
0.6979898575
0.9386747594
1.032148361
1.05199267
1.06368106
1.070717773
1.061692011
1.066865646
1.07103723
1.069459866
1.067595292
1.067015435
1.068717255
1.069781691
1.070282518
1.070825475
1.071103594
1.071075827
1.070559015
1.06961509
1.068786558
1.069226373
1.070257023
1.070163519
1.070272989
1.070340157
1.069922322
1.069309856
1.069196083
1.069326615
1.069256381
0.6906715725
0.6912733615
0.8331624266
1.018019487
1.053112782
1.067322991
1.076594216
1.067727641
1.072307384
1.075833446
1.074210961
1.072286296
1.071230891
1.072744592
1.073442521
1.073718098
1.07405645
1.074353183
1.074482261
1.073970386
1.072738197
1.071606194
1.071613318
1.072119135
1.071868917
1.071600177
1.071375544
1.071084299
1.0703705
1.070244518
1.070349008
1.070260098
0.6914215871
0.6915563317
0.7471616103
1.011167071
1.054065424
1.076624803
1.081883185
1.074030398
1.078014659
1.080310891
1.078409922
1.076271947
1.074801753
1.076071313
1.076269594
1.07628977
1.076502952
1.076711289
1.076622772
1.07632695
1.075090299
1.0735275
1.073079722
1.072916753
1.07254742
1.072335109
1.072154333
1.071686266
1.070704302
1.070561426
1.070632388
1.070674001
0.6921859521
0.6921779386
0.7011450362
0.9347826376
1.050636137
1.087548868
1.085774
1.076817471
1.079880746
1.082153743
1.080121546
1.077847093
1.076374769
1.077592251
1.077656755
1.077423819
1.077483667
1.077766545
1.077814884
1.077528746
1.076442022
1.074600128
1.073530569
1.073302379
1.072941276
1.072731474
1.072377137
1.071638168
1.07066121
1.070662146
1.070830368
1.070933581
0.6956336491
0.6956969989
0.7455413837
0.895415769
1.016169231
1.042305854
1.062059707
1.069335058
1.074441961
1.074462356
1.072944997
1.073107917
1.074606309
1.074465111
1.07407039
1.074053742
1.074454671
1.075148633
1.075357407
1.075116814
1.074291592
1.07289951
1.07160896
1.071453362
1.071125411
1.070370058
1.069429838
1.06892697
1.068803822
1.068652935
1.068598647
0.7051046415
0.7045180397
0.7044524227
0.7139477671
0.7868232474
0.907577056
1.004394786
1.03414791
1.049706847
1.059524894
1.060551665
1.064268576
1.067048404
1.065940552
1.065658906
1.065735009
1.066115698
1.067020343
1.06806103
1.068592727
1.068320323
1.067337009
1.066463887
1.066013776
1.065672765
1.065193758
1.064475127
1.063636813
1.062799233
1.062300519
1.062164837
0.717162702
0.7158156608
0.7157957399
0.7141978743
0.7151076311
0.7366263687
0.8109199506
0.9115836569
0.9834636792
1.027838779
1.034893555
1.046496873
1.053397797
1.056027755
1.057744252
1.057678409
1.056840195
1.056446712
1.056710213
1.057315094
1.057389019
1.056863524
1.055711712
1.054890234
1.054618138
1.054631125
1.054580777
1.054222313
1.053517846
1.053462466
1.053663579
0.7283936274
0.7263010589
0.7251791718
0.7249156498
0.7232664156
0.7222660238
0.7240685676
0.7494669533
0.8154596485
0.9061247391
0.9730443321
1.02066032
1.032140747
1.038346294
1.047315149
1.049767885
1.048512736
1.047207627
1.046487255
1.045558724
1.045557377
1.045457074
1.044872826
1.044570905
1.044903158
1.045831866
1.046797459
1.046897411
1.046687032
1.046846649
1.04685624
0.7399143348
0.7379753501
0.7355353897
0.7355236003
0.7349000638
0.7326655821
0.7315767076
0.7319971954
0.7339793088
0.7526612678
0.8302794174
0.9118143045
0.9684788694
1.00530894
1.035609267
1.036578838
1.035658216
1.03659314
1.03597965
1.03616219
1.037532139
1.038027938
1.037978499
1.038143284
1.038777815
1.039884247
1.040260847
1.039934046
1.039608999
1.039660228
1.03964912
0.7500548088
0.749099818
0.7460683516
0.7446445741
0.7444320436
0.7428236037
0.7401459529
0.7393539619
0.7381554808
0.7372766693
0.7408083785
0.7611934121
0.8358621131
0.9160881262
0.9901405807
1.004926522
1.019539792
1.031665163
1.029939763
1.031799226
1.035018821
1.03550264
1.035633953
1.035861223
1.036394547
1.036793985
1.036465719
1.035715371
1.035158129
1.034868689
1.034656857
0.7603834412
0.759989434
0.7577708713
0.7544856041
0.7541135194
0.753434035
0.7505657186
0.7493221584
0.7489471979
0.7471297697
0.7444112208
0.7448491224
0.7491505203
0.7744222923
0.8377468967
0.9283477444
0.995846522
1.019962418
1.024383306
1.034134229
1.035534003
1.035174501
1.035104026
1.03484314
1.034769431
1.034408523
1.033596212
1.032379301
1.031720597
1.031295824
1.031025274
0.770314667
0.7696660679
0.7685222256
0.7649270432
0.7630443916
0.7625784458
0.7606647686
0.7574081031
0.7566886814
0.7560742355
0.7532185113
0.7512482372
0.7504779913
0.7507522857
0.7541305408
0.787504234
0.8523270694
0.9248673995
0.9828039789
1.027495192
1.029350525
1.030101471
1.032220595
1.032498594
1.031123631
1.030358292
1.030224991
1.029501591
1.029089638
1.02909662
1.029231206
0.7817832021
0.7793713398
0.7788674975
0.7764422749
0.772484446
0.7717356021
0.7708370726
0.7674821747
0.7654507532
0.7652886225
0.763987928
0.7608556222
0.759647529
0.7585860103
0.7558412313
0.7562232841
0.761327302
0.7924360161
0.8606286018
0.9381556641
0.9771815105
1.005108242
1.024750124
1.023178358
1.024704633
1.02687754
1.028015859
1.029232721
1.02951309
1.029712227
1.02991782
0.7939771053
0.7892000494
0.7881393955
0.7867767759
0.7827125013
0.7802735905
0.7796986703
0.7775782492
0.7738131726
0.7727667505
0.7720297805
0.7692371039
0.7667159961
0.7664325987
0.765034716
0.7616605177
0.7610759634
0.7618715082
0.7679935854
0.7960805274
0.8746926293
0.9447905946
1.003567453
1.010993044
1.023580088
1.027528327
1.029426802
1.031890231
1.031840296
1.031379746
1.030195402
0.805918116
0.8008388849
0.7974603141
0.7966500055
0.7940115698
0.7893753952
0.7883282747
0.7873881863
0.7838284756
0.78105129
0.7806747937
0.7792825646
0.7757323373
0.7745765851
0.7740770903
0.771517564
0.7684331671
0.7673148604
0.7670255467
0.7671359695
0.7759441405
0.8100886531
0.879711711
0.955685394
1.010630758
1.019088221
1.022913538
1.029616242
1.031713931
1.031173202
1.029208408
0.8159235424
0.8125857096
0.8072278562
0.8056319373
0.8041143726
0.79968433
0.7964986869
0.7958313233
0.7937237622
0.7895599326
0.7881458953
0.7872276013
0.7842658429
0.7810483412
0.7806169805
0.7797726809
0.7766542116
0.7746596247
0.7736783047
0.7710326123
0.7703942489
0.7715925281
0.7813797224
0.8280204242
0.8953351353
0.9538365088
0.9865453587
1.020015906
1.023746747
1.023331107
1.024005336
0.8256139709
0.8237960333
0.8187811239
0.8146130574
0.8135612229
0.810908995
0.805628718
0.8040184809
0.8030441752
0.7995143811
0.7959909011
0.7953807282
0.7939145167
0.7899959374
0.7883604187
0.7878580227
0.78578792
0.7822339835
0.7816140241
0.7805564322
0.7773541218
0.7748127525
0.7751938168
0.777139979
0.7884780057
0.8387572798
0.9059942923
0.9734152451
0.9934388086
1.009399713
1.022137171
0.8352813295
0.833489964
0.8301779628
0.8242655837
0.8220465731
0.8205448615
0.8162115474
0.812181735
0.81118899
0.8090354354
0.8044496895
0.8026158793
0.8017558103
0.798857897
0.7950549125
0.7942151902
0.7932347346
0.7901014925
0.787562049
0.7872526523
0.7859846172
0.7821764906
0.7804328292
0.7798169522
0.7791823482
0.7815535668
0.7990127162
0.8456203758
0.922379759
0.9838112583
1.01117662
0.8465887094
0.8429201369
0.8408862854
0.8359357338
0.8307145036
0.8293712686
0.8269957888
0.8216385815
0.8191224255
0.8179488089
0.8144115302
0.8101220713
0.809343881
0.808038142
0.8040052479
0.8015814538
0.8010126922
0.7990875058
0.7952475237
0.7940251274
0.7934494076
0.7911172606
0.78775356
0.7866709354
0.7852794121
0.7823940549
0.7826331723
0.7860208608
0.8115081404
0.8622072494
0.9258804616
0.8586142864
0.8524271916
0.850051116
0.8469622993
0.8408898898
0.8376504616
0.8360133219
0.8318738236
0.827129783
0.8258159573
0.8237993159
0.8190115665
0.816392115
0.8154905651
0.8128024952
0.8085650594
0.8072904502
0.8062770101
0.8031066303
0.7998597297
0.7993961545
0.7984762262
0.7952121444
0.7929681693
0.7924581232
0.7905773772
0.7868345798
0.7861242878
0.7871855833
0.7918743747
0.8188737495
0.870495977
0.8639560923
0.8590586857
0.8568432108
0.8525224315
0.8466427609
0.8444553236
0.842043753
0.8366350621
0.8333920568
0.8322424384
0.8290767572
0.8240958363
0.8226529857
0.8213595113
0.8174432349
0.8141997719
0.8136040345
0.8119564824
0.8079480019
0.8059998018
0.8053280877
0.8033442985
0.7996927872
0.7985340125
0.7979946651
0.7953022108
0.7916994089
0.7907885317
0.7906062513
0.7910474022
0.8805126942
0.8756460045
0.8689366612
0.8655982321
0.8626556524
0.8568777315
0.8525989845
0.8507316148
0.8469045098
0.8415030188
0.8396482657
0.8377877979
0.833194563
0.8296943253
0.8286262443
0.8261763246
0.8215197275
0.8196956835
0.8187804545
0.8158888424
0.8119755832
0.8110854615
0.8101563977
0.8071332168
0.8041378448
0.8036928915
0.8028698197
0.7998288521
0.7968594036
0.7958647762
0.793978601
0.8902559602
0.8865335148
0.8807065425
0.8748086928
0.871899566
0.86788507
0.8617386377
0.8588152465
0.8565615017
0.8514966553
0.8470918164
0.8456024335
0.8427917585
0.8376465392
0.8355225708
0.834261416
0.8306143764
0.8263372079
0.8255088675
0.824222391
0.8203514102
0.8175460436
0.8168513148
0.8151258579
0.8112576291
0.8093330989
0.8088205716
0.8070992039
0.8034668518
0.8020875085
0.8011535989
0.900717842
0.8961476169
0.8915658906
0.8849513043
0.8804733031
0.8774196748
0.8720804536
0.8668743362
0.864642157
0.8612697117
0.8556470248
0.8528916689
0.8510331626
0.8467324847
0.8423987602
0.8411218361
0.8390558985
0.8344158965
0.8316375824
0.8306737564
0.8281462732
0.8237074852
0.8222312323
0.821469467
0.818875036
0.8151466814
0.8142200999
0.8135119254
0.8110276804
0.8076830879
0.8070287765
0.9120503294
0.9058091671
0.9015183431
0.8961802209
0.8898559458
0.8862233675
0.8825468261
0.8765386283
0.872448478
0.8700480035
0.8655745638
0.8605093213
0.8585387832
0.8559699509
0.8507004789
0.8476401394
0.8464361878
0.8434531712
0.8386453804
0.836994378
0.8358004085
0.8322822373
0.8285208823
0.8277955134
0.8265296757
0.8228422388
0.8199247124
0.8192556183
0.8178649979
0.8144365991
0.8121114197
0.923551119
0.9165839061
0.911098275
0.9064680232
0.9002247496
0.8947641632
0.8913701509
0.8866056846
0.8808240218
0.8778268313
0.874708995
0.8692374133
0.8655763938
0.8636987393
0.8599158581
0.8548692098
0.8529894034
0.8511630348
0.8468644293
0.8431614366
0.8420680068
0.8400169821
0.8354948543
0.8329273673
0.8321852492
0.8301108256
0.8260519284
0.8243488823
0.8236997968
0.821646301
0.8179082187
0.9333206529
0.9270787036
0.9205969889
0.9156888113
0.9106824866
0.9044045404
0.8998028373
0.896130331
0.8906648282
0.8857418928
0.8829887743
0.8789600338
0.8733828542
0.8707153521
0.8684443416
0.8637266413
0.8595942776
0.8580487163
0.855428035
0.8504321233
0.8480028902
0.8469988854
0.8441738683
0.8395261394
0.8380886841
0.8371294953
0.8340762323
0.830303081
0.8293376676
0.8282494657
0.8252097037
0.9435883816
0.9378208616
0.9313010535
0.9252791224
0.9204124311
0.9146860598
0.9086926206
0.9046120647
0.9001852822
0.8943396852
0.8904959772
0.8874818156
0.8824324375
0.8778013555
0.8756292358
0.8723855723
0.8671418308
0.8644296132
0.8627347237
0.8589344316
0.8543357502
0.8528463464
0.8512263347
0.8472205666
0.843529822
0.8425189647
0.840850235
0.8368141975
0.8340201324
0.8334498419
0.8319625332
0.9528123983
0.9468455247
0.9408758092
0.9345096097
0.9290547787
0.9240900093
0.9182042815
0.9129370287
0.9089782742
0.9039754645
0.8985104171
0.8952093373
0.8916254488
0.8861846255
0.8825332069
0.8801973901
0.8759781257
0.871079923
0.8691883035
0.8670589657
0.8623818464
0.8586358446
0.8574365535
0.8552333254
0.8506371711
0.8481264767
0.847273086
0.8449060224
0.8405092303
0.8388455869
0.8380864954
0.9624972546
0.956339545
0.9506585452
0.9446588321
0.9385836172
0.933401679
0.9280354395
0.9220567932
0.9173257175
0.9130105139
0.9074151481
0.9027122664
0.8994988584
0.8950017001
0.8898190497
0.8870766031
0.8841931421
0.879090644
0.8753611822
0.8736783252
0.8705813662
0.8655839757
0.8631852428
0.8617573209
0.8584163672
0.8539322566
0.8524158534
0.8511368635
0.8477293414
0.8437203986
0.8427416264
0.9713120399
0.9651779685
0.9592399001
0.9534712568
0.9473976546
0.9416773407
0.9365792686
0.9310463225
0.9255043441
0.9211199263
0.9164661432
0.9109791283
0.9069667165
0.9034727277
0.8983715033
0.8939130652
0.8914387281
0.8878734713
0.8825721885
0.8797433948
0.8777985469
0.8738463629
0.8692719681
0.8676159925
0.8657930983
0.861545938
0.8577347033
0.8568095387
0.8552181805
0.8511235042
0.8480550319
0.9793282815
0.9737506276
0.9679147177
0.9622864441
0.9566359454
0.9507908932
0.9454473545
0.9402980126
0.9346195458
0.9294535117
0.9250192156
0.9198263322
0.9146710484
0.9110284536
0.9068921726
0.9015127355
0.8980050836
0.8953415598
0.8908241201
0.8861408573
0.8840428034
0.8814662328
0.8766337768
0.8731955973
0.8718138678
0.8691962074
0.8644283738
0.8618571714
0.8607665096
0.858174877
0.8537323035
0.9862210299
0.9813453156
0.9759738972
0.9703884763
0.9648667894
0.9591628726
0.9534698644
0.9482303793
0.9429259274
0.937440939
0.932687949
0.9281203008
0.922832404
0.918280683
0.9147089302
0.9100944058
0.9050626665
0.9020627835
0.8989216954
0.8938664101
0.8900756672
0.8881205659
0.8848287217
0.8796881663
0.877206207
0.8757289252
0.8724233585
0.8677217758
0.8659290353
0.8646299174
0.8613514939
0.9917634561
0.9877984221
0.9832060602
0.9780970198
0.972795158
0.9674469422
0.9619171783
0.9565522876
0.9514738436
)
;

boundaryField
{
    inlet
    {
        type            fixedValue;
        value           nonuniform 0();
    }
    outlet
    {
        type            inletOutlet;
        inletValue      nonuniform 0();
        value           nonuniform 0();
    }
    bottom
    {
        type            slip;
    }
    top
    {
        type            slip;
    }
    obstacle
    {
        type            zeroGradient;
    }
    defaultFaces
    {
        type            empty;
    }
    procBoundary28to21
    {
        type            processor;
        value           nonuniform List<scalar> 
19
(
1.056035374
1.052895615
1.04974272
1.048564817
1.050951929
1.053965682
1.056367283
1.056367283
1.056761106
1.053312167
1.049694555
1.049915856
1.055607223
1.058413575
1.057729362
1.058418667
1.058418667
1.053745608
1.042353612
)
;
    }
    procBoundary28to22
    {
        type            processor;
        value           nonuniform List<scalar> 
35
(
1.061738859
1.05981613
1.058144027
1.060862453
1.061141625
1.060111269
1.058852361
1.058052688
1.057819023
1.058030337
1.058454898
1.058979772
1.059390829
1.05968841
1.059862469
1.060067478
1.060155404
1.060032984
1.060071734
1.060120786
1.060389645
1.060663409
1.061090241
1.061363053
1.055879137
1.055835316
1.056952745
1.058644323
1.059381482
1.058933875
1.05853865
1.057740846
1.054827471
1.055404059
1.055404059
)
;
    }
    procBoundary28to23
    {
        type            processor;
        value           uniform 1.06164778;
    }
    procBoundary28to27
    {
        type            processor;
        value           nonuniform List<scalar> 
55
(
1.036024055
1.037632851
1.016057192
0.9446420396
0.8579644124
0.9881831334
0.9881831334
0.9412688729
0.8639812336
0.7660362189
0.705054339
0.6901692303
0.6884997534
0.6883359985
0.6888087862
0.6888087862
0.6882319246
0.6887232562
0.6894261043
0.6898523127
0.6900053979
0.6908201294
0.6919100012
0.6925735347
0.6958098242
0.6958098242
0.7058529929
0.7185498225
0.7290755944
0.7401074166
0.7505012655
0.7621482644
0.774271443
0.7866649117
0.7973077535
0.807556334
0.8172138595
0.8282417204
0.8406383231
0.8532661622
0.8639124545
0.8741146957