/*--------------------------------*- C++ -*----------------------------------*\
  =========                 |
  \\      /  F ield         | OpenFOAM: The Open Source CFD Toolbox
   \\    /   O peration     | Website:  https://openfoam.org
    \\  /    A nd           | Version:  7
     \\/     M anipulation  |
\*---------------------------------------------------------------------------*/
FoamFile
{
    version     2.0;
    format      ascii;
    class       volVectorField;
    location    "2.9";
    object      U;
}
// * * * * * * * * * * * * * * * * * * * * * * * * * * * * * * * * * * * * * //

dimensions      [0 1 -1 0 0 0 0];

internalField   nonuniform List<vector> 
555
(
(2.999815783 -0.0002047386044 0)
(2.998470778 -0.001558395914 0)
(2.991300769 -0.00919187373 0)
(2.967369151 -0.03127024385 0)
(2.923822142 -0.05903441564 0)
(2.888426252 -0.08767074103 0)
(2.863420972 -0.05869953854 0)
(2.859601382 -0.07877533098 0)
(2.826587036 -0.03051364272 0)
(2.817300699 -0.009347644622 0)
(2.814085527 0.005147554774 0)
(2.819360093 0.007977066228 0)
(2.828585652 0.009085207687 0)
(2.843243616 0.01325814199 0)
(2.858116608 0.01695176597 0)
(2.877915862 0.0160122171 0)
(2.998980499 -0.002682499272 0)
(2.994313886 -0.01522371596 0)
(2.980283202 -0.04818359076 0)
(2.956477714 -0.1204489648 0)
(2.942488775 -0.1645160582 0)
(2.911397387 -0.1681855768 0)
(2.877681939 -0.1424468551 0)
(2.860436063 -0.07071791995 0)
(2.833498878 0.008619496009 0)
(2.822409801 0.02046053678 0)
(2.821284751 0.02595314047 0)
(2.824973664 0.02796575685 0)
(2.83480043 0.03618070964 0)
(2.846170116 0.04619245319 0)
(2.855479982 0.04992509896 0)
(2.873583258 0.04641249924 0)
(2.993546506 -0.01640675917 0)
(2.981927685 -0.04828018564 0)
(2.947927711 -0.1232945281 0)
(2.945166199 -0.1602887142 0)
(2.917679896 -0.2203611783 0)
(2.908230384 -0.2159089882 0)
(2.892546008 -0.1841082582 0)
(2.875793406 -0.1355358124 0)
(2.864544415 -0.08373680492 0)
(2.86408631 -0.04180978764 0)
(2.859265876 0.01251179692 0)
(2.85433163 0.04054785093 0)
(2.851964575 0.06244002223 0)
(2.854119078 0.07086630068 0)
(2.860538453 0.07612243378 0)
(2.875948099 0.07611593357 0)
(2.977778086 -0.05386547781 0)
(2.960624912 -0.1098162242 0)
(2.925547415 -0.1926039001 0)
(2.927516883 -0.2013325409 0)
(2.907329268 -0.2183299675 0)
(2.906315817 -0.2207134071 0)
(2.903654902 -0.2152127948 0)
(2.898025055 -0.1900343067 0)
(2.890751097 -0.1429951087 0)
(2.877630948 -0.05321314694 0)
(2.880022785 0.01271474511 0)
(2.876126192 0.07247543541 0)
(2.868775121 0.09564289302 0)
(2.869105708 0.09339378826 0)
(2.873455109 0.09542796563 0)
(2.88625408 0.1021154139 0)
(2.94763699 -0.1310972826 0)
(2.943934437 -0.1611103368 0)
(2.915314446 -0.2255573586 0)
(2.906708365 -0.229924465 0)
(2.901614367 -0.2243778946 0)
(2.902912074 -0.2221981841 0)
(2.904914533 -0.219542173 0)
(2.910874861 -0.2047193183 0)
(2.908758531 -0.1676723715 0)
(2.905689414 -0.1206497945 0)
(2.896220865 -0.04844619228 0)
(2.888665261 0.01868766968 0)
(2.885324658 0.07531543631 0)
(2.884011491 0.1008385017 0)
(2.882303339 0.123922657 0)
(2.885964515 0.1289855533 0)
(2.927167434 -0.2002213779 0)
(2.925759793 -0.1986793804 0)
(2.908842556 -0.2177978852 0)
(2.903469379 -0.2247964235 0)
(2.903591499 -0.2239605872 0)
(2.905502184 -0.2198608732 0)
(2.912736747 -0.2083912687 0)
(2.920093637 -0.1966849969 0)
(2.92848825 -0.1788045106 0)
(2.921159154 -0.1364501182 0)
(2.919342741 -0.08973048498 0)
(2.90397642 -0.01268598136 0)
(2.894141567 0.06057142281 0)
(2.890162776 0.1231984124 0)
(2.886617053 0.1593928752 0)
(2.893098095 0.1579694858 0)
(2.915396826 -0.2339594387 0)
(2.905133502 -0.2298134699 0)
(2.902059076 -0.2244400005 0)
(2.90315689 -0.2240784434 0)
(2.906274414 -0.221243369 0)
(2.913483305 -0.2088791533 0)
(2.919176066 -0.199236866 0)
(2.930815715 -0.1746690374 0)
(2.936696899 -0.163969992 0)
(2.942406472 -0.1445663794 0)
(2.934218754 -0.1050625359 0)
(2.930936371 -0.05985975905 0)
(2.922219005 0.002011889681 0)
(2.904828932 0.07968898819 0)
(2.898005616 0.1405416113 0)
(2.899014364 0.1620292767 0)
(2.90790822 -0.2200781184 0)
(2.903000288 -0.2277329795 0)
(2.90443458 -0.2263276795 0)
(2.907728514 -0.2216200083 0)
(2.913737503 -0.2110366365 0)
(2.91986827 -0.1982749742 0)
(2.929251487 -0.1771660252 0)
(2.934046101 -0.1641917802 0)
(2.944578702 -0.1380540091 0)
(2.949277587 -0.1310788873 0)
(2.954301139 -0.1105282552 0)
(2.94961619 -0.07494847679 0)
(2.947747391 -0.03294782033 0)
(2.929769236 0.0438327908 0)
(2.928396907 0.09991689083 0)
(2.903253149 0.1842940101 0)
(2.901222873 -0.2267581036 0)
(2.903052527 -0.226598674 0)
(2.907556181 -0.223471625 0)
(2.914308436 -0.2131951667 0)
(2.921955355 -0.1965808715 0)
(2.92942335 -0.1776696142 0)
(2.934837773 -0.1615063604 0)
(2.942699252 -0.1409312357 0)
(2.946847031 -0.1291709586 0)
(2.957865691 -0.1051806508 0)
(2.962212174 -0.09844295234 0)
(2.970288252 -0.07875019671 0)
(2.962439692 -0.04076790255 0)
(2.961396562 -0.005017512417 0)
(2.951663267 0.05975072684 0)
(2.925918732 0.1593694282 0)
(2.905621553 -0.2290148798 0)
(2.907755331 -0.2240737007 0)
(2.91251006 -0.2140459347 0)
(2.919644113 -0.1988777808 0)
(2.926984064 -0.1810890686 0)
(2.935504878 -0.1587089772 0)
(2.942127271 -0.1415947926 0)
(2.94829987 -0.1255250753 0)
(2.957028364 -0.1056246643 0)
(2.962328395 -0.09369216098 0)
(2.972691964 -0.07074119191 0)
(2.976724476 -0.06869177608 0)
(2.982320432 -0.04725940956 0)
(2.978125037 -0.01538263515 0)
(2.972226255 0.02867653682 0)
(2.953417934 0.1225875581 0)
(2.9091136 -0.2258901479 0)
(2.914796863 -0.2136720906 0)
(2.920081746 -0.1984221233 0)
(2.926572125 -0.1799719418 0)
(2.934117671 -0.1604415686 0)
(2.940949533 -0.1423666026 0)
(2.94896179 -0.1239919586 0)
(2.95560001 -0.1087340317 0)
(2.964314239 -0.08870219348 0)
(2.971807711 -0.07313355321 0)
(2.976763886 -0.06130123912 0)
(2.986869873 -0.03991893442 0)
(2.988757274 -0.0359472663 0)
(2.997256365 -0.01505696477 0)
(2.985478524 0.02278609923 0)
(2.979505371 0.08654545542 0)
(2.911396432 -0.2167255424 0)
(2.918810108 -0.2002531137 0)
(2.926732919 -0.1805714134 0)
(2.93420311 -0.1598371151 0)
(2.941895851 -0.1404456993 0)
(2.948280989 -0.1261052871 0)
(2.957189997 -0.1057246665 0)
(2.965484548 -0.08784911233 0)
(2.971876125 -0.07323993581 0)
(2.978852707 -0.05696780515 0)
(2.984456042 -0.04232552257 0)
(2.98993818 -0.02637862982 0)
(2.997904848 -0.00512800875 0)
(3.002348135 -0.005586995338 0)
(2.999197621 0.02350352936 0)
(2.999302083 0.06737426618 0)
(2.917338087 -0.2003981777 0)
(2.924788053 -0.1818025825 0)
(2.934259956 -0.1591018025 0)
(2.94120056 -0.1433368481 0)
(2.948905193 -0.1259707833 0)
(2.957673128 -0.1066943046 0)
(2.966085204 -0.08682174798 0)
(2.973413163 -0.07007771509 0)
(2.979022874 -0.05793341402 0)
(2.985257447 -0.03931607446 0)
(2.992266487 -0.0191850997 0)
(2.995425939 -0.008956774502 0)
(3.000855177 0.01007209321 0)
(3.010649958 0.0239149943 0)
(3.004034952 0.02966964824 0)
(3.014183706 0.06604974502 0)
(2.925141058 -0.1806730799 0)
(2.933335759 -0.1605375808 0)
(2.941585116 -0.1417912774 0)
(2.949631478 -0.1261402826 0)
(2.95881661 -0.1061383008 0)
(2.967993127 -0.0842072621 0)
(2.974430493 -0.06990950798 0)
(2.979159036 -0.05698028721 0)
(2.986608201 -0.03623554307 0)
(2.99157984 -0.01955435328 0)
(2.997397308 -0.0005780542238 0)
(3.001993582 0.01054363045 0)
(3.00531106 0.02583049902 0)
(3.012651162 0.04651702399 0)
(3.013574326 0.04702717801 0)
(3.023433436 0.0771672386 0)
(2.93318389 -0.1601899654 0)
(2.941350565 -0.1433648015 0)
(2.949556507 -0.1264267881 0)
(2.959905711 -0.1044915029 0)
(2.968824341 -0.08450283053 0)
(2.975310414 -0.06819087245 0)
(2.981042085 -0.0538826282 0)
(2.986391449 -0.03579941654 0)
(2.993921143 -0.01127222591 0)
(2.998310052 0.0003984612193 0)
(3.002111724 0.01482189748 0)
(3.008453017 0.03299323972 0)
(3.010292097 0.04124020237 0)
(3.017699837 0.06467340632 0)
(3.022608528 0.07085627692 0)
(3.030583909 0.09295803823 0)
(2.941836771 -0.1413788678 0)
(2.950311887 -0.1256945837 0)
(2.96075059 -0.1036284499 0)
(2.969634978 -0.08210038864 0)
(2.976788214 -0.06662583964 0)
(2.980781275 -0.05374048567 0)
(2.98868412 -0.02949285566 0)
(2.994218652 -0.01099097961 0)
(2.99891888 0.005665130774 0)
(3.004358524 0.01936846217 0)
(3.0072227 0.03203889158 0)
(3.014422211 0.05314475224 0)
(3.01857838 0.06186416771 0)
(3.025183337 0.0826812825 0)
(3.02949136 0.09083445711 0)
(3.036177397 0.1093889584 0)
(2.949721509 -0.1271318341 0)
(2.961762421 -0.1015278227 0)
(2.970823845 -0.08034677061 0)
(2.976835248 -0.06448230157 0)
(2.983128939 -0.0483374266 0)
(2.988814529 -0.02896913598 0)
(2.995500181 -0.004460902543 0)
(3.000493657 0.008364006673 0)
(3.003833267 0.0203948961 0)
(3.011275866 0.04304990406 0)
(3.013943818 0.05141953082 0)
(3.021757322 0.07281497462 0)
(3.027441674 0.08369919834 0)
(3.031968984 0.0967120686 0)
(3.035660805 0.1082669291 0)
(3.041826124 0.1284235121 0)
(2.962877158 -0.1004316121 0)
(2.971397423 -0.07867767124 0)
(2.978988269 -0.05966988136 0)
(2.981587003 -0.04996589973 0)
(2.990601972 -0.02306881792 0)
(2.996686004 -0.002755477924 0)
(3.00074922 0.01178921671 0)
(3.007078096 0.02811617177 0)
(3.010492479 0.04120388031 0)
(3.017619685 0.06292304656 0)
(3.022326732 0.07262370113 0)
(3.029441413 0.09244833063 0)
(3.034531881 0.1023022074 0)
(3.037946655 0.113321049 0)
(3.042151852 0.1286707612 0)
(3.047200381 0.1466313919 0)
(2.972696677 -0.07552914237 0)
(2.979082848 -0.06002608379 0)
(2.984530273 -0.0434551788 0)
(2.991420549 -0.02099590194 0)
(2.997287773 0.0009582443511 0)
(3.003553132 0.01986845092 0)
(3.0064346 0.02845178493 0)
(3.014204667 0.05193682355 0)
(3.017947714 0.06275951729 0)
(3.024936594 0.08189300368 0)
(3.03126238 0.09634019266 0)
(3.036117707 0.1083238503 0)
(3.039767115 0.1179924698 0)
(3.044191311 0.1345727404 0)
(3.04780687 0.1482047013 0)
(3.052904277 0.1678075042 0)
(2.980364424 -0.05756410628 0)
(2.985159621 -0.04240687451 0)
(2.992496071 -0.01651194248 0)
(2.998550524 0.004603882483 0)
(3.003860371 0.02181986353 0)
(3.009954348 0.03853870653 0)
(3.013741758 0.05160452259 0)
(3.020541808 0.07205594522 0)
(3.025717848 0.08355988596 0)
(3.033209473 0.1040521662 0)
(3.038410419 0.1162413381 0)
(3.041451731 0.1234491306 0)
(3.046225882 0.1408855516 0)
(3.049795704 0.1555906251 0)
(3.052966244 0.1650714206 0)
(3.056907215 0.1841310976 0)
(2.988278552 -0.03622425249 0)
(2.993322759 -0.01537969559 0)
(3.00003878 0.01076341259 0)
(3.006209767 0.02918399275 0)
(3.009883774 0.04048110523 0)
(3.017339132 0.06390682081 0)
(3.020272347 0.07190479186 0)
(3.028606094 0.09327876947 0)
(3.034877394 0.1067042835 0)
(3.04041546 0.1235936321 0)
(3.043846641 0.1312108432 0)
(3.047009762 0.1444023151 0)
(3.052264984 0.1651313658 0)
(3.055285748 0.1765853677 0)
(3.058628112 0.1877179298 0)
(3.062198449 0.2129145576 0)
(2.994904407 -0.01211742579 0)
(3.002473766 0.01669547092 0)
(3.006122068 0.02944913146 0)
(3.013698806 0.0509603659 0)
(3.015827135 0.05985167638 0)
(3.02358487 0.08343032801 0)
(3.030101335 0.09832098881 0)
(3.036911218 0.1148417948 0)
(3.043192479 0.1332565602 0)
(3.046201707 0.1386338988 0)
(3.049419397 0.151069081 0)
(3.053214976 0.168071956 0)
(3.056516303 0.1817607075 0)
(3.059943308 0.1914259952 0)
(3.061264645 0.2038203528 0)
(3.062631429 0.2257241582 0)
(3.003026252 0.01701376692 0)
(3.009210392 0.04015243219 0)
(3.014482734 0.0532520599 0)
(3.02012585 0.07176747815 0)
(3.025487096 0.08935718594 0)
(3.031909576 0.1075581649 0)
(3.038861082 0.1227301034 0)
(3.044800215 0.1360248448 0)
(3.047924035 0.1452637017 0)
(3.051846999 0.1595522098 0)
(3.055658633 0.1755756573 0)
(3.059573919 0.1949859712 0)
(3.063131583 0.2073418464 0)
(3.065725761 0.2208093872 0)
(3.067382739 0.245084437 0)
(3.06941759 0.2608775403 0)
(3.010179087 0.04278892826 0)
(3.01705463 0.06257790914 0)
(3.020688234 0.07427292805 0)
(3.027660469 0.09841292058 0)
(3.032802551 0.1126731485 0)
(3.040377628 0.1323032985 0)
(3.046220002 0.1409211779 0)
(3.050825397 0.1540277927 0)
(3.053756525 0.1654279573 0)
(3.056514378 0.1789023251 0)
(3.061394487 0.199979376 0)
(3.063965443 0.2091256663 0)
(3.066440822 0.2227834173 0)
(3.065636955 0.2366549103 0)
(3.065702951 0.2524396903 0)
(3.069828347 0.2589249463 0)
(3.017867417 0.06604927008 0)
(3.02552432 0.08929774759 0)
(3.027636705 0.09882814964 0)
(3.034981681 0.1221038814 0)
(3.041884281 0.137872617 0)
(3.04703482 0.1464015379 0)
(3.053229219 0.1653324999 0)
(3.056040818 0.1764199317 0)
(3.061148164 0.1948934132 0)
(3.065726128 0.2131617407 0)
(3.068113014 0.2294603157 0)
(3.071020313 0.2478074524 0)
(3.071362374 0.2595989071 0)
(3.071929862 0.2785880917 0)
(3.075494457 0.274885236 0)
(3.073423174 0.2661947627 0)
(3.026075647 0.08921370995 0)
(3.030644197 0.1077812916 0)
(3.037480268 0.1318367483 0)
(3.043312274 0.1460409464 0)
(3.050172821 0.1595135123 0)
(3.055137555 0.1714327369 0)
(3.057447543 0.1828994723 0)
(3.061747111 0.1992960052 0)
(3.064447682 0.2117108439 0)
(3.069293125 0.2328237317 0)
(3.070998407 0.2408817581 0)
(3.068531687 0.2501692214 0)
(3.072761923 0.268871191 0)
(3.072667492 0.2733298938 0)
(3.073425871 0.2734283568 0)
(3.062964043 0.229624325 0)
(3.033495784 0.1141311042 0)
(3.039514452 0.1391119045 0)
(3.044543151 0.1530331708 0)
(3.05182248 0.1697776954 0)
(3.056265282 0.1798127337 0)
(3.061021505 0.200413455 0)
(3.065500692 0.2159328185 0)
(3.069657324 0.2313734618 0)
(3.074023585 0.2571699096 0)
(3.075176737 0.266998681 0)
(3.078383521 0.2826016574 0)
(3.077525186 0.2807517833 0)
(3.076499237 0.2800512803 0)
(3.073009813 0.2719577664 0)
(3.065884473 0.2430477659 0)
(3.03877684 0.1340306388 0)
(3.04166781 0.1456312403 0)
(3.046924759 0.1663766781 0)
(3.053983094 0.1780950256 0)
(3.05812604 0.1851492239 0)
(3.062472201 0.2059418843 0)
(3.063438013 0.2151815601 0)
(3.069542382 0.2351500785 0)
(3.073306926 0.2510640472 0)
(3.0748681 0.2590976541 0)
(3.076016523 0.2741055026 0)
(3.07563097 0.2782531847 0)
(3.07488112 0.2804283908 0)
(3.069673476 0.2632683764 0)
(3.056604698 0.2063792874 0)
(3.048933607 0.1569042046 0)
(3.030714922 0.07914751324 0)
(3.049241503 0.1761405476 0)
(3.053912297 0.1868149453 0)
(3.061594827 0.2043107352 0)
(3.067568054 0.2233500238 0)
(3.069656839 0.2398373491 0)
(3.075027519 0.2630656732 0)
(3.078142076 0.2755680725 0)
(3.080299556 0.2948391631 0)
(3.082970526 0.2930754519 0)
(3.08018351 0.286145877 0)
(3.076136598 0.2787885097 0)
(3.063668063 0.2477214349 0)
(3.045256079 0.1746494107 0)
(3.036873714 0.09118832434 0)
(3.019305732 0.01385164781 0)
(3.005588133 -0.004413441078 0)
(3.056732584 0.2001200883 0)
(3.06365869 0.2119774725 0)
(3.065418918 0.2203293465 0)
(3.069592711 0.2450266102 0)
(3.072314166 0.2581712647 0)
(3.077666705 0.2678108322 0)
(3.079984434 0.2829880709 0)
(3.079218799 0.2870966568 0)
(3.078055112 0.2881563728 0)
(3.070583712 0.2664403743 0)
(3.059122952 0.2140696442 0)
(3.032836141 0.1239558684 0)
(3.027234549 0.09113293491 0)
(3.026605589 0.0560506288 0)
(3.01152882 0.0257004456 0)
(3.00254608 0.005746321303 0)
(3.065003989 0.2326679293 0)
(3.071225385 0.2443979383 0)
(3.077381631 0.2746270757 0)
(3.077134197 0.2876977324 0)
(3.081355606 0.3020152696 0)
(3.086313989 0.3030280815 0)
(3.083755649 0.296024689 0)
(3.078472171 0.2853387539 0)
(3.068962415 0.2531845638 0)
(3.050969901 0.1831604572 0)
(3.043643357 0.1358924412 0)
(3.013782974 0.04284044242 0)
(3.003475056 -0.008675153281 0)
(2.994297227 0.00373777593 0)
(2.994308611 0.008910015305 0)
(2.99784536 0.00543133941 0)
(3.070644058 0.2464208147 0)
(3.07215289 0.2615377671 0)
(3.076252635 0.2831790848 0)
(3.080018528 0.2929014775 0)
(3.081455925 0.295195764 0)
(3.081913858 0.2965160913 0)
(3.075035941 0.2772167219 0)
(3.054208863 0.2094427914 0)
(3.056097672 0.1383450317 0)
(3.02713733 0.0156169983 0)
(3.00878224 0.02432425945 0)
(3.003115478 0.008123360149 0)
(3.00175499 0.0004114523791 0)
(3.000399616 -0.000812115047 0)
(2.996842222 0.001835472268 0)
(2.996610115 0.002866196265 0)
(3.082262532 0.2922879737 0)
(3.083132097 0.3164178741 0)
(3.083174967 0.3146932745 0)
(3.085967249 0.3063375835 0)
(3.080779311 0.2921163191 0)
(3.069186548 0.2546936154 0)
(3.047352185 0.1791646672 0)
(3.030889057 0.1028797424 0)
(3.041285642 0.07489619583 0)
(3.0139211 0.03202314801 0)
(3.005617663 0.02675896584 0)
(3.000979482 0.01611581071 0)
(3.000100436 0.006498590234 0)
(2.99865053 0.0001775887155 0)
(2.997764156 -0.0003776414941 0)
(2.997125237 0.0004267360879 0)
(3.083900258 0.3041663987 0)
(3.083297019 0.311260301 0)
(3.08138422 0.3090225784 0)
(3.076147832 0.2820110832 0)
(3.060114237 0.217525793 0)
(3.038535849 0.135346019 0)
(3.028010297 0.06855001259 0)
(3.014373578 -0.01701030578 0)
(2.987495251 0.005229406172 0)
(2.988375629 0.006701600969 0)
(2.994146699 0.009869134481 0)
(2.998954609 0.008572496596 0)
(2.997718069 0.004613601209 0)
(2.996805595 0.002308933943 0)
(2.996713535 0.0008824910181 0)
(2.996828731 -0.0002637683777 0)
(3.08696758 0.3183043324 0)
(3.080753341 0.3065202953 0)
(3.063865824 0.2547559006 0)
(3.057959205 0.1695009629 0)
(3.026476844 0.04215564862 0)
(3.01374045 0.05039519799 0)
(3.006852983 0.02543528956 0)
(3.001928557 0.008413573854 0)
(2.993203378 0.005828423056 0)
(2.99217222 0.004189837384 0)
(2.99354565 0.004134040835 0)
)
;

boundaryField
{
    inlet
    {
        type            fixedValue;
        value           nonuniform 0();
    }
    outlet
    {
        type            inletOutlet;
        inletValue      uniform (3 0 0);
        value           nonuniform List<vector> 
34
(
(2.877915862 0.0160122171 0)
(2.873583258 0.04641249924 0)
(2.875948099 0.07611593357 0)
(2.88625408 0.1021154139 0)
(2.885964515 0.1289855533 0)
(2.893098095 0.1579694858 0)
(2.899014364 0.1620292767 0)
(2.903253149 0.1842940101 0)
(2.925918732 0.1593694282 0)
(2.953417934 0.1225875581 0)
(2.979505371 0.08654545542 0)
(2.999302083 0.06737426618 0)
(3.014183706 0.06604974502 0)
(3.023433436 0.0771672386 0)
(3.030583909 0.09295803823 0)
(3.036177397 0.1093889584 0)
(3.041826124 0.1284235121 0)
(3.047200381 0.1466313919 0)
(3.052904277 0.1678075042 0)
(3.056907215 0.1841310976 0)
(3.062198449 0.2129145576 0)
(3.062631429 0.2257241582 0)
(3.06941759 0.2608775403 0)
(3.069828347 0.2589249463 0)
(3.073423174 0.2661947627 0)
(3.062964043 0.229624325 0)
(3.03877684 0.1340306388 0)
(3.030714922 0.07914751324 0)
(3.005588133 -0.004413441078 0)
(3.00254608 0.005746321303 0)
(2.99784536 0.00543133941 0)
(2.996610115 0.002866196265 0)
(2.997125237 0.0004267360879 0)
(2.996828731 -0.0002637683777 0)
)
;
    }
    bottom
    {
        type            slip;
    }
    top
    {
        type            slip;
    }
    obstacle
    {
        type            slip;
    }
    defaultFaces
    {
        type            empty;
    }
    procBoundary5to4
    {
        type            processor;
        value           nonuniform List<vector> 
34
(
(2.999984869 -1.611803137e-05 0)
(2.999864734 -0.0003615346397 0)
(2.99904094 -0.002520493644 0)
(2.994253696 -0.01555744568 0)
(2.982684758 -0.04633517587 0)
(2.956378047 -0.1141883463 0)
(2.93798937 -0.1653462618 0)
(2.922107996 -0.1965928067 0)
(2.902620075 -0.2302585348 0)
(2.905295254 -0.2312824667 0)
(2.904955468 -0.2292616422 0)
(2.906310169 -0.2267836136 0)
(2.911891782 -0.2153545339 0)
(2.916903175 -0.2013476316 0)
(2.923840405 -0.1818982047 0)
(2.932794003 -0.1607389703 0)
(2.942195216 -0.1417361012 0)
(2.951624763 -0.1244343787 0)
(2.962757874 -0.1006468336 0)
(2.973350542 -0.07392672746 0)
(2.980753804 -0.05650109425 0)
(2.988576925 -0.03607010791 0)
(2.997737579 -0.006837860561 0)
(3.004551684 0.02043618688 0)
(3.013513181 0.05357112479 0)
(3.02051103 0.07725083984 0)
(3.028992866 0.1002788159 0)
(3.03746274 0.1272481277 0)
(3.042760599 0.1470284072 0)
(3.053825037 0.1862997584 0)
(3.0601997 0.2193493193 0)
(3.064689567 0.2369435299 0)
(3.075671198 0.2826401316 0)
(3.079294956 0.2869257013 0)
)
;
    }
    procBoundary5to10
    {
        type            processor;
        value           uniform (3.088385357 0.3220282875 0);
    }
    procBoundary5to11
    {
        type            processor;
        value           nonuniform List<vector> 
17
(
(2.9958407 0.003392305042 0)
(2.996869022 0.001886825461 0)
(2.996340238 0.001045592372 0)
(2.996243314 9.201687837e-06 0)
(2.995951235 -0.0002453991385 0)
(3.075414386 0.2898530521 0)
(3.059540521 0.2236042837 0)
(3.039647153 0.1266451132 0)
(3.050270973 0.1033992674 0)
(3.016206139 0.04046054066 0)
(3.005816385 0.02175184643 0)
(2.995646838 0.01017704638 0)
(2.993308275 0.006338742537 0)
(2.992527941 0.004574511416 0)
(2.992862007 0.003950592775 0)
(2.9958407 0.003392305042 0)
(2.994260303 0.002106230319 0)
)
;
    }
}


// ************************************************************************* //
