/*--------------------------------*- C++ -*----------------------------------*\
  =========                 |
  \\      /  F ield         | OpenFOAM: The Open Source CFD Toolbox
   \\    /   O peration     | Website:  https://openfoam.org
    \\  /    A nd           | Version:  7
     \\/     M anipulation  |
\*---------------------------------------------------------------------------*/
FoamFile
{
    version     2.0;
    format      ascii;
    class       volScalarField;
    location    "2.1";
    object      T;
}
// * * * * * * * * * * * * * * * * * * * * * * * * * * * * * * * * * * * * * //

dimensions      [0 0 0 1 0 0 0];

internalField   nonuniform List<scalar> 
22
(
1.040507048
1.042314579
1.04377555
1.034256238
1.041000021
1.041253284
1.031655976
1.027599078
1.039771439
1.040230332
1.030500981
1.016363449
1.036887018
1.038009411
1.03024087
0.9979774926
1.016769403
1.022566872
0.9654354875
0.9793479122
1.002195494
0.9774887877
)
;

boundaryField
{
    inlet
    {
        type            fixedValue;
        value           nonuniform 0();
    }
    outlet
    {
        type            inletOutlet;
        inletValue      nonuniform 0();
        value           nonuniform 0();
    }
    bottom
    {
        type            slip;
    }
    top
    {
        type            slip;
    }
    obstacle
    {
        type            zeroGradient;
    }
    defaultFaces
    {
        type            empty;
    }
    procBoundary28to21
    {
        type            processor;
        value           nonuniform List<scalar> 2(1.013586686 0.9975478968);
    }
    procBoundary28to22
    {
        type            processor;
        value           nonuniform List<scalar> 3(1.046354003 1.046888293 1.04877421);
    }
    procBoundary28to27
    {
        type            processor;
        value           nonuniform List<scalar> 6(0.9816027769 0.9592461652 0.9690357888 0.9690357888 0.9603544413 0.9993369804);
    }
    procBoundary28to29
    {
        type            processor;
        value           nonuniform List<scalar> 7(1.034832488 1.034832488 1.031205557 1.028188457 1.026918477 1.02527152 1.013392475);
    }
    procBoundary28to34
    {
        type            processor;
        value           nonuniform List<scalar> 4(0.9743961764 0.9769788446 0.9743961764 1.006774713);
    }
}


// ************************************************************************* //
