/*--------------------------------*- C++ -*----------------------------------*\
  =========                 |
  \\      /  F ield         | OpenFOAM: The Open Source CFD Toolbox
   \\    /   O peration     | Website:  https://openfoam.org
    \\  /    A nd           | Version:  7
     \\/     M anipulation  |
\*---------------------------------------------------------------------------*/
FoamFile
{
    version     2.0;
    format      ascii;
    class       volScalarField;
    location    "0.6";
    object      p;
}
// * * * * * * * * * * * * * * * * * * * * * * * * * * * * * * * * * * * * * //

dimensions      [1 -1 -2 0 0 0 0];

internalField   nonuniform List<scalar> 
2222
(
1.040946959
1.039015026
1.039265671
1.043296063
1.04764169
1.045573179
1.046280625
1.047273409
1.046628452
0.6720961196
0.6538383206
0.6374656595
0.6372251674
0.6333940123
0.633766831
0.6336659244
0.633299595
0.6316841544
0.6306199519
0.6294772467
0.6289242574
0.6288331586
0.6295187092
0.6303761144
0.6290078
0.6285966975
0.632304717
0.6469566981
0.6954205454
0.8123859463
0.9508396582
1.019316661
1.035323621
1.039049981
1.042017053
1.039193303
1.038998161
1.04195693
1.047220872
1.045691516
1.046704066
1.047674166
1.046858282
0.6692303664
0.6510582672
0.6351696965
0.6355818617
0.6333944849
0.6337709132
0.634182481
0.6325623762
0.6312217995
0.6304056608
0.6293410354
0.6288906348
0.6290107905
0.6299138918
0.6302597328
0.628666275
0.628771287
0.6338613679
0.6529572379
0.7167679013
0.8416536781
0.9750710884
1.032312683
1.039815399
1.04202037
1.0439296
1.040326624
1.039542563
1.041956534
1.04581557
1.044516101
1.045532025
1.046756741
1.046255599
0.6663963017
0.6479027701
0.6323236946
0.634474948
0.6334959738
0.6344666226
0.6334678671
0.6320650935
0.6309446886
0.6301533094
0.6291210774
0.6287780424
0.6292258432
0.6301536108
0.6300515106
0.6284142308
0.6292830818
0.6359516429
0.6615190673
0.7377884493
0.8754559699
0.9893200053
1.034585978
1.040865735
1.043254949
1.045229897
1.041550407
1.040980582
1.042941546
1.045216688
1.043846566
1.044343881
1.044388134
0.663432496
0.6452495777
0.6309898213
0.6341568925
0.6337023563
0.6339956646
0.6330632303
0.6317256683
0.6307593472
0.6299034934
0.6289369039
0.6287827563
0.6294526373
0.6302839225
0.6296659177
0.6280775611
0.6300624145
0.6395401153
0.6744514846
0.765325237
0.8943933282
0.9940125337
1.03410754
1.040952986
1.043445704
1.046009689
1.042538022
1.042012313
1.044824624
1.045522561
1.044089479
1.044695535
1.04331434
0.6606027859
0.6433115235
0.6306573629
0.6342686731
0.6337036538
0.6341217379
0.6330620194
0.6318615526
0.6306371526
0.6297315
0.6287362761
0.6288848359
0.6296916963
0.6302800644
0.6291974858
0.6281583134
0.6318402393
0.6462558926
0.6926972154
0.7918590129
0.9031979699
0.9927296465
1.029982773
1.038689171
1.041586359
1.04498674
1.042544134
1.042776842
1.046125613
1.046393402
1.044757938
1.04519487
1.043980216
0.6581809702
0.6416989025
0.6301561266
0.6346065538
0.6336605626
0.6336155128
0.6326517248
0.6314921384
0.6305574465
0.6296924098
0.6287583519
0.6290677439
0.629954606
0.6301804125
0.6286953479
0.6285005818
0.6343999932
0.6538356822
0.7094644536
0.8203456871
0.9409679966
1.006481336
1.029132224
1.036051341
1.039487639
1.043100389
1.042368708
1.043547057
1.046965084
1.047054104
1.04541765
1.045803483
1.045053357
0.6558320794
0.6400554313
0.6293263903
0.6350239066
0.6338384766
0.6331612901
0.632148367
0.6311712606
0.6304240199
0.6295268852
0.6288471821
0.6293406049
0.6302078101
0.6300470452
0.6285084791
0.6291855572
0.6362870433
0.6598546478
0.7311371256
0.8669254777
0.9840867149
1.0235098
1.030781464
1.03625683
1.039177879
1.042608907
1.042069569
1.043679137
1.046883496
1.046872299
1.045111189
1.046274979
1.045461302
0.6529334618
0.6378860612
0.6288351077
0.6356078773
0.6343345386
0.6331183379
0.6316249524
0.6308501108
0.6303012659
0.629212889
0.6289281034
0.6297039433
0.6303837534
0.6297674302
0.6282061473
0.6299319675
0.6387552334
0.6703784278
0.7627511907
0.9074630414
1.009182349
1.035587549
1.036035631
1.037906891
1.040258125
1.043247107
1.042224468
1.043596634
1.045801584
1.045398542
1.042451426
1.044625139
1.045479101
0.648804579
0.6349579778
0.6286481235
0.6357070704
0.6343652315
0.6332630159
0.6313439273
0.63041281
0.6300820525
0.6290210327
0.6290789241
0.6300724713
0.6304709618
0.6294285877
0.6279915651
0.6309860184
0.6447488403
0.6920841067
0.8000780071
0.9316005459
1.014252759
1.038240479
1.040192371
1.041401403
1.042423508
1.044610865
1.043014344
1.044031076
1.04552961
1.044972545
1.041227937
1.040951653
1.043252101
0.6446605661
0.6327709895
0.6288833955
0.6356418352
0.6336275671
0.6330283472
0.6313812805
0.629912079
0.6293763089
0.6284659032
0.629244807
0.6302526062
0.6304604822
0.6289466723
0.6281780388
0.6332805661
0.6536133822
0.7115403848
0.8211813959
0.9413161915
1.015385346
1.038967406
1.041431033
1.043316659
1.04472332
1.046435258
1.044424188
1.045041858
1.046135547
1.045668283
1.04234242
1.039124209
1.039709348
0.642746078
0.6321217889
0.6292684404
0.6355755709
0.6326995228
0.6320507858
0.631462841
0.6298951696
0.6287190716
0.6288965927
0.6294503482
0.630405845
0.6303423238
0.6283339338
0.628594486
0.636400416
0.6609582854
0.723465984
0.8334688826
0.9426574451
1.013242483
1.036434711
1.040411754
1.044097482
1.04623213
1.047594117
1.045776281
1.04628265
1.047088521
1.046697431
1.043739339
1.040365425
0.6418461344
0.6320326746
0.6295667786
0.6355315086
0.6324762782
0.6312401129
0.631119956
0.6300668005
0.6289972088
0.6290135986
0.6296911122
0.6306239724
0.6301076681
0.6281379801
0.6296328633
0.6391211422
0.6677654285
0.7474337315
0.8738795973
0.9723244419
1.017088154
1.033607628
1.037025516
1.042672898
1.046994988
1.047811569
1.046702973
1.047022766
1.047714202
1.047206219
1.044367568
1.041771432
0.6412037214
0.6324441553
0.6315634009
0.6365674383
0.6325729307
0.6310201981
0.6304458634
0.6301322952
0.6293158004
0.6290087108
0.6299771737
0.6309042521
0.6297978306
0.6280260609
0.6309641832
0.6432577854
0.6844778098
0.7897627976
0.9282844773
1.009605601
1.02749831
1.032989978
1.034434038
1.040072688
1.046680572
1.046968493
1.046023937
1.046187026
1.046376175
1.045402538
1.043745454
1.042308897
0.6404972299
0.632532764
0.6334893321
0.6371350056
0.6331653873
0.6311541308
0.6297988256
0.6298562413
0.6294502983
0.6292037793
0.6304939016
0.6308054427
0.6294279878
0.6281491635
0.6330835692
0.6517594139
0.7112597647
0.8324958192
0.9659035587
1.027545562
1.037751422
1.034613293
1.035366445
1.039345063
1.046032728
1.046036544
1.045759613
1.045799491
1.045450549
1.0432786
1.040126044
1.041711277
0.6388626959
0.631927534
0.6335522856
0.6369083747
0.6330846362
0.6314296517
0.62952432
0.6285103708
0.6293986747
0.6294235108
0.630591502
0.6305819511
0.6288440667
0.6286148951
0.636442546
0.661984532
0.7297833686
0.8606673928
0.9765285593
1.030213373
1.040275074
1.038061023
1.038213716
1.040742341
1.045037485
1.046499599
1.046434754
1.046542435
1.045940144
1.043202334
1.038048565
1.039964564
0.6352363463
0.6306455235
0.6330529694
0.6357610085
0.6321571615
0.631277823
0.629498904
0.6283728105
0.6287725514
0.6295924976
0.6307026761
0.6302020715
0.6282643448
0.629516409
0.6399093325
0.6714453893
0.750737561
0.8707032623
0.9771841505
1.029482146
1.039485702
1.039853269
1.042225002
1.044064472
1.045747956
1.04784716
1.047997762
1.047806894
1.047138954
1.044250653
1.038497982
1.039258516
0.6336789952
0.6301073764
0.6325661935
0.6339806634
0.6303898651
0.6308006953
0.6296782391
0.6286743293
0.6288355619
0.6298986984
0.6308228758
0.6297567145
0.6280573945
0.6307510835
0.6438098657
0.6819664103
0.7754534319
0.8877956778
0.9854067149
1.030151762
1.039147468
1.040632687
1.043347736
1.047078075
1.047723794
1.048438587
1.048872872
1.048836309
1.04811213
1.045432272
1.039715338
1.039924863
0.6348650438
0.6308933597
0.6331147825
0.6333669703
0.629507252
0.630134164
0.6296466086
0.6289840737
0.629262985
0.6303346874
0.630964757
0.629383312
0.6280629572
0.6326360533
0.6497187605
0.7030456148
0.8065293884
0.9306542458
1.000692301
1.029256749
1.03786059
1.040525008
1.043702101
1.048273623
1.049108291
1.047636621
1.047603781
1.047574621
1.046647495
1.044869296
1.040698644
0.6370096246
0.6324361826
0.634199187
0.6335583832
0.6293122071
0.6295512404
0.6294864972
0.6290875375
0.6296854757
0.6305398672
0.6308752925
0.6291082902
0.6281651314
0.6355605923
0.6602731626
0.7280677952
0.8578169577
0.9793578877
1.01951031
1.030849332
1.035384034
1.03780308
1.042143805
1.048440939
1.049708016
1.047707517
1.046333004
1.045193077
1.043032071
1.039812526
1.039768158
0.6374015992
0.6330943096
0.6363295703
0.6339902311
0.6293234479
0.6291678819
0.629089404
0.6290475242
0.6299280895
0.6306414422
0.6303335768
0.6284686219
0.6290801139
0.6397636046
0.6716445021
0.757670116
0.9014374039
1.002829366
1.0310176
1.033735763
1.035162107
1.036445227
1.03966871
1.047313933
1.049684883
1.048244078
1.04677007
1.045147078
1.042266014
1.036832354
1.035963927
0.6362116855
0.6319699458
0.6373608533
0.6346514535
0.6296938802
0.6291131348
0.6284579032
0.6288494826
0.6302297332
0.6307978312
0.6296198134
0.6276850346
0.6304912264
0.6441255144
0.6865350151
0.7884105363
0.9253410414
1.00460275
1.0330486
1.037203164
1.035332534
1.037114957
1.040054744
1.044887034
1.049425435
1.049046599
1.048116358
1.046286922
1.042969834
1.03730756
1.034453907
0.6339743701
0.6309671803
0.6362868399
0.6343817562
0.6299433447
0.6292994854
0.6282290368
0.6286713385
0.6305373794
0.6308791214
0.629246331
0.6277333858
0.6325541638
0.6507436578
0.705582553
0.8228263097
0.9403139888
1.011575339
1.034592174
1.038595708
1.038808068
1.038839327
1.041848775
1.044789181
1.048479056
1.049804476
1.049500752
1.048151985
1.044951986
1.038613898
1.034963774
0.6330935104
0.6303364249
0.6343359005
0.6330967867
0.6300071301
0.6296191344
0.6283490843
0.6288377833
0.6309768602
0.6309502579
0.6290503124
0.6284033191
0.6358808987
0.6615049794
0.7314250061
0.8449808815
0.9585085014
1.021853836
1.037682343
1.040460534
1.040242252
1.040814372
1.043678475
1.045987566
1.047438081
1.04936501
1.049697581
1.049161571
1.04625434
1.04078154
1.036225281
0.6329125298
0.6299352526
0.6329917012
0.6304607765
0.6295708489
0.6299310167
0.6285613946
0.6292401649
0.6311198779
0.6306620561
0.629143995
0.6297618996
0.641368801
0.6759297448
0.7551279004
0.8701315432
0.9769447588
1.025032801
1.037802793
1.041464461
1.041482429
1.04188964
1.04553351
1.047109016
1.04687957
1.047073873
1.046577798
1.046282197
1.045712839
1.042116766
1.038395335
0.6343054865
0.6305826995
0.632509212
0.6284298364
0.6282806852
0.6299204838
0.6287999713
0.6297660146
0.6311642885
0.6300428845
0.6289192054
0.6321015611
0.6479326033
0.6896272242
0.7798068488
0.9163030658
0.9967806215
1.026164013
1.034165157
1.037785275
1.040060684
1.041857327
1.046771032
1.048576663
1.047518984
1.045637552
1.043373878
1.041142475
1.040763781
1.040841748
1.039886146
0.6372961484
0.6326498063
0.6322208621
0.6276480869
0.6266454133
0.6292628379
0.6289623777
0.6303793465
0.6310606511
0.6292046325
0.6284496584
0.6342336813
0.6530730592
0.7057556118
0.8249235823
0.9566500955
1.012022508
1.025709577
1.032444042
1.034641047
1.036655264
1.039832145
1.046129065
1.050167335
1.048675597
1.04644149
1.043697142
1.040056752
1.036763411
1.036258733
0.6379660863
0.6336862162
0.6331967473
0.6278268775
0.6263759083
0.628275769
0.6289607266
0.6308469399
0.6309017105
0.6284145963
0.6281310198
0.6361799977
0.6613220826
0.7344195957
0.8699328263
0.9769416389
1.019382318
1.029566926
1.031666512
1.034078217
1.03672277
1.040288931
1.044887928
1.049817964
1.049736423
1.04778384
1.045023399
1.041095253
1.036599614
1.033811227
0.6368907205
0.6334360229
0.6347875196
0.6281880589
0.6271626572
0.6280710398
0.6290654546
0.6315797797
0.6306148891
0.6279030239
0.629111943
0.6401919599
0.6765110645
0.7683537326
0.8921542297
0.9927979779
1.027716793
1.033055217
1.035149731
1.035312073
1.03805459
1.042463818
1.046293731
1.048711485
1.049664083
1.048985614
1.046271154
1.041936744
1.036946829
1.033394322
0.6339510606
0.6327456526
0.6347476295
0.6290367339
0.6279983998
0.6283748926
0.6289913619
0.6322047525
0.6304375638
0.6279065179
0.631157307
0.6481441787
0.6961460724
0.7882703959
0.9089874529
1.004948333
1.033692822
1.037078285
1.038358088
1.038922316
1.04103066
1.045647651
1.049144107
1.050136706
1.049603952
1.049344936
1.047652206
1.043675891
1.038917242
1.034167276
0.6315724399
0.6313795212
0.6340606845
0.6294005127
0.628929007
0.6286224824
0.6295777667
0.632685211
0.6304405831
0.6284843621
0.6345762974
0.6569106382
0.7116140142
0.8100312287
0.9342694696
1.010833906
1.036046522
1.039549603
1.040676888
1.041211027
1.043138839
1.047693202
1.052477293
1.052530014
1.050743068
1.048393905
1.0471177
1.044884423
1.040361964
1.035685767
0.6312174436
0.6294312586
0.6316770205
0.6288837298
0.6294370909
0.6286158302
0.6296786226
0.6327883751
0.6304104082
0.6296031461
0.6383430576
0.6643575138
0.7303982525
0.8550399678
0.9661293656
1.01331999
1.031993726
1.038690882
1.041159692
1.042311757
1.04422659
1.04860087
1.054545894
1.054674548
1.05169131
1.046913508
1.043569747
1.041748077
1.040092368
1.036697884
0.6322527842
0.628914808
0.6284192767
0.6262746194
0.6293805792
0.6284191032
0.630154349
0.6322521724
0.629787733
0.6311001115
0.6421369037
0.676867266
0.768988254
0.9045435263
0.9926294423
1.020998437
1.02917716
1.03404645
1.03723188
1.040125728
1.04280274
1.046722478
1.053012742
1.053460833
1.050567285
1.045106017
1.039915792
1.037614491
1.036731067
1.036463988
0.635604168
0.6294677912
0.6276301013
0.6241663974
0.6280382883
0.6287084317
0.6304674618
0.631106405
0.6289245967
0.6330051076
0.6492471227
0.6985378448
0.8108632239
0.9362565103
1.008395519
1.026687365
1.029330168
1.032069294
1.034384726
1.03797454
1.042574969
1.046525778
1.049829767
1.049261811
1.047365778
1.043422212
1.038344254
1.035075341
1.033803406
0.6368161593
0.6305301547
0.6275238243
0.6242359365
0.6280948104
0.6290850526
0.6307930647
0.6300010647
0.6287048727
0.6363140671
0.6605729358
0.7223488656
0.8316892688
0.950993629
1.019096097
1.032325578
1.03339151
1.033974203
1.035152024
1.038320716
1.044518074
1.04861654
1.049618732
1.047511238
1.045364918
1.042583129
1.038135423
1.034678298
1.033089957
0.6361522382
0.630528141
0.6282440154
0.624843293
0.6285458035
0.6296268258
0.6312298003
0.6290124318
0.6289215101
0.6399227061
0.670080619
0.7382441571
0.8491611568
0.9653792714
1.024248684
1.035992711
1.038306015
1.038213497
1.038334136
1.040725662
1.047507017
1.052440536
1.052561799
1.049570871
1.045686614
1.042435254
1.038081047
1.03478672
1.033122198
0.6348645325
0.6300612936
0.6295069895
0.6264009713
0.62949062
0.630497781
0.6319758825
0.6285364653
0.6294834393
0.6429163935
0.6785569376
0.7594096356
0.8829134884
0.9790586028
1.025670765
1.038196434
1.041399274
1.041234711
1.041372074
1.042924774
1.048795589
1.055088829
1.05623226
1.052731762
1.047611567
1.043027572
1.038317428
1.034832213
1.033255871
0.6316726465
0.6294848774
0.6296159796
0.6278049321
0.6309036812
0.631827925
0.6328694515
0.6283665051
0.6312954397
0.6478145388
0.6949799863
0.804733147
0.9310824102
0.9954361689
1.023570215
1.033566924
1.040269555
1.042757137
1.043412097
1.042996629
1.046591495
1.054636807
1.057431109
1.054606029
1.049084668
1.043543121
1.03886161
1.035567979
1.034186673
0.6291013597
0.6279627753
0.6294086499
0.6283527117
0.6318894519
0.6329771857
0.6331002561
0.6290188494
0.6349404255
0.6591893742
0.7246888414
0.8515597088
0.9680088345
1.015280237
1.024343274
1.028815385
1.034092987
1.039246725
1.042465106
1.043731513
1.046307885
1.051016544
1.054097181
1.052019017
1.047261217
1.042090954
1.038989311
1.03699448
1.035999203
0.628647849
0.6259658039
0.6282598108
0.6286612507
0.6323231077
0.6332380807
0.6326704105
0.6308762817
0.641469683
0.674425233
0.754036644
0.8795323802
0.9848024143
1.025134635
1.026958376
1.028317939
1.030900594
1.034266465
1.039461364
1.044459482
1.04835712
1.049866869
1.049719316
1.046783389
1.043039238
1.038420987
1.037318774
1.037175436
1.036996068
0.6294646203
0.6254701273
0.6255354654
0.6288223268
0.6326025707
0.633127631
0.6319197499
0.6323299874
0.6476826972
0.6864551646
0.7730812795
0.8983088201
0.9971540554
1.030031085
1.033030428
1.032904029
1.032437302
1.033607252
1.038411927
1.045276473
1.050845706
1.051005762
1.048861468
1.044878433
1.040425105
1.035483626
1.033483986
1.03358157
0.6324556052
0.6256264369
0.6245516254
0.6277261962
0.6327545105
0.6327483871
0.6309826786
0.6337855807
0.6521459546
0.6991682055
0.7968796513
0.9226113368
1.006378396
1.033647712
1.037327477
1.038140798
1.037437857
1.03739441
1.039467607
1.045530235
1.051954
1.053229733
1.05056556
1.045853872
1.040435215
1.035351757
1.032021385
1.031022454
0.6336183012
0.6267944922
0.6246963818
0.6267956451
0.6325396514
0.632086305
0.6297468914
0.6361144724
0.6606687312
0.7237091804
0.840330355
0.9516924727
1.011768529
1.034909734
1.0401875
1.041659166
1.041734543
1.042098489
1.042252027
1.044502026
1.051524087
1.05541235
1.053213163
1.048490002
1.042287644
1.036927987
1.032987783
1.031511637
0.6331078761
0.627443927
0.6260146441
0.6272224992
0.6316047636
0.6310351911
0.6297972415
0.6414983226
0.6774498408
0.7593049394
0.8856934185
0.9783655006
1.016167079
1.029454444
1.035560797
1.041027311
1.044981348
1.045895421
1.045647394
1.046519746
1.050254784
1.05441495
1.053880024
1.049495214
1.043812093
1.038704873
1.035424468
1.033614171
0.6317085925
0.6273428727
0.6280642609
0.6282258958
0.6314469059
0.6302048661
0.6309508897
0.6481317666
0.6917981317
0.7898067886
0.9209420655
0.9997559273
1.020289114
1.027536355
1.029631956
1.034589099
1.041692101
1.046449863
1.04869276
1.049984317
1.051836332
1.05216186
1.050944092
1.045516831
1.04000707
1.037411572
1.036249262
1.035346012
0.6281363966
0.6271068741
0.6289053059
0.6300670944
0.6317173283
0.6297383036
0.6326352335
0.6532187561
0.7058813081
0.8177650684
0.9464397646
1.014821232
1.028427471
1.027853177
1.028588533
1.030995946
1.034787167
1.041889053
1.049223845
1.053315932
1.054270271
1.052183578
1.049259708
1.042626034
1.035735467
1.032860208
1.032916688
1.034805516
0.6261857037
0.6262004645
0.6292369605
0.6316473808
0.632267894
0.6297082407
0.6353650753
0.6612424499
0.7294864881
0.8525391822
0.9719785375
1.026328852
1.034362801
1.033257697
1.031568819
1.031943043
1.032979329
1.036969498
1.045649192
1.053379737
1.05504886
1.052219311
1.048173785
1.041880111
1.035248957
1.031989272
1.030351476
0.6264764347
0.6256499156
0.6294523233
0.6324689607
0.6328518842
0.6306774309
0.6413635472
0.6790372436
0.7669238497
0.8923764308
0.9903569056
1.030595153
1.038644789
1.038202112
1.036730762
1.03697946
1.036592401
1.037398588
1.041798326
1.05022817
1.053122236
1.050800037
1.046419147
1.041193085
1.036735209
1.033717692
1.031736118
0.6275564188
0.6260139412
0.6295419057
0.6329028317
0.6329336852
0.6329463232
0.6516602319
0.7006831207
0.7960296016
0.9195446158
0.9997054597
1.031318276
1.040825708
1.04154602
1.040118781
1.041537069
1.042338246
1.041212223
1.042933831
1.046762746
1.051165183
1.049822645
1.04528274
1.040222288
1.037257297
1.036684666
1.035172826
0.6282205506
0.6263584709
0.6300795273
0.6330688766
0.6330198226
0.6358667377
0.6595961668
0.7129087856
0.8183478062
0.9420960532
1.005243858
1.026269334
1.033869682
1.038062846
1.04120055
1.044569337
1.045757803
1.046606637
1.046795688
1.047608999
1.049003293
1.048211564
1.044324823
1.040382917
1.037385016
1.03720966
1.037576929
0.6288444185
0.6266219784
0.6308515312
0.6333201336
0.6328394291
0.638178583
0.6659465697
0.7334604493
0.8603833822
0.9730303427
1.014983371
1.025894189
1.029146822
1.031110213
1.035623454
1.041777385
1.046827026
1.050093028
1.052034519
1.05109984
1.04984233
1.047031444
1.041409576
1.037509462
1.036632208
1.036265749
1.038913051
0.6290553256
0.6272751526
0.6315137051
0.633584629
0.6330543151
0.6420390237
0.6806822726
0.774197047
0.9118649331
1.001117522
1.024252617
1.028089362
1.028093464
1.029409393
1.032371812
1.036220011
1.042680234
1.050491452
1.055234948
1.055155097
1.05258856
1.048590049
1.041304033
1.035117617
1.032979382
1.032644224
1.035523715
0.6267793247
0.6287042331
0.6319903881
0.6336573459
0.6340242717
0.6507531686
0.704920949
0.8159778028
0.9440376341
1.013225403
1.031340952
1.034243616
1.033198201
1.032278813
1.032607343
1.034369842
1.038571579
1.04655706
1.055018536
1.057275984
1.054841071
1.05036001
1.04304082
1.036193533
1.0328798
1.030851774
1.030985714
0.6212652654
0.6300822495
0.6330505519
0.6339982288
0.6369027213
0.6630953105
0.7266165839
0.8401750844
0.9573780084
1.018495409
1.035853653
1.038498265
1.03819376
1.03740916
1.03716063
1.038008231
1.039599562
1.044136023
1.050710846
1.053878184
1.052925093
1.049415361
1.044138116
1.038079424
1.034387008
1.032758298
0.6191158316
0.6302017027
0.6343042197
0.6350600765
0.6414240489
0.6731359346
0.7446678544
0.8666194971
0.9739330238
1.018145019
1.034763317
1.040522822
1.041659968
1.041185862
1.041327596
1.042800805
1.044015613
1.046193416
1.048613237
1.049723031
1.04814389
1.044558223
1.041797095
1.038735689
1.036440794
1.035877444
0.6199274359
0.6303495918
0.634812389
0.6365909085
0.6471806878
0.6857487536
0.7744393203
0.9071815873
0.9949665442
1.019139756
1.02915488
1.034019546
1.037382811
1.04067767
1.043846351
1.046798694
1.048932838
1.051047046
1.050800617
1.049372586
1.045622501
1.040015911
1.036579301
1.03674827
1.037148134
1.038075517
0.6213170804
0.6303682146
0.6354813187
0.637814225
0.6545742761
0.7084974026
0.8171319252
0.9430890685
1.009468611
1.02325319
1.027552305
1.030007674
1.033224307
1.037574028
1.042668677
1.046948732
1.051805971
1.055249813
1.054519017
1.051571435
1.046639436
1.038652779
1.032636034
1.031969924
1.03359062
1.035970456
0.6249658347
0.6299737918
0.6367454246
0.6400236526
0.6663917023
0.7346726928
0.8556907833
0.9677937871
1.017092516
1.029650112
1.031788739
1.030689839
1.031086719
1.034386569
1.039793927
1.045120402
1.050101941
1.055156293
1.05568067
1.05278357
1.047787079
1.039191097
1.031748765
1.029195113
1.030327408
1.032147633
0.6315264538
0.6301488189
0.6378881596
0.6441671104
0.6793472651
0.7619199275
0.8919282167
0.9873884932
1.021750177
1.035916335
1.038230497
1.035474217
1.033219714
1.034195863
1.037598412
1.04213522
1.047115498
1.052072019
1.053223004
1.051640157
1.047711883
1.040792307
1.034501142
1.030838141
1.030362144
1.031717782
0.635834998
0.6320957189
0.6388920549
0.6496308808
0.6942994229
0.7942279663
0.9285498892
1.004950051
1.022829595
1.034541761
1.040138015
1.039325283
1.037983277
1.037458634
1.039136922
1.042584416
1.046507702
1.051166324
1.052000532
1.050628998
1.047179226
1.042357779
1.037845209
1.034074071
1.032274672
0.6361135677
0.6363944999
0.6401816412
0.6570122601
0.7150244051
0.8372246661
0.9630151278
1.01721463
1.021701933
1.02917917
1.034024307
1.037048192
1.039460679
1.041067407
1.043592176
1.046369456
1.049081829
1.05126377
1.050066716
1.047841318
1.044473724
1.041596799
1.039214021
1.036606861
1.035301138
0.6359756838
0.6393234795
0.6435607384
0.6684014499
0.7443025892
0.8722776264
0.9830791778
1.024668616
1.023653532
1.026397742
1.030220661
1.034191205
1.039000238
1.043859631
1.048363289
1.050813209
1.052388808
1.05274209
1.049486665
1.044745288
1.038835166
1.035814869
1.036798291
1.036895287
1.037301374
0.6353806726
0.6422281786
0.6499467879
0.6846044203
0.7744698018
0.8966023145
0.994644289
1.0242612
1.027441739
1.028511078
1.028652875
1.03242181
1.037590303
1.043839778
1.049437673
1.052465001
1.052594319
1.051548981
1.048230794
1.042529196
1.034958278
1.030476034
1.031403214
1.034163512
1.036343581
0.6334319117
0.6445044862
0.6560629512
0.7010147365
0.8049944894
0.9302864667
1.002631904
1.02458369
1.030267466
1.033767571
1.032258397
1.032089829
1.034601509
1.040337369
1.046895824
1.051887516
1.053602057
1.051774002
1.048248121
1.042919359
1.035540436
1.030053544
1.02836844
1.030843291
1.034351821
0.6347251402
0.6464163687
0.6604996003
0.722677819
0.8534595048
0.9676250883
1.013704365
1.021982382
1.030576315
1.037496501
1.036802732
1.034240204
1.034273223
1.037708882
1.043204168
1.050620932
1.055837195
1.055184281
1.051673964
1.047027423
1.04023079
1.034285712
1.030875569
1.030505987
1.032422653
0.6375785149
0.6502396533
0.6705759012
0.7569082043
0.9092510968
0.9984497379
1.023601001
1.021441819
1.027822998
1.036393489
1.037077081
1.036505105
1.037422397
1.040441394
1.044713283
1.050134859
1.056195063
1.057291928
1.054527462
1.050575032
1.044692942
1.038595752
1.033958798
1.031477257
1.031095885
0.6406047141
0.6556251684
0.693067275
0.8027439605
0.9416779428
1.011471078
1.030667078
1.024793943
1.027254365
1.035113504
1.038210794
1.040345568
1.04310919
1.046156903
1.049059051
1.050486332
1.052570065
1.053735548
1.051848698
1.048689646
1.043849467
1.038328117
1.033693834
1.031453406
0.6430235174
0.6624110999
0.7154842029
0.8354448136
0.9564224046
1.017385475
1.031967681
1.028681443
1.028429333
1.032528324
1.03756288
1.042705199
1.047481579
1.050457616
1.051673018
1.050110902
1.048284936
1.046194662
1.04297386
1.039971985
1.037330599
1.034914619
1.032273085
1.031647752
0.6460912982
0.6686412629
0.728340157
0.8574402359
0.9688927784
1.017218371
1.033537325
1.032514251
1.033681337
1.031996211
1.032076096
1.037989716
1.045700379
1.051713536
1.054351819
1.052160461
1.04796012
1.042860934
1.03691976
1.032167499
1.030435844
1.031213616
1.03145942
1.032158978
0.6497624108
0.6792734799
0.7510048987
0.9030800089
0.9913712588
1.015833092
1.029742362
1.033384118
1.038585816
1.036661699
1.032126759
1.031393838
1.037705041
1.050468807
1.057553957
1.057306298
1.051765509
1.044932726
1.036996851
1.031002096
1.028877781
1.030021446
1.032589749
1.033908431
0.654434789
0.6977258711
0.8052715213
0.9645164837
1.011968228
1.020178859
1.023398376
1.028477706
1.039006706
1.039678508
1.036130215
1.03559674
1.036970958
1.044402373
1.056947118
1.061189824
1.057869771
1.050859373
1.042014606
1.035491305
1.0322987
1.032068131
1.034650456
1.03616527
0.6622261496
0.7235228172
0.8737823794
1.002903977
1.020266625
1.025765891
1.022845067
1.023735304
1.035158419
1.04071441
1.041896529
1.041676346
1.042594244
1.045397941
1.050464245
1.059506108
1.059764301
1.05463459
1.04734978
1.040670314
1.036226173
1.034265195
1.036036402
1.037456482
0.6687227309
0.7520160971
0.9143939664
1.013626468
1.023496818
1.027540596
1.025918797
1.025747917
1.029903524
1.037391722
1.044229094
1.048162053
1.049724231
1.049163184
1.048609583
1.050558816
1.054121325
1.052591163
1.048025002
1.042411299
1.037602487
1.034552055
1.035623147
0.6742330105
0.7775590257
0.9276792813
1.010867754
1.019887753
1.029048125
1.030887724
1.029294647
1.031183762
1.033260263
1.041178943
1.050173325
1.054167648
1.053702546
1.048228802
1.044669027
1.043443082
1.04281719
1.041968102
1.039519753
1.036392926
1.033249015
1.03285442
0.6819247775
0.815783494
0.9523755718
1.009593214
1.01839999
1.028490875
1.03614825
1.037115206
1.037212294
1.036006843
1.036379221
1.043826288
1.051547218
1.053060959
1.049869548
1.044604234
1.038930031
1.034250659
1.032525636
1.033397279
1.033742167
1.032674225
1.030873291
0.6966379885
0.887849915
0.9873568667
1.012839507
1.022717878
1.033282903
1.03633088
1.040747255
1.042729276
1.03730983
1.035475655
1.038515468
1.045783969
1.051795587
1.052474929
1.046148903
1.039294107
1.034221576
1.031432404
1.030908028
1.032314033
1.032560868
1.030214342
0.7053949839
0.9686126565
1.015596191
1.030427629
1.030629655
1.031015495
1.030147167
1.036636223
1.041580143
1.039125493
1.035879653
1.038512393
1.046570455
1.055608951
1.05720606
1.051523049
1.043253175
1.036747114
1.03307488
1.031556981
1.031465346
1.030930599
1.030878655
0.7314100211
1.03172078
1.030428147
1.041367763
1.026554175
1.020100169
1.02266522
1.030927949
1.037164416
1.039181634
1.042953091
1.049020543
1.055316673
1.060506575
1.060785486
1.057083286
1.049292166
1.040906572
1.034320089
1.031316378
1.028726619
1.030652976
0.7109714894
1.05442925
1.017498942
1.024195233
1.010295831
1.016825128
1.026893272
1.03297097
1.035880561
1.043546524
1.052518654
1.057417257
1.057427043
1.058546164
1.057439311
1.055675061
1.050815006
1.04316847
1.035113376
1.02987083
1.02880382
1.033467332
0.7013221388
0.9726283378
0.9884583948
0.9994614682
1.016398986
)
;

boundaryField
{
    inlet
    {
        type            fixedValue;
        value           nonuniform 0();
    }
    outlet
    {
        type            zeroGradient;
    }
    bottom
    {
        type            slip;
    }
    top
    {
        type            slip;
    }
    obstacle
    {
        type            zeroGradient;
    }
    defaultFaces
    {
        type            empty;
    }
    procBoundary15to9
    {
        type            processor;
        value           nonuniform List<scalar> 
35
(
1.04105092
1.039685818
1.039790309
1.043588481
1.047192173
1.045031474
1.045619805
1.046862454
1.045839908
0.6752666771
0.6564747659
0.6392705907
0.638216327
0.6335603845
0.6339538746
0.6337089729
0.6329168036
0.6318952576
0.6307230243
0.6294976671
0.6287870487
0.6286750399
0.6291880085
0.630447078
0.6295217198
0.6285599309
0.6307108586
0.6406955432
0.6781586848
0.7758813193
0.9128928795
1.001836647
1.029373691
1.035665201
1.035665201
)
;
    }
    procBoundary15to10
    {
        type            processor;
        value           nonuniform List<scalar> 
20
(
1.043384547
1.043730624
1.043965732
1.043524835
1.043524835
1.041433625
1.040453948
1.041202486
1.042805524
1.043657329
1.043366536
1.041114121
1.037591066
1.037591066
1.038301946
1.039787203
1.040376437
1.040329465
1.039746742
1.039542522
)
;
    }
    procBoundary15to16
    {
        type            processor;
        value           nonuniform List<scalar> 
70
(
1.041085364
1.041085364
1.041408939
1.038430017
1.035868063
1.036253189
1.037226357
1.039180198
1.040555372
1.038772635
1.038772635
1.035074551
1.033989485
1.034720259
1.035849499
1.036808631
1.037579399
1.034692275
1.034692275
1.033041413
1.032893307
1.03364291
1.034926893
1.036251326
1.037556375
1.034450824
1.034450824
1.031020021
1.030698772
1.032228008
1.035152924
1.037292356
1.031341486
1.031341486
1.031390024
1.033999826
1.038024585
1.040741758