/*--------------------------------*- C++ -*----------------------------------*\
  =========                 |
  \\      /  F ield         | OpenFOAM: The Open Source CFD Toolbox
   \\    /   O peration     | Website:  https://openfoam.org
    \\  /    A nd           | Version:  7
     \\/     M anipulation  |
\*---------------------------------------------------------------------------*/
FoamFile
{
    version     2.0;
    format      ascii;
    class       volScalarField;
    location    "0.1";
    object      rho;
}
// * * * * * * * * * * * * * * * * * * * * * * * * * * * * * * * * * * * * * //

dimensions      [1 -3 0 0 0 0 0];

internalField   nonuniform List<scalar> 
22
(
1.199450609
1.036856767
1.079937954
1.211742496
1.049142748
1.102352266
1.2442947
1.065091986
1.134896758
1.285014432
1.082959707
1.18435022
1.31699629
1.100203944
1.223930483
1.328982864
1.11530711
1.251909388
1.124764658
1.275186302
1.112813792
1.322843397
)
;

boundaryField
{
    inlet
    {
        type            calculated;
        value           nonuniform 0();
    }
    outlet
    {
        type            calculated;
        value           nonuniform 0();
    }
    bottom
    {
        type            calculated;
        value           nonuniform 0();
    }
    top
    {
        type            calculated;
        value           nonuniform 0();
    }
    obstacle
    {
        type            calculated;
        value           nonuniform List<scalar> 8(1.036856767 1.049142748 1.065091986 1.082959707 1.100203944 1.11530711 1.124764658 1.112813792);
    }
    defaultFaces
    {
        type            empty;
    }
    procBoundary15to9
    {
        type            processor;
        value           nonuniform List<scalar> 4(1.172613926 1.01750471 1.054383268 1.054383268);
    }
    procBoundary15to10
    {
        type            processor;
        value           nonuniform List<scalar> 3(1.343915596 1.355918314 1.368886663);
    }
    procBoundary15to16
    {
        type            processor;
        value           nonuniform List<scalar> 7(1.37518104 1.378985297 1.382565629 1.335383149 1.335383149 1.342389387 1.351755233);
    }
    procBoundary15to21
    {
        type            processor;
        value           nonuniform List<scalar> 2(1.111898407 1.339214577);
    }
}


// ************************************************************************* //
