/*--------------------------------*- C++ -*----------------------------------*\
  =========                 |
  \\      /  F ield         | OpenFOAM: The Open Source CFD Toolbox
   \\    /   O peration     | Website:  https://openfoam.org
    \\  /    A nd           | Version:  7
     \\/     M anipulation  |
\*---------------------------------------------------------------------------*/
FoamFile
{
    version     2.0;
    format      ascii;
    class       volVectorField;
    location    "2.5";
    object      U;
}
// * * * * * * * * * * * * * * * * * * * * * * * * * * * * * * * * * * * * * //

dimensions      [0 1 -1 0 0 0 0];

internalField   nonuniform List<vector> 
2222
(
(3 1.542794833e-14 0)
(3 1.375957846e-14 0)
(3 9.267108969e-15 0)
(3 5.753982943e-15 0)
(3 4.690869224e-15 0)
(3 2.26392152e-15 0)
(3 1.432314723e-15 0)
(3 -4.613226139e-15 0)
(3 -9.450302888e-15 0)
(3 -1.329462447e-14 0)
(3 -1.405071604e-14 0)
(3 -1.30358725e-14 0)
(3 -1.0270115e-14 0)
(3 -7.838676642e-15 0)
(3 -9.373070909e-15 0)
(3 -1.023187673e-14 0)
(3 -9.034722587e-15 0)
(3 -9.242477507e-15 0)
(3 -1.0623075e-14 0)
(3 -1.56891777e-14 0)
(3 -2.399169611e-14 0)
(3 -3.053828887e-14 0)
(3 -3.527118235e-14 0)
(3 -3.697868717e-14 0)
(3 -3.589635144e-14 0)
(3 -3.216430791e-14 0)
(3 -2.971711082e-14 0)
(3 -2.745373367e-14 0)
(3 -1.985500928e-14 0)
(3 -1.046214706e-14 0)
(3 -1.400513591e-16 0)
(3 5.553777113e-15 0)
(3 7.727462313e-15 0)
(3 9.726509271e-15 0)
(3 -3.204645372e-15 0)
(3 -4.146341829e-15 0)
(3 -3.649227115e-15 0)
(3 -3.066178321e-15 0)
(3 -3.710400446e-15 0)
(3 3.581462471e-16 0)
(3 2.583409946e-15 0)
(3 2.617348811e-15 0)
(3 -3.345198852e-15 0)
(3 -6.102914401e-15 0)
(3 -7.677648864e-15 0)
(3 -7.289112759e-15 0)
(3 -6.897233993e-15 0)
(3 -7.916085883e-15 0)
(3 -9.287120772e-15 0)
(3 -1.097530886e-14 0)
(3 -1.387546728e-14 0)
(3 -1.561887963e-14 0)
(3 -1.791348297e-14 0)
(3 -2.432435459e-14 0)
(3 -2.741008258e-14 0)
(3 -2.623051671e-14 0)
(3 -2.783339572e-14 0)
(3 -2.491027949e-14 0)
(3 -2.427012792e-14 0)
(3 -1.606329064e-14 0)
(3 -1.24864903e-14 0)
(3 -2.893495864e-15 0)
(3 -6.802870202e-16 0)
(3 4.722220809e-15 0)
(3 1.153827904e-14 0)
(3 1.431453064e-14 0)
(3 1.424097103e-14 0)
(3 -2.036956992e-16 0)
(3 -5.090059638e-16 0)
(3 -9.691635428e-16 0)
(3 -1.300071481e-15 0)
(3 -4.715537989e-15 0)
(3 -5.796525251e-16 0)
(3 5.261343366e-15 0)
(3 2.130039179e-15 0)
(3 -2.73835656e-15 0)
(3 -6.475605935e-15 0)
(3 -1.065782865e-14 0)
(3 -1.128183065e-14 0)
(3 -1.010689205e-14 0)
(3 -9.924471849e-15 0)
(3 -1.005458944e-14 0)
(3 -1.48109015e-14 0)
(3 -1.760163521e-14 0)
(3 -1.781948967e-14 0)
(3 -2.137001772e-14 0)
(3 -2.426597353e-14 0)
(3 -2.22819185e-14 0)
(3 -2.223088966e-14 0)
(3 -1.93591339e-14 0)
(3 -1.632120514e-14 0)
(3 -1.667789063e-14 0)
(3 -7.637570383e-15 0)
(3 -2.41637451e-15 0)
(3 2.660376416e-15 0)
(3 5.325132568e-15 0)
(3 1.022407052e-14 0)
(3 1.170394692e-14 0)
(3 1.562204624e-14 0)
(3 1.636071437e-14 0)
(3 -5.904334536e-15 0)
(3 -5.789164111e-15 0)
(3 -6.253179143e-15 0)
(3 -6.995560254e-15 0)
(3 -5.585190724e-15 0)
(3 -1.21116874e-15 0)
(3 -1.49253662e-15 0)
(3 -3.758267046e-15 0)
(3 -3.167976882e-15 0)
(3 -2.720612916e-15 0)
(3 -3.978009414e-15 0)
(3 -8.896057329e-15 0)
(3 -1.482205377e-14 0)
(3 -1.575876065e-14 0)
(3 -1.372203423e-14 0)
(3 -1.539439965e-14 0)
(3 -1.436797758e-14 0)
(3 -1.193865843e-14 0)
(3 -1.489550468e-14 0)
(3 -1.516578199e-14 0)
(3 -1.632428912e-14 0)
(3 -1.628556651e-14 0)
(3 -1.398640313e-14 0)
(3 -7.010431174e-15 0)
(3 -1.526035637e-15 0)
(3 3.597557871e-15 0)
(3 5.208568556e-15 0)
(3 4.377131542e-15 0)
(3 5.899456289e-15 0)
(3 9.771608051e-15 0)
(3 1.023895394e-14 0)
(3 1.021117812e-14 0)
(3 1.00055858e-14 0)
(3 -8.128360633e-15 0)
(3 -6.596236506e-15 0)
(3 -7.586621031e-15 0)
(3 -1.009961523e-14 0)
(3 -8.527594461e-15 0)
(3 -7.590773085e-15 0)
(3 -6.600299567e-15 0)
(3 -4.258903869e-15 0)
(3 1.497117551e-15 0)
(3 4.186678538e-15 0)
(3 3.49048435e-15 0)
(3 2.857593448e-15 0)
(3 -6.196511462e-16 0)
(3 -7.037670519e-15 0)
(3 -7.983574423e-15 0)
(3 -6.712578728e-15 0)
(3 -6.26572938e-15 0)
(3 -2.542052269e-15 0)
(3 3.072537145e-16 0)
(3 -6.633767657e-16 0)
(3 -5.017511621e-15 0)
(3 -4.184710518e-15 0)
(3 -8.351533143e-16 0)
(3 1.780500723e-15 0)
(3 4.640960624e-15 0)
(3 8.236595999e-15 0)
(3 1.068289397e-14 0)
(3 9.188727053e-15 0)
(3 5.19784754e-15 0)
(3 9.697237293e-16 0)
(3 3.871651217e-16 0)
(3 3.343552205e-15 0)
(3 1.235961723e-15 0)
(3 -1.513219376e-14 0)
(3 -1.884011699e-14 0)
(3 -1.73242973e-14 0)
(3 -1.727494522e-14 0)
(3 -1.707147175e-14 0)
(3 -1.191476604e-14 0)
(3 -7.879326168e-15 0)
(3 7.893105557e-16 0)
(3 9.941495259e-15 0)
(3 1.113817249e-14 0)
(3 1.043397547e-14 0)
(3 1.135640297e-14 0)
(3 1.290295558e-14 0)
(3 9.533827901e-15 0)
(3 3.901189251e-15 0)
(3 3.013177523e-15 0)
(3 3.699641502e-15 0)
(3 5.443230438e-15 0)
(3 6.81997215e-15 0)
(3 6.667375252e-15 0)
(3 9.829366696e-15 0)
(3 1.051986744e-14 0)
(3 1.164551276e-14 0)
(3 9.384835774e-15 0)
(3 1.111817687e-14 0)
(3 8.894895429e-15 0)
(3 8.78369885e-15 0)
(3 4.053288812e-15 0)
(3 2.85949261e-15 0)
(3 4.096588613e-15 0)
(3 3.139379931e-15 0)
(3 7.095518757e-17 0)
(3 -5.754358116e-15 0)
(3 -1.728371969e-14 0)
(3 -1.817930703e-14 0)
(3 -1.97965963e-14 0)
(3 -1.981350576e-14 0)
(3 -1.842340149e-14 0)
(3 -1.474614865e-14 0)
(3 -8.102364894e-15 0)
(3 -1.508867448e-15 0)
(3 5.752580559e-15 0)
(3 1.367928748e-14 0)
(3 1.826232839e-14 0)
(3 1.780971902e-14 0)
(3 1.774257576e-14 0)
(3 1.749108715e-14 0)
(3 1.599776414e-14 0)
(3 1.196920966e-14 0)
(3 9.189282058e-15 0)
(3 1.013269523e-14 0)
(3 1.152674677e-14 0)
(3 1.619185767e-14 0)
(3 1.800733269e-14 0)
(3 1.644044063e-14 0)
(3 1.418594795e-14 0)
(3 9.294085408e-15 0)
(3 3.370404935e-15 0)
(3 5.31920039e-16 0)
(3 -1.752961402e-15 0)
(3 -6.867741311e-15 0)
(3 -9.067109562e-15 0)
(3 -1.091400829e-14 0)
(3 -1.212772143e-14 0)
(3 -1.737569071e-14 0)
(3 -1.925225519e-14 0)
(3 -1.711696937e-14 0)
(3 -1.383412445e-14 0)
(3 -1.281440301e-14 0)
(3 -1.209234464e-14 0)
(3 -1.151120349e-14 0)
(3 -1.108451989e-14 0)
(3 -7.035340239e-15 0)
(3 -2.835840945e-15 0)
(3 -1.873740272e-16 0)
(3 5.008789063e-15 0)
(3 1.192962782e-14 0)
(3 1.997970725e-14 0)
(3 2.018287732e-14 0)
(3 2.156213399e-14 0)
(3 2.14633749e-14 0)
(3 2.006120122e-14 0)
(3 1.713909953e-14 0)
(3 1.699353297e-14 0)
(3 1.768737235e-14 0)
(3 1.723851133e-14 0)
(3 1.30667162e-14 0)
(3 1.044303504e-14 0)
(3 5.691984399e-15 0)
(3 4.182846231e-15 0)
(3 1.071240563e-16 0)
(3 -4.798076426e-15 0)
(3 -8.647508985e-15 0)
(3 -1.063310785e-14 0)
(3 -1.259308049e-14 0)
(3 -1.464951409e-14 0)
(3 -1.675417985e-14 0)
(3 -1.741286535e-14 0)
(3 -2.134705394e-14 0)
(3 -1.335680237e-14 0)
(3 -1.037221918e-14 0)
(3 -9.26939742e-15 0)
(3 -8.114780853e-15 0)
(3 -7.970253917e-15 0)
(3 -6.876695298e-15 0)
(3 -8.318119736e-15 0)
(3 -6.065725591e-15 0)
(3 -4.245438889e-15 0)
(3 9.535511827e-16 0)
(3 9.51704998e-15 0)
(3 1.214419271e-14 0)
(3 1.140826343e-14 0)
(3 1.647215869e-14 0)
(3 1.57010501e-14 0)
(3 1.815257089e-14 0)
(3 2.106878491e-14 0)
(3 2.163405444e-14 0)
(3 2.131345387e-14 0)
(3 1.791169807e-14 0)
(3 1.43754533e-14 0)
(3 1.332669282e-14 0)
(3 8.438653099e-15 0)
(3 7.043314884e-15 0)
(3 5.534410569e-15 0)
(3 3.447465194e-16 0)
(3 -5.460163988e-15 0)
(3 -8.321477604e-15 0)
(3 -9.266848095e-15 0)
(3 -1.088778599e-14 0)
(3 -1.229269954e-14 0)
(3 -1.459061711e-14 0)
(3 -1.694658348e-14 0)
(3 -1.15919801e-14 0)
(3 -1.126228138e-14 0)
(3 -7.914116661e-15 0)
(3 -4.706882723e-15 0)
(3 -2.268105019e-15 0)
(3 -5.669381868e-16 0)
(3 3.081463689e-15 0)
(3 3.664842885e-15 0)
(3 5.022687659e-15 0)
(3 8.005648689e-15 0)
(3 1.122342279e-14 0)
(3 9.127076721e-15 0)
(3 8.840733729e-15 0)
(3 5.947934369e-15 0)
(3 7.604929374e-15 0)
(3 1.14230698e-14 0)
(3 1.562906148e-14 0)
(3 1.521178104e-14 0)
(3 1.690271841e-14 0)
(3 1.86412628e-14 0)
(3 2.03048166e-14 0)
(3 1.947196642e-14 0)
(3 1.682569608e-14 0)
(3 1.005364828e-14 0)
(3 6.061679303e-15 0)
(3 -8.654970272e-16 0)
(3 -5.911021501e-15 0)
(3 -6.033609433e-15 0)
(3 -6.084873771e-15 0)
(3 -6.718656584e-15 0)
(3 -9.337167943e-15 0)
(3 -1.282412333e-14 0)
(3 -1.235880584e-14 0)
(3 -5.156509295e-15 0)
(3 -4.180143873e-15 0)
(3 -1.646312078e-15 0)
(3 3.558550111e-15 0)
(3 9.948445156e-15 0)
(3 1.355702099e-14 0)
(3 1.579067834e-14 0)
(3 1.641109682e-14 0)
(3 1.512164525e-14 0)
(3 1.16328502e-14 0)
(3 9.293227162e-15 0)
(3 4.371935662e-15 0)
(3 2.844552206e-15 0)
(3 -7.654624274e-16 0)
(3 -1.37526345e-15 0)
(3 3.440532131e-17 0)
(3 2.674298894e-15 0)
(3 4.493838757e-15 0)
(3 1.08871161e-14 0)
(3 1.82206172e-14 0)
(3 2.097530496e-14 0)
(3 1.992889914e-14 0)
(3 1.676090267e-14 0)
(3 1.558536861e-14 0)
(3 1.187725875e-14 0)
(3 4.598511654e-15 0)
(3 3.737259131e-16 0)
(3 -1.633392553e-15 0)
(3 -2.058683339e-15 0)
(3 -3.002163225e-15 0)
(3 -2.597075495e-15 0)
(3 -5.020233133e-15 0)
(3 -5.139636321e-15 0)
(3 5.12047905e-15 0)
(3 4.881003316e-15 0)
(3 6.500496306e-15 0)
(3 8.518175292e-15 0)
(3 1.283509567e-14 0)
(3 1.352219435e-14 0)
(3 1.170017354e-14 0)
(3 1.228982118e-14 0)
(3 1.175009641e-14 0)
(3 9.090712849e-15 0)
(3 4.20472521e-15 0)
(3 -1.714624644e-15 0)
(3 -5.969248213e-15 0)
(3 -7.636048915e-15 0)
(3 -8.448194908e-15 0)
(3 -8.10429094e-15 0)
(3 -6.759741377e-15 0)
(3 -1.359966753e-15 0)
(3 5.711385927e-15 0)
(3 1.160176274e-14 0)
(3 1.632811647e-14 0)
(3 1.733996191e-14 0)
(3 1.694511815e-14 0)
(3 1.763900768e-14 0)
(3 1.334931086e-14 0)
(3 1.11090191e-14 0)
(3 7.663963318e-15 0)
(3 3.310885334e-15 0)
(3 1.54543901e-16 0)
(3 -3.051235993e-16 0)
(3 -2.944792128e-15 0)
(3 -1.132514325e-15 0)
(3 -3.085237564e-16 0)
(3 1.469395676e-14 0)
(3 1.41032852e-14 0)
(3 1.390459244e-14 0)
(3 1.385666995e-14 0)
(3 1.290150848e-14 0)
(3 1.073225493e-14 0)
(3 1.069958909e-14 0)
(3 5.577574296e-15 0)
(3 2.39846436e-15 0)
(3 2.15815634e-15 0)
(3 2.75474413e-15 0)
(3 2.96067541e-15 0)
(3 1.701631613e-15 0)
(3 -1.697807176e-15 0)
(3 -3.529757685e-15 0)
(3 -5.427926567e-15 0)
(3 -5.225199171e-15 0)
(3 -4.12093047e-15 0)
(3 2.126054475e-16 0)
(3 2.596481014e-15 0)
(3 6.505055149e-15 0)
(3 1.038101718e-14 0)
(3 1.491982711e-14 0)
(3 1.948902913e-14 0)
(3 1.742179307e-14 0)
(3 1.243679919e-14 0)
(3 9.524460196e-15 0)
(3 8.696277558e-15 0)
(3 5.39180933e-15 0)
(3 2.45023934e-15 0)
(3 -7.019343882e-16 0)
(3 -3.300846052e-15 0)
(3 1.198345801e-15 0)
(3 1.307267229e-14 0)
(3 1.313916881e-14 0)
(3 1.496187052e-14 0)
(3 1.657744142e-14 0)
(3 1.93465374e-14 0)
(3 1.835834322e-14 0)
(3 1.524356768e-14 0)
(3 8.530613092e-15 0)
(3 1.952007991e-15 0)
(3 -8.568162162e-16 0)
(3 1.439345869e-15 0)
(3 2.660118773e-15 0)
(3 2.479457108e-15 0)
(3 1.646394465e-15 0)
(3 -1.371807412e-15 0)
(3 5.889585795e-16 0)
(3 -2.42588829e-15 0)
(3 -4.770541629e-15 0)
(3 -4.070167113e-15 0)
(3 -1.789461706e-15 0)
(3 -8.185121272e-17 0)
(3 4.476100058e-15 0)
(3 1.01182093e-14 0)
(3 1.387542159e-14 0)
(3 1.275969051e-14 0)
(3 8.884718003e-15 0)
(3 4.997323901e-15 0)
(3 2.243253724e-15 0)
(3 3.285293828e-17 0)
(3 -2.552416487e-15 0)
(3 -2.561629619e-15 0)
(3 -9.355393247e-16 0)
(3 -3.175462581e-15 0)
(3 8.707489466e-15 0)
(3 7.243653836e-15 0)
(3 9.417490625e-15 0)
(3 8.2307289e-15 0)
(3 7.123618214e-15 0)
(3 6.482008648e-15 0)
(3 4.449694314e-15 0)
(3 3.887622193e-15 0)
(3 2.743499849e-15 0)
(3 -1.135577972e-15 0)
(3 -5.753804982e-16 0)
(3 3.296845559e-15 0)
(3 3.333607831e-15 0)
(3 5.299642444e-16 0)
(3 -4.173810295e-15 0)
(3 -3.459951647e-15 0)
(3 -8.129192502e-15 0)
(3 -1.211882164e-14 0)
(3 -1.407588965e-14 0)
(3 -1.163647385e-14 0)
(3 -7.810861585e-15 0)
(3 -2.795663604e-15 0)
(3 -5.60793085e-16 0)
(3 2.329328427e-16 0)
(3 2.713234541e-15 0)
(3 3.744575193e-15 0)
(3 4.670124083e-15 0)
(3 3.787475367e-15 0)
(3 1.353577398e-15 0)
(3 1.610251804e-15 0)
(3 4.033065547e-15 0)
(3 3.366039989e-15 0)
(3 -8.308851942e-16 0)
(3 7.319862096e-15 0)
(3 6.304083524e-15 0)
(3 1.963856837e-15 0)
(3 -2.352028115e-15 0)
(3 -6.9127828e-15 0)
(3 -5.901382768e-15 0)
(3 -3.373481594e-15 0)
(3 1.207780248e-15 0)
(3 3.467629811e-15 0)
(3 3.794035762e-15 0)
(3 1.526429516e-15 0)
(3 1.13961184e-15 0)
(3 1.356161742e-16 0)
(3 -3.122770607e-15 0)
(3 -4.96176857e-15 0)
(3 -8.111557288e-15 0)
(3 -1.084778443e-14 0)
(3 -1.039381831e-14 0)
(3 -9.764859885e-15 0)
(3 -7.492517384e-15 0)
(3 -4.464373427e-15 0)
(3 -3.140828961e-15 0)
(3 1.570071702e-16 0)
(3 2.383790812e-15 0)
(3 7.309701925e-15 0)
(3 1.037497445e-14 0)
(3 1.262899545e-14 0)
(3 8.706619902e-15 0)
(3 6.473622018e-15 0)
(3 5.825130866e-15 0)
(3 1.302214636e-15 0)
(3 -2.700861351e-15 0)
(3 -5.304233183e-15 0)
(3 1.063113976e-14 0)
(3 7.274281801e-15 0)
(3 1.628529187e-15 0)
(3 -1.377569948e-15 0)
(3 -6.967810839e-15 0)
(3 -6.961622329e-15 0)
(3 -6.479347508e-15 0)
(3 -3.183452252e-15 0)
(3 -4.497974808e-16 0)
(3 -6.930264531e-16 0)
(3 -6.098639972e-15 0)
(3 -7.796667391e-15 0)
(3 -1.014407377e-14 0)
(3 -1.234693446e-14 0)
(3 -1.419719543e-14 0)
(3 -1.526764276e-14 0)
(3 -1.436412658e-14 0)
(3 -1.027199123e-14 0)
(3 -4.163242799e-15 0)
(3 -1.407779206e-15 0)
(3 7.740427786e-16 0)
(3 -2.001794397e-16 0)
(3 3.724526633e-15 0)
(3 6.723765154e-15 0)
(3 8.153724488e-15 0)
(3 6.555928698e-15 0)
(3 3.986347799e-15 0)
(3 4.472673969e-15 0)
(3 6.697655793e-15 0)
(3 6.45187606e-15 0)
(3 4.114202931e-16 0)
(3 -4.472265524e-15 0)
(3 -5.282574119e-15 0)
(3 1.172967915e-14 0)
(3 9.342304586e-15 0)
(3 7.137976322e-15 0)
(3 4.073082267e-15 0)
(3 4.916909075e-15 0)
(3 1.278310892e-15 0)
(3 -6.681216581e-15 0)
(3 -7.987022545e-15 0)
(3 -1.03317028e-14 0)
(3 -1.183927275e-14 0)
(3 -1.450505245e-14 0)
(3 -1.83356427e-14 0)
(3 -1.779543716e-14 0)
(3 -1.795991618e-14 0)
(3 -1.453176713e-14 0)
(3 -1.314049509e-14 0)
(3 -1.312852284e-14 0)
(3 -8.258098677e-15 0)
(3 -4.930679945e-15 0)
(3 -2.76926281e-15 0)
(3 -1.531047692e-15 0)
(3 -7.318935122e-15 0)
(3 -9.741263476e-15 0)
(3 -6.751240967e-15 0)
(3 -4.741614886e-15 0)
(3 -3.866235745e-15 0)
(3 -1.509336609e-15 0)
(3 1.240395264e-15 0)
(3 2.921823261e-15 0)
(3 3.614711529e-15 0)
(3 6.185837584e-15 0)
(3 8.48304563e-15 0)
(3 1.026634933e-14 0)
(3 1.428221828e-14 0)
(3 1.300753958e-14 0)
(3 1.079823599e-14 0)
(3 9.475647723e-15 0)
(3 1.172843513e-14 0)
(3 7.240175076e-15 0)
(3 -8.362991614e-16 0)
(3 -8.881903401e-15 0)
(3 -1.481743513e-14 0)
(3 -2.236264187e-14 0)
(3 -2.581169839e-14 0)
(3 -2.700451802e-14 0)
(3 -2.15575734e-14 0)
(3 -1.437372323e-14 0)
(3 -7.184072807e-15 0)
(3 -5.87356148e-15 0)
(3 -8.469265297e-15 0)
(3 -1.078913216e-14 0)
(3 -1.231662726e-14 0)
(3 -1.660071701e-14 0)
(3 -1.747653552e-14 0)
(3 -1.916952342e-14 0)
(3 -1.963659301e-14 0)
(3 -1.690432229e-14 0)
(3 -1.251164276e-14 0)
(3 -5.202537058e-15 0)
(3 -9.598475831e-16 0)
(3 -2.271244382e-15 0)
(3 -1.863158293e-15 0)
(3 1.149252039e-15 0)
(3 6.936298851e-15 0)
(3 1.375251295e-14 0)
(3 1.916405748e-14 0)
(3 1.261537381e-14 0)
(3 1.359760836e-14 0)
(3 1.397710858e-14 0)
(3 1.417001766e-14 0)
(3 9.929377751e-15 0)
(3 3.217701281e-15 0)
(3 -3.476767022e-15 0)
(3 -1.00040695e-14 0)
(3 -1.95505404e-14 0)
(3 -2.532857027e-14 0)
(3 -2.738521981e-14 0)
(3 -2.567797545e-14 0)
(3 -1.989244304e-14 0)
(3 -1.215856925e-14 0)
(3 -1.157068145e-14 0)
(3 -1.152715439e-14 0)
(3 -1.312950547e-14 0)
(3 -1.907321335e-14 0)
(3 -2.449361528e-14 0)
(3 -2.881878505e-14 0)
(3 -2.891694583e-14 0)
(3 -2.644400791e-14 0)
(3 -2.211584646e-14 0)
(3 -1.843334609e-14 0)
(3 -1.256367032e-14 0)
(3 -6.144650259e-15 0)
(3 4.69594976e-16 0)
(3 7.235071787e-15 0)
(3 9.719956665e-15 0)
(3 1.150088156e-14 0)
(3 1.081098461e-14 0)
(3 1.554421721e-14 0)
(3 1.827624429e-14 0)
(3 2.945848586e-15 0)
(3 1.068137779e-14 0)
(3 1.392622812e-14 0)
(3 1.40823931e-14 0)
(3 6.992112465e-15 0)
(3 2.439416547e-15 0)
(3 -4.867174117e-15 0)
(3 -1.302927088e-14 0)
(3 -1.38565156e-14 0)
(3 -1.638073289e-14 0)
(3 -1.801841795e-14 0)
(3 -1.849027864e-14 0)
(3 -1.702003377e-14 0)
(3 -1.67633195e-14 0)
(3 -1.67356354e-14 0)
(3 -1.734773932e-14 0)
(3 -1.796892691e-14 0)
(3 -2.044306286e-14 0)
(3 -2.203253354e-14 0)
(3 -2.011250814e-14 0)
(3 -1.853093404e-14 0)
(3 -1.717787137e-14 0)
(3 -1.532990941e-14 0)
(3 -1.225018659e-14 0)
(3 -9.767854064e-15 0)
(3 -3.941263332e-15 0)
(3 1.737210335e-15 0)
(3 6.05676681e-15 0)
(3 7.67019002e-15 0)
(3 1.130692768e-14 0)
(3 1.584914236e-14 0)
(3 1.584592652e-14 0)
(3 1.576658691e-14 0)
(3 7.751183593e-16 0)
(3 2.756945834e-15 0)
(3 6.119306036e-15 0)
(3 7.48370901e-15 0)
(3 4.538183815e-15 0)
(3 3.163490334e-15 0)
(3 5.101007736e-16 0)
(3 -2.07624131e-15 0)
(3 -3.762971662e-15 0)
(3 -7.115231568e-15 0)
(3 -9.863364417e-15 0)
(3 -1.44553348e-14 0)
(3 -1.730994764e-14 0)
(3 -2.280793182e-14 0)
(3 -2.153664984e-14 0)
(3 -1.816691843e-14 0)
(3 -1.432102627e-14 0)
(3 -1.642164054e-14 0)
(3 -1.949968988e-14 0)
(3 -2.125723886e-14 0)
(3 -2.763703391e-14 0)
(3 -2.999250746e-14 0)
(3 -3.019303998e-14 0)
(3 -2.718481285e-14 0)
(3 -2.059589598e-14 0)
(3 -1.050430923e-14 0)
(3 -4.449595469e-15 0)
(3 1.967241085e-15 0)
(3 4.090309129e-15 0)
(3 4.122651704e-15 0)
(3 8.988093356e-16 0)
(3 1.222220154e-15 0)
(3 -1.025879792e-15 0)
(3 3.745193366e-15 0)
(3 -8.501683959e-16 0)
(3 -4.726526088e-15 0)
(3 -4.465978767e-15 0)
(3 -5.540054929e-15 0)
(3 -7.3341004e-15 0)
(3 -4.365473457e-15 0)
(3 -1.327286619e-15 0)
(3 -3.534285204e-15 0)
(3 -5.754154349e-15 0)
(3 -6.16386465e-15 0)
(3 -6.717831074e-15 0)
(3 -7.54997813e-15 0)
(3 -8.810875451e-15 0)
(3 -1.238812233e-14 0)
(3 -5.485212024e-15 0)
(3 -1.479040393e-15 0)
(3 -7.170002854e-15 0)
(3 -6.991153225e-15 0)
(3 -7.942630157e-15 0)
(3 -1.313671545e-14 0)
(3 -2.1757546e-14 0)
(3 -2.220860775e-14 0)
(3 -1.780145951e-14 0)
(3 -1.228968628e-14 0)
(3 -8.50449842e-15 0)
(3 -3.984656976e-15 0)
(3 3.359319127e-15 0)
(3 1.116242273e-15 0)
(3 -1.36428324e-15 0)
(3 -1.079928494e-14 0)
(3 -1.403016611e-14 0)
(3 -1.609755682e-14 0)
(3 1.86313711e-15 0)
(3 -1.515046862e-15 0)
(3 -4.911144255e-15 0)
(3 -5.773117218e-15 0)
(3 -6.023009824e-15 0)
(3 -5.798005112e-15 0)
(3 -3.376955975e-15 0)
(3 -4.145132501e-16 0)
(3 3.525947218e-15 0)
(3 2.782212975e-15 0)
(3 4.661623042e-15 0)
(3 4.387409449e-15 0)
(3 5.372432156e-15 0)
(3 8.849012078e-15 0)
(3 7.006237197e-15 0)
(3 1.063835572e-14 0)
(3 9.205850021e-15 0)
(3 3.060208748e-15 0)
(3 2.484371023e-15 0)
(3 2.418738323e-15 0)
(3 2.333643193e-15 0)
(3 -1.763366389e-15 0)
(3 -2.170034468e-15 0)
(3 -2.747198551e-15 0)
(3 -2.452125021e-15 0)
(3 -4.68392825e-15 0)
(3 -7.515424473e-15 0)
(3 -4.356626994e-16 0)
(3 7.553258229e-15 0)
(3 -1.132306881e-15 0)
(3 -7.648352375e-15 0)
(3 -1.358633096e-14 0)
(3 -1.922623655e-14 0)
(3 -3.448596121e-15 0)
(3 -3.697002831e-15 0)
(3 -3.088000585e-15 0)
(3 -1.478004603e-15 0)
(3 7.939697213e-16 0)
(3 2.769459339e-15 0)
(3 2.887153561e-15 0)
(3 1.620297181e-15 0)
(3 6.29310196e-15 0)
(3 9.162560943e-15 0)
(3 7.630445589e-15 0)
(3 1.865932249e-15 0)
(3 3.357332423e-15 0)
(3 6.816154732e-15 0)
(3 1.087160927e-14 0)
(3 1.266581382e-14 0)
(3 1.21600592e-14 0)
(3 1.147372099e-14 0)
(3 9.901651871e-15 0)
(3 1.091614533e-14 0)
(3 1.016753837e-14 0)
(3 7.75239816e-15 0)
(3 3.257514352e-15 0)
(3 1.100278254e-15 0)
(3 -1.150824736e-15 0)
(3 -6.197415258e-15 0)
(3 -1.126192217e-14 0)
(3 -1.181171259e-14 0)
(3 -6.567552108e-15 0)
(3 -5.130710824e-15 0)
(3 -7.057310959e-15 0)
(3 -1.548331433e-14 0)
(3 -1.928315094e-14 0)
(3 -7.099343424e-15 0)
(3 -5.101203325e-15 0)
(3 -4.944589681e-15 0)
(3 -5.124400814e-15 0)
(3 -3.809289973e-15 0)
(3 -1.620821954e-15 0)
(3 8.55988914e-16 0)
(3 2.450642964e-15 0)
(3 1.196984303e-14 0)
(3 2.131477792e-14 0)
(3 2.04494096e-14 0)
(3 1.774842911e-14 0)
(3 1.670923108e-14 0)
(3 1.728963405e-14 0)
(3 1.766433812e-14 0)
(3 1.689227225e-14 0)
(3 1.680039149e-14 0)
(3 1.852787253e-14 0)
(3 1.936473993e-14 0)
(3 2.009288363e-14 0)
(3 2.010830742e-14 0)
(3 1.987901539e-14 0)
(3 1.773838223e-14 0)
(3 1.607944369e-14 0)
(3 7.442681403e-15 0)
(3 3.763408231e-15 0)
(3 1.328097616e-16 0)
(3 -6.137197075e-15 0)
(3 -7.913936435e-15 0)
(3 -8.292736072e-15 0)
(3 -5.47919207e-15 0)
(3 -1.151999931e-14 0)
(3 -1.501399949e-14 0)
(3 -6.374392193e-15 0)
(3 -5.276092299e-15 0)
(3 -4.769650886e-15 0)
(3 -4.972621108e-15 0)
(3 -5.876667344e-15 0)
(3 -4.559345485e-15 0)
(3 1.506089845e-15 0)
(3 7.880406734e-15 0)
(3 1.361430284e-14 0)
(3 2.011268274e-14 0)
(3 2.190617566e-14 0)
(3 2.877821248e-14 0)
(3 2.977603402e-14 0)
(3 2.904139213e-14 0)
(3 2.58842323e-14 0)
(3 2.288099029e-14 0)
(3 2.295037655e-14 0)
(3 2.233983364e-14 0)
(3 1.97506984e-14 0)
(3 1.539541946e-14 0)
(3 1.590782623e-14 0)
(3 2.096860735e-14 0)
(3 1.883864941e-14 0)
(3 8.851082791e-15 0)
(3 6.118271062e-15 0)
(3 6.627929025e-15 0)
(3 3.845864147e-15 0)
(3 -6.67431356e-16 0)
(3 -8.585353834e-15 0)
(3 -1.102638865e-14 0)
(3 -1.089816291e-14 0)
(3 -1.048701905e-14 0)
(3 -1.133082597e-14 0)
(3 -6.367480971e-15 0)
(3 -6.85990574e-15 0)
(3 -5.665454802e-15 0)
(3 -4.716240482e-15 0)
(3 -4.153629103e-15 0)
(3 -1.230789437e-15 0)
(3 8.375185096e-15 0)
(3 1.619886261e-14 0)
(3 1.989531996e-14 0)
(3 2.319944853e-14 0)
(3 2.639062915e-14 0)
(3 2.903150821e-14 0)
(3 2.959842548e-14 0)
(3 2.866940777e-14 0)
(3 2.636558705e-14 0)
(3 2.392042609e-14 0)
(3 2.103145959e-14 0)
(3 1.734949635e-14 0)
(3 1.178361032e-14 0)
(3 8.181074498e-15 0)
(3 8.233925437e-15 0)
(3 5.851730286e-15 0)
(3 2.708849769e-15 0)
(3 1.137012833e-15 0)
(3 2.170535509e-15 0)
(3 2.219746586e-15 0)
(3 -7.290062137e-16 0)
(3 -4.334202776e-15 0)
(3 -6.562318662e-15 0)
(3 -4.848400437e-15 0)
(3 7.654210509e-16 0)
(3 6.696484753e-15 0)
(3 1.001722363e-14 0)
(3 -5.666687519e-15 0)
(3 -7.529978374e-15 0)
(3 -7.219434958e-15 0)
(3 -6.320599321e-15 0)
(3 -2.858949271e-15 0)
(3 3.808180318e-15 0)
(3 1.215045423e-14 0)
(3 2.111678794e-14 0)
(3 2.692257368e-14 0)
(3 2.640154613e-14 0)
(3 2.726020612e-14 0)
(3 3.021488469e-14 0)
(3 3.056070243e-14 0)
(3 2.948703762e-14 0)
(3 2.717107068e-14 0)
(3 2.178251954e-14 0)
(3 1.668381087e-14 0)
(3 1.541958963e-14 0)
(3 1.658302116e-14 0)
(3 1.286103602e-14 0)
(3 5.311368681e-15 0)
(3 1.726901965e-15 0)
(3 1.22159615e-15 0)
(3 2.90301102e-15 0)
(3 2.85757826e-15 0)
(3 -3.218313711e-15 0)
(3 -4.898508947e-15 0)
(3 -1.487964914e-15 0)
(3 1.915048675e-15 0)
(3 7.490026057e-15 0)
(3 1.432925388e-14 0)
(3 1.708363866e-14 0)
(3 1.731729679e-14 0)
(3 -4.857514873e-15 0)
(3 -8.338247104e-15 0)
(3 -7.531305474e-15 0)
(3 -3.582982113e-16 0)
(3 5.653556645e-15 0)
(3 9.683293373e-15 0)
(3 1.391116739e-14 0)
(3 1.979450203e-14 0)
(3 2.53215931e-14 0)
(3 2.170266614e-14 0)
(3 2.174891834e-14 0)
(3 2.234809648e-14 0)
(3 2.00925336e-14 0)
(3 1.550120031e-14 0)
(3 9.658433332e-15 0)
(3 8.371067826e-15 0)
(3 1.002587975e-14 0)
(3 1.105180048e-14 0)
(3 1.150289758e-14 0)
(3 9.130894383e-15 0)
(3 3.120122136e-15 0)
(3 4.271573974e-15 0)
(3 4.326296056e-15 0)
(3 5.440859078e-15 0)
(3 2.541958379e-15 0)
(3 -3.378648462e-15 0)
(3 -4.700372058e-15 0)
(3 9.972187315e-15 0)
(3 1.582588441e-14 0)
(3 1.729780524e-14 0)
(3 1.621356723e-14 0)
(3 1.133331487e-14 0)
(3 9.91750254e-15 0)
(3 -5.778777643e-15 0)
(3 -1.98540335e-15 0)
(3 4.409077017e-15 0)
(3 9.106660668e-15 0)
(3 1.329706908e-14 0)
(3 1.850986064e-14 0)
(3 1.838540509e-14 0)
(3 1.96228386e-14 0)
(3 1.593117578e-14 0)
(3 1.771149557e-14 0)
(3 1.461536888e-14 0)
(3 1.321912287e-14 0)
(3 1.184261758e-14 0)
(3 5.394630522e-15 0)
(3 -3.562857652e-16 0)
(3 -2.830412145e-15 0)
(3 -2.744012867e-15 0)
(3 -1.551815305e-15 0)
(3 4.861621123e-16 0)
(3 5.893242481e-15 0)
(3 3.249054308e-15 0)
(3 4.349677877e-15 0)
(3 4.655254978e-15 0)
(3 7.723562289e-15 0)
(3 9.619785241e-15 0)
(3 6.564004609e-15 0)
(3 7.94806623e-15 0)
(3 1.01402076e-14 0)
(3 1.027650204e-14 0)
(3 9.241049154e-15 0)
(3 7.757310258e-15 0)
(3 2.430112303e-15 0)
(3 3.544955659e-15 0)
(3 -1.106209176e-14 0)
(3 1.011174229e-15 0)
(3 3.577674749e-15 0)
(3 5.885612524e-15 0)
(3 5.266348575e-15 0)
(3 5.578795932e-15 0)
(3 4.315125913e-15 0)
(3 3.041843131e-15 0)
(3 -8.664858425e-16 0)
(3 -2.32845549e-15 0)
(3 -7.085930492e-15 0)
(3 -1.712537349e-15 0)
(3 5.179878942e-15 0)
(3 3.311728755e-15 0)
(3 2.330510546e-15 0)
(3 -1.615165755e-16 0)
(3 -6.402796535e-16 0)
(3 1.513475431e-16 0)
(3 2.05891452e-15 0)
(3 5.779131801e-15 0)
(3 3.732589042e-15 0)
(3 4.019548893e-15 0)
(3 9.461278267e-15 0)
(3 7.47189659e-15 0)
(3 8.74868438e-15 0)
(3 1.30761481e-14 0)
(3 9.753568061e-15 0)
(3 7.117136771e-15 0)
(3 6.470745988e-15 0)
(3 6.441133322e-15 0)
(3 6.924031829e-15 0)
(3 4.005612873e-15 0)
(3 6.924716745e-15 0)
(3 -1.126101061e-14 0)
(3 -7.264770906e-15 0)
(3 -6.787122152e-15 0)
(3 -3.166322182e-15 0)
(3 -1.205620679e-15 0)
(3 -7.38959882e-16 0)
(3 2.286199062e-15 0)
(3 3.434045234e-16 0)
(3 -7.327297592e-15 0)
(3 -1.702979372e-14 0)
(3 -2.194400245e-14 0)
(3 -2.13927944e-14 0)
(3 -1.703827042e-14 0)
(3 -1.162624399e-14 0)
(3 -6.411344508e-16 0)
(3 1.545308168e-15 0)
(3 -2.05967704e-16 0)
(3 -3.210241763e-15 0)
(3 -5.378738028e-15 0)
(3 2.303872887e-15 0)
(3 9.914715353e-15 0)
(3 9.823026291e-15 0)
(3 1.327426704e-14 0)
(3 1.293457408e-14 0)
(3 1.21183957e-14 0)
(3 1.53042066e-14 0)
(3 1.257549244e-14 0)
(3 1.199069624e-14 0)
(3 1.369540969e-14 0)
(3 1.475820586e-14 0)
(3 1.418715053e-14 0)
(3 1.363140881e-14 0)
(3 1.482912895e-14 0)
(3 -1.012095973e-14 0)
(3 -7.295030934e-15 0)
(3 -5.744898713e-15 0)
(3 -4.808856069e-15 0)
(3 -4.517738234e-15 0)
(3 -7.102650037e-15 0)
(3 -9.619555137e-15 0)
(3 -8.836352963e-15 0)
(3 -1.493004183e-14 0)
(3 -2.275752182e-14 0)
(3 -2.560053315e-14 0)
(3 -2.93052633e-14 0)
(3 -3.31522827e-14 0)
(3 -2.772904055e-14 0)
(3 -1.528925343e-14 0)
(3 -5.638194841e-15 0)
(3 -4.605278603e-15 0)
(3 -6.746993859e-16 0)
(3 1.055489004e-16 0)
(3 4.814263301e-15 0)
(3 1.058645468e-14 0)
(3 1.430058562e-14 0)
(3 1.646370144e-14 0)
(3 1.832646896e-14 0)
(3 2.020965447e-14 0)
(3 2.211286388e-14 0)
(3 2.213107382e-14 0)
(3 2.186935357e-14 0)
(3 2.197463655e-14 0)
(3 2.115248339e-14 0)
(3 1.867994215e-14 0)
(3 1.87578242e-14 0)
(3 1.133731351e-14 0)
(3 1.152227598e-14 0)
(3 1.087959647e-14 0)
(3 9.058114622e-15 0)
(3 9.093637633e-15 0)
(3 9.536962416e-15 0)
(3 9.276332141e-15 0)
(3 8.16869696e-15 0)
(3 7.664759042e-15 0)
(3 7.10565877e-15 0)
(3 4.857868939e-15 0)
(3 1.422511298e-14 0)
(3 1.432909435e-14 0)
(3 1.479285874e-14 0)
(3 1.3743884e-14 0)
(3 1.140354574e-14 0)
(3 8.882257186e-15 0)
(3 5.531907424e-15 0)
(3 9.286963963e-16 0)
(3 -4.597937214e-15 0)
(3 -8.411096259e-15 0)
(3 -8.743813572e-15 0)
(3 -7.808848906e-15 0)
(3 -6.019102833e-15 0)
(3 -3.206747152e-16 0)
(3 4.752364839e-15 0)
(3 9.81335955e-15 0)
(3 1.233474918e-14 0)
(3 1.019598231e-14 0)
(3 9.783884322e-15 0)
(3 1.600417938e-14 0)
(3 2.018195436e-14 0)
(3 2.488869387e-14 0)
(3 2.522080062e-14 0)
(3 2.495160825e-14 0)
(3 2.472050172e-14 0)
(3 2.813437378e-14 0)
(3 3.097230833e-14 0)
(3 3.250150653e-14 0)
(3 3.231220846e-14 0)
(3 3.152015395e-14 0)
(3 3.262671598e-14 0)
(3 3.403798804e-14 0)
(3 3.539077173e-14 0)
(3 1.64055949e-14 0)
(3 1.660657338e-14 0)
(3 1.465474559e-14 0)
(3 1.157558975e-14 0)
(3 8.013045738e-15 0)
(3 3.495259052e-15 0)
(3 -9.348388595e-16 0)
(3 -6.506603981e-15 0)
(3 -1.204159161e-14 0)
(3 -1.261996707e-14 0)
(3 -1.168820534e-14 0)
(3 -1.095462537e-14 0)
(3 -1.050960196e-14 0)
(3 -8.452998794e-15 0)
(3 -4.615286196e-15 0)
(3 -3.116420014e-15 0)
(3 -3.087818162e-15 0)
(3 7.37646858e-16 0)
(3 3.458436283e-15 0)
(3 8.485216405e-15 0)
(3 1.098211133e-14 0)
(3 1.53654666e-14 0)
(3 1.718164561e-14 0)
(3 1.681984339e-14 0)
(3 1.448268797e-14 0)
(3 1.752788617e-14 0)
(3 2.179560132e-14 0)
(3 2.566473985e-14 0)
(3 2.590067345e-14 0)
(3 2.400024839e-14 0)
(3 2.466109422e-14 0)
(3 2.644485934e-14 0)
(3 2.77566424e-14 0)
(3 8.248765915e-15 0)
(3 7.33373243e-15 0)
(3 4.885681058e-15 0)
(3 3.511873073e-15 0)
(3 1.196993498e-15 0)
(3 3.045637779e-16 0)
(3 -1.360992059e-15 0)
(3 -4.741124213e-15 0)
(3 -7.139883972e-15 0)
(3 -8.35981005e-15 0)
(3 -1.016080602e-14 0)
(3 -1.097072838e-14 0)
(3 -1.117841805e-14 0)
(3 -1.084457883e-14 0)
(3 -1.099374403e-14 0)
(3 -1.304076831e-14 0)
(3 -1.169568825e-14 0)
(3 -9.383470211e-15 0)
(3 -6.282011421e-15 0)
(3 -3.378705946e-15 0)
(3 -1.361530332e-16 0)
(3 7.527519884e-16 0)
(3 1.427955122e-15 0)
(3 3.732614615e-15 0)
(3 8.002077979e-15 0)
(3 9.886628568e-15 0)
(3 1.201128893e-14 0)
(3 1.60120158e-14 0)
(3 1.498519637e-14 0)
(3 1.734848283e-14 0)
(3 1.924579277e-14 0)
(3 1.987416395e-14 0)
(3 1.982058314e-14 0)
(3 2.947742932e-15 0)
(3 2.976018174e-15 0)
(3 2.732598702e-15 0)
(3 1.398175205e-15 0)
(3 3.31877923e-16 0)
(3 -7.095528812e-16 0)
(3 -2.014298022e-15 0)
(3 -3.090842755e-15 0)
(3 -4.483171268e-15 0)
(3 -5.510557601e-15 0)
(3 -6.775844774e-15 0)
(3 -8.316096351e-15 0)
(3 -9.221421373e-15 0)
(3 -9.305404679e-15 0)
(3 -1.022043462e-14 0)
(3 -1.096472193e-14 0)
(3 -1.094758157e-14 0)
(3 -9.588346944e-15 0)
(3 -8.876910647e-15 0)
(3 -7.725012487e-15 0)
(3 -6.696800334e-15 0)
(3 -6.471624084e-15 0)
(3 -5.014142507e-15 0)
(3 -3.633162952e-15 0)
(3 -1.184846971e-15 0)
(3 -3.58524781e-17 0)
(3 8.020188663e-16 0)
(3 2.498205391e-15 0)
(3 4.724062843e-15 0)
(3 9.609930744e-15 0)
(3 1.244741598e-14 0)
(3 1.20679874e-14 0)
(3 1.062008169e-14 0)
(3 -6.348085383e-15 0)
(3 -6.910624416e-15 0)
(3 -7.713283734e-15 0)
(3 -8.820804065e-15 0)
(3 -8.938998311e-15 0)
(3 -9.304259771e-15 0)
(3 -8.441369801e-15 0)
(3 -5.388572063e-15 0)
(3 -1.037490442e-15 0)
(3 1.634063425e-15 0)
(3 1.542296273e-15 0)
(3 1.435412172e-15 0)
(3 -1.091905831e-15 0)
(3 -4.07202293e-15 0)
(3 -6.689539997e-15 0)
(3 -6.731181265e-15 0)
(3 -6.558398771e-15 0)
(3 -6.558176481e-15 0)
(3 -6.952892776e-15 0)
(3 -7.083400406e-15 0)
(3 -6.575975628e-15 0)
(3 -5.712422033e-15 0)
(3 -6.024883479e-15 0)
(3 -6.398974859e-15 0)
(3 -7.863597689e-15 0)
(3 -7.379123776e-15 0)
(3 -7.119874001e-15 0)
(3 -5.66593943e-15 0)
(3 -4.265354295e-15 0)
(3 -2.901957954e-15 0)
(3 -1.185750595e-15 0)
(3 -1.170903677e-15 0)
(3 -1.354326359e-15 0)
(3 -2.057093783e-14 0)
(3 -2.12312448e-14 0)
(3 -2.077770279e-14 0)
(3 -1.892616789e-14 0)
(3 -1.763399569e-14 0)
(3 -1.599812658e-14 0)
(3 -1.328387349e-14 0)
(3 -6.767068454e-15 0)
(3 -2.248940271e-15 0)
(3 5.159544856e-18 0)
(3 6.060495198e-16 0)
(3 6.335796014e-16 0)