/*--------------------------------*- C++ -*----------------------------------*\
  =========                 |
  \\      /  F ield         | OpenFOAM: The Open Source CFD Toolbox
   \\    /   O peration     | Website:  https://openfoam.org
    \\  /    A nd           | Version:  7
     \\/     M anipulation  |
\*---------------------------------------------------------------------------*/
FoamFile
{
    version     2.0;
    format      ascii;
    class       volScalarField;
    location    "3.9";
    object      T;
}
// * * * * * * * * * * * * * * * * * * * * * * * * * * * * * * * * * * * * * //

dimensions      [0 0 0 1 0 0 0];

internalField   nonuniform List<scalar> 
2222
(
1.412300001
1.410315914
1.408965259
1.408909737
1.40894907
1.4070089
1.404505427
1.399915867
1.392798059
1.383583875
1.379238023
1.37889789
1.37986932
1.385200305
1.415539436
1.414340314
1.413725493
1.415302042
1.418989983
1.425325978
1.429243097
1.431592371
1.433666806
1.437419792
1.441791755
1.441761246
1.438442632
1.433016945
1.428405952
1.426470234
1.424322308
1.423220627
1.422089576
1.420474634
1.41966544
1.419438968
1.419397916
1.41920768
1.417103337
1.415350928
1.415109886
1.415890177
1.416616032
1.415951549
1.413994618
1.410326321
1.404676374
1.396999229
1.39273578
1.391960196
1.392569268
1.395923795
1.395516671
1.395014153
1.395170581
1.396493646
1.40269934
1.410839915
1.416983942
1.419582325
1.422889758
1.427119973
1.432757759
1.436041849
1.432569839
1.429494547
1.428150644
1.427590318
1.425980687
1.424750135
1.423574765
1.421271255
1.419858809
1.420012017
1.420519743
1.420425192
1.418912484
1.416636123
1.416886172
1.418177475
1.419415334
1.419844869
1.418766687
1.415819007
1.41138605
1.405876791
1.401856105
1.401094176
1.401141041
1.402343772
1.406021479
1.368968916
1.365636959
1.367035202
1.371414673
1.380046726
1.389635675
1.396625571
1.398143683
1.400756319
1.404991009
1.411141063
1.419006993
1.42310391
1.423456292
1.424805328
1.425287159
1.424194282
1.422893817
1.422097879
1.420271212
1.417992155
1.417856981
1.418449313
1.418661995
1.418062084
1.416629844
1.416799107
1.418137024
1.419499374
1.420353799
1.419989533
1.417864098
1.41403697
1.41027987
1.406815614
1.405764467
1.405469521
1.405674164
1.406713133
1.338678567
1.334775487
1.335934124
1.341658898
1.352095307
1.363911023
1.371191539
1.373103439
1.373910981
1.376205355
1.381144419
1.389992204
1.401819713
1.412404715
1.418557358
1.419156239
1.418618061
1.417328365
1.416559906
1.415925336
1.414993774
1.414150414
1.414198545
1.414400211
1.414843389
1.415516481
1.416009777
1.416802749
1.417732516
1.41849281
1.41873803
1.41770852
1.414289574
1.411363379
1.408429748
1.407174975
1.406561478
1.406367274
1.407050903
1.311444611
1.307811992
1.308450443
1.313167983
1.323201079
1.335700475
1.342281987
1.344506975
1.344535406
1.345141965
1.348648337
1.35796793
1.373634119
1.391446604
1.403002787
1.406966063
1.407845955
1.407430052
1.406276163
1.405804779
1.406253014
1.407161435
1.407953139
1.408544562
1.409622711
1.411649582
1.413257419
1.413636788
1.414006614
1.414760932
1.415530124
1.415759113
1.413678128
1.411090207
1.408691718
1.407315347
1.406497633
1.406097133
1.406468478
1.291971153
1.289282931
1.28817959
1.291086696
1.299665862
1.3103306
1.315535352
1.31761558
1.317048527
1.316081921
1.317854814
1.32536149
1.342914264
1.365368926
1.379716739
1.385255363
1.38751135
1.387976105
1.387356061
1.387138455
1.387950113
1.38974301
1.39182037
1.394116687
1.39715429
1.400401367
1.403324967
1.405284616
1.407358582
1.409236941
1.410929656
1.411840983
1.412019818
1.409730207
1.408226737
1.406958334
1.405545676
1.404934116
1.403771871
1.278987898
1.276004728
1.276923185
1.282937108
1.290123037
1.294358774
1.296086897
1.294794582
1.293086357
1.29335168
1.298059509
1.31373846
1.336224595
1.352200424
1.35913714
1.361903384
1.362578864
1.362638523
1.363264235
1.364851415
1.366771197
1.368714412
1.371292647
1.376004064
1.381521558
1.386518645
1.390323389
1.393232065
1.396416679
1.400097596
1.403894787
1.406943809
1.407022608
1.406367145
1.405170886
1.403568412
1.401681715
1.399024932
1.267735521
1.264018228
1.261565344
1.264987938
1.271460967
1.27675096
1.278751492
1.278327471
1.276542536
1.275045214
1.277890623
1.290394745
1.309266225
1.323400692
1.330523346
1.333755355
1.335288648
1.335824939
1.33674275
1.338854484
1.341270676
1.343482842
1.346254417
1.350838053
1.35664628
1.362919992
1.368655582
1.37340308
1.377529333
1.382330821
1.388675424
1.394574634
1.398369887
1.399309649
1.398296818
1.396634314
1.394038395
1.390061507
1.254705899
1.25144884
1.247908082
1.249286528
1.255323677
1.261257471
1.263485928
1.263452756
1.261750189
1.260510819
1.262686043
1.272431976
1.287534558
1.298415328
1.304038421
1.306933179
1.30865846
1.309675875
1.310581088
1.312350797
1.314557507
1.316747816
1.319801352
1.324331278
1.329849811
1.335838603
1.341939284
1.347984396
1.353995387
1.36012442
1.367597516
1.376264421
1.383088341
1.386422113
1.386062944
1.384528931
1.380895556
1.375446934
1.243907206
1.239291862
1.236444729
1.237456634
1.243195888
1.249290483
1.250834973
1.24981178
1.247590253
1.247387281
1.249290755
1.256777521
1.26842908
1.277193177
1.282312091
1.285135577
1.286612252
1.287692311
1.288434618
1.289298462
1.290661708
1.292524709
1.295381166
1.299076821
1.303402937
1.30858715
1.314568344
1.321150934
1.327903647
1.334842375
1.343139208
1.353052041
1.362699391
1.368417875
1.368837052
1.367513874
1.363276089
1.356550639
1.231561998
1.228755105
1.227001435
1.227955638
1.233802459
1.240171678
1.240515053
1.238663741
1.236204994
1.236328828
1.238365372
1.24408703
1.251784313
1.25907204
1.264258895
1.267068589
1.268575555
1.269447676
1.269832889
1.269926088
1.270691336
1.27226808
1.274707129
1.277424672
1.280364564
1.284177592
1.289315661
1.295725706
1.30234946
1.309045266
1.317038017
1.327108199
1.337647011
1.345161149
1.346499592
1.345485197
1.341642304
1.334809116
1.218681494
1.21967463
1.218958726
1.220289261
1.225937918
1.231351304
1.231042528
1.227891687
1.226394192
1.227775773
1.22989036
1.234160059
1.239107548
1.245584454
1.250535221
1.253295406
1.254278729
1.254559112
1.254812387
1.254676839
1.254883727
1.256066209
1.258219893
1.260375145
1.262401611
1.264667142
1.268719044
1.274247499
1.279940427
1.285813863
1.29262947
1.301619382
1.311759783
1.319992392
1.32203262
1.321354969
1.318169002
1.311947991
1.20697604
1.209837671
1.212147177
1.216215675
1.220967583
1.220735518
1.218142354
1.216512171
1.217249914
1.22168609
1.225030218
1.229585358
1.235873566
1.240950731
1.243359138
1.243346405
1.243005794
1.242762547
1.242077591
1.24156128
1.242166273
1.244286222
1.246306315
1.247852357
1.249360751
1.252246164
1.256403997
1.261321411
1.266294743
1.271882517
1.279245439
1.28791779
1.295755445
1.298227921
1.297809062
1.295281898
1.290124935
1.195865949
1.198642667
1.202535654
1.206080606
1.210453485
1.211024248
1.209043828
1.207492651
1.208202867
1.21191886
1.216576262
1.221674379
1.227957936
1.233191759
1.234672874
1.2342126
1.233282486
1.232616575
1.231879334
1.231004355
1.231484855
1.233133035
1.234850892
1.235912512
1.237355658
1.239561391
1.242564541
1.246285884
1.25013781
1.254518724
1.260298542
1.267160131
1.274068803
1.276416257
1.276187258
1.274317403
1.270570231
1.264929166
1.187961548
1.189890631
1.193869544
1.196832385
1.199789215
1.20174539
1.201001145
1.200255486
1.200668443
1.203252071
1.208336081
1.214624637
1.220805096
1.225639156
1.226864306
1.226363682
1.225380515
1.224381823
1.224017117
1.223394207
1.223268621
1.223935904
1.225555967
1.227233524
1.228797601
1.230692663
1.232540086
1.234804582
1.237592332
1.240981095
1.245613551
1.25082465
1.256123157
1.257885453
1.257724763
1.256389044
1.253933095
1.249890266
1.184215028
1.184679882
1.186722209
1.188628064
1.190167296
1.193029876
1.194614175
1.195429415
1.195609755
1.197077954
1.201686435
1.208100847
1.214147556
1.218637019
1.220131156
1.219766186
1.218612985
1.217767444
1.21792893
1.217776519
1.217563044
1.217675686
1.218315364
1.220458731
1.222712176
1.223970267
1.225061818
1.226330286
1.228248817
1.231158179
1.235085744
1.238518664
1.241737333
1.242918724
1.242583818
1.241528253
1.240198199
1.23754375
1.183719798
1.183791534
1.184530378
1.185307437
1.186098626
1.188500877
1.192023901
1.193843189
1.193985585
1.194643567
1.19796019
1.203403195
1.208723546
1.2122357
1.213685241
1.213707794
1.212950466
1.21277646
1.213279245
1.213886527
1.213759707
1.213545444
1.21372983
1.215267225
1.217665519
1.2192534
1.219754997
1.220223777
1.221314836
1.223908958
1.226857032
1.229005838
1.23076321
1.231386959
1.230992916
1.230593211
1.23009088
1.228193585
1.186036856
1.185401505
1.185334035
1.186074777
1.186482582
1.188034085
1.192160439
1.194655714
1.194986341
1.195113373
1.197274942
1.201456858
1.205356751
1.207098079
1.207814836
1.208603823
1.208978051
1.209562358
1.21029433
1.211246349
1.2114033
1.21112433
1.211144119
1.211899455
1.213619311
1.215146246
1.215576764
1.215759066
1.21631816
1.218348536
1.220941255
1.222357018
1.223176171
1.223270558
1.223000232
1.222242926
1.221662283
1.219900288
1.188269406
1.187641568
1.187188955
1.188102255
1.188974628
1.190287879
1.193042198
1.195692851
1.197265547
1.197204204
1.198661038
1.201818555
1.204085477
1.204399665
1.204678462
1.206036368
1.207455123
1.208267348
1.208831553
1.209725472
1.21028567
1.210122625
1.209890681
1.210034772
1.210727394
1.211904005
1.212551463
1.212736766
1.213123322
1.214533195
1.216181044
1.217430485
1.218087246
1.217723878
1.217328241
1.217024555
1.216186234
1.214422287
1.189100262
1.188887257
1.18990512
1.192089221
1.193978832
1.194694433
1.196092948
1.198369114
1.199589887
1.201019424
1.203098997
1.204303199
1.204022076
1.203838835
1.205398332
1.207378118
1.208095884
1.208312979
1.208801044
1.209734506
1.209919491
1.209683802
1.209300697
1.209166137
1.209516348
1.210490384
1.211130756
1.211472617
1.212224531
1.213170801
1.214101235
1.214710537
1.214470374
1.214130328
1.213716102
1.212892524
1.211258653
1.189737164
1.189758093
1.190965715
1.19487781
1.197294572
1.196671195
1.196316521
1.198010614
1.201235044
1.202725028
1.204293944
1.205225992
1.204947581
1.204818761
1.206104835
1.207910998
1.208489666
1.208408804
1.208428981
1.209239189
1.210027577
1.209905133
1.209350599
1.208837183
1.208838244
1.209857554
1.210780556
1.211093379
1.211301709
1.211628302
1.212259824
1.212684022
1.212692536
1.212457444
1.211983977
1.211349743
1.2099918
1.190638752
1.191845778
1.193311738
1.197581937
1.198978805
1.196627108
1.195880727
1.197392396
1.2016922
1.20394879
1.204817926
1.20532236
1.205622339
1.206535856
1.207551166
1.208768549
1.209146903
1.208976232
1.208874831
1.209118051
1.210093539
1.21052533
1.210152559
1.209515371
1.209430274
1.2101708
1.211090919
1.211371033
1.211399959
1.211422559
1.211642154
1.211638541
1.211824556
1.21169881
1.211214732
1.210753183
1.209989757
1.195019602
1.196748523
1.197887494
1.200541319
1.201950459
1.201062786
1.197992081
1.1992937
1.20280299
1.206141422
1.206665472
1.206758056
1.207383893
1.207803015
1.208677746
1.209280606
1.20954102
1.209481111
1.209388129
1.2094863
1.210170765
1.211272035
1.211387385
1.21102882
1.210707269
1.211074993
1.211789227
1.21209563
1.211948628
1.211885076
1.211806725
1.211502208
1.211523767
1.211142403
1.210665594
1.210469031
1.210643272
1.199946299
1.201604564
1.202642599
1.204304866
1.206494421
1.20679131
1.204217328
1.203258042
1.205667207
1.208353183
1.208913461
1.209005637
1.20949722
1.209677884
1.209233925
1.209435606
1.209963633
1.210579766
1.210859709
1.210872202
1.210946528
1.211719188
1.212735597
1.212753273
1.212447577
1.212355166
1.212504192
1.212781189
1.212839249
1.212953361
1.212711088
1.212106642
1.21157205
1.210630799
1.210043965
1.210389831
1.211623159
1.205209882
1.206856373
1.208025241
1.207435106
1.208843749
1.211419213
1.211855939
1.209151852
1.209083008
1.210615946
1.210881761
1.210763402
1.211187887
1.21205133
1.211400551
1.211014192
1.212062088
1.213506588
1.21401532
1.213380577
1.212953847
1.212993288
1.21371592
1.214561362
1.214295313
1.213624254
1.21320018
1.213288363
1.213869763
1.214318533
1.214202347
1.213258322
1.211796702
1.21040492
1.209793017
1.210397895
1.211921977
1.211411194
1.212251373
1.210410933
1.210714725
1.21430366
1.216899095
1.216128789
1.212951733
1.212910093
1.212527494
1.21228623
1.212782814
1.213977866
1.214420409
1.213872627
1.214442639
1.215873042
1.217015164
1.216802763
1.215416584
1.214910422
1.215271009
1.215836493
1.21571424
1.214830802
1.213967078
1.213926819
1.214784207
1.21571663
1.21577301
1.214449604
1.212273984
1.210754122
1.210309945
1.210812819
1.211794426
1.212827929
1.212937146
1.213403197
1.212297953
1.211724624
1.213971013
1.218329983
1.2195242
1.216139295
1.213497419
1.21308857
1.212946475
1.213632661
1.215136868
1.216420254
1.216341123
1.216481577
1.21783138
1.219229563
1.219870915
1.218678179
1.216858903
1.216909047
1.217192587
1.217093804
1.216272466
1.215384491
1.215276516
1.215905743
1.216809794
1.216987352
1.215568742
1.213253398
1.212035379
1.212100091
1.212474405
1.213118417
1.213740481
1.212181176
1.212865427
1.213712653
1.212368368
1.213778869
1.217233409
1.219092793
1.217340117
1.212725632
1.212531134
1.21323011
1.214129126
1.215695178
1.217201409
1.218128279
1.218557607
1.219418291
1.220443811
1.221335301
1.22119098
1.2194258
1.218123609
1.218194454
1.21823877
1.217864777
1.216974068
1.216744291
1.217380357
1.217971089
1.217866702
1.21649738
1.214629377
1.214102086
1.21449253
1.214750551
1.215120089
1.214997743
1.210580257
1.210679377
1.213816893
1.214671242
1.213411894
1.215441658
1.217418826
1.216538749
1.213223325
1.212521845
1.213325415
1.214567643
1.215800381
1.217443117
1.218966201
1.219771418
1.219887136
1.220384632
1.221472365
1.222185233
1.221687924
1.219758707
1.218780865
1.219088858
1.219369705
1.219181388
1.218614051
1.218657168
1.218851836
1.218282754
1.217320275
1.216599295
1.216951764
1.217985288
1.218002195
1.216733189
1.216266347
1.208642743
1.208362743
1.212322884
1.217211769
1.21496867
1.213048933
1.215029009
1.214727881
1.213122394
1.212585324
1.213610493
1.215122449
1.215723214
1.217132617
1.218935356
1.219835469
1.219664296
1.21968774
1.220618337
1.221853173
1.222411865
1.221487155
1.219835157
1.219806742
1.220657322
1.221052387
1.220769993
1.219967647
1.219400571
1.218627739
1.218006646
1.218235264
1.219410384
1.220702704
1.220995592
1.220018643
1.218986741
1.207612271
1.206830354
1.210774712
1.217424435
1.217630012
1.212060649
1.212241546
1.213029903
1.212584458
1.212620785
1.21371643
1.215505349
1.215818408
1.216652294
1.218404226
1.219577699
1.219462186
1.218879228
1.219269808
1.220877836
1.221935346
1.222069847
1.221065379
1.220649093
1.221182814
1.221852345
1.221956257
1.221183461
1.220090061
1.218988903
1.218495923
1.21933746
1.220435471
1.221672751
1.222578942
1.222322244
1.221958742
1.207317826
1.206653008
1.209630518
1.21579485
1.217569423
1.213559346
1.210027243
1.21227971
1.212798762
1.213147287
1.214039302
1.215226082
1.215895807
1.216290099
1.217532447
1.218771154
1.219172209
1.218593389
1.2184274
1.219665551
1.221193658
1.221647785
1.221417763
1.220937173
1.221271185
1.221762792
1.222047267
1.221760656
1.220926406
1.219787709
1.219188471
1.219882211
1.220562238
1.221496478
1.222406559
1.222903483
1.223402654
1.206117173
1.206971171
1.209367003
1.214506811
1.213892972
1.209720519
1.211427499
1.212776532
1.212831196
1.213122647
1.213872378
1.214999149
1.215388743
1.215870089
1.216847575
1.217779688
1.21840858
1.218270919
1.218587177
1.220058022
1.221155291
1.221322835
1.22092067
1.220760573
1.220959369
1.221322502
1.221431853
1.221195766
1.220609542
1.219816703
1.219840572
1.220095182
1.220621935
1.221548738
1.222764561
1.223754
1.204343948
1.201471634
1.202299024
1.207372151
1.210408639
1.208682882
1.209380158
1.210974546
1.210769497
1.210001748
1.210655716
1.212397313
1.213501045
1.213678626
1.214632092
1.216334431
1.217922102
1.218270127
1.217877348
1.218511377
1.219886251
1.220547013
1.220377922
1.219643388
1.219382895
1.219808019
1.220528237
1.220680571
1.220715088
1.219724343
1.219203659
1.219122094
1.219444662
1.220700133
1.22225436
1.223154381
1.200494849
1.196726184
1.194759568
1.198309411
1.205224023
1.205819658
1.205939979
1.207482904
1.207715096
1.206628284
1.207066014
1.208795856
1.210735385
1.211255925
1.212218178
1.214337811
1.216785245
1.217584922
1.216814646
1.216299137
1.217405057
1.218781452
1.21919988
1.218531658
1.217739973
1.218047878
1.219167824
1.21995379
1.220251757
1.219161871
1.218267703
1.218071455
1.21836394
1.219645426
1.221242946
1.222038366
1.195173761
1.195773188
1.189269346
1.191258149
1.198506071
1.201815415
1.201636774
1.20303535
1.203980135
1.203681785
1.203719058
1.205053201
1.207768796
1.208829771
1.209201764
1.210869568
1.213348567
1.215088643
1.215064604
1.21421295
1.21469238
1.21645867
1.217606441
1.217501478
1.216576123
1.216429148
1.217526216
1.218638575
1.218775779
1.217949101
1.217433069
1.217606463
1.218384542
1.21940761
1.22031287
1.22067525
1.189990505
1.195269296
1.18967439
1.185649356
1.192577309
1.197705708
1.197455384
1.198126213
1.199538621
1.200068281
1.200395917
1.201746718
1.204747579
1.206147135
1.206152916
1.206462019
1.208439829
1.210767353
1.212145625
1.212270243
1.212382277
1.213800554
1.215406822
1.215899949
1.215470618
1.215092559
1.215682283
1.216525685
1.216434429
1.216048294
1.216429519
1.217623674
1.219094084
1.219792471
1.219336243
1.218651777
1.18405545
1.191991105
1.192667541
1.184981405
1.187013118
1.193537169
1.193520333
1.193330043
1.194760355
1.19623897
1.197346572
1.199292275
1.201606454
1.203144545
1.203216441
1.20263928
1.203434326
1.205754573
1.208043534
1.209454021
1.210128492
1.211101686
1.212572611
1.213521394
1.213788322
1.213731238
1.213817552
1.213930559
1.2134703
1.213497487
1.214249909
1.216112645
1.218577697
1.219369421
1.218510532
1.217253401
1.187470125
1.192794488
1.188203355
1.183208713
1.188747187
1.189974005
1.188819564
1.190204763
1.192655383
1.195215594
1.196924532
1.197927386
1.199183282
1.199734325
1.199230976
1.199075841
1.20090613
1.203937225
1.206417237
1.207724363
1.208323667
1.209321607
1.210433306
1.211279216
1.211650835
1.21152707
1.210912506
1.209888006
1.209975764
1.210984944
1.213297348
1.21627879
1.21715494
1.216808469
1.216464339
1.178174868
1.1888355
1.188498678
1.181547123
1.183384079
1.186021727
1.18469044
1.185788592
1.189211617
1.192326436
1.193125854
1.193265846
1.194056725
1.195331023
1.195794089
1.195743267
1.197157327
1.200530193
1.203634806
1.204997954
1.205233447
1.205555562
1.206507421
1.207649233
1.208374468
1.208248563
1.207407742
1.205995093
1.205903928
1.206966624
1.209461498
1.212127556
1.213078419
1.21329847
1.213694053
1.214431397
1.16917609
1.178099729
1.18565301
1.181531179
1.178595296
1.181572165
1.181079211
1.181574577
1.1842866
1.18695905
1.18801085
1.187913559
1.188476349
1.190539013
1.192476608
1.193310761
1.194688556
1.197609517
1.200523855
1.201648295
1.201418731
1.201164239
1.201678957
1.202877365
1.203944049
1.203886386
1.203133922
1.201749467
1.201548916
1.202580254
1.204714371
1.206713625
1.207669807
1.208517548
1.209850354
1.211720523
1.162178463
1.16483773
1.178474062
1.178141503
1.174017745
1.176639554
1.177728552
1.177914308
1.178891453
1.18089345
1.182271885
1.182542909
1.183218307
1.185904666
1.189124488
1.191411994
1.192303434
1.19332073
1.195217306
1.196429867
1.196595196
1.196363112
1.196443746
1.197268018
1.198471676
1.198620411
1.198221617
1.197294695
1.197318276
1.198165224
1.199669699
1.200883449
1.201917914
1.203477946
1.205893819
1.208434186
1.158189399
1.156070864
1.164830297
1.17272666
1.169822167
1.171506709
1.174515296
1.174754453
1.174706911
1.175489887
1.176639196
1.177701192
1.179024648
1.181768081
1.185858793
1.188604751
1.18900331
1.188420593
1.188793577
1.190231842
1.191406824
1.191760454
1.19163318
1.191799987
1.192644899
1.193145224
1.19309004
1.192729811
1.193153466
1.193969349
1.195207588
1.195793281
1.196785768
1.19891201
1.201875097
1.204013784
1.162217362
1.150175274
1.155876564
1.167213777
1.167095547
1.167512939
1.171363078
1.172001628
1.171368676
1.170968679
1.171860447
1.173895426
1.176039266
1.17884741
1.182202963
1.184305778
1.184457191
1.183402323
1.18293858
1.184189761
1.18620178
1.187504405
1.18751209
1.187267373
1.187464429
1.188082927
1.188302484
1.188292564
1.188804471
1.189704312
1.191055169
1.191598713
1.192554161
1.194778689
1.197149341
1.1986036
1.16426225
1.152562152
1.150427875
1.162825656
1.165820876
1.164855484
1.168601995
1.169407532
1.168431994
1.16724519
1.168359298
1.171377451
1.174182924
1.175677661
1.176850453
1.177983049
1.178578206
1.178207667
1.177727848
1.178660726
1.181227909
1.183347108
1.183698763
1.183352003
1.183244235
1.183718226
1.18381989
1.183808325
1.184059538
1.185031785
1.186509894
1.187487237
1.188930534
1.190717866
1.19197624
1.192898144
1.161133923
1.147693074
1.156287136
1.1640954
1.161976837
1.164334411
1.165689575
1.165008837
1.164298666
1.16551187
1.168842157
1.171407106
1.171433422
1.170409052
1.170675038
1.171964836
1.17272686
1.172997509
1.174120193
1.176868911
1.179344012
1.180180544
1.180140101
1.180039474
1.180073019
1.179551865
1.178963416
1.178852518
1.179855595
1.181440636
1.18308106
1.18494232
1.186153149
1.186868265
1.18729261
1.161761529
1.149401125
1.150915428
1.160138856
1.158827615
1.158451892
1.16036009
1.1604718
1.161007865
1.161987224
1.164358838
1.16663777
1.166472388
1.164508273
1.164091744
1.165498013
1.167334675
1.168953247
1.170814256
1.173298111
1.175214271
1.176355206
1.176775665
1.176794393
1.17635027
1.175132666
1.173632334
1.173429497
1.174413674
1.176225217
1.178362252
1.179948853
1.181015368
1.181640294
1.181928968
1.157589481
1.152979841
1.145010894
1.153938542
1.155876642
1.152647437
1.154674749
1.155487909
1.156935174
1.157648019
1.158656491
1.160431353
1.160923269
1.159832166
1.158943082
1.160202074
1.162965143
1.165768644
1.167812764
1.169065275
1.170109401
1.171177828
1.172086165
1.172441492
1.171935532
1.170435312
1.168215836
1.168080669
1.169034755
1.171054347
1.173131584
1.174290721
1.175438691
1.176331677
1.176738631
1.147963177
1.151948705
1.139594632
1.146507889
1.152150257
1.147836262
1.149628884
1.15107668
1.152673027
1.153297953
1.153181034
1.154134537
1.155411562
1.155678708
1.155419968
1.156614617
1.160163846
1.16319004
1.163794213
1.163505489
1.163660076
1.164653557
1.16616809
1.167174635
1.166862218
1.165484868
1.163254779
1.163176593
1.164129513
1.165964178
1.167501615
1.168456569
1.169734011
1.171119695
1.171770398
1.124836187
1.146536067
1.137677807
1.140287205
1.147373889
1.145018953
1.145538949
1.147855506
1.14866451
1.149279157
1.148572189
1.148917436
1.150555285
1.152323484
1.153477399
1.154829718
1.157000079
1.158044801
1.158589406
1.157970856
1.157747377
1.158470043
1.160150158
1.161711958
1.161691495
1.160684841
1.159152621
1.159312687
1.160227151
1.161240358
1.161998117
1.162857013
1.164322627
1.166224507
1.167087503
1.101158492
1.143604345
1.140530074
1.134692428
1.142976215
1.144053273
1.143126961
1.145526756
1.145472983
1.145642298
1.145153928
1.145254843
1.147198116
1.150330132
1.15246545
1.15252363
1.151895376
1.152078511
1.152998628
1.153211633
1.153147333
1.153663692
1.155209029
1.156925477
1.157151607
1.156466999
1.156013338
1.156649177
1.157576151
1.157609757
1.157432698
1.157985127
1.159486746
1.161610442
1.162602556
1.078971541
1.134916587
1.142238902
1.130823268
1.139307862
1.143570015
1.141282171
1.143417243
1.142829273
1.142643232
1.142913801
1.1430194
1.14542914
1.149104047
1.150444704
1.149349333
1.146955264
1.146695622
1.147627967
1.148717191
1.149362388
1.150546965
1.152228652
1.153706115
1.153763942
1.153197478
1.153509505
1.154447609
1.15526538
1.154960317
1.154224057
1.154279513
1.155422365
1.157247573
1.158341662
1.111682016
1.141491073
1.13075395
1.132366638
1.141462525
1.138422424
1.139618584
1.139353886
1.139271146
1.140724166
1.141099199
1.14243757
1.144739639
1.145793647
1.145295847
1.143156278
1.142257761
1.142956159
1.144710691
1.146793256
1.149200061
1.150697748
1.151469242
1.151267034
1.150470488
1.150855691
1.151425408
1.152178351
1.152090089
1.151583803
1.151501578
1.152263712
1.153455316
1.154417029
1.080128124
1.140566416
1.135299438
1.127072202
1.137644259
1.1351764
1.135358786
1.135885693
1.135247273
1.137250045
1.138350359
1.138179619
1.13926709
1.140453879
1.140552529
1.139522566
1.13880775
1.139541161
1.142189048
1.146033294
1.148153445
1.148409516
1.148219159
1.147544916
1.146558842
1.146804617
1.147118474
1.148280647
1.14871549
1.148615057
1.148895017
1.149515784
1.150252311
1.150928339
1.151212354
1.039559833
1.125802253
1.135543692
1.123203298
1.130989681
1.132859173
1.130865038
1.132506164
1.13163322
1.133220865
1.135219403
1.134916731
1.134249211
1.134886843
1.13548344
1.135848381
1.136080117
1.137741971
1.141859564
1.144679018
1.145317287
1.145181503
1.144418731
1.143366884
1.142036243
1.14181647
1.14233106
1.144198243
1.145088373
1.145355166
1.146010979
1.146613281
1.147210237
1.14800381
1.148560496
0.8686673628
1.076155031
1.132090151
1.124220053
1.122806903
1.130270653
1.126930437
1.129106025
1.128949005
1.129622324
1.132052178
1.13227361
1.131084967
1.130684515
1.1317584
1.133101507
1.134742387
1.137609786
1.139760373
1.1402856
1.140748096
1.141042093
1.140635883
1.139623343
1.137949029
1.137490773
1.138204101
1.140550252
1.141593381
1.142070469
1.142810041
1.143386118
1.144108779
1.145290245
1.146092251
0.6586570064
1.015882842
1.124621646
1.125276416
1.116540877
1.126960233
1.123719695
1.12576853
1.127206182
1.127035275
1.128984339
1.129932041
1.12905651
1.128562579
1.129697571
1.132384053
1.135299112
1.135827747
1.135265451
1.135612008
1.135985875
1.13629365
1.136942263
1.136523803
1.134845468
1.134620864
1.135499816
1.137720198
1.13846074
1.138767759
1.139201534
1.13994111
1.141002089
1.142527357
1.143260657
0.6206754425
0.8666791377
1.083461975
1.123054252
1.111849657
1.12334014
1.122530334
1.123159129
1.126218186
1.125284056
1.126473526
1.127828403
1.128008111
1.128075317
1.129578015
1.132381034
1.133783123
1.132829503
1.131110195
1.130758503
1.131302171
1.132598405
1.134158837
1.134690382
1.13336286
1.133120965
1.13398453
1.135341618
1.135303743
1.135190175
1.135398218
1.136526252
1.137919591
1.139536298
1.140080737
0.6229638884
0.6655886523
1.005395987
1.117571081
1.112100428
1.119901626
1.123608345
1.120961473
1.124615346
1.123666949
1.124155552
1.12602403
1.127774158
1.12845917
1.128988255
1.129857944
1.130239168
1.129839772
1.128557577
1.127532404
1.128098486
1.130322093
1.133358121
1.134126958
1.132790687
1.131951365
1.132515584
1.132755127
1.132095843
1.131655957
1.13197051
1.133398484
1.134936576
1.136239683
1.136782135
0.624401389
0.6249691813
0.8599910467
1.087586172
1.113981206
1.112064978
1.122136037
1.117553075
1.121240942
1.122085964
1.121099987
1.123572859
1.126733256
1.127471065
1.126775956
1.126166976
1.126570902
1.126507231
1.125813872
1.125348258
1.1261818
1.129671277
1.132500571
1.132191969
1.131028179
1.130317355
1.131046368
1.130675119
1.129559986
1.128759415
1.129283394
1.130701328
1.132105073
1.132963304
1.133581009
0.6258672391
0.6635653307
1.003689419
1.109924514
1.101040557
1.119020257
1.114969695
1.116955175
1.120141439
1.118087325
)
;

boundaryField
{
    inlet
    {
        type            fixedValue;
        value           nonuniform 0();
    }
    outlet
    {
        type            inletOutlet;
        inletValue      nonuniform 0();
        value           nonuniform 0();
    }
    bottom
    {
        type            slip;
    }
    top
    {
        type            slip;
    }
    obstacle
    {
        type            zeroGradient;
    }
    defaultFaces
    {
        type            empty;
    }
    procBoundary22to15
    {
        type            processor;
        value           uniform 1.416807287;
    }
    procBoundary22to16
    {
        type            processor;
        value           nonuniform List<scalar> 
39
(
1.401174131
1.399595663
1.397978365
1.39678718
1.395720366
1.393755055
1.39057164
1.385015528
1.376630977
1.367474203
1.363376367
1.363281072
1.364849344
1.371387745
1.425622388
1.424794413
1.423640882
1.424476739
1.426000601
1.430138139
1.433193369
1.435207812
1.437478667
1.441093353
1.444304999
1.44384319
1.441064798
1.432691256
1.425412745
1.421367161
1.418772475
1.417654089
1.417164835
1.41620885
1.415638519
1.415210682
1.414548499
1.413612836
1.413612836
)
;
    }
    procBoundary22to17
    {
        type            processor;
        value           uniform 1.395461711;
    }
    procBoundary22to21
    {
        type            processor;
        value           nonuniform List<scalar> 
69
(
1.396212549
1.372983936
1.340850986
1.313003985
1.292774827
1.280585355
1.280585355
1.268082635
1.254419974
1.244239038
1.232263238
1.221784882
1.20651584
1.20651584
1.196233548
1.18910398
1.184566113
1.184388614
1.186143574
1.187088862
1.188878873
1.188878873
1.189506159
1.189585387
1.192983276
1.200142326
1.209524169
1.210384236
1.210384236
1.212981462
1.213444821
1.212918165
1.211416874
1.208906302
1.205779104
1.206003426
1.206003426
1.202412403
1.196513247
1.190596938
1.185156828
1.180502403
1.178612364
1.178612364
1.173123913
1.167723392
1.166189404
1.167503959
1.16523368
1.163338247
1.163777852
1.163777852
1.159809678
1.14782826
1.119489382
1.070745676
1.00754895
0.8408892646
1.046447751
1.046447751
0.8695617324
0.653708525
0.6154724157
0.6168922783
0.6205708974
0.6212902768
0.6213502372
0.6243946881
0.6243946881
)
;
    }
    procBoundary22to23
    {
        type            processor;
        value           nonuniform List<scalar> 
65
(
1.403029234
1.403029234
1.410084828
1.409051916
1.4084771
1.408125025
1.404418459
1.397524687
1.385960003
1.368697489
1.347773328
1.325282888
1.302923981
1.282530545
1.282530545
1.259494185
1.245961928
1.234776392
1.225529495
1.217840903
1.212466267
1.209683824
1.209058377
1.209633063
1.21082141
1.212403144
1.213207289
1.213207289
1.213777263
1.214250119
1.215200864
1.21669153
1.218705178
1.221876933
1.223975862
1.2243898
1.223808745
1.222593722
1.220735061
1.218496328
1.216991593