/*--------------------------------*- C++ -*----------------------------------*\
  =========                 |
  \\      /  F ield         | OpenFOAM: The Open Source CFD Toolbox
   \\    /   O peration     | Website:  https://openfoam.org
    \\  /    A nd           | Version:  7
     \\/     M anipulation  |
\*---------------------------------------------------------------------------*/
FoamFile
{
    version     2.0;
    format      ascii;
    class       volVectorField;
    location    "1.1";
    object      U;
}
// * * * * * * * * * * * * * * * * * * * * * * * * * * * * * * * * * * * * * //

dimensions      [0 1 -1 0 0 0 0];

internalField   nonuniform List<vector> 
22
(
(3.000000021 -2.415806534e-08 0)
(2.999999948 1.253250725e-07 0)
(2.999999559 5.988781755e-07 0)
(3.000000002 -2.551170741e-09 0)
(3.000000002 -2.706186871e-09 0)
(3 -9.430737827e-10 0)
(3.000000015 -1.291377242e-08 0)
(3 -2.063249422e-10 0)
(3 -5.625195994e-10 0)
(3 -8.715057745e-10 0)
(3.000000001 -1.415703473e-09 0)
(3 -1.36692435e-12 0)
(3 -1.991811998e-11 0)
(3 -2.464353639e-16 0)
(3 -1.001486602e-15 0)
(3 -4.552930655e-15 0)
(3 1.557151561e-15 0)
(3 9.656604376e-16 0)
(3 1.071260728e-15 0)
(3 -2.886942061e-15 0)
(3 -2.808261262e-15 0)
(3 -1.094141147e-15 0)
)
;

boundaryField
{
    inlet
    {
        type            fixedValue;
        value           nonuniform 0();
    }
    outlet
    {
        type            inletOutlet;
        inletValue      nonuniform 0();
        value           nonuniform 0();
    }
    bottom
    {
        type            slip;
    }
    top
    {
        type            slip;
    }
    obstacle
    {
        type            slip;
    }
    defaultFaces
    {
        type            empty;
    }
    procBoundary25to19
    {
        type            processor;
        value           nonuniform List<vector> 7((2.999992707 1.178633944e-05 0) (2.999943143 9.523615636e-05 0) (2.999781307 0.0004004891903 0) (3 -8.233254957e-15 0) (3 -7.878309811e-15 0) (3 -7.808717636e-15 0) (3 -8.233254957e-15 0));
    }
    procBoundary25to24
    {
        type            processor;
        value           nonuniform List<vector> 2((3 7.418777867e-17 0) (3 1.983734453e-15 0));
    }
    procBoundary25to26
    {
        type            processor;
        value           nonuniform List<vector> 4((2.999995496 8.113121133e-06 0) (2.999995496 8.113121133e-06 0) (2.999999987 3.249133568e-08 0) (3.000000001 -1.414729379e-09 0));
    }
    procBoundary25to30
    {
        type            processor;
        value           uniform (3 -2.723829186e-15 0);
    }
    procBoundary25to31
    {
        type            processor;
        value           nonuniform List<vector> 8((3 -6.760079332e-11 0) (3 -2.045795884e-10 0) (3 -1.541629701e-15 0) (3 -6.760079332e-11 0) (3 -4.708643189e-14 0) (3 -1.068132119e-15 0) (3 -1.851638215e-15 0) (3 -1.944484662e-15 0));
    }
}


// ************************************************************************* //
