/*--------------------------------*- C++ -*----------------------------------*\
  =========                 |
  \\      /  F ield         | OpenFOAM: The Open Source CFD Toolbox
   \\    /   O peration     | Website:  https://openfoam.org
    \\  /    A nd           | Version:  7
     \\/     M anipulation  |
\*---------------------------------------------------------------------------*/
FoamFile
{
    version     2.0;
    format      ascii;
    class       volScalarField;
    location    "4";
    object      rho;
}
// * * * * * * * * * * * * * * * * * * * * * * * * * * * * * * * * * * * * * //

dimensions      [1 -3 0 0 0 0 0];

internalField   nonuniform List<scalar> 
2225
(
2.193100543
2.170918966
2.149334543
2.127401329
2.105209032
2.081958833
2.058494083
2.035258421
2.012456492
1.990850268
1.969911891
1.949935098
1.930441394
1.911127009
1.893950056
1.865579976
2.60341822
2.579952046
2.557931834
2.537082081
2.516669658
2.495992827
2.474609784
2.452145927
2.428633446
2.403855834
2.377685466
2.350540046
2.322820186
2.295288724
2.268025566
2.241836726
2.216679557
2.192999839
2.170345227
2.147856982
2.125635913
2.102717485
2.079753641
2.057138864
2.034903633
2.01374704
1.99301363
1.973033349
1.953230794
1.933333342
1.915461606
1.885603637
2.624636913
2.600555408
2.577556231
2.555767441
2.535000555
2.514532273
2.493624675
2.471623093
2.448450636
2.424077772
2.398581679
2.372339141
2.345391253
2.318238383
2.290785586
2.263834427
2.237589208
2.212737997
2.189240782
2.16633554
2.1441366
2.121591052
2.099144161
2.077176223
2.055624494
2.035086629
2.014787091
1.994910356
1.974918268
1.954518308
1.936086709
1.904903291
2.64367185
2.619018496
2.595320304
2.572581101
2.551063737
2.530211386
2.509361061
2.487807502
2.4652529
2.441501386
2.416613756
2.390962517
2.364394448
2.337428923
2.310044618
2.283001134
2.256560672
2.231317491
2.207425098
2.184181307
2.161808491
2.139364155
2.117214497
2.095743019
2.074752653
2.054743277
2.034875283
2.015192175
1.995092589
1.974326182
1.955414938
1.923046116
2.658865088
2.633675878
2.609643349
2.586257423
2.563869042
2.542180024
2.520927315
2.499650345
2.477901884
2.455163127
2.43085145
2.405691393
2.379646945
2.353072652
2.326195063
2.299676317
2.273697683
2.248650891
2.224760321
2.201354776
2.178728428
2.156188243
2.134056174
2.112744573
2.091972541
2.072220201
2.052672866
2.033129624
2.013013835
1.992036917
1.972865593
1.939740366
2.668929999
2.642583768
2.618583264
2.595834397
2.573816939
2.551877471
2.529857447
2.507835743
2.486150382
2.464121378
2.440479204
2.415988542
2.390576153
2.364325655
2.338234924
2.31279835
2.28800228
2.263884037
2.240584552
2.217403014
2.194596162
2.17179369
2.14944603
2.128064124
2.107278313
2.087530375
2.068120341
2.048749916
2.028750126
2.007714779
1.988335027
1.954722354
2.674245931
2.645996572
2.621368013
2.599325419
2.578149967
2.556515577
2.534166774
2.511268796
2.488704118
2.466920491
2.445381519
2.421436063
2.396454188
2.371561296
2.346888156
2.322833408
2.299493477
2.276551345
2.253880619
2.230898279
2.207940369
2.184855523
2.162169837
2.140566812
2.11976573
2.100010838
2.080691103
2.061475194
2.041648785
2.020594801
2.001196148
1.967627927
2.680985619
2.651349648
2.625406867
2.603272791
2.582746583
2.561911212
2.539946984
2.516676813
2.492367937
2.467654263
2.443611538
2.419501146
2.395671664
2.373086975
2.350690597
2.328366625
2.306385347
2.284519963
2.262582729
2.240114692
2.217704246
2.195098902
2.172405313
2.150527813
2.129708453
2.110050033
2.09067152
2.071445834
2.051897439
2.031064796
2.011798483
1.978569201
2.678859449
2.648096336
2.621721775
2.599022036
2.578282742
2.557574003
2.535798283
2.512402361
2.488050832
2.463702398
2.439849637
2.418487307
2.397530132
2.375449313
2.352969063
2.330957421
2.309483276
2.288231233
2.267177329
2.245825186
2.224060397
2.201327804
2.178402282
2.156745899
2.136366266
2.117022959
2.0974045
2.078035753
2.058903529
2.038473799
2.019618255
1.987195634
2.68038564
2.648339227
2.62072305
2.59709914
2.575921962
2.555428395
2.534066308
2.511028034
2.48681162
2.46249091
2.438471725
2.415420096
2.393047973
2.372026062
2.351697082
2.331820072
2.311988029
2.291653307
2.27080608
2.248889847
2.226156999
2.203883218
2.182702676
2.162613286
2.142526044
2.122736907
2.102724743
2.082490019
2.06280588
2.042285453
2.024490752
1.993735751
2.683331459
2.65040999
2.621458597
2.59671384
2.574903931
2.554233469
2.533163353
2.510837703
2.487095258
2.462654777
2.438127698
2.41443991
2.392071183
2.37126761
2.351603568
2.332743713
2.313950976
2.294434211
2.273765686
2.251507385
2.228797321
2.206654404
2.185112001
2.164666998
2.144244759
2.124692718
2.107463477
2.08959533
2.069113121
2.046956708
2.028669241
1.997314848
2.687988478
2.65510493
2.624958765
2.598768471
2.575935057
2.554570707
2.533487052
2.511675341
2.488571262
2.464533385
2.440134243
2.416204763
2.393458461
2.372418164
2.352753685
2.333963698
2.315040254
2.295213826
2.274188316
2.251999072
2.229809945
2.208162072
2.18701052
2.166730199
2.146786169
2.127595102
2.10792769
2.087260535
2.067420645
2.047478297
2.030361397
2.000489517
2.69517106
2.663018389
2.632563416
2.60515601
2.580650971
2.557826516
2.535989408
2.51428742
2.49184265
2.46853953
2.44444838
2.420316198
2.397100808
2.375491379
2.355234329
2.3356613
2.316010822
2.295625185
2.274402842
2.252543515
2.230808605
2.209487561
2.188613282
2.168579594
2.148780616
2.129194699
2.108715165
2.087927492
2.06829329
2.048687068
2.031643905
2.002164376
2.705726938
2.675062004
2.645088066
2.61679731
2.590433209
2.565579863
2.542016633
2.519296817
2.496568802
2.473339071
2.449376136
2.425311674
2.401890799
2.379643291
2.358490061
2.337907996
2.317381272
2.296399874
2.275078324
2.253565544
2.232176717
2.211119988
2.190484635
2.170707422
2.150897603
2.130837732
2.110147658
2.089488338
2.069763467
2.049847324
2.032643384
2.00385412
2.720941647
2.691549322
2.6618855
2.632745551
2.604889451
2.578356246
2.5532247
2.529267564
2.505449508
2.481207781
2.456428611
2.431701159
2.407606593
2.384576782
2.362606356
2.341293428
2.320261328
2.299053672
2.277739366
2.256287533
2.234968154
2.21406217
2.19363334
2.173972254
2.153917394
2.13342871
2.112541782
2.091757965
2.071775356
2.051704247
2.034502993
2.006043817
2.739051851
2.711101646
2.681759358
2.651833557
2.622806009
2.594987385
2.568405238
2.543210356
2.518659244
2.494111932
2.469195524
2.444192052
2.419499848
2.395539525
2.372408987
2.349873791
2.327782383
2.305805141
2.283988832
2.262186479
2.240678948
2.219761489
2.199327182
2.179423825
2.15887649
2.137905657
2.116687461
2.095618341
2.075322603
2.055068856
2.037897446
2.009412257
2.759822635
2.73325318
2.704166915
2.673548329
2.643450966
2.61446538
2.586599295
2.560027836
2.534296005
2.50911087
2.48409282
2.459225802
2.434557456
2.410254658
2.386395526
2.362815119
2.33958923
2.316587827
2.294006275
2.271764216
2.250100824
2.229193268
2.208554637
2.188068067
2.16680365
2.145190056
2.123489152
2.102046853
2.081407239
2.060848699
2.043520367
2.014482661
2.779924182
2.75438455
2.725897338
2.695524129
2.665097161
2.635373804
2.606357684
2.57837654
2.551434677
2.525556229
2.5002416
2.475203023
2.450423634
2.426044377
2.402093202
2.37825258
2.354523192
2.33084916
2.307618162
2.284900887
2.262904004
2.241737094
2.220622692
2.199444443
2.177581176
2.155523411
2.133495726
2.1117097
2.090644291
2.069583623
2.051736161
2.0214992
2.798829012
2.773743518
2.746373332
2.717123736
2.686849239
2.656395857
2.62612171
2.596822806
2.56892206
2.542595371
2.517261934
2.492507756
2.468209517
2.444226863
2.420381335
2.396336176
2.372181561
2.348042568
2.3244532
2.301494394
2.279119846
2.257286665
2.23517049
2.212927668
2.190345053
2.167934668
2.145793373
2.123897378
2.102538231
2.080932088
2.062292375
2.030435063
2.815172464
2.789883961
2.764231244
2.736774297
2.707092094
2.675993013
2.644372381
2.613815578
2.585139335
2.558460028
2.533095982
2.508630815
2.484919927
2.461576497
2.438183799
2.414366237
2.390253482
2.366106667
2.342465434
2.319341301
2.296465576
2.273721748
2.250462741
2.22713784
2.203886749
2.181206681
2.159092591
2.137258923
2.115771261
2.093720464
2.074317481
2.040976109
2.829720407
2.804493646
2.780892071
2.755093455
2.726082769
2.694543406
2.661748503
2.63004435
2.600561463
2.573359303
2.547869987
2.523702325
2.500514648
2.477639488
2.45456358
2.431039798
2.407254885
2.383456549
2.359936071
2.336552074
2.312967382
2.289201851
2.264967626
2.240936647
2.217405117
2.194733174
2.172802084
2.151124091
2.129562767
2.107159224
2.087146269
2.052725895
2.841524426
2.818155883
2.795898851
2.770872815
2.742437386
2.71082616
2.677493126
2.645069795
2.614708593
2.586657888
2.560837705
2.536846724
2.513944979
2.491265782
2.468410809
2.445307329
2.422073394
2.398776785
2.375377551
2.351638372
2.327323084
2.302685063
2.277806954
2.253449155
2.229950333
2.207465795
2.185801924
2.164346522
2.142843994
2.120317612
2.100032313
2.065160491
2.855668062
2.833691804
2.810376887
2.785025933
2.756824828
2.725432604
2.692360181
2.659617061
2.628165115
2.598910141
2.572517414
2.54840994
2.525385339
2.502552703
2.479768439
2.457059569
2.434319438
2.411387157
2.388014462
2.364028922
2.33936333
2.314428655
2.289495619
2.265222277
2.24191382
2.219566376
2.198032316
2.176731707
2.155376628
2.132986937
2.112794465
2.077992227
2.869663658
2.845466054
2.819675639
2.794720267
2.766877193
2.736310929
2.704562362
2.672126674
2.639899495
2.60966949
2.582606589
2.55794008
2.534362315
2.51119865
2.48849057
2.466122933
2.443653806
2.420835284
2.397486277
2.373606623
2.349189013
2.324586194
2.300042639
2.27601568
2.252820865
2.230439744
2.20890091
2.187766467
2.166732455
2.144748191
2.124961243
2.090615514
2.887715138
2.854437997
2.827467501
2.803120169
2.775010604
2.745866181
2.715874149
2.683743755
2.651021008
2.620119993
2.592091601
2.566271689
2.541817241
2.518308978
2.495636654
2.473323214
2.450723394
2.427829733
2.404695617
2.381400339
2.357733687
2.333825896
2.309834346
2.286080607
2.262951288
2.240481982
2.218892607
2.197940022
2.177297801
2.155832195
2.136565613
2.102765239
2.895018026
2.858726305
2.836629541
2.81024669
2.780142273
2.752577487
2.723663315
2.691738945
2.659523864
2.628780733
2.599841882
2.572691865
2.547404217
2.523706254
2.501028203
2.478559101
2.455721867
2.432873123
2.410208694
2.387718322
2.364926654
2.341781687
2.318394944
2.295002779
2.272018731
2.249505584
2.227815132
2.206933498
2.186551746
2.165514816
2.146725536
2.113482538
2.866753682
2.866292866
2.847028365
2.813684251
2.784826196
2.758893934
2.729167199
2.697492043
2.666796566
2.636617755
2.606862113
2.578568162
2.552611053
2.528561208
2.505505486
2.482740803
2.459899134
2.437450941
2.415371678
2.39345018
2.371150074
2.348506424
2.325703491
2.302881614
2.280359356
2.258083495
2.236383693
2.215443778
2.195021254
2.17408848
2.155533096
2.12269385
2.697447785
2.861494555
2.846899008
2.815655623
2.792746503
2.764797413
2.731804184
2.700612412
2.671661528
2.642180819
2.612363814
2.583817509
2.557442861
2.532754119
2.509112474
2.486233107
2.463775486
2.441825815
2.419974998
2.398049307
2.375821699
2.353551484
2.33142778
2.309392741
2.287582272
2.265735825
2.2440438
2.222840183
2.202038907
2.180868559
2.16229913
2.129768685
2.321542917
2.787086625
2.826342501
2.823539828
2.800915504
2.765324398
2.732603481
2.704076553
2.675711864
2.646468119
2.617562062
2.589473214
2.562526159
2.537020841
2.513111378
2.490560698
2.468521272
2.44652796
2.424134295
2.401686835
2.379414429
2.357640061
2.336341954
2.315174317
2.294126279
2.272737751
2.251028169
2.229462334
2.208137227
2.186546361
2.167840749
2.135537688
1.678697097
2.358057461
2.671871072
2.813391525
2.80261011
2.766157484
2.737182127
2.709090668
2.67950931
2.650922689
2.623672124
2.595962141
2.568212006
2.542134727
2.518320578
2.495926184
2.473448642
2.450476047
2.427107277
2.404209812
2.382091479
2.360912253
2.340379455
2.319896008
2.299380911
2.278299001
2.256559495
2.234740718
2.213048238
2.191127001
2.172286356
2.140170447
1.413187795
1.680588238
2.327741247
2.75922224
2.782636721
2.772888463
2.744717452
2.709987452
2.679952241
2.655070104
2.629931989
2.602358748
2.574481781
2.548871017
2.525078548
2.501686907
2.477653045
2.453480755
2.429562261
2.406745278
2.385071174
2.364476574
2.344417756
2.324141961
2.303623245
2.28247083
2.260628283
2.238778768
2.217096716
2.195145333
2.176294681
2.144375403
1.393111684
1.407771998
1.701561414
2.384002407
2.637166746
2.761338966
2.748911809
2.712045121
2.685500782
2.662546878
2.637535174
2.610106363
2.583409567
2.558395587
2.533041106
2.507021978
2.480747641
2.455405116
2.431293311
2.409012745
2.388075601
2.368024287
2.348164176
2.327811586
2.307043615
2.285647027
2.263668893
2.241923983
2.220486845
2.198737008
2.179995754
2.148294673
1.395949341
1.385770422
1.409947055
1.721410944
2.34339445
2.733113724
2.73771054
2.722423336
2.697112452
2.669384455
2.643498208
2.618831961
2.594347921
2.568196049
2.539676163
2.510958288
2.483473897
2.45791623
2.433974036
2.412061756
2.391529384
2.371688024
2.351778952
2.331379386
2.310478029
2.288887293
2.266783522
2.245144698
2.223947648
2.202451034
2.183889599
2.152416805
1.405825809
1.386425361
1.378646117
1.406483981
1.749912969
2.42120968
2.614189556
2.710527546
2.705353412
2.67540808
2.650332177
2.629048341
2.605017811
2.576511609
2.545316508
2.515236107
2.487402658
2.461540126
2.437130521
2.414706957
2.393943152
2.374443897
2.355099793
2.335148217
2.314465164
2.292902305
2.270766065
2.249208494
2.228090569
2.206701433
2.188291398
2.156719577
1.421898286
1.401882394
1.381420729
1.372836922
1.412498147
1.780933229
2.365969145
2.706585992
2.703117706
2.680459203
2.658656203
2.637367792
2.61082323
2.580022393
2.549567955
2.520763978
2.492328438
2.464824109
2.439243962
2.416252171
2.395184342
2.375911612
2.356981413
2.336914547
2.316603158
2.295782495
2.274251144
2.252895962
2.231551536
2.209701089
2.190933259
2.159445119
1.426240525
1.412433119
1.394227681
1.37396463
1.366231606
1.411291802
1.80945811
2.461949683
2.593437891
2.66080495
2.663993308
2.643161666
2.612856511
2.582420516
2.555780622
2.527993242
2.497738033
2.46827119
2.441656986
2.418296136
2.397410146
2.378483301
2.360643655
2.343557629
2.32564591
2.305799866
2.284969887
2.263755578
2.242147624
2.219824681
2.200647114
2.169263028
1.436474266
1.418564354
1.401240573
1.381729769
1.364895877
1.355908033
1.421498704
1.844241059
2.371266005
2.671716539
2.669927031
2.643219394
2.61232967
2.58787542
2.562191581
2.532375159
2.500258067
2.470029034
2.443573172
2.420572342
2.399791542
2.380151718
2.360805938
2.341360878
2.32097445
2.300756897
2.279805103
2.258310894
2.236476934
2.214081514
2.195172519
2.164345077
1.446511368
1.429337849
1.412712314
1.395277327
1.373555099
1.355688869
1.351640718
1.418064287
1.854170016
2.482979088
2.577994618
2.612397161
2.612837586
2.59699609
2.569204332
2.534841021
2.503553547
2.474538353
2.447646765
2.424335486
2.404336697
2.38621488
2.365951323
2.343331092
2.321821294
2.30125512
2.27984538
2.257794793
2.235787913
2.213557071
2.195357715
2.165309114
1.449957879
1.433268964
1.417578082
1.402996098
1.386453507
1.366943497
1.34956231
1.341945732
1.434518142
1.906170226
2.360353787
2.614284761
2.623946185
2.604859751
2.562025716
2.53152886
2.506237704
2.479936625
2.453991512
2.430432672
2.408532928
2.38636589
2.363880366
2.342672066
2.322349752
2.301664865
2.28008644
2.257900122
2.23626106
2.214835481
2.197330674
2.167902432
1.46169989
1.442984331
1.423589256
1.405525283
1.389162046
1.373750319
1.35457018
1.338140562
1.338628139
1.432799922
1.907050774
2.459646767
2.584070417
2.568709202
2.558986778
2.537990875
2.51283232
2.48576946
2.461316999
2.438193769
2.414221883
2.389104471
2.365547655
2.344272473
2.323459382
2.301706407
2.279185446
2.256893926
2.23614144
2.21623511
2.199677025
2.17086018
1.451799349
1.434184485
1.41641057
1.399588822
1.383633039
1.366748631
1.344878268
1.334666582
1.329504133
1.457882628
1.937784424
2.361708414
2.527116776
2.563375551
2.551763037
2.518889917
2.49106296
2.468934919
2.445539185
2.418832669
2.391793395
2.367603001
2.34551925
2.323368755
2.30081827
2.278486332
2.25707196
2.237577461
2.218549532
2.202041733
2.173423372
1.454206345
1.438222323
1.42302858
1.407347636
1.390375726
1.374737575
1.356562438
1.335301407
1.321673773
1.325406146
1.445531505
1.94184768
2.430463192
2.55200035
2.529285569
2.51567498
2.499129239
2.477074148
2.45025981
2.42107577
2.394034807
2.369657563
2.346465456
2.32312746
2.300321523
2.278946419
2.258679779
2.240039439
2.221165582
2.204452931
2.17569682
1.465373417
1.446973737
1.427933294
1.409492349
1.391458671
1.374730794
1.358811616
1.339915664
1.321872722
1.311867962
1.314641604
1.478737207
1.985949845
2.37972383
2.487230564
2.518704707
2.510767965
2.482497856
2.450865927
2.420891911
2.394783418
2.370066429
2.345575493
2.321373258
2.299018403
2.279023057
2.259759539
2.24158926
2.222855881
2.206359759
2.177885027
1.472998834
1.455161866
1.436382842
1.418033529
1.400197331
1.381897439
1.365333385
1.349296429
1.331372728
1.312867167
1.304143976
1.314170103
1.484562831
2.009742431
2.413839176
2.522229453
2.515777722
2.486411007
2.45021429
2.423014284
2.397915114
2.371346031
2.344656677
2.320314901
2.298493795
2.278900962
2.260197617
2.242819772
2.224359154
2.207349564
2.178629687
1.475650322
1.45696377
1.441164932
1.42526348
1.408032777
1.389405344
1.371828661
1.355893179
1.34080578
1.322495019
1.305011149
1.297086285
1.307844759
1.517490766
2.031038959
2.413168324
2.467741495
2.4641291
2.452057859
2.429813323
2.402061976
2.372790213
2.344996702
2.320664239
2.299211583
2.279827042
2.260868265
2.243174032
2.225485155
2.210592843
2.184726863
1.485148849
1.466065406
1.446505844
1.426492683
1.407815693
1.390231326
1.373716897
1.357407127
1.342304878
1.329710188
1.31344046
1.296184469
1.285502308
1.304300875
1.539755746
2.081286012
2.392433369
2.466287057
2.460694669
2.441998431
2.406340576
2.373099702
2.347481106
2.323065205
2.299190573
2.278683905
2.259602776
2.24206669
2.22432464
2.20799806
2.178749085
1.491528066
1.473558657
1.453278346
1.433216115
1.415107068
1.397851669
1.381152117
1.364854117
1.349236311
1.333919575
1.317982679
1.298504001
1.283675717
1.274144202
1.301599302
1.568067161
2.071018803
2.406347987
2.439384556
2.42455218
2.400022053
2.376315513
2.353661982
2.326935493
2.300859425
2.279832093
2.260867584
2.24222347
2.223371001
2.205785102
2.175838023
1.495188296
1.474371432
1.456296124
1.440223659
1.423459041
1.405744231
1.388339305
1.371913203
1.355333221
1.337690236
1.322174874
1.306367953
1.288632336
1.273810331
1.266992339
1.299285993
1.599883479
2.148084196
2.392367629
2.40279825
2.400942944
2.384864426
2.361845275
2.335710385
2.310129956
2.288448341
2.267132071
2.248194706
2.228494328
2.210249925
2.180141687
1.502531549
1.482499923
1.463005566
1.443105949
1.423971814
1.406688701
1.390202183
1.37383129
1.357395548
1.341112598
1.325986103
1.312966358
1.297760873
1.278822118
1.26610273
1.258895074
1.310893331
1.645771577
2.128769228
2.328237846
2.396866102
2.390122629
2.355870936
2.322286945
2.302802707
2.2838144
2.261869647
2.240204673
2.219000455
2.200296925
2.169673696
1.506071909
1.488664072
1.46986605
1.450190027
1.431681311
1.414402293
1.397097911
1.379961509
1.363092282
1.346413259
1.329768808
1.313515541
1.29774145
1.283823511
1.268854317
1.255100044
1.254448303
1.312279424
1.681490499
2.188305608
2.381429539
2.371825306
2.338577331
2.319997444
2.30474497
2.283678725
2.259243038
2.235893331
2.214939576
2.196536814
2.165841422
1.512774863
1.491099061
1.471425372
1.45526974
1.439642197
1.422225187
1.403951982
1.386304907
1.368784386
1.351155655
1.333826584
1.316979552
1.30311745
1.29039334
1.275510794
1.256746935
1.247083703
1.242564392
1.335337978
1.732166956
2.200045232
2.304719227
2.333133226
2.325287462
2.308537164
2.283893802
2.256373824
2.233415498
2.216880353
2.200110833
2.169425496
1.520476567
1.499413365
1.479992418
1.460688161
1.441058081
1.422454956
1.404962841
1.388010661
1.370990366
1.353935234
1.337436046
1.322122593
1.307832948
1.294275108
1.281296794
1.26632234
1.247632246
1.23661461
1.238851953
1.347087459
1.784622498
2.19785819
2.340982624
2.33420788
2.299457552
2.272670285
2.255270378
2.234337885
2.212242163
2.191898716
2.159389038
1.523078499
1.505312626
1.487694329
1.467666389
1.447368702
1.428705519
1.410835375
1.393348322
1.376617765
1.360700127
1.345178844
1.330295292
1.314135094
1.297795729
1.283133699
1.271639543
1.255220708
1.237485869
1.227818831
1.232730013
1.377277631
1.819369604
2.238244201
2.277629361
2.274090967
2.270045866
2.259474348
2.23740113
2.210804434
2.1888955
2.155690744
1.53256707
1.511272843
1.490262789
1.47251523
1.456191732
1.43787016
1.418124675
1.399026687
1.382238028
1.368066834
1.353306705
1.337151209
1.320239322
1.304205209
1.288651644
1.273199557
1.258921199
1.242167835
1.226139989
1.216001661
1.227911987
1.413775893
1.911720227
2.181473016
2.280480358
2.281019514
2.2705982
2.24454978
2.210359428
2.188213298
2.154584974
1.539913226
1.519296433
1.499144688
1.479827837
1.459924255
1.440083703
1.421280514
1.403896801
1.386949374
1.369690461
1.352026725
1.33535973
1.320940554
1.307147423
1.292296754
1.27644796
1.262831556
1.248060696
1.229791564
1.215590554
1.208420635
1.230687037
1.453326378
1.892963842
2.239861599
2.268631643
2.248300203
2.223326667
2.205679909
2.188802021
2.154724986
1.540888408
1.521571095
1.504661364
1.485554912
1.464450235
1.444413867
1.425251823
1.407422137
1.390212106
1.372701052
1.356229867
1.34063144
1.326292174
1.310999157
1.294379788
1.278464365
1.263558629
1.250657549
1.239767026
1.224637119
1.206805416
1.199779431
1.228138028
1.493296508
1.986623224
2.199189496
2.221049296
2.219479524
2.209273196
2.190224636
2.154374817
1.548092494
1.528058256
1.506541721
1.485704531
1.468034477
1.450786745
1.431151426
1.411190449
1.392191624
1.374966298
1.361750972
1.350730762
1.336129712
1.319528027
1.301594089
1.282174334
1.265291987
1.251274671
1.237535949
1.222217093
1.205603721
1.194887528
1.187971822
1.241841587
1.539323882
1.963868581
2.188841969
2.225100708
2.217985057
2.195331578
2.151364931
1.554931135
1.532743649
1.511447451
1.491789177
1.471229158
1.450675585
1.436373645
1.421428811
1.402050694
1.381526538
1.364032032
1.347518798
1.331635364
1.315372891
1.300301512
1.284978745
1.268903978
1.253604164
1.238731599
1.223133465
1.208659922
1.193676056
1.182846716
1.18256753
1.243106791
1.582523162
2.035734746
2.203491027
2.196090458
2.177202859
2.149122147
1.557864994
1.536367838
1.516085836
1.49606899
1.475311639
1.455646171
1.437221709
1.418250652
1.401302225
1.384120413
1.365938633
1.348496483
1.332248935
1.316277795
1.301553085
1.291110485
1.278604051
1.262618045
1.245265081
1.227050464
1.212841067
1.198214229
1.1828705
1.175121512
1.175562447
1.270242327
1.643101675
2.034858784
2.136323736
2.168921045
2.15360139
1.566313541
1.548784201
1.52899238
1.507273363
1.483895795
1.461255062
1.440018244
1.419859194
1.402635892
1.389829855
1.375346221
1.359066513
1.342896562
1.326939393
1.309336539
1.290813921
1.274147951
1.257260861
1.241922371
1.232633455
1.221626755
1.208756323
1.193627582
1.179911704
1.166910359
1.174005871
1.289505353
1.701754206
2.059988857
2.16135771
2.151064183
1.564188361
1.543868983
1.523310298
1.502054356
1.48277734
1.468555921
1.45143848
1.430269237
1.4077381
1.388790223
1.371363849
1.354561023
1.337938425
1.321762053
1.307744301
1.291763227
1.274620412
1.258158837
1.244346673
1.230394582
1.216676777
1.20353891
1.18999802
1.175444482
1.164080788
1.153989761
1.16542267
1.333717292
1.741420389
2.078712307
2.130794312
1.566907388
1.545849177
1.524676173
1.504480573
1.486895666
1.466547046
1.44552375
1.427439113
1.409333529
1.390216729
1.372269702
1.355320951
1.338777113
1.322282833
1.307224609
1.296809427
1.282574778
1.266301982
1.248272818
1.231303992
1.217093101
1.203759764
1.19085728
1.176940743
1.163703177
1.152301211
1.147050361
1.166119004
1.372755283
1.813671549
2.078600501
1.579292941
1.558348244
1.536866355
1.516237422
1.493782895
1.46887178
1.445966267
1.428037377
1.415559688
1.399808119
1.382558997
1.365584081
1.348957678
1.332161608
1.314041257
1.294294526
1.276652438
1.260329478
1.247808957
1.237350246
1.224903865
1.211558712
1.198622957
1.185445788
1.171945751
1.158585173
1.144313784
1.138357799
1.175729379
1.419291372
1.898416628
1.574437787
1.552631502
1.53107731
1.509637524
1.491211768
1.475882386
1.454799068
1.432294585
1.412232673
1.394171793
1.376648771
1.359629374
1.34282861
1.326409147
1.30999105
1.293098277
1.275757179
1.260830324
1.247654597
1.233594597
1.219908528
1.206460492
1.193245871
1.180295179
1.16696521
1.153980157
1.140397335
1.128248724
1.128544612
1.175960384
1.598949647
1.576057125
1.554133022
1.532469504
1.511289498
1.492393668
1.472140083
1.451891638
1.433073981
1.41329071
1.394817491
1.377405496
1.360528127
1.343731576
1.327253204
1.310680042
1.29390429
1.277588221
1.26336708
1.248670478
1.234491207
1.220815269
1.207488339
1.194013038
1.181111404
1.167783621
1.155011158
1.141877804
1.12778745
1.120813009
1.118501906
1.335201692
1.587933615
1.565988033
1.544393167
1.522490312
1.49674783
1.472288368
1.45596377
1.439918448
1.421896721
1.404083399
1.38672346
1.369515341
1.352394755
1.335568852
1.318804839
1.302706965
1.287550693
1.272865494
1.257700946
1.243318436
1.22911543
1.215338543
1.201332517
1.188066333
1.174633207
1.161927434
1.149196093
1.135958241
1.123425147
1.109948178
1.186148923
1.579004343
1.557185447
1.535723992
1.514069188
1.492403052
1.472328583
1.452531718
1.433215403
1.414189397
1.395943366
1.378271232
1.361063229
1.344205703
1.327693791
1.311387992
1.295774293
1.280724897
1.266017138
1.251049431
1.236863242
1.222556191
1.208797779
1.194713866
1.181545771
1.168089088
1.155736372
1.14272971
1.131277877
1.116858516
1.105124307
1.119264283
1.579077459
1.557225283
1.535444374
1.513613745
1.49278026
1.472616586
1.452405349
1.432906314
1.413935583
1.395633596
1.377755208
1.360324428
1.34337229
1.326869198
1.310875683
1.295520904
1.280564171
1.26590749
1.251097615
1.236896342
1.222504701
1.208611499
1.194505251
1.181220775
1.167816256
1.155353387
1.142491337
1.130911693
1.117780064
1.105625904
1.095483833
1.581359625
1.559529813
1.537780714
1.516389759
1.495836895
1.475227892
1.454776895
1.434966975
1.415770816
1.397224584
1.379161435
1.361514378
1.344412354
1.327798565
1.311929546
1.296649485
1.28185122
1.267279864
1.252699247
1.238353217
1.223960287
1.20977569
1.195723552
1.182157374
1.168950287
1.156180235
1.143738011
1.131484916
1.120054131
1.106634893
1.092487008
1.592488318
1.570275966
1.548514478
1.527386089
1.506555341
1.485639125
1.465155801
1.445149675
1.42566346
1.406675678
1.388256279
1.370311196
1.353132985
1.336611087
1.321010944
1.305857387
1.291225843
1.276588505
1.261993228
1.247195134
1.232576857
1.217864589
1.203764965
1.189832758
1.176797592
1.163701756
1.151547504
1.138799716
1.127506974
1.115602369
1.096649942
1.580291852
1.558257243
1.536989739
1.516213271
1.495678507
1.474955387
1.454690309
1.434690463
1.41530436
1.396319823
1.378077019
1.360075798
1.343133591
1.326610504
1.31137344
1.296204715
1.282013811
1.267352729
1.253165162
1.23816806
1.223998735
1.208979623
1.195425553
1.181180079
1.168810981
1.155364555
1.143862411
1.130807001
1.119608664
1.108444233
1.089110006
)
;

boundaryField
{
    inlet
    {
        type            calculated;
        value           nonuniform 0();
    }
    outlet
    {
        type            calculated;
        value           nonuniform List<scalar> 
71
(
1.865595745
1.885610644
1.904901634
1.923037362
1.939725466
1.954703469
1.967608218
1.978553383
1.987185776
1.993726248
1.997314613
2.000489596
2.00216626
2.003853802
2.006041834
2.009408068
2.014478105
2.021498194
2.030439859
2.040984592
2.052734086
2.065164701
2.077990798
2.090609421
2.102757691
2.113477458
2.122693777
2.129773371
2.13554539
2.14017873
2.144383024
2.148301024
2.152420288
2.156722077
2.159446882
2.169266122
2.164347579
2.16531227
2.167908678
2.170865635
2.173428446
2.175705781
2.177901853
2.178651632
2.184735913
2.178763483
2.175855786
2.180154328
2.169688231
2.165855835
2.169450494
2.159420397
2.155723247
2.154621954
2.154761218
2.154378913
2.151397501
2.149127636
2.153524494
2.151115531
2.130786334
2.078590076
1.89839785
1.598920941
1.335177948
1.186138788
1.119260957
1.095483148
1.092486288
1.096650015
1.08911097
)
;
    }
    bottom
    {
        type            calculated;
        value           nonuniform 0();
    }
    top
    {
        type            calculated;
        value           nonuniform List<scalar> 
31
(
1.580291852
1.558257243
1.536989739
1.516213271
1.495678507
1.474955387
1.454690309
1.434690463
1.41530436
1.396319823
1.378077019
1.360075798
1.343133591
1.326610504
1.31137344
1.296204715
1.282013811
1.267352729
1.253165162
1.23816806
1.223998735
1.208979623
1.195425553
1.181180079
1.168810981
1.155364555
1.143862411
1.130807001
1.119608664
1.108444233
1.089110006
)
;
    }
    obstacle
    {
        type            calculated;
        value           nonuniform 0();
    }
    defaultFaces
    {
        type            empty;
    }
    procBoundary35to29
    {
        type            processor;
        value           nonuniform List<scalar> 
33
(
2.166963868
2.146210508
2.125712631
2.104512785
2.082699944
2.05954608
2.035993667
2.012465705
1.989357107
1.967496842
1.946519603
1.92667741
1.907502226
1.888746324
1.872175711
1.84512468
2.580634213
2.557981312
2.537099039
2.516827037
2.496093927
2.474594577
2.452443663
2.429476938
2.405671167
2.380432102
2.353378079
2.325111387
2.296509712
2.268678973
2.241875042
2.21678888
2.21678888
)
;
    }
    procBoundary35to34
    {
        type            processor;
        value           nonuniform List<scalar> 
71
(
2.629062459
2.650664248
2.670517499
2.68698361
2.699184064
2.706795302
2.712265957
2.713720586
2.71547413
2.717576245
2.720745677
2.726369616
2.735191054
2.749391081
2.766405769
2.785767981
2.804423476
2.822563112
2.840356319
2.858595104
2.872213357
2.884193388
2.894079293
2.902806188
2.913027417
2.824415248
2.346909574
1.657258054
1.414794003
1.398885881
1.403147123