/*--------------------------------*- C++ -*----------------------------------*\
  =========                 |
  \\      /  F ield         | OpenFOAM: The Open Source CFD Toolbox
   \\    /   O peration     | Website:  https://openfoam.org
    \\  /    A nd           | Version:  7
     \\/     M anipulation  |
\*---------------------------------------------------------------------------*/
FoamFile
{
    version     2.0;
    format      ascii;
    class       volScalarField;
    location    "2";
    object      rho;
}
// * * * * * * * * * * * * * * * * * * * * * * * * * * * * * * * * * * * * * //

dimensions      [1 -3 0 0 0 0 0];

internalField   nonuniform List<scalar> 
2222
(
0.6127899151
0.6108230052
0.6098814162
0.6249889001
0.8887185439
1.188258249
1.404838726
1.795152781
2.11016039
0.5298623706
0.5225132372
0.5491326167
0.5789740804
0.5973586473
0.6024300069
0.6007414807
0.5990063366
0.6041825747
0.6077165031
0.6084419349
0.6127630736
0.6195724519
0.621019999
0.6206451328
0.6188620895
0.6166249455
0.6149784395
0.6147966341
0.6149739646
0.6163720621
0.6176867819
0.6178000901
0.6158031441
0.6139362325
0.6125209467
0.6107006309
0.6102669052
0.6693506987
1.018208682
1.204742329
1.423417002
1.785843449
2.086633556
0.5257859233
0.5213353786
0.5475916315
0.5780969122
0.5959342174
0.6010734145
0.5993125296
0.5984729533
0.6037694848
0.6066796205
0.6072105801
0.612620819
0.6187833703
0.6200614915
0.6194365445
0.6182341436
0.6163707385
0.6148531006
0.614500775
0.6147457217
0.6164677574
0.6174306906
0.6166716541
0.6146401822
0.6130766504
0.6119019151
0.6105669495
0.61316532
0.7754761466
1.071227773
1.205413837
1.436650589
1.792946417
2.046195715
0.5206375541
0.5204860216
0.5461612728
0.5767407736
0.5946745026
0.6000191946
0.5975939081
0.5980682484
0.6036545514
0.6055477421
0.6065037938
0.6125044049
0.6177032485
0.6185291127
0.6176637756
0.6169896534
0.6155389394
0.6144999265
0.614049971
0.6141544703
0.6163088694
0.6170844765
0.615599868
0.6129703278
0.6115376675
0.6103868919
0.6103333579
0.6270213722
0.8752436235
1.125230573
1.222734489
1.454347752
1.830012021
0.5177548792
0.5192551389
0.5442894819
0.5744266799
0.593262629
0.5990434948
0.5959203091
0.5973980527
0.6025489953
0.6048119315
0.6061727045
0.6125152397
0.6173309445
0.6179606224
0.6169681316
0.6158348984
0.6142175844
0.6138094973
0.6133691545
0.6132786612
0.6156799948
0.6165226273
0.6153163141
0.6124279924
0.6105883235
0.609104101
0.6100713529
0.6744792521
0.9808718873
1.191793742
1.242495355
1.472460882
1.896391562
0.5159554986
0.5171221075
0.5413622052
0.5715120207
0.5917832337
0.5974455574
0.5947322472
0.5972182045
0.6020745073
0.6044940045
0.6063500862
0.6128459199
0.617344823
0.6178809124
0.6167527752
0.6152680436
0.613107449
0.6129508337
0.6126736455
0.6128215236
0.6148909201
0.6158377052
0.6151157208
0.6123894907
0.6102130336
0.6089116262
0.6128417541
0.7612858468
1.104746087
1.211703583
1.247597648
1.485129408
1.931074173
0.5134254264
0.5136594604
0.5371600366
0.5694604002
0.5903070126
0.5963029337
0.594079569
0.5972230853
0.6014398192
0.6039461618
0.6061279727
0.6133204081
0.617187274
0.6176471221
0.6164428513
0.614916846
0.6124454417
0.612316079
0.6121953846
0.612718375
0.6146031363
0.6151179096
0.6146363538
0.6124010095
0.6101590263
0.6089539447
0.6272295579
0.9050291922
1.161752748
1.212569301
1.248662532
1.49843859
1.934497103
0.5089633795
0.5102861153
0.5349685949
0.5672882706
0.5888888488
0.5956243389
0.5938379201
0.5971311022
0.6001348184
0.6028720021
0.605631384
0.6130024128
0.6163612274
0.6166885385
0.6155681581
0.6144535622
0.6119647038
0.6118494204
0.6118521679
0.6128657001
0.6145845401
0.6143762866
0.6135471451
0.6119232666
0.6099271404
0.6097694799
0.678780133
1.005633327
1.162923561
1.203495146
1.245632928
1.516952123
1.927540495
0.5034484278
0.5092564361
0.5332898951
0.5652310992
0.5879592254
0.5945959709
0.5936507924
0.5975440467
0.5989089726
0.6012521185
0.6050738442
0.6119454844
0.6145503387
0.6147593182
0.613932643
0.6135791317
0.6114273496
0.6113544372
0.611442339
0.6127712506
0.6144791042
0.6138913668
0.6120797413
0.6107770457
0.6093835846
0.6129253008
0.7778129976
1.06443032
1.183762604
1.204030607
1.246148786
1.539919982
1.919783831
0.5002406457
0.5082841568
0.5320764351
0.5637379183
0.5872186557
0.5932689433
0.5933668268
0.5967809813
0.5980508789
0.6003224646
0.6047769672
0.6110009278
0.6134254978
0.613674372
0.61254808
0.6121027824
0.6106117055
0.6105806896
0.610699866
0.6121171866
0.6139820167
0.6135500729
0.6113051935
0.6092825883
0.608543477
0.629645927
0.8759804845
1.144380484
1.211586521
1.211311077
1.250178496
1.566644536
1.920396552
0.50042287
0.5082727964
0.5309421247
0.5620597283
0.5858208968
0.5917402538
0.5929777858
0.5966240475
0.5977739282
0.5999955958
0.6046980102
0.6107716214
0.6131313062
0.6133195273
0.6119636268
0.6105202382
0.609287243
0.6092715157
0.6093396082
0.6105134714
0.612986245
0.6130683659
0.6108148554
0.6086332087
0.6088073512
0.6777808982
1.013883561
1.197578269
1.217944289
1.219057323
1.261571095
1.598170624
1.927013062
0.500751056
0.5081638601
0.5295762073
0.5602614538
0.5841309875
0.5906346037
0.5926169254
0.5962526139
0.5975842236
0.6002428462
0.604967378
0.610826462
0.6129243965
0.6130632328
0.6115198762
0.6097221543
0.6077075948
0.6075367891
0.6075638537
0.608646003
0.6114174651
0.6122584943
0.6101887994
0.6081936882
0.6127220321
0.7890967179
1.113765544
1.206590973
1.218157262
1.220082299
1.276180898
1.633438822
0.5018687108
0.5086916954
0.5282732737
0.5584062028
0.5822725598
0.5897273976
0.5931621947
0.5960875849
0.5971435462
0.6003737588
0.6054753588
0.6106891182
0.6124235993
0.6123553983
0.6107144908
0.6091484593
0.6068432463
0.6064941818
0.6065365971
0.6077959804
0.6097998092
0.6108289224
0.6092060096
0.6076022253
0.632552257
0.9116067597
1.135919458
1.197020011
1.213217468
1.217058203
1.284693181
1.660295819
0.5033685951
0.5091409828
0.526812337
0.5563415094
0.5802386298
0.5886732699
0.5927181935
0.5954173515
0.5962371809
0.5998693449
0.6054072543
0.6101140135
0.6115373959
0.6110043585
0.6093166144
0.6083713988
0.6063375461
0.6059854124
0.6060529571
0.6075483817
0.6089102647
0.6086627058
0.6076323894
0.6075877658
0.6892641337
0.9901481828
1.16311567
1.197302993
1.20724029
1.212481457
1.291716444
1.674892668
0.5048999277
0.508890937
0.5251037188
0.5539093317
0.5776994613
0.5870093979
0.5913697672
0.5940723132
0.5948790817
0.598124652
0.604611796
0.6088155339
0.6101001506
0.6093774074
0.6078161168
0.6071339196
0.6057492689
0.6054986453
0.6056700902
0.607442641
0.6085200702
0.607218407
0.6062766435
0.612179258
0.7780722076
1.092290521
1.202403306
1.205569266
1.207620289
1.212262686
1.302475076
1.688449258
0.5052404106
0.5080447063
0.5230150216
0.5513115385
0.5756423329
0.5857982477
0.5894983002
0.5920747189
0.5935881971
0.5971230413
0.6031909239
0.6070399159
0.608503794
0.6082282083
0.6066297026
0.6055552187
0.6048692325
0.6048822111
0.6052936993
0.6073768524
0.6082333497
0.6068108868
0.606119215
0.6333132285
0.9246608475
1.174192136
1.214933132
1.216723742
1.213105949
1.214211706
1.318190152
1.710261008
0.505144959
0.5067412553
0.5206413454
0.5501804499
0.5754215013
0.5863407751
0.5892960528
0.5908995033
0.5929696326
0.5973993443
0.6026498653
0.6061074166
0.6076958407
0.6075020445
0.6055418064
0.6044077177
0.6036632731
0.6040002947
0.604822387
0.6073092675
0.607986857
0.6066594906
0.6076800416
0.7028665827
1.03802429
1.196646294
1.216422403
1.218429672
1.218385939
1.219322552
1.340502801
1.74103937
0.5046533447
0.5048891646
0.5185080805
0.5495652039
0.5758817595
0.5875673992
0.5901293572
0.5909532553
0.5928849745
0.5982203416
0.6027392904
0.6056433767
0.6072548581
0.6069029095
0.6048281192
0.6036946361
0.6029311496
0.6032007786
0.6044910575
0.6072335281
0.6077452429
0.6067054069
0.614165729
0.8024104954
1.083718951
1.187031906
1.211766954
1.217405763
1.218776177
1.222021571
1.367368289
1.775466882
0.5029360033
0.5025416843
0.5164896109
0.547876893
0.5748429614
0.5878726226
0.5909302237
0.5912763585
0.5927352384
0.5988484113
0.6028223527
0.6050370364
0.6065695194
0.6059659841
0.6042589762
0.6031412451
0.6026650659
0.6029498381
0.6044906799
0.6070006146
0.6073301021
0.6069120749
0.6384752935
0.903217317
1.143160616
1.195110345
1.205139723
1.212015997
1.216854093
1.222306133
1.394519057
0.5004413784
0.4999761613
0.5143973974
0.5449413222
0.5708820252
0.5848887982
0.5899313597
0.5911040514
0.5921525714
0.5986643226
0.6024014231
0.6038448575
0.6050744857
0.6040870934
0.6033812794
0.6025732454
0.6024154576
0.6029562525
0.6046397694
0.606628402
0.6067287418
0.6085017207
0.7048631675
1.044735586
1.201225033
1.212291521
1.205419046
1.209806801
1.21430737
1.222764315
1.418351305
0.4981621804
0.4987135275
0.5140760828
0.5444367208
0.5688650388
0.5806566084
0.5862209162
0.5896428213
0.5912626567
0.5972329384
0.6010901091
0.6021793463
0.6032922538
0.6023356396
0.6020646911
0.6018642651
0.602108735
0.6029754016
0.6048695755
0.6063086004
0.6068363454
0.6171454823
0.8374149898
1.135825524
1.212911718
1.21779073
1.212295421
1.211159042
1.214298705
1.224162194
1.438095375
0.4966556875
0.4985631663
0.5150857677
0.5453663882
0.5691079845
0.579474545
0.583136156
0.5870461512
0.5906774584
0.5960562473
0.5993008755
0.6008784403
0.6024777516
0.6018285168
0.601366973
0.6013718462
0.6019315044
0.6029056199
0.6052268801
0.6063313463
0.6071761898
0.6511279334
0.9406104818
1.152596056
1.210578015
1.217964887
1.218431132
1.216210411
1.215679351
1.227331187
1.458148233
0.4961893595
0.498976127
0.5170098253
0.5473662017
0.5701159324
0.5794971613
0.5821551797
0.5852535499
0.5906789406
0.5959635414
0.5982749338
0.6000348146
0.6017927219
0.6013882938
0.6011201133
0.6011286788
0.6019443756
0.603077291
0.6056680945
0.6061855311
0.6090201964
0.72182673
1.029454722
1.178391096
1.203402268
1.215828221
1.218972073
1.21940232
1.218966795
1.233708849
1.484570436
0.4968643231
0.4988275982
0.517473418
0.5477486443
0.5707259528
0.5802062684
0.5821306799
0.5850735617
0.5908939246
0.5959848105
0.597797663
0.5993678337
0.6010070617
0.6005309711
0.6007978719
0.6010187829
0.6020331949
0.6033029046
0.6055115351
0.6058930612
0.6198630834
0.8478091848
1.144829616
1.212529514
1.204728147
1.210173527
1.217569625
1.219246812
1.218936758
1.241427198
1.518161233
0.4966829286
0.4965173494
0.515364687
0.5459460268
0.5699589849
0.5807934995
0.5826761251
0.5849871307
0.5911404982
0.5960950851
0.5972576542
0.5987193994
0.6002689924
0.5997066154
0.6002031644
0.6008937036
0.6019684316
0.6034558659
0.6050604796
0.6061326104
0.6637933405
0.9958693416
1.194557411
1.219047277
1.214052923
1.210048928
1.214125057
1.217525492
1.218047608
1.248314089
1.556723148
0.4942043524
0.4943423806
0.5109121268
0.5404733529
0.566890609
0.5800193981
0.5830627256
0.5851863625
0.5912047132
0.5957624429
0.5964421082
0.5977788596
0.5994797642
0.5994062944
0.5996805251
0.6006935733
0.6019510804
0.6034964528
0.6047346071
0.6093238309
0.7662037765
1.068757916
1.194126677
1.219119621
1.219249297
1.213308654
1.214278067
1.216519095
1.216842764
1.254732174
1.597252617
0.4931717438
0.4941351273
0.5093190001
0.5357740844
0.5608446077
0.5767465075
0.582542323
0.5854573758
0.590576462
0.5946916598
0.5950252535
0.5960483259
0.5981557774
0.5990123898
0.5995909458
0.6004216268
0.6021066559
0.6034916701
0.6045919786
0.6256451328
0.8723375583
1.126594732
1.196034061
1.214198662
1.219260365
1.218982176
1.216358106
1.217086359
1.216874124
1.262185349
0.4934172427
0.4943397862
0.5090737389
0.5353280201
0.5574085091
0.5726642856
0.5806791451
0.5856544534
0.5899299419
0.5928858513
0.5934898408
0.5949951564
0.5972024205
0.5983646267
0.5994738533
0.6003894553
0.6024188257
0.6031247821
0.6051513531
0.6812190095
1.013812532
1.195404156
1.207869839
1.209690841
1.217983583
1.220501783
1.22062729
1.219166288
1.218039566
1.271526502
0.4937453846
0.4942135615
0.5093376134
0.5358210915
0.5573203314
0.5702445316
0.5773601441
0.5856512181
0.5901399187
0.5920775306
0.5929157888
0.5946123774
0.5967196433
0.5977717739
0.5992211287
0.6006645827
0.602734826
0.602943259
0.6110232212
0.8123267729
1.129168558
1.217304019
1.221906652
1.211239475
1.214326749
1.220759303
1.221795225
1.221451973
1.219583663
1.283774718
0.4934703025
0.4935255436
0.5097972205
0.5358209194
0.5576301375
0.5694667783
0.5757261057
0.5848733598
0.5905835866
0.5917145407
0.5925168123
0.594227175
0.5961473098
0.5975001244
0.5990452664
0.601277975
0.6031580183
0.6034300149
0.6420133827
0.9402710707
1.159833012
1.218924462
1.223194814
1.217803294
1.214644251
1.218454484
1.221440255
1.221245575
1.22006667
1.300568278
0.4926573818
0.4919828197
0.5087188753
0.5348708355
0.5576631772
0.5688021823
0.5752633255
0.5841620347
0.590503668
0.5914323892
0.5920608519
0.5938031921
0.5955724488
0.5972101667
0.5989272015
0.6020704615
0.6029111857
0.605441546
0.7188583684
1.023654396
1.176430044
1.208954724
1.220679664
1.221427989
1.217223984
1.217494122
1.219396299
1.218842697
1.219083055
1.320525333
0.4912751564
0.4889990366
0.5053462518
0.5325675981
0.5574405743
0.5687237115
0.5750198217
0.5840643309
0.5901616023
0.5909868846
0.5914201127
0.5933071751
0.5950261261
0.5966699399
0.5990794209
0.6020665567
0.602648849
0.6162523059
0.8386695704
1.129476593
1.204703077
1.205652933
1.215055146
1.220489901
1.220787875
1.217724886
1.218198985
1.216118107
1.217528209
1.341904541
0.4883446032
0.4853425184
0.5017821899
0.5286416282
0.555667919
0.5692460295
0.5759139135
0.5844537547
0.5896687648
0.5901883156
0.5904546263
0.5925844368
0.594567898
0.596353933
0.599303653
0.6016496264
0.603026258
0.6631108539
1.000954573
1.199356261
1.220901192
1.211642701
1.213141885
1.218732073
1.22094174
1.219973392
1.218416568
1.215503606
1.217282004
1.364199771
0.4840302605
0.4833128041
0.4988806233
0.5247011364
0.5526470134
0.5683855893
0.5775199813
0.5853732131
0.5893244497
0.5896526074
0.5900300488
0.5921693342
0.5938806711
0.5963695868
0.5996114908
0.6012453919
0.607587464
0.7796675981
1.090374469
1.213088157
1.223068067
1.2209542
1.215435447
1.216832492
1.220971196
1.221258249
1.219745148
1.215734914
1.217894768
0.4823069335
0.4818809356
0.496609513
0.5212738283
0.5483653814
0.5660874308
0.5779375334
0.5861871591
0.5891493772
0.5895087965
0.589932044
0.591925523
0.5931641939
0.596507911
0.6002048892
0.6015254194
0.6297443984
0.886986667
1.127930327
1.203144538
1.222591408
1.223042169
1.22009101
1.217955061
1.219852974
1.221467969
1.220669574
1.216473972
1.219587609
0.4812375105
0.4802795715
0.4946008956
0.5182228486
0.5442999689
0.5636523974
0.5777163277
0.5867280621
0.5890745349
0.5894556933
0.589981296
0.5915370971
0.593017168
0.5968821346
0.599976701
0.6028952962
0.6898555483
1.000881397
1.179706127
1.20331841
1.214883915
1.222383187
1.222330977
1.219542858
1.219284355
1.220580988
1.220611818
1.216616335
1.222321634
0.480004801
0.4787243067
0.4926685514
0.5154803561
0.5420659719
0.5621089958
0.5769809837
0.5871455305
0.5894138406
0.5895925409
0.5900742512
0.5910968997
0.5930543132
0.5971034721
0.5997290092
0.6119488887
0.8160312377
1.126120879
1.214538492
1.21238547
1.211812381
1.217208497
1.222174017
1.221566087
1.21948347
1.218773286
1.218933964
1.21597814
1.225999306
0.4792739094
0.4773231998
0.4908560882
0.5140054416
0.5412564728
0.5614017271
0.5766325156
0.5872644419
0.5894454545
0.5894788402
0.590011684
0.5904828393
0.5931981937
0.5966586317
0.5997836274
0.650658898
0.9622686686
1.179663844
1.219447896
1.220595976
1.212124143
1.2141957
1.218987469
1.220885852
1.218901027
1.21704092
1.215645591
1.213690156
1.22994566
0.4778486974
0.4755815121
0.4891529536
0.5139600436
0.5418517272
0.5617339307
0.5767709759
0.587185524
0.5891473464
0.5890872867
0.5895516008
0.5900375111
0.5933818102
0.596034513
0.6024541761
0.7384581542
1.038596893
1.179848226
1.215882823
1.220634679
1.217047248
1.214434042
1.215922021
1.219084186
1.218562121
1.216369048
1.213052066
1.210950319
1.234040542
0.4757002234
0.4738881416
0.4880938128
0.5146478156
0.5441404209
0.5641392723
0.5777599274
0.5871661108
0.5888341468
0.588206469
0.5885149539
0.5900711607
0.5937247879
0.5959933324
0.6171539132
0.8462249595
1.11497058
1.193499504
1.207212328
1.218283529
1.219260735
1.216453298
1.216120479
1.216900308
1.217913101
1.216344084
1.21242479
1.209173778
1.239012603
0.4734830769
0.4722264333
0.4877268582
0.5149773903
0.5455304694
0.5667466165
0.5798363198
0.5874503507
0.588389874
0.5875693655
0.5871680513
0.5902815882
0.5930667548
0.596425661
0.6706458602
0.9986395006
1.191239716
1.213093807
1.208898752
1.214402892
1.219348827
1.217914479
1.216906168
1.216068581
1.216767096
1.216086469
1.212263468
1.208417705
0.4707818471
0.4710060871
0.4875890833
0.5149712521
0.5456639726
0.5673973538
0.5810585212
0.5883567874
0.5880515857
0.5867172067
0.5865796035
0.5906928547
0.5925545794
0.603708416
0.7938891158
1.10320807
1.209058142
1.220763069
1.212666499
1.212977399
1.216197721
1.218324971
1.217481236
1.21606972
1.215297452
1.214959936
1.211842032
1.208051148
0.4671559299
0.4704532627
0.487638004
0.5151129203
0.5455532493
0.567407628
0.5811813551
0.5891355021
0.5881838817
0.5860085583
0.5866478687
0.5901310861
0.5926477414
0.6332597686
0.9035441091
1.129743861
1.207997097
1.218584821
1.217183055
1.213286735
1.213985228
1.216079147
1.216805444
1.214746745
1.213513565
1.213093863
1.210584883
1.207811044
0.4668596863
0.4706269598
0.4883223006
0.5157487921
0.5454887446
0.567067612
0.5809558079
0.5886664902
0.5876507832
0.5857224874
0.5868519744
0.5889796419
0.594864676
0.7039816714
1.005782965
1.161829084
1.196304115
1.211808253
1.214749509
1.211807076
1.213624948
1.213226288
1.214355243
1.212636765
1.210980846
1.210435981
1.208731135
1.207577412
0.4671312471
0.4716092583
0.4897180734
0.516902039
0.5457606072
0.56693415
0.5810110929
0.5873598875
0.5866047837
0.5853287311
0.5873249006
0.5887906453
0.6075167187
0.8379766076
1.133963345
1.19945763
1.194807471
1.202387869
1.210529753
1.211278024
1.212337377
1.211517357
1.211029984
1.210565031
1.20877355
1.207842104
1.206311171
1.207326847
0.4679508768
0.4732305892
0.4913767906
0.5185907308
0.5466872073
0.5672468763
0.5804700433
0.5857535515
0.5844437039
0.5847485348
0.5868118623
0.5892753426
0.6629156582
0.9975138082
1.185164157
1.209544822
1.202966871
1.200597496
1.203695298
1.209897267
1.211309741
1.210738861
1.209193422
1.208735179
1.207193333
1.205681664
1.204244382
1.206264472
0.4693927565
0.4749413311
0.4929968143
0.5205625608
0.5478052463
0.567214248
0.5797850532
0.5840776711
0.5834711561
0.5846706823
0.5854474004
0.595598521
0.7782403391
1.066368778
1.186233548
1.210315821
1.210124996
1.204406359
1.204750462
1.206575566
1.209967682
1.210275579
1.208822233
1.207417507
1.205962025
1.204071017
1.202748954
0.4717588685
0.4768431835
0.49458459
0.5215211019
0.5481173231
0.5670108022
0.5792484977
0.5832733157
0.5835149214
0.5848086964
0.5852860067
0.6236978707
0.8814395153
1.109129572
1.176412679
1.202761095
1.210321742
1.207851665
1.205878191
1.205355807
1.207475523
1.209312973
1.208390294
1.207006389
1.205170367
1.203030132
1.201475356
0.4755258111
0.4793531535
0.4963465207
0.5218622919
0.5479587628
0.5666308835
0.5790609367
0.5833128455
0.5842107563
0.5837844859
0.5872663233
0.6990988171
1.013510384
1.160309039
1.179189073
1.187657835
1.202516265
1.207850435
1.206295052
1.20485934
1.204862797
1.206739189
1.207589459
1.206598027
1.205215768
1.202566339
1.200408829
0.4807174333
0.4825148832
0.4984328645
0.5221054443
0.5476036949
0.5661429167
0.5790260388
0.5838499853
0.5849620652
0.5834352411
0.6034281163
0.845190864
1.120007696
1.181459145
1.182166916
1.180511021
1.189145889
1.200505802
1.205667848
1.204403047
1.203228098
1.20328087
1.204828159
1.205287124
1.204881134
1.202561981
1.199891528
0.4849818024
0.4860024569
0.5007188569
0.5225157837
0.5469007991
0.5655750176
0.5796229682
0.5846237787
0.5841717924
0.5841285133
0.6642253754
0.9722010246
1.152516984
1.185452723
1.185947669
1.18221048
1.183825606
1.192443544
1.200192501
1.20182036
1.200646601
1.199541202
1.199832703
1.201382292
1.202376195
1.201852017
1.199664102
0.486594915
0.4886571872
0.5032033676
0.5226744752
0.5462134326
0.5648054728
0.5805636333
0.5850874173
0.5827092672
0.5927224252
0.7639246922
1.043610361
1.15192617
1.182709252
1.189409869
1.188492444
1.18554176
1.188127206
1.194241338
1.197906077
1.197791703
1.196231894
1.194969727
1.195859981
1.197543309
1.198411958
1.198906082
0.4875101445
0.4900614073
0.5048369357
0.5224159115
0.5456900687
0.5654378158
0.581542212
0.5829245049
0.582697761
0.6242073687
0.8871063224
1.115167494
1.164607044
1.173407099
1.186870429
1.191782795
1.191402078
1.189759864
1.191155913
1.193682492
1.19507469
1.194139857
1.192220831
1.191750594
1.192771537
1.193811371
1.196732715
0.4878769092
0.4911636034
0.5053458758
0.5219106532
0.5452687607
0.5662043743
0.5806447856
0.5804991702
0.5860821332
0.7092397252
1.006892392
1.14881352
1.17507193
1.171938418
1.177899772
1.192470967
1.194584119
1.192896867
1.191439503
1.191241824
1.192633287
1.193073322
1.191261362
1.189748361
1.189722611
1.189796478
0.4873593424
0.4927651928
0.5054682025
0.5216257621
0.5450876446
0.5667678832
0.5772915758
0.5781612544
0.6031639999
0.8176357827
1.065921895
1.157378374
1.173239794
1.168445245
1.171284588
1.183298343
1.193024791
1.19463674
1.192237627
1.191107447
1.191057205
1.192070312
1.190923367
1.188996631
1.187747626
1.186847596
0.4854363329
0.4940976364
0.5052036775
0.5211896148
0.5445289685
0.5662787047
0.5720598664
0.5770423602
0.6489593201
0.9065503609
1.094950529
1.15376534
1.164227619
1.166417603
1.168153442
1.17563426
1.186480953
1.192202776
1.19207664
1.191112143
1.190257874
1.190283481
1.189720207
1.188109961
1.18649321
1.184822289
0.4837698698
0.494280923
0.504415572
0.520462886
0.5449681315
0.5633899213
0.5671909972
0.5837076384
0.7340360041
1.017415921
1.13090977
1.147860646
1.157684594
1.166838089
1.171024392
1.174230015
1.180834929
1.187166463
1.188870021
1.188354877
1.18756943
1.186721873
1.186388839
1.185788006
1.185136104
1.183567104
0.4832152645
0.4941960284
0.5030272691
0.5196333136
0.5448282723
0.5583638223
0.5649965578
0.6093726856
0.8763040947
1.111660852
1.159590172
1.156821999
1.15666803
1.166786078
1.175461097
1.178076052
1.179833226
1.182351166
1.183106261
1.183123022
1.18265952
1.18167678
1.181556125
1.182272677
1.183022591
1.182446006
0.4834562272
0.4935826166
0.5014015952
0.5192474976
0.5438660018
0.5536575868
0.5655872963
0.6850999815
0.9843346419
1.139897857
1.170371028
1.167016845
1.1620441
1.166474105
1.177721965
1.182303647
1.182089479
1.180414163
1.178858078
1.178450353
1.178569041
1.177855229
1.17753619
1.178394
1.180116831
1.180936743
0.4842985235
0.492742565
0.5001627969
0.5189014381
0.5409071623
0.5481342371
0.582434386
0.7868362303
1.02624979
1.135178164
1.173397862
1.172451653
1.16770048
1.167926253
1.175797528
1.183132754
1.184601407
1.181736389
1.178466016
1.176575826
1.176354664
1.175771908
1.175048326
1.175325882
1.176767479
0.4864232094
0.4922526466
0.4994914638
0.5179588032
0.5366008115
0.5474451459
0.6242639116
0.8738147646
1.07257724
1.128266427
1.15613904
1.16965539
1.169658588
1.169446135
1.171969404
1.179508585
1.18434257
1.183424967
1.180198553
1.177093505
1.175239966
1.174040972
1.173369816
1.173212659
1.17362023
0.4900041356
0.4921445438
0.4991303186
0.5160205022
0.5300600393
0.5553231935
0.7016682004
0.9886834213
1.115316458
1.127918902
1.14075339
1.155434268
1.165167676
1.169340618
1.171780018
1.175673211
1.180807112
1.18306286
1.181362926
1.178275523
1.174850421
1.172148529
1.171876596
1.17188233
1.171496389
0.4917037878
0.492091334
0.4983562502
0.5138288595
0.527649912
0.5841345694
0.8367177127
1.081217417
1.132538322
1.133921637
1.139264983
1.145513278
1.159697036
1.169499843
1.172991731
1.174288084
1.176483971
1.178648924
1.178821547
1.177347776
1.17417187
1.170916553
1.170521631
1.171126178
1.170571596
0.4917053107
0.4912505749
0.4966855331
0.5110283453
0.5299135798
0.6540979688
0.958141187
1.112947163
1.136989305
1.141094855
1.145748301
1.146133711
1.153340468
1.167880954
1.173960951
1.173877902
1.172231652
1.170932132
1.172051308
1.173395904
1.172064702
1.170448064
1.169949461
1.170488054
1.17020542
0.4899625136
0.4889798548
0.4944366736
0.5078874539
0.5510010075
0.7537384749
1.019582677
1.116269559
1.130960089
1.143406973
1.150696419
1.149808162
1.152197807
1.162015181
1.171081976
1.172171087
1.169115521
1.165712448
1.165866583
1.168181022
1.169462074
1.169622029
1.169712533
1.169932848
1.16948962
0.4872033462
0.4874107067
0.4955027796
0.5096381811
0.5960760431
0.8521039964
1.076212427
1.11667872
1.117042303
1.134831725
1.148539123
1.150130543
1.15108226
1.156129208
1.163655161
1.167365212
1.166708369
1.164063691
1.163280811
1.16404946
1.165661407
1.16683306
1.167672124
1.167753047
1.167292989
0.4844381205
0.487742275
0.4974016317
0.5256204482
0.6751244909
0.9571005011
1.099956133
1.110771365
1.103867283
1.115899308
1.134239965
1.142262232
1.1465349
1.150494548
1.154380769
1.160220776
1.163132148
1.16250306
1.161613472
1.160492412
1.160745782
1.161986109
1.163197819
1.163240368
0.4851432537
0.4895438666
0.5020467099
0.5578707146
0.7837883551
1.017811209
1.094113969
1.089635162
1.083455824
1.094131432
1.110831786
1.128759056
1.139939863
1.145499148
1.14741147
1.151074885
1.155493326
1.157546179
1.157952947
1.156946121
1.156151728
1.157291913
1.158641187
1.159248172
0.4876039142
0.493346266
0.5131503115
0.6166163664
0.8701705005
1.038640488
1.070645002
1.065040482
1.068852175
1.082025576
1.094637715
1.111138205
1.128655388
1.136678863
1.13879107
1.139046764
1.141823276
1.146765697
1.151237305
1.152902787
1.15301788
1.15394951
1.154690406
1.155591855
0.4916016583
0.4997647393
0.5364524922
0.7066632359
0.9459483178
1.047655194
1.039026568
1.039896748
1.053541842
1.07171214
1.083130294
1.095408341
1.111736416
1.121678857
1.123424467
1.123365774
1.125908314
1.13266862
1.141837978
1.147135968
1.149025403
1.14971207
1.149062332
1.149317073
0.4995372788
0.5114979637
0.5797585158
0.7937272181
1.010203401
1.044307171
1.027292871
1.016877599
1.036267082
1.061380906
1.071413426
1.080159952
1.090244569
1.099439805
1.104684806
1.107764575
1.111570642
1.11916631
1.129300242
1.137175098
1.140121629
1.140537286
1.138665715
1.13767476
0.5094035233
0.5281558754
0.6377576767
0.8850948107
1.034622998
1.035288809
1.018111156
1.007483662
1.023695009
1.046099262
1.056778136
1.06239574
1.068819741
1.075486737
1.084554381
1.091233497
1.097353919
1.104811008
1.113146069
1.120235326
1.123283188
1.124241203
1.123203145
1.123030724
0.5227894299
0.5535679224
0.7190803715
0.942174975
1.021480742
1.017834001
1.005146963
0.9964576323
1.008930573
1.024715863
1.036415825
1.044399134
1.051005721
1.056681133
1.062968626
1.072315012
1.079452664
1.087041179
1.094003308
1.099153447
1.102760907
1.105468558
1.106843391
0.5389838625
0.59719096
0.8109595355
0.9480896468
0.9913017803
0.990803685
0.9863635395
0.9883629456
0.9943374308
1.004297741
1.017730701
1.029848812
1.039698228
1.044841386
1.046805421
1.051186053
1.056977398
1.067295448
1.075795344
1.079832151
1.082336776
1.084918983
1.087891198
0.5562545245
0.6616504402
0.8677752681
0.9470619601
0.9648986667
0.9643497563
0.9651754158
0.9768299782
0.9876339011
0.9954903654
1.005148926
1.02029027
1.032302894
1.035832395
1.034913234
1.03410082
1.037407226
1.048150907
1.058915584
1.064065447
1.066985359
1.068142774
1.068358302
0.5716983023
0.7354698363
0.9143591256
0.9529505135
0.9529267723
0.9485679544
0.9514278598
0.9718342271
0.9892933212
0.9968473637
1.005551457
1.018313664
1.025334624
1.026628144
1.025928758
1.024542639
1.027389574
1.037011682
1.046416492
1.050306871
1.051144047
1.050481271
1.049077397
0.5802161305
0.8226931452
0.9549618177
0.9618032806
0.9507910531
0.9464968968
0.9496406881
0.9715453869
0.9982673632
1.008935314
1.011504644
1.014621964
1.016361263
1.017683419
1.020540857
1.022574221
1.025293416
1.029677807
1.03505358
1.037814798
1.037443451
1.034235599
1.032084746
0.6135362511
0.9184362518
0.9826809063
0.9824506306
0.9649375568
0.9598743471
0.9688708557
0.9936148874
1.013447077
1.016398744
1.013820309
1.009251978
1.011686549
1.013421334
1.018606324
1.026776266
1.026151638
1.025058066
1.026094409
1.026936313
1.02600375
1.023932093
0.5738617435
1.007672585
1.023101474
1.046482184
1.023141562
1.011919149
1.010855126
1.013778893
1.018015868
1.016574919
1.016472701
1.01678212
1.018220926
1.019196852
1.025721868
1.025980082
1.020446256
1.019665718
1.020556053
1.020406716
1.020180552
1.019447421
0.6481251624
0.9994187083
1.105814753
1.119994172
1.096270875
)
;

boundaryField
{
    inlet
    {
        type            calculated;
        value           nonuniform 0();
    }
    outlet
    {
        type            calculated;
        value           nonuniform 0();
    }
    bottom
    {
        type            calculated;
        value           nonuniform 0();
    }
    top
    {
        type            calculated;
        value           nonuniform 0();
    }
    obstacle
    {
        type            calculated;
        value           nonuniform List<scalar> 
79
(
0.5738617435
0.6481251624
0.5298623706
0.5257859233
0.5206375541
0.5177548792
0.5159554986
0.5134254264
0.5089633795
0.5034484278
0.5002406457
0.50042287
0.500751056
0.5018687108
0.5033685951
0.5048999277
0.5052404106
0.505144959
0.5046533447
0.5029360033
0.5004413784
0.4981621804
0.4966556875
0.4961893595
0.4968643231
0.4966829286
0.4942043524
0.4931717438
0.4934172427
0.4937453846
0.4934703025
0.4926573818
0.4912751564
0.4883446032
0.4840302605
0.4823069335
0.4812375105
0.480004801
0.4792739094
0.4778486974
0.4757002234
0.4734830769
0.4707818471
0.4671559299
0.4668596863
0.4671312471
0.4679508768
0.4693927565
0.4717588685
0.4755258111
0.4807174333
0.4849818024
0.486594915
0.4875101445
0.4878769092
0.4873593424
0.4854363329
0.4837698698
0.4832152645
0.4834562272
0.4842985235
0.4864232094
0.4900041356
0.4917037878
0.4917053107
0.4899625136
0.4872033462
0.4844381205
0.4851432537
0.4876039142
0.4916016583
0.4995372788
0.5094035233
0.5227894299
0.5389838625
0.5562545245
0.5716983023
0.5802161305
0.6135362511
)
;
    }
    defaultFaces
    {