/*--------------------------------*- C++ -*----------------------------------*\
  =========                 |
  \\      /  F ield         | OpenFOAM: The Open Source CFD Toolbox
   \\    /   O peration     | Website:  https://openfoam.org
    \\  /    A nd           | Version:  7
     \\/     M anipulation  |
\*---------------------------------------------------------------------------*/
FoamFile
{
    version     2.0;
    format      ascii;
    class       volVectorField;
    location    "4";
    object      U;
}
// * * * * * * * * * * * * * * * * * * * * * * * * * * * * * * * * * * * * * //

dimensions      [0 1 -1 0 0 0 0];

internalField   nonuniform List<vector> 
2222
(
(2.690140751 0.01081847763 0)
(2.701243742 0.01101868237 0)
(2.711753768 0.0111593955 0)
(2.721755255 0.01119804966 0)
(2.731314891 0.0111670241 0)
(2.740403503 0.01113824331 0)
(2.748887835 0.01119814299 0)
(2.756589183 0.01133243585 0)
(2.763558202 0.0114359228 0)
(2.770210458 0.01151121269 0)
(2.7771257 0.01146602039 0)
(2.784872831 0.01125196193 0)
(2.79363966 0.01096998367 0)
(2.802980548 0.01086978484 0)
(2.812084324 0.01086235034 0)
(2.820400707 0.01077805303 0)
(2.827755644 0.0104396349 0)
(2.834068677 0.01025405059 0)
(2.839177816 0.01022000762 0)
(2.843406206 0.01024469658 0)
(2.847455696 0.010382088 0)
(2.852284773 0.01035857933 0)
(2.858918213 0.01011575222 0)
(2.867062746 0.01039466634 0)
(2.87526252 0.01053722228 0)
(2.882878239 0.01057674424 0)
(2.889912848 0.01045666608 0)
(2.896386038 0.0101240876 0)
(2.902218491 0.0100227624 0)
(2.907382085 0.00982381959 0)
(2.911371721 0.009589529699 0)
(2.918238733 0.009453211608 0)
(2.695880007 0.020983201 0)
(2.706848486 0.0211137747 0)
(2.717383738 0.02101660688 0)
(2.727478957 0.02076606785 0)
(2.737146029 0.02048135486 0)
(2.74637091 0.02028794388 0)
(2.755040477 0.02033657189 0)
(2.762918114 0.02059413023 0)
(2.769913174 0.02076408375 0)
(2.776396214 0.02074900497 0)
(2.78307776 0.02058320228 0)
(2.790609532 0.02018723189 0)
(2.799187197 0.01945665525 0)
(2.808591717 0.01902099525 0)
(2.818128017 0.0193290557 0)
(2.826645969 0.01982365291 0)
(2.833594196 0.01937806916 0)
(2.839393801 0.01872672616 0)
(2.844349653 0.01853164362 0)
(2.848742863 0.01843141391 0)
(2.853105797 0.01864656046 0)
(2.858073235 0.01906976726 0)
(2.864080592 0.01833354347 0)
(2.871905108 0.01832756196 0)
(2.88036345 0.01865186373 0)
(2.88803768 0.01871734149 0)
(2.895017081 0.01845782862 0)
(2.901475274 0.01800830827 0)
(2.907294028 0.01780717528 0)
(2.912465603 0.01754203739 0)
(2.91639137 0.01710763218 0)
(2.923141609 0.0165652347 0)
(2.68901533 0.03412031254 0)
(2.70030145 0.03438366765 0)
(2.711356655 0.03427225585 0)
(2.721934565 0.03387858448 0)
(2.731844096 0.03340059364 0)
(2.741068349 0.03309196098 0)
(2.749639183 0.03323121465 0)
(2.757481515 0.03377810335 0)
(2.764582046 0.03420342051 0)
(2.771127272 0.03400678056 0)
(2.77762448 0.03315802306 0)
(2.785088351 0.03227178443 0)
(2.793930553 0.03150759744 0)
(2.803580831 0.03095213181 0)
(2.813012746 0.03082868398 0)
(2.821355779 0.03144254143 0)
(2.828960306 0.03154588746 0)
(2.835608074 0.03082732051 0)
(2.840458694 0.02996310279 0)
(2.844736041 0.02970901879 0)
(2.849407889 0.02987935658 0)
(2.854524317 0.0304096754 0)
(2.860279654 0.03054559537 0)
(2.866532152 0.02971348973 0)
(2.873640484 0.02927177973 0)
(2.881176153 0.02888265013 0)
(2.888608278 0.02838859259 0)
(2.895359256 0.0277720333 0)
(2.901196951 0.02746195779 0)
(2.906334995 0.02719006673 0)
(2.910426666 0.02664327735 0)
(2.917414943 0.02588921118 0)
(2.680866665 0.04930087424 0)
(2.692585755 0.04921104063 0)
(2.704604778 0.04899127662 0)
(2.716244401 0.04877313875 0)
(2.726675748 0.04844792632 0)
(2.735549545 0.04802533817 0)
(2.743093601 0.04771200263 0)
(2.749836511 0.04761587819 0)
(2.756522883 0.04764441826 0)
(2.763935994 0.04785096623 0)
(2.772322885 0.04795281886 0)
(2.781239944 0.04766708201 0)
(2.789992195 0.04666397475 0)
(2.798001973 0.04478395005 0)
(2.805670143 0.04336963938 0)
(2.814322895 0.04444602589 0)
(2.823241139 0.04432577662 0)
(2.831674984 0.04389214702 0)
(2.839418499 0.04433355391 0)
(2.844334336 0.04433790445 0)
(2.847676988 0.04349000982 0)
(2.851716813 0.04354691484 0)
(2.856277526 0.04472184952 0)
(2.86130813 0.04386928639 0)
(2.867213885 0.0435018758 0)
(2.875714505 0.04331409454 0)
(2.884142111 0.04260266286 0)
(2.891339982 0.04197720174 0)
(2.897218228 0.04167548435 0)
(2.90246628 0.04163461736 0)
(2.90676332 0.04090255455 0)
(2.913469617 0.03965432017 0)
(2.671148688 0.06211549263 0)
(2.683549938 0.0620966497 0)
(2.696197525 0.06213393906 0)
(2.708270631 0.06230746941 0)
(2.719128524 0.06242153439 0)
(2.728668292 0.06243784517 0)
(2.737137265 0.0625647577 0)
(2.744788302 0.0628158815 0)
(2.751781436 0.06292592665 0)
(2.758458991 0.06264764807 0)
(2.765514919 0.06146637834 0)
(2.773538836 0.05981772227 0)
(2.78293102 0.05874464783 0)
(2.793731278 0.05895989813 0)
(2.804785838 0.05864857223 0)
(2.814160655 0.05670334968 0)
(2.82287413 0.0560939269 0)
(2.830109669 0.05713875012 0)
(2.834761348 0.05674388829 0)
(2.838436014 0.05561905085 0)
(2.842895387 0.05563386037 0)
(2.846760503 0.0554475354 0)
(2.850110951 0.05701253332 0)
(2.857427491 0.05744778015 0)
(2.868839966 0.05617283106 0)
(2.878530892 0.05518047774 0)
(2.88692351 0.05412940884 0)
(2.894023269 0.05329799436 0)
(2.90006417 0.05290582951 0)
(2.905783044 0.05285446407 0)
(2.910232493 0.05219869094 0)
(2.916194992 0.05109785401 0)
(2.663196348 0.07586173021 0)
(2.675313586 0.07516114022 0)
(2.687461915 0.0749194931 0)
(2.699101054 0.07526697205 0)
(2.709730084 0.07552497708 0)
(2.719212182 0.07532419207 0)
(2.72766346 0.07508175046 0)
(2.735170753 0.07511894255 0)
(2.742010957 0.0753018403 0)
(2.749028466 0.07533700862 0)
(2.757232033 0.07464735524 0)
(2.766774702 0.07357533821 0)
(2.777037671 0.0726551153 0)
(2.787085835 0.07213440533 0)
(2.796703183 0.07088137435 0)
(2.806597881 0.06909549579 0)
(2.814226796 0.06743254889 0)
(2.819839165 0.06648382709 0)
(2.825713346 0.06665615174 0)
(2.832324854 0.06747241321 0)
(2.837709661 0.06831155249 0)
(2.843019649 0.06943460647 0)
(2.849686239 0.06859951734 0)
(2.858324946 0.06987077187 0)
(2.866577539 0.06879961578 0)
(2.874956025 0.06737371429 0)
(2.882425355 0.06572037247 0)
(2.888720567 0.06395743924 0)
(2.894422855 0.06274969616 0)
(2.900182678 0.06216152338 0)
(2.904706994 0.06176032423 0)
(2.911179551 0.06169450929 0)
(2.656719597 0.08983341746 0)
(2.669193748 0.08918508543 0)
(2.681321315 0.0888366844 0)
(2.692603434 0.08893474493 0)
(2.702843843 0.08891741324 0)
(2.712136643 0.08858560086 0)
(2.720652567 0.08844345122 0)
(2.728435576 0.08871387103 0)
(2.735591272 0.08886047754 0)
(2.742534393 0.08835370598 0)
(2.750049238 0.08687328689 0)
(2.758750209 0.08533099272 0)
(2.768455801 0.08440812939 0)
(2.778621511 0.08388105123 0)
(2.788793104 0.08264854404 0)
(2.798249157 0.08231647503 0)
(2.80680891 0.08212838717 0)
(2.814375116 0.08178153297 0)
(2.82057637 0.08103304148 0)
(2.825488445 0.08039086248 0)
(2.830342018 0.08046949174 0)
(2.835963254 0.08013405392 0)
(2.843767368 0.07850844832 0)
(2.85156222 0.07889993245 0)
(2.859446004 0.07813659822 0)
(2.867674111 0.07774670665 0)
(2.876324577 0.07800216897 0)
(2.884609921 0.07820314548 0)
(2.891516738 0.07755598478 0)
(2.897324066 0.07677525729 0)
(2.901338955 0.07648647541 0)
(2.907113359 0.07550672769 0)
(2.651586393 0.104463114 0)
(2.663715592 0.1030624609 0)
(2.675907399 0.1022828047 0)
(2.687767048 0.1026640372 0)
(2.698705844 0.1031784015 0)
(2.708206124 0.1029556492 0)
(2.716412165 0.1023276 0)
(2.723908616 0.102005785 0)
(2.731024008 0.1018552179 0)
(2.73798128 0.1015436399 0)
(2.745362175 0.1006100683 0)
(2.753788628 0.09915690049 0)
(2.76327069 0.09757882291 0)
(2.773299664 0.09655758718 0)
(2.783397843 0.09607429529 0)
(2.792644255 0.09656654659 0)
(2.800349983 0.09584643364 0)
(2.806535006 0.09384930252 0)
(2.811494896 0.09124170719 0)
(2.816499897 0.08938988036 0)
(2.822776876 0.08965221644 0)
(2.830775561 0.09060396806 0)
(2.839794255 0.09108895602 0)
(2.847887406 0.09179182871 0)
(2.855713158 0.09149942711 0)
(2.863318169 0.09153777208 0)
(2.870428126 0.09131726257 0)
(2.876876708 0.09005004428 0)
(2.882612264 0.08795843468 0)
(2.887866529 0.08644671166 0)
(2.891669678 0.08539081069 0)
(2.898587975 0.08438125504 0)
(2.646928187 0.1184540668 0)
(2.659272409 0.1176288647 0)
(2.671519536 0.1166011879 0)
(2.683287559 0.1162885402 0)
(2.694211795 0.1164286603 0)
(2.703867803 0.1163199136 0)
(2.712238858 0.1156631258 0)
(2.719877524 0.1147438016 0)
(2.727121452 0.1139843993 0)
(2.733906911 0.1132447277 0)
(2.740708984 0.111886809 0)
(2.748696723 0.1102447474 0)
(2.758677277 0.1095296108 0)
(2.76966232 0.1100764988 0)
(2.779695982 0.1101838523 0)
(2.787949463 0.109595713 0)
(2.795032734 0.1077153568 0)
(2.80210037 0.1064573969 0)
(2.809724362 0.1058384674 0)
(2.816952419 0.1047464822 0)
(2.823148134 0.1040878883 0)
(2.82894007 0.1034446483 0)
(2.834720039 0.1020142061 0)
(2.840802788 0.1014158008 0)
(2.847395391 0.1010199491 0)
(2.854371435 0.1013955101 0)
(2.861698895 0.1015843949 0)
(2.869323129 0.101084956 0)
(2.876855335 0.1000453856 0)
(2.883493173 0.09926006606 0)
(2.888006899 0.09883805833 0)
(2.895075996 0.09776531905 0)
(2.645268845 0.1332111717 0)
(2.656105754 0.1321336145 0)
(2.66722016 0.1305824527 0)
(2.679001378 0.1300686955 0)
(2.690629986 0.130403059 0)
(2.700567345 0.1302235404 0)
(2.708640486 0.1290045319 0)
(2.716291151 0.1272067318 0)
(2.724528374 0.1260978638 0)
(2.732803889 0.1260794376 0)
(2.740623593 0.1257198091 0)
(2.748620478 0.1248312451 0)
(2.757184027 0.1236915258 0)
(2.766195227 0.122996457 0)
(2.775450587 0.12224256 0)
(2.784921627 0.1222904563 0)
(2.794183875 0.1219430329 0)
(2.801770754 0.1211535028 0)
(2.807426363 0.1192299817 0)
(2.81222607 0.1160711561 0)
(2.817034703 0.1135702878 0)
(2.82281392 0.1121197561 0)
(2.829950517 0.112094228 0)
(2.837405387 0.1135247295 0)
(2.844349744 0.1139784941 0)
(2.851092929 0.1139648335 0)
(2.858163219 0.1136182382 0)
(2.865544008 0.112824926 0)
(2.872474685 0.1114906362 0)
(2.878041535 0.1101609043 0)
(2.881496216 0.109193029 0)
(2.887650798 0.1075850364 0)
(2.64462344 0.1469349163 0)
(2.655454417 0.1468599626 0)
(2.666208499 0.1457954623 0)
(2.676478591 0.1440611256 0)
(2.687062039 0.1431358504 0)
(2.697259404 0.1427713454 0)
(2.705742342 0.1412399599 0)
(2.713205582 0.1383907657 0)
(2.721266178 0.136374446 0)
(2.729822691 0.1366362568 0)
(2.737570282 0.1366473066 0)
(2.745368921 0.136231495 0)
(2.753979742 0.1358725985 0)
(2.763714119 0.1362224203 0)
(2.774314435 0.1363729749 0)
(2.783859164 0.1363932443 0)
(2.791548621 0.1348333323 0)
(2.797708176 0.1324802746 0)
(2.803128142 0.130117472 0)
(2.809102736 0.1283970584 0)
(2.816137339 0.1278286538 0)
(2.823128163 0.1265127618 0)
(2.829500138 0.1251989242 0)
(2.835266514 0.1252320847 0)
(2.840920103 0.1249119811 0)
(2.847182819 0.1249291563 0)
(2.854538825 0.1251426683 0)
(2.862005168 0.1244896956 0)
(2.868501134 0.1231622915 0)
(2.873848465 0.122111973 0)
(2.877905066 0.1214960545 0)
(2.885583358 0.1200676357 0)
(2.646395557 0.1618598613 0)
(2.656699969 0.1620079045 0)
(2.666622311 0.1603861605 0)
(2.67708443 0.1584933722 0)
(2.688072801 0.157361869 0)
(2.698430347 0.1564163533 0)
(2.708008058 0.1548359286 0)
(2.716173766 0.1525711922 0)
(2.721813834 0.1495542346 0)
(2.727301514 0.1487776596 0)
(2.735329991 0.1495513071 0)
(2.743977473 0.1496645273 0)
(2.752328338 0.1490578176 0)
(2.76104809 0.1483966093 0)
(2.771006241 0.1477828611 0)
(2.780222426 0.1474394564 0)
(2.788014837 0.1457884311 0)
(2.795023543 0.1440967692 0)
(2.802101124 0.1430409041 0)
(2.808625838 0.1417974649 0)
(2.813844054 0.1401215448 0)
(2.81844592 0.1372219897 0)
(2.823540814 0.1351296769 0)
(2.830584795 0.135737405 0)
(2.837607489 0.135948712 0)
(2.843730736 0.1356368937 0)
(2.850517642 0.1348910665 0)
(2.857892043 0.1337144625 0)
(2.864718075 0.1330622906 0)
(2.870627484 0.1327540029 0)
(2.875225706 0.1321006483 0)
(2.883341977 0.1305037728 0)
(2.652445606 0.1752966739 0)
(2.662450638 0.1753449795 0)
(2.672248863 0.1750855444 0)
(2.680656204 0.1741876852 0)
(2.688423282 0.1715891415 0)
(2.697413924 0.1691219427 0)
(2.70586518 0.1665790013 0)
(2.712875594 0.1637652468 0)
(2.720674616 0.1625578159 0)
(2.730308745 0.1631610467 0)
(2.739431861 0.1630846312 0)
(2.748774554 0.1630666431 0)
(2.75848935 0.1633604963 0)
(2.767820968 0.1635690142 0)
(2.77538147 0.1625701473 0)
(2.782629183 0.1617482167 0)
(2.790089717 0.1602830713 0)
(2.796792027 0.1587876655 0)
(2.802204224 0.1569082223 0)
(2.80684431 0.153974561 0)
(2.811652176 0.1520587578 0)
(2.818159262 0.1512211609 0)
(2.826395596 0.1507927488 0)
(2.833880651 0.1498880742 0)
(2.841755538 0.1494414988 0)
(2.849930065 0.1494135142 0)
(2.856729342 0.1486093198 0)
(2.862371526 0.1472207716 0)
(2.867137633 0.1462735467 0)
(2.871591288 0.1453698277 0)
(2.875858619 0.1443795084 0)
(2.883778932 0.1425281438 0)
(2.649847217 0.1887278293 0)
(2.659410712 0.1885793088 0)
(2.667358597 0.1879890398 0)
(2.676129467 0.1872652427 0)
(2.685372134 0.1847941199 0)
(2.69383008 0.1814925963 0)
(2.702849684 0.1801181663 0)
(2.711205945 0.1784347395 0)
(2.718688505 0.1758358166 0)
(2.726939453 0.1748160438 0)
(2.736381822 0.1743550014 0)
(2.745562199 0.1741253931 0)
(2.754458068 0.1739257334 0)
(2.763008568 0.1740829656 0)
(2.771076706 0.1736260359 0)
(2.778685569 0.1732186284 0)
(2.785655809 0.1716279214 0)
(2.791693078 0.1694842983 0)
(2.797225698 0.1671844262 0)
(2.803000484 0.1648509687 0)
(2.809383326 0.1640709327 0)
(2.816238341 0.1632597479 0)
(2.823089808 0.1615373177 0)
(2.83060418 0.1601894074 0)
(2.838914867 0.1593086314 0)
(2.846853016 0.1584723013 0)
(2.853344953 0.1575816682 0)
(2.858861769 0.1564857865 0)
(2.86394167 0.1558723509 0)
(2.869241349 0.1552830696 0)
(2.873932023 0.1543161138 0)
(2.881977006 0.1526357654 0)
(2.647426122 0.2028789013 0)
(2.657455078 0.2034161941 0)
(2.666825321 0.2028416271 0)
(2.675652139 0.2012884349 0)
(2.684618272 0.199014222 0)
(2.69610256 0.1964616704 0)
(2.706578017 0.1932828364 0)
(2.716569083 0.1915307965 0)
(2.724557791 0.1896449952 0)
(2.728074849 0.1891387169 0)
(2.734432701 0.1888809042 0)
(2.743056669 0.1884456918 0)
(2.751742351 0.1880969401 0)
(2.759918246 0.188162678 0)
(2.767863886 0.187560792 0)
(2.775424675 0.1869862274 0)
(2.782481657 0.185248335 0)
(2.788856232 0.1829397713 0)
(2.794777568 0.1806502175 0)
(2.800727074 0.1784778914 0)
(2.807137838 0.1773970982 0)
(2.814263231 0.1757283455 0)
(2.821787924 0.1736994168 0)
(2.829407035 0.1723400689 0)
(2.836987482 0.1711130158 0)
(2.844035242 0.1702855701 0)
(2.850297077 0.1694153251 0)
(2.856008817 0.1682347249 0)
(2.861360943 0.16740485 0)
(2.866784738 0.1664468951 0)
(2.871443721 0.1654732432 0)
(2.879406214 0.1638772244 0)
(2.649383334 0.2172531894 0)
(2.658980315 0.2181771711 0)
(2.666925927 0.2172118261 0)
(2.674505002 0.2147506178 0)
(2.68394896 0.2122612751 0)
(2.693739684 0.2092823093 0)
(2.70462753 0.2064440002 0)
(2.713394969 0.204375402 0)
(2.720622774 0.2048992051 0)
(2.729330272 0.2029709894 0)
(2.738497374 0.2013405378 0)
(2.747581208 0.2007158179 0)
(2.756067307 0.2007471641 0)
(2.764068935 0.2011179853 0)
(2.771905736 0.2006358858 0)
(2.779358529 0.2001127803 0)
(2.786311228 0.1983463344 0)
(2.792661328 0.1957847946 0)
(2.79878384 0.1932013993 0)
(2.805099888 0.1908099214 0)
(2.81159356 0.1893632418 0)
(2.818445199 0.1873263525 0)
(2.825686035 0.1853311689 0)
(2.83310692 0.184138301 0)
(2.840487175 0.1832731571 0)
(2.847346518 0.1827022374 0)
(2.853564029 0.1818269515 0)
(2.859290382 0.1806318453 0)
(2.864596781 0.1796555139 0)
(2.869888119 0.1786815712 0)
(2.874459102 0.1778705934 0)
(2.882422462 0.1761844021 0)
(2.646411787 0.2310527774 0)
(2.655173555 0.2312670084 0)
(2.664273805 0.2301182574 0)
(2.674669902 0.2280112101 0)
(2.684929702 0.2257295362 0)
(2.693944831 0.2226582086 0)
(2.701205689 0.2200187665 0)
(2.707913237 0.2187889456 0)
(2.715559166 0.2175445326 0)
(2.725445814 0.2142417746 0)
(2.735343944 0.2126750799 0)
(2.744542479 0.2119843662 0)
(2.752937231 0.2120160898 0)
(2.760735086 0.2123244331 0)
(2.768363779 0.2117365702 0)
(2.775744433 0.2112058227 0)
(2.782778566 0.2096551322 0)
(2.789276298 0.2072603459 0)
(2.79551975 0.2045602903 0)
(2.801956044 0.2018698818 0)
(2.808551182 0.2000042909 0)
(2.815419688 0.1977053755 0)
(2.822484962 0.1956515356 0)
(2.829656192 0.1942743502 0)
(2.836837563 0.1933374658 0)
(2.843789507 0.1928846581 0)
(2.850276636 0.192019997 0)
(2.856161339 0.1909483603 0)
(2.861492389 0.1898658733 0)
(2.866854363 0.1887837923 0)
(2.871403799 0.1880690784 0)
(2.879095337 0.1861065472 0)
(2.643644259 0.2450633472 0)
(2.652439247 0.244611189 0)
(2.662094322 0.2440261467 0)
(2.671976745 0.2414239105 0)
(2.681030949 0.2390162708 0)
(2.689423637 0.2367838716 0)
(2.697300932 0.2353680895 0)
(2.705663085 0.2343231335 0)
(2.715508464 0.2322013231 0)
(2.725820258 0.229380612 0)
(2.735206586 0.2278457325 0)
(2.743874209 0.2271347665 0)
(2.751760971 0.227150062 0)
(2.758822236 0.2273647172 0)
(2.765584738 0.2265194724 0)
(2.772382016 0.225704271 0)
(2.779329061 0.2241123626 0)
(2.786054629 0.2217025032 0)
(2.792640026 0.2187518736 0)
(2.799453759 0.2157811132 0)
(2.80630953 0.2137108638 0)
(2.813167223 0.2114113444 0)
(2.819883989 0.2094969484 0)
(2.8264508 0.2081094829 0)
(2.833041509 0.20719489 0)
(2.839628301 0.2065989303 0)
(2.84583585 0.2049902041 0)
(2.851646712 0.2037240851 0)
(2.857376316 0.2026220541 0)
(2.863350236 0.2016321361 0)
(2.86833143 0.2013464312 0)
(2.876007851 0.1992821259 0)
(2.641608678 0.2589063687 0)
(2.654022366 0.2580917862 0)
(2.66585066 0.2558007498 0)
(2.676208396 0.2536890662 0)
(2.684565044 0.2515735998 0)
(2.692957317 0.2498498363 0)
(2.701917106 0.2486029166 0)
(2.711614155 0.2470536405 0)
(2.721951549 0.2443327939 0)
(2.732097596 0.2415074831 0)
(2.741303798 0.2399152831 0)
(2.749751104 0.2391067906 0)
(2.757358706 0.2390056845 0)
(2.763969176 0.2392738653 0)
(2.770081072 0.2385506912 0)
(2.776292416 0.2377569664 0)
(2.78296095 0.2363252883 0)
(2.789644596 0.2342862011 0)
(2.796238507 0.2311637443 0)
(2.803138318 0.2277698059 0)
(2.810124134 0.2255413062 0)
(2.81704834 0.223381765 0)
(2.82358338 0.2216057086 0)
(2.829726595 0.2203077625 0)
(2.835792688 0.2190205652 0)
(2.842588619 0.2188084058 0)
(2.849723922 0.2181379646 0)
(2.854814576 0.2166477132 0)
(2.859250871 0.2142702091 0)
(2.865612274 0.2129613334 0)
(2.871421097 0.2128397193 0)
(2.879537303 0.210763816 0)
(2.643124652 0.2723095083 0)
(2.652235751 0.2713763052 0)
(2.662766961 0.2687300343 0)
(2.67209737 0.2666268668 0)
(2.680722866 0.2642819543 0)
(2.68921113 0.2625629406 0)
(2.698325782 0.2612619866 0)
(2.708430299 0.2595926942 0)
(2.718795007 0.2569610763 0)
(2.728545044 0.2539112742 0)
(2.737446284 0.2519613665 0)
(2.74576054 0.2508339501 0)
(2.753271149 0.2502157599 0)
(2.7599105 0.2500572809 0)
(2.766252614 0.2492336109 0)
(2.772764881 0.2484177123 0)
(2.779693431 0.2469378335 0)
(2.786616473 0.2451197157 0)
(2.793641417 0.2425718166 0)
(2.801220117 0.2392669109 0)
(2.808922453 0.2373741362 0)
(2.816387854 0.2357250894 0)
(2.823082019 0.2343420341 0)
(2.82897897 0.2330806979 0)
(2.834739862 0.2316146362 0)
(2.840361743 0.230822201 0)
(2.846747386 0.2304999375 0)
(2.852350272 0.2287514895 0)
(2.857891406 0.2255061826 0)
(2.864107649 0.2233314629 0)
(2.868937113 0.2230268421 0)
(2.876159776 0.2205633296 0)
(2.641236411 0.2858061976 0)
(2.649631211 0.2850390474 0)
(2.657722203 0.2826572873 0)
(2.66575425 0.2799986394 0)
(2.674072777 0.2771622314 0)
(2.683125913 0.2764568701 0)
(2.693154113 0.275768058 0)
(2.703735452 0.2743433768 0)
(2.713961247 0.2721980914 0)
(2.723499078 0.269449443 0)
(2.732620914 0.2675789872 0)
(2.741297096 0.2665437847 0)
(2.748818698 0.2656788461 0)
(2.755461755 0.2649521294 0)
(2.762249531 0.26353022 0)
(2.769464877 0.2622190314 0)
(2.777126355 0.2605887776 0)
(2.784775588 0.2590723944 0)
(2.792415206 0.2566086665 0)
(2.800309611 0.2518280435 0)
(2.808882538 0.2494059455 0)
(2.817278739 0.247940521 0)
(2.825127918 0.2469274224 0)
(2.832902484 0.2458348723 0)
(2.840584306 0.2446607773 0)
(2.847804959 0.2441495007 0)
(2.853340155 0.242347499 0)
(2.859876521 0.2408742905 0)
(2.865895502 0.238834594 0)
(2.867335572 0.2361017879 0)
(2.866920088 0.2362436861 0)
(2.872205922 0.2335246641 0)
(2.64362055 0.299290577 0)
(2.654949966 0.2990708612 0)
(2.662185786 0.2986976177 0)
(2.667927308 0.2969702018 0)
(2.676144936 0.2938883406 0)
(2.685235096 0.2906667573 0)
(2.695929847 0.2888730306 0)
(2.707211029 0.2875247657 0)
(2.717674512 0.2858919332 0)
(2.727284725 0.2831869009 0)
(2.736643817 0.280461574 0)
(2.745906681 0.279091682 0)
(2.753681854 0.2780746695 0)
(2.759898358 0.2767246638 0)
(2.766250025 0.2747744787 0)
(2.773339507 0.2732407587 0)
(2.78113792 0.2713468318 0)
(2.789089122 0.2695175812 0)
(2.796721064 0.2677013985 0)
(2.804613085 0.2646694158 0)
(2.809071676 0.2620821311 0)
(2.815282244 0.2608539166 0)
(2.823366459 0.2602334902 0)
(2.831619684 0.2586767797 0)
(2.839727666 0.2562138795 0)
(2.846383499 0.2547292332 0)
(2.852056592 0.25140435 0)
(2.857750039 0.2496705864 0)
(2.862347068 0.248043447 0)
(2.865977747 0.2491377288 0)
(2.868084169 0.2480535748 0)
(2.875168061 0.244582379 0)
(2.641529675 0.3136143596 0)
(2.649868467 0.3118957857 0)
(2.656907838 0.3112843646 0)
(2.664580346 0.3102147164 0)
(2.672585243 0.3075778568 0)
(2.682387944 0.3042287177 0)
(2.693543175 0.3018342644 0)
(2.704797079 0.300342055 0)
(2.715186572 0.2990129375 0)
(2.724832405 0.2969583015 0)
(2.733870038 0.2942989516 0)
(2.742359696 0.2919782076 0)
(2.749599487 0.2905443355 0)
(2.755850391 0.2884992086 0)
(2.762719242 0.2856635475 0)
(2.770469669 0.2837168951 0)
(2.779040828 0.2819783833 0)
(2.787735651 0.2806109221 0)
(2.794840749 0.2787568304 0)
(2.799964409 0.277118556 0)
(2.809395369 0.2751496631 0)
(2.818443081 0.2723499935 0)
(2.827827408 0.27116988 0)
(2.836360375 0.2705153486 0)
(2.841006657 0.2687243545 0)
(2.843022686 0.2676317838 0)
(2.847320493 0.2647506952 0)
(2.852511642 0.2626941512 0)
(2.856888207 0.2598121618 0)
(2.860258637 0.2594618687 0)
(2.864019557 0.2573950038 0)
(2.872281871 0.2539890814 0)
(2.63540347 0.3260541067 0)
(2.645037724 0.3254168732 0)
(2.654799127 0.3244733846 0)
(2.664960056 0.3232127456 0)
(2.675210585 0.3205619235 0)
(2.685346873 0.3182791509 0)
(2.694141653 0.3155716074 0)
(2.70274026 0.3139957794 0)
(2.712295323 0.3128341896 0)
(2.722098854 0.3107051264 0)
(2.731236217 0.3092263421 0)
(2.736733501 0.3065777177 0)
(2.741821399 0.3049042614 0)
(2.750025789 0.3026221145 0)
(2.759534209 0.2992046978 0)
(2.768846849 0.2968422111 0)
(2.777826845 0.2944055578 0)
(2.786589409 0.2919370879 0)
(2.794659015 0.2910997977 0)
(2.801342302 0.290979583 0)
(2.80740875 0.2875690214 0)
(2.816105817 0.2839914411 0)
(2.825193934 0.28230232 0)
(2.832018019 0.2819165953 0)
(2.838422236 0.2831604003 0)
(2.844793843 0.2802772539 0)
(2.850589894 0.2763484157 0)
(2.855761932 0.2742420764 0)
(2.859920398 0.2728442695 0)
(2.859529209 0.2720316849 0)
(2.861481532 0.2705703071 0)
(2.870252222 0.2668534364 0)
(2.637113506 0.3430811543 0)
(2.647911192 0.3402602949 0)
(2.658730236 0.3360892438 0)
(2.669252602 0.3338305724 0)
(2.678709843 0.3331837111 0)
(2.685592213 0.3314395445 0)
(2.694333506 0.3295459541 0)
(2.704728631 0.3271969378 0)
(2.715162959 0.3252635978 0)
(2.724015209 0.3239965981 0)
(2.727979174 0.3230442318 0)
(2.733927979 0.3222389826 0)
(2.742867962 0.3187326372 0)
(2.752922832 0.3145603562 0)
(2.763895947 0.3101949102 0)
(2.773525668 0.3066274307 0)
(2.782138595 0.3051578997 0)
(2.788222032 0.3038745914 0)
(2.792162706 0.3029020061 0)
(2.797654222 0.3018414207 0)
(2.806547071 0.2997567628 0)
(2.816057312 0.2974472655 0)
(2.823707138 0.296083421 0)
(2.828828328 0.2964208297 0)
(2.833643449 0.2942635568 0)
(2.840467763 0.2904874574 0)
(2.846562941 0.286623471 0)
(2.851125401 0.2839133599 0)
(2.853825795 0.2842537245 0)
(2.859124954 0.2846696637 0)
(2.864569083 0.2815227148 0)
(2.874592521 0.2772552602 0)
(2.634470373 0.3557734871 0)
(2.644897691 0.3539556859 0)
(2.656025159 0.351094457 0)
(2.664720296 0.3460041346 0)
(2.67176671 0.3446953983 0)
(2.680073224 0.3441308281 0)
(2.688653032 0.3415126649 0)
(2.698394278 0.3383187185 0)
(2.708281251 0.3360158364 0)
(2.716395155 0.335744229 0)
(2.723852048 0.3361073476 0)
(2.731123895 0.3356844186 0)
(2.740177748 0.331675882 0)
(2.750861728 0.326286702 0)
(2.762120958 0.3220302799 0)
(2.771596278 0.3188018442 0)
(2.777389575 0.3158738276 0)
(2.782050416 0.3162762271 0)
(2.788068641 0.3156504208 0)
(2.795090728 0.3146866503 0)
(2.802658997 0.3119268467 0)
(2.810354847 0.308620787 0)
(2.816376482 0.3080006544 0)
(2.822151572 0.3090384388 0)
(2.829207044 0.307271157 0)
(2.835825761 0.3043916592 0)
(2.841443896 0.3006786211 0)
(2.845276721 0.2987307492 0)
(2.848936213 0.296415273 0)
(2.855111453 0.2944799183 0)
(2.861911788 0.2913618525 0)
(2.872229432 0.2871125748 0)
(2.636527918 0.3714815039 0)
(2.645438929 0.3690520891 0)
(2.65250454 0.3649134315 0)
(2.662062787 0.3618672998 0)
(2.673036691 0.3587911101 0)
(2.683939837 0.356978908 0)
(2.693701754 0.3556492532 0)
(2.701329299 0.3534413266 0)
(2.709190594 0.3510495676 0)
(2.717213415 0.3496680673 0)
(2.72462389 0.3493236778 0)
(2.732164861 0.3477778651 0)
(2.742359463 0.3449468346 0)
(2.753111883 0.3406818852 0)
(2.760978949 0.3350136143 0)
(2.76819498 0.3317640255 0)
(2.777146244 0.3301637792 0)
(2.78440518 0.3288608926 0)
(2.791807889 0.3271333686 0)
(2.799696917 0.325489355 0)
(2.807163656 0.3245879106 0)
(2.810967643 0.3229652114 0)
(2.815813164 0.3222642761 0)
(2.823647163 0.3211594097 0)
(2.8326511 0.3188131606 0)
(2.840073209 0.3159368877 0)
(2.845495377 0.3122901559 0)
(2.84922206 0.3104782399 0)
(2.852936774 0.3084384465 0)
(2.855193846 0.3067321597 0)
(2.859740584 0.3039998368 0)
(2.869648925 0.2999626585 0)
(2.632387277 0.3830484913 0)
(2.640754438 0.3805457385 0)
(2.650438159 0.3785227043 0)
(2.659693703 0.3762254343 0)
(2.669930514 0.3721201047 0)
(2.680903493 0.3690678494 0)
(2.689583934 0.3673954646 0)
(2.697399446 0.3659261869 0)
(2.704465126 0.3643580588 0)
(2.710995632 0.3618880172 0)
(2.719014109 0.3615786725 0)
(2.729169624 0.3598635109 0)
(2.739209099 0.357140175 0)
(2.748991613 0.3525364633 0)
(2.760127226 0.3485957947 0)
(2.769295169 0.3461214343 0)
(2.774933394 0.3438964245 0)
(2.781035714 0.340307687 0)
(2.788464041 0.3378467893 0)
(2.796251989 0.3358147761 0)
(2.801822901 0.3352049728 0)
(2.806350722 0.3357447561 0)
(2.812159773 0.3345770041 0)
(2.820916806 0.3317398881 0)
(2.829912266 0.3294267922 0)
(2.836902675 0.3265784562 0)
(2.841886748 0.3231066521 0)
(2.845138659 0.3208252818 0)
(2.848917992 0.3199704813 0)
(2.856362164 0.3181902464 0)
(2.863611932 0.3147390774 0)
(2.874279843 0.3106239303 0)
(2.634019908 0.3981134615 0)
(2.642864431 0.3964432208 0)
(2.650580882 0.3938718639 0)
(2.658404094 0.3898539042 0)
(2.666793603 0.3844486102 0)
(2.675214084 0.3812855146 0)
(2.68373895 0.380267662 0)
(2.692058471 0.3793895496 0)
(2.700008891 0.3779845536 0)
(2.710160977 0.3763577216 0)
(2.721478658 0.374337786 0)
(2.732549793 0.3712167471 0)
(2.74320487 0.3686939861 0)
(2.752099259 0.3672062458 0)
(2.757312406 0.3635208665 0)
(2.761702461 0.3581343771 0)
(2.767118354 0.3556502605 0)
(2.774278858 0.3539891942 0)
(2.782307872 0.351514494 0)
(2.789839196 0.3498313815 0)
(2.795814048 0.349735537 0)
(2.80141124 0.3490115074 0)
(2.809125568 0.3460459843 0)
(2.817657728 0.3435223371 0)
(2.824462613 0.34195628 0)
(2.83063626 0.3399335746 0)
(2.835569149 0.3374494909 0)
(2.839537197 0.3351655742 0)
(2.845014511 0.3310459951 0)
(2.853396535 0.3274290024 0)
(2.86099575 0.3242087283 0)
(2.871593061 0.3205158097 0)
(2.632720168 0.4121840195 0)
(2.638257382 0.408556393 0)
(2.647062648 0.4056088769 0)
(2.658032494 0.4024412011 0)
(2.668253813 0.3995590325 0)
(2.677179686 0.3969564879 0)
(2.685325315 0.3939851378 0)
(2.694661451 0.3919753817 0)
(2.7040302 0.3913671091 0)
(2.711883088 0.3908800166 0)
(2.720160196 0.3872402101 0)
(2.730431771 0.3840121345 0)
(2.739762479 0.3810058756 0)
(2.746086938 0.3792910512 0)
(2.750984736 0.3765633006 0)
(2.758276243 0.374037159 0)
(2.767881283 0.3700906156 0)
(2.777201552 0.3665273671 0)
(2.78596553 0.3633779561 0)
(2.792978066 0.3617056503 0)
(2.798775636 0.3616233727 0)
(2.80530799 0.3608209326 0)
(2.811543931 0.3582451583 0)
(2.817953689 0.3560976586 0)
(2.826279689 0.3539346747 0)
(2.833595105 0.3516939687 0)
(2.839226644 0.349245225 0)
(2.843833424 0.3466203245 0)
(2.849149848 0.3426209303 0)
(2.852287269 0.3394351157 0)
(2.856723483 0.3369066922 0)
(2.866579034 0.333485088 0)
(2.63079426 0.42527335 0)
(2.642010861 0.4227569423 0)
(2.652725527 0.4204405033 0)
(2.661316245 0.4180146338 0)
(2.667900489 0.4149007502 0)
(2.673727663 0.4107954665 0)
(2.682807259 0.4071045101 0)
(2.691957093 0.4047046954 0)
(2.699764531 0.4035830574 0)
(2.708034283 0.4026665938 0)
(2.717572299 0.3999447112 0)
(2.72632009 0.3966820713 0)
(2.734299682 0.3935167426 0)
(2.741937949 0.3915912792 0)
(2.749346407 0.3904573712 0)
(2.756052375 0.3876074833 0)
(2.764471422 0.382674046 0)
(2.77472257 0.3787490905 0)
(2.782928168 0.3751081251 0)
(2.789457253 0.3730639336 0)
(2.795555953 0.3724437262 0)
(2.801842813 0.371251768 0)
(2.808778722 0.3701367001 0)
(2.816484169 0.3683238723 0)
(2.823884806 0.3647066976 0)
(2.830699403 0.3620769647 0)
(2.836136793 0.3597358948 0)
(2.840711494 0.3569187457 0)
(2.845475477 0.3544005726 0)
(2.852644665 0.3506881192 0)
(2.859843428 0.3474785254 0)
(2.870685976 0.344271602 0)
(2.636778578 0.4407993161 0)
(2.644151225 0.4373178322 0)
(2.649794158 0.4321778407 0)
(2.65540439 0.4288338196 0)
(2.663215824 0.4262893323 0)
(2.674392814 0.4234987241 0)
(2.686097586 0.4212672486 0)
(2.695469765 0.4200501813 0)
(2.703648148 0.4191088358 0)
(2.712734424 0.4171703861 0)
(2.721592201 0.4144177522 0)
(2.728852616 0.4121679642 0)
(2.735275272 0.4094911078 0)
(2.740654188 0.4049742579 0)
(2.745852797 0.4031145454 0)
(2.752992723 0.3996337435 0)
(2.761134874 0.3946207008 0)