/*--------------------------------*- C++ -*----------------------------------*\
  =========                 |
  \\      /  F ield         | OpenFOAM: The Open Source CFD Toolbox
   \\    /   O peration     | Website:  https://openfoam.org
    \\  /    A nd           | Version:  7
     \\/     M anipulation  |
\*---------------------------------------------------------------------------*/
FoamFile
{
    version     2.0;
    format      ascii;
    class       volScalarField;
    location    "0.2";
    object      rho;
}
// * * * * * * * * * * * * * * * * * * * * * * * * * * * * * * * * * * * * * //

dimensions      [1 -3 0 0 0 0 0];

internalField   nonuniform List<scalar> 
555
(
1.425027046
1.411950254
1.394945164
1.380707752
1.371891726
1.363702258
1.228620818
1.225401108
1.233387272
1.262710957
1.312355891
1.341680238
1.363862325
1.399553098
1.426386928
1.442548065
1.447919838
1.444573059
1.43621439
1.425411245
1.412851442
1.394773303
1.380903869
1.373006412
1.364944748
1.22898041
1.225497755
1.23057186
1.256021802
1.307708558
1.342185442
1.364512537
1.399771882
1.427978134
1.443871085
1.447617678
1.445551465
1.438500502
1.427505542
1.414959974
1.39869653
1.384546445
1.37570782
1.366907278
1.23422572
1.228270085
1.231319192
1.25466138
1.306264051
1.343869777
1.368526577
1.402722085
1.429509006
1.443984385
1.447799497
1.446236917
1.440340274
1.429300525
1.416738806
1.401436969
1.387126118
1.377586636
1.368775015
1.245053653
1.237268422
1.23545624
1.255433755
1.306272636
1.347894434
1.373825695
1.40543679
1.430420133
1.44435689
1.447962523
1.446939406
1.441901726
1.431607545
1.418995699
1.403936754
1.389893232
1.379975221
1.370647926
1.257223078
1.251329827
1.246666036
1.261812341
1.30675796
1.348961937
1.3765009
1.406302732
1.429346195
1.443546363
1.44799988
1.44723853
1.44310721
1.434206576
1.421771169
1.406563539
1.393522031
1.381637489
1.372486937
1.267419548
1.262593429
1.259113102
1.268785877
1.306802113
1.348140533
1.375037741
1.403649367
1.426200628
1.441501062
1.447806914
1.447821146
1.445054144
1.437746005
1.425706251
1.410143066
1.396376483
1.384159626
1.374594592
1.272036559
1.268440322
1.275173159
1.306329044
1.346067826
1.37129496
1.400416991
1.42257846
1.438321742
1.446652807
1.448035889
1.447106643
1.440774155
1.429269922
1.414015477
1.399265253
1.386738351
1.376656888
1.281122348
1.27788226
1.28104672
1.307527249
1.34494289
1.368631667
1.397865915
1.419329147
1.434296988
1.444213174
1.448101686
1.448756291
1.443309241
1.432051754
1.417518447
1.402091539
1.388925707
1.378927608
1.290134072
1.287572158
1.288877235
1.311778491
1.345168473
1.367880685
1.395749669
1.416472929
1.430464071
1.440809517
1.447813927
1.449530695
1.445092932
1.434180104
1.420514105
1.404033416
1.390493268
1.380964172
1.37251894
1.298860694
1.295356897
1.296912555
1.317566151
1.34762858
1.367896166
1.395237807
1.41434414
1.427248272
1.437428951
1.446383568
1.449507942
1.446279131
1.436430556
1.422966999
1.406036715
1.392188027
1.383133413
1.375096087
1.306808563
1.302781195
1.305596242
1.32419689
1.351476838
1.368472145
1.394657932
1.413165901
1.424734432
1.434281615
1.444060338
1.448718322
1.446843454
1.439004774
1.425225138
1.40791929
1.394438002
1.386193107
1.377545679
1.314111531
1.312351012
1.315075475
1.331609486
1.355728993
1.369084959
1.393418785
1.413643451
1.423719888
1.431912149
1.441441637
1.447227227
1.446881877
1.441081866
1.427893582
1.410260568
1.396986657
1.390284769
1.379795558
1.323877214
1.327941123
1.340951175
1.360804364
1.370627483
1.392237757
1.414092369
1.423981627
1.43045978
1.439176636
1.445571906
1.446256857
1.44182104
1.430772727
1.41531001
1.402444167
1.394529351
1.3813649
1.339462807
1.342609405
1.353413395
1.368002647
1.372155019
1.390697628
1.413732126
1.424239996
1.430105466
1.438186173
1.444274176
1.445574264
1.442477085
1.433586867
1.421180983
1.408313388
1.39637151
1.38233285
1.356773534
1.35829124
1.366083466
1.376206754
1.374927236
1.389660321
1.412715
1.423750616
1.429655019
1.437625817
1.443412229
1.445409496
1.443389793
1.43701607
1.425297079
1.411231176
1.396645587
1.383100524
1.367090039
1.366682592
1.376255997
1.385063899
1.378735647
1.388943598
1.411704665
1.423203593
1.429384749
1.435755125
1.441520703
1.444751225
1.444153504
1.438405878
1.426493358
1.411910372
1.396599743
1.383432657
1.373070389
1.374638178
1.386645102
1.393596556
1.386084195
1.390582372
1.411798889
1.423560391
1.429420807
1.434425206
1.439921747
1.443768198
1.44381083
1.438292453
1.425779249
1.411386828
1.396675725
1.383282097
1.375477107
1.380729395
1.396555034
1.403023849
1.39390122
1.394904235
1.412580004
1.424881235
1.430255528
1.434625192
1.439554961
1.443507182
1.443319734
1.437821121
1.424911541
1.410433719
1.396356893
1.38325449
1.37696988
1.387308565
1.407454851
1.414983764
1.403180658
1.401783097
1.415175398
1.427423698
1.432529537
1.436792121
1.440649184
1.444610347
1.443579747
1.437302391
1.425052696
1.409930527
1.396383341
1.384143312
1.395592459
1.416332027
1.426802332
1.413380118
1.409639832
1.419976961
1.43158856
1.436761097
1.441331135
1.444007533
1.445947091
1.444433523
1.43804009
1.425538494
1.410488725
1.397110685
1.385694668
1.40255389
1.424635927
1.437298394
1.423812642
1.417112854
1.424794198
1.438778049
1.44529498
1.448224765
1.445756673
1.446501725
1.444756345
1.439428628
1.426694951
1.411545001
1.399226852
1.388941662
1.405832475
1.429014993
1.445601258
1.43411429
1.424596812
1.432123209
1.447075816
1.452642243
1.452384344
1.448372504
1.447026411
1.445135798
1.439847549
1.428270641
1.414407239
1.40351658
1.391974152
1.403476247
1.428381155
1.448104113
1.440998697
1.432456674
1.439521213
1.452403326
1.458080028
1.457425286
1.450632907
1.447377461
1.444943469
1.439814821
1.429694883
1.418320363
1.407512391
1.393015558
1.378745159
1.397601108
1.425432444
1.446651075
1.44460852
1.439082908
1.446208706
1.457035518
1.462617628
1.461454358
1.452499325
1.447301299
1.444525789
1.439435184
1.431157719
1.421637551
1.408616249
1.392923302
1.378611556
1.392272172
1.42254828
1.448339506
1.448713984
1.444580284
1.451634621
1.460666487
1.465659335
1.46387775
1.45371417
1.44699383
1.443972472
1.439439545
1.433522405
1.423323326
1.408025373
1.392467672
1.378729197
1.388577673
1.419310449
1.45250065
1.455076394
1.4510307
1.456366447
1.463370286
1.467740941
1.465937324
1.455340341
1.447211114
1.444412802
1.440817917
1.436002202
1.423785981
1.407090243
1.392168408
1.379159012
1.41626435
1.454256741
1.460065472
1.456763485
1.460541535
1.465998524
1.470328044
1.469066186
1.45937528
1.449956611
1.446761557
1.443561753
1.437303705
1.423859352
1.406842675
1.392578078
1.379416219
1.41124815
1.45249364
1.46194576
1.459680318
1.463250305
1.469019627
1.473398455
1.473023122
1.463712946
1.45342366
1.449423395
1.446454044
1.438468581
1.423776924
1.407220215
1.39312682
1.379214557
1.401859353
1.445809091
1.45962197
1.459495493
1.464668372
1.472363152
1.476412646
1.476026825
1.468011811
1.457123705
1.453442457
1.448492645
1.438985876
1.424037919
1.408086288
1.393320396
1.379083739
1.389125544
1.435080324
1.453336908
1.45728982
1.464771721
1.474004786
1.478313521
1.477742193
1.472982581
1.462967422
1.456831923
1.4492541
1.438797194
1.424263282
1.409205637
1.393878171
1.380091051
1.377263767
1.426589414
1.4493626
1.455267594
1.464101346
1.473549664
)
;

boundaryField
{
    inlet
    {
        type            calculated;
        value           nonuniform 0();
    }
    outlet
    {
        type            calculated;
        value           nonuniform 0();
    }
    bottom
    {
        type            calculated;
        value           nonuniform 0();
    }
    top
    {
        type            calculated;
        value           nonuniform 0();
    }
    obstacle
    {
        type            calculated;
        value           nonuniform 0();
    }
    defaultFaces
    {
        type            empty;
    }
    procBoundary22to16
    {
        type            processor;
        value           nonuniform List<scalar> 
20
(
1.426796777
1.413559585
1.39808406
1.383906475
1.373473617
1.365039394
1.229984671
1.227858649
1.234180413
1.264123244
1.313474437
1.342523706
1.365756145
1.400439693
1.426738717
1.442667025
1.447147393
1.444814619
1.4360459
1.4360459
)
;
    }
    procBoundary22to17
    {
        type            processor;
        value           uniform 1.356524263;
    }
    procBoundary22to21
    {
        type            processor;
        value           nonuniform List<scalar> 
35
(
1.228737064
1.231548518
1.232965043
1.237393571
1.246263476
1.254898309
1.276370915
1.276370915
1.282995334
1.287857527
1.293883085
1.301000349
1.307434062
1.324109645
1.324109645
1.335964453
1.347548017
1.357542119
1.361735601
1.36225252
1.364148592
1.382543474
1.382543474
1.388634374
1.391966039
1.390976973
1.388259738
1.385191518
1.382937453
1.384970997
1.384970997
1.380904487
1.37445545
1.367199619
1.360350535
)
;
    }
    procBoundary22to23
    {
        type            processor;
        value           nonuniform List<scalar> 
32
(
1.357208656
1.358215656
1.359121288
1.360738582
1.363085373
1.365489556
1.367613541
1.370050367
1.370050367
1.363513015
1.365216458
1.366613004
1.367677664
1.368597923
1.369569809
1.370702117
1.371618045
1.372192179
1.372693665
1.373809274
1.376235346
1.378362447
1.37870788
1.37870788
1.366525939
1.367170233
1.367915713
1.368506861
1.368756171
1.368883865
1.369145629
1.369959762
)
;
    }
    procBoundary22to28
    {
        type            processor;
        value           nonuniform List<scalar> 
18
(
1.478908319
1.480079714
1.477886189
1.467918117
1.458033227
1.449216438
1.437828284
1.424110959
1.409419054
1.394576584
1.381317286
1.36692474
1.419434188
1.445614847
1.453338648
1.462737543
1.478908319
1.47158317
)
;
    }
}


// ************************************************************************* //
