/*--------------------------------*- C++ -*----------------------------------*\
  =========                 |
  \\      /  F ield         | OpenFOAM: The Open Source CFD Toolbox
   \\    /   O peration     | Website:  https://openfoam.org
    \\  /    A nd           | Version:  7
     \\/     M anipulation  |
\*---------------------------------------------------------------------------*/
FoamFile
{
    version     2.0;
    format      ascii;
    class       volScalarField;
    location    "0.3";
    object      p;
}
// * * * * * * * * * * * * * * * * * * * * * * * * * * * * * * * * * * * * * //

dimensions      [1 -1 -2 0 0 0 0];

internalField   nonuniform List<scalar> 
555
(
0.6223416735
0.7564630934
0.8903348894
0.9586946537
0.9741183079
0.9797604932
0.9456250985
0.929152181
0.523506071
0.5023588514
0.5188794714
0.5519672658
0.5491455899
0.5356670301
0.5385829136
0.5448525865
0.558205494
0.597920992
0.7149698179
0.8765859246
0.9574641436
0.9733373896
0.9818273791
0.9476028485
0.9293418792
0.5267972977
0.5021201582
0.5150451197
0.5498619586
0.5511733171
0.5353362615
0.5373924272
0.5421926249
0.5542695015
0.5866039839
0.6716835821
0.8332358071
0.9468920909
0.9693266528
0.9843756417
0.9497684202
0.9298569022
0.5305494733
0.5025925069
0.511217057
0.5474864243
0.5532660838
0.5352415358
0.5357414159
0.5396293531
0.5502304301
0.5767612324
0.6489595817
0.7817651085
0.9131496385
0.9636684427
0.986432469
0.9520518392
0.9308382679
0.534724714
0.5034013976
0.5074156746
0.5449227834
0.5554110514
0.5349178484
0.534746575
0.5385132117
0.5472640673
0.5649250942
0.6259041677
0.7565875019
0.8892241163
0.9603514395
0.9876347662
0.9545011752
0.9306645408
0.9537942673
0.5392585854
0.5053870312
0.5035729134
0.5424115548
0.5575735051
0.5350099089
0.5341038319
0.5371291555
0.544458862
0.5585093368
0.6009804445
0.7288989963
0.8807600653
0.9586329822
0.9883797915
0.9565141488
0.9293358478
0.9521633594
0.5440825788
0.5080198814
0.4997825524
0.5401151418
0.5598752588
0.5358038113
0.5335905337
0.5353900802
0.5417059085
0.5550472072
0.5860912616
0.6818913193
0.8604095961
0.9502390305
0.9879774333
0.9581152454
0.9276953882
0.9491251499
0.549014704
0.5109892864
0.4959619971
0.5380253641
0.5620126398
0.5363938936
0.5326836351
0.5343526757
0.54025894
0.5501038786
0.5768721054
0.6471896913
0.8096837699
0.9309952693
0.9860196106
0.9597075395
0.9267588547
0.9469275121
0.5536478292
0.5145646419
0.4926215486
0.5366160151
0.5645629115
0.5372623157
0.5320459543
0.5336147643
0.5394305002
0.5468687652
0.5660685958
0.6280166573
0.7566570269
0.9087112392
0.9808254991
0.960713439
0.9263428172
0.9457342144
0.5577527969
0.517837022
0.4896872103
0.5363632148
0.5665926571
0.5404888592
0.5317785468
0.5327984234
0.5381398315
0.5451081738
0.5589478116
0.6075319914
0.7233925808
0.8808314044
0.9774929253
0.9617077799
0.9265978132
0.9455284817
0.56095492
0.5214870658
0.4886034373
0.5397377685
0.5699603818
0.5436326183
0.5310851429
0.5317680449
0.5368363676
0.5434058094
0.5549590721
0.5893909057
0.696388524
0.8493188374
0.970307119
0.9623006289
0.9271974993
0.9463520614
0.5842535659
0.5281647927
0.4800872216
0.5354017554
0.5706420738
0.5485780426
0.5317550663
0.5307332062
0.5354920915
0.5413502324
0.5496505573
0.5730408454
0.6546225549
0.8039327418
0.9591552884
0.9615464944
0.9278903613
0.9463364107
1.0900964
0.6716371819
0.5688894164
0.5740071184
0.5778313893
0.5613966519
0.5373457189
0.5310708111
0.5326153688
0.5360859711
0.5388036
0.5442596229
0.5718133043
0.6680906886
0.8204498581
0.8805677395
0.9153062564
0.938982926
1.382781421
1.15322379
0.9114448308
0.748647897
0.6390756262
0.5654233307
0.5449658164
0.5381500908
0.543913586
0.5467233608
0.5422513146
0.5359049723
0.5351808699
0.5447085842
0.5884011776
0.7018585045
0.8528684294
0.906258755
1.44290983
1.360458913
1.17295598
0.9533356547
0.7699472945
0.6698168674
0.625061782
0.6014571589
0.5826307132
0.5573750503
0.5381264557
0.5339164423
0.5385018136
0.5417355771
0.5377161492
0.5563185985
0.6323297778
0.7454015929
1.447143248
1.426400101
1.344497655
1.17975414
1.001613097
0.8616531949
0.7457657045
0.6748123733
0.6153696406
0.5701753388
0.5626041664
0.5638710962
0.5581621199
0.5443221889
0.5334442998
0.5289564577
0.537041058
0.5818081939
1.448731466
1.442435177
1.414760334
1.330883167
1.194431823
1.029165396
0.8951700677
0.7857451955
0.7114040542
0.6662372637
0.6348570715
0.6071488407
0.5735250203
0.5474398319
0.536490867
0.5372416138
0.5353575024
0.5325891467
1.454849623
1.449297014
1.438613196
1.404338713
1.321329582
1.199716728
1.063921233
0.9349926908
0.8484511873
0.765374747
0.6976313919
0.6478484173
0.6096546806
0.5887497629
0.5763697232
0.5622665839
0.5438239216
0.5314245286
1.461326912
1.456769346
1.449918127
1.433523267
1.393096225
1.316188
1.203971321
1.08539604
0.9641431731
0.8752767133
0.7894912731
0.7301779136
0.6997107628
0.6592690201
0.6213794509
0.5844911185
0.5562576294
0.5419622873
1.472087203
1.469393391
1.46057925
1.448776191
1.428448059
1.384546003
1.312350301
1.211140013
1.094879358
0.9996777622
0.9078713744
0.8270327037
0.7688833951
0.7154372809
0.6619761032
0.6260073754
0.6115638063
0.5927992237
1.47184922
1.470001312
1.465161103
1.458660355
1.447076504
1.424072341
1.378792743
1.307534689
1.213977449
1.106716089
1.019058573
0.9246276008
0.8504091993
0.7959314618
0.7371323373
0.6990023108
0.6701289448
0.6322186021
1.439205189
1.455420105
1.462501323
1.464041562
1.458821116
1.445597797
1.419542987
1.374199361
1.305504726
1.214499473
1.121225743
1.034105974
0.9437831876
0.8804640106
0.8193224944
0.7614290854
0.7135522543
0.6776699151
1.370022514
1.440167352
1.46399636
1.466436268
1.46407107
1.456984153
1.443770038
1.416588626
1.370338601
1.301708599
1.215175364
1.131251319
1.040020507
0.9596103772
0.8957038896
0.8310091413
0.7779190477
0.7476624084
1.186172478
1.330000435
1.42380805
1.462082029
1.460626302
1.460255604
1.456777759
1.442791817
1.412973736
1.3654466
1.297375433
1.216680582
1.13638257
1.047738844
0.9755319312
0.9085507644
0.8499017922
0.8067655195
1.039905709
1.183536991
1.35346575
1.452095883
1.453622468
1.460092451
1.460873375
1.455100862
1.439023941
1.408583904
1.361154622
1.2938395
1.21760184
1.135918047
1.054063963
0.9859575485
0.9208563035
0.8648403124
1.003510507
1.05881849
1.188894608
1.347028442
1.404580334
1.447413274
1.46038876
1.459528838
1.455140889
1.4386682
1.406056708
1.355871714
1.288667584
1.214118129
1.135803342
1.060265409
0.9954630446
0.9345902773
1.000131439
1.010497355
1.061720673
1.18821758
1.343950612
1.439135778
1.454471241
1.458695086
1.458687917
1.452825933
1.43360288
1.39858333
1.346665473
1.280709646
1.208281155
1.135344591
1.065136393
1.004635978
1.000002251
1.001137873
1.011892346
1.066996796
1.195670847
1.352943837
1.406503689
1.446282333
1.458526113
1.455934369
1.447442036
1.427580875
1.390992018
1.337347541
1.271433314
1.202653817
1.135494353
1.071357966
1.000000018
1.000079327
1.001386298
1.014467118
1.07268458
1.194040243
1.337297312
1.433068041
1.451093794
1.454274395
1.452995346
1.445258501
1.422456112
1.381788636
1.326605281
1.263040314
1.199361403
1.13727943
1
1.0000035
1.000100319
1.001982908
1.016123273
1.071896435
1.199253791
1.340679211
1.40289513
1.446347737
1.45499604
1.451779688
1.440745058
1.413685918
1.370168201
1.316245747
1.257353496
1.199054729
1
1.000000098
1.000004493
1.000177894
1.002216972
1.016486001
1.075938354
1.193390722
1.338134949
1.432820494
1.450433491
1.449366413
1.443227199
1.429058068
1.400196411
1.358123425
1.308800272
1.254558997
1
1.000000002
1.000000134
1.000010199
1.000188205
1.002554853
1.01695477
1.07645242
1.204336069
1.337175728
)
;

boundaryField
{
    inlet
    {
        type            fixedValue;
        value           nonuniform 0();
    }
    outlet
    {
        type            zeroGradient;
    }
    bottom
    {
        type            slip;
    }
    top
    {
        type            slip;
    }
    obstacle
    {
        type            zeroGradient;
    }
    defaultFaces
    {
        type            empty;
    }
    procBoundary27to20
    {
        type            processor;
        value           nonuniform List<scalar> 
16
(
1.457539749
1.450842351
1.448002334
1.448465081
1.451806593
1.463944995
1.46171403
1.467950225
1.466904787
1.401524041
1.244151641
1.067029188
1.004770091
1.000020285
0.9999999798
0.9999999947
)
;
    }
    procBoundary27to21
    {
        type            processor;
        value           nonuniform List<scalar> 
18
(
0.6487273446
0.7775445583
0.9019070395
0.9576978418
0.9741285772
0.9786687259
0.945462109
0.9305783708
0.5206413497
0.5030500367
0.5226312697
0.5537981994
0.547564217
0.5361499434
0.5390517303
0.5459492952
0.5645583429
0.5645583429
)
;
    }
    procBoundary27to26
    {
        type            processor;
        value           nonuniform List<scalar> 4(0.9999999997 1 1 1);
    }
    procBoundary27to28
    {
        type            processor;
        value           nonuniform List<scalar> 
28
(
0.9503598313
0.9510515543
0.952179508
0.9537574957
0.9537574957
0.9564635063
0.9555943452
0.9545573679
0.9541869444
0.954297288
0.9547685427
0.9560435903
0.9563781112
0.9528642792
0.9417263665
0.8697609953
0.6680238008
0.5446895209
0.5271586997
0.5398986872
0.5730395777
0.5966670716
0.6468060051
0.7094002117
0.7621118875
0.8238244105
0.8879592211
0.9486175233
)
;
    }
    procBoundary27to33
    {
        type            processor;
        value           nonuniform List<scalar> 
19
(
1.405245033
1.439327062
1.44047319
1.43447786
1.418429899
1.389883105
1.350710704
1.30445089
1
1
1.000000003
1.000000373
1.000010594
1.000252202
1.0025478
1.019295974
1.077873893
1.405245033
1.193303127
)
;
    }
    procBoundary27to34
    {
        type            processor;
        value           nonuniform List<scalar> 4(1.014082577 1.078016456 1.140549852 1.199482398);
    }
}


// ************************************************************************* //
