/*--------------------------------*- C++ -*----------------------------------*\
  =========                 |
  \\      /  F ield         | OpenFOAM: The Open Source CFD Toolbox
   \\    /   O peration     | Website:  https://openfoam.org
    \\  /    A nd           | Version:  7
     \\/     M anipulation  |
\*---------------------------------------------------------------------------*/
FoamFile
{
    version     2.0;
    format      ascii;
    class       volVectorField;
    location    "4.2";
    object      U;
}
// * * * * * * * * * * * * * * * * * * * * * * * * * * * * * * * * * * * * * //

dimensions      [0 1 -1 0 0 0 0];

internalField   nonuniform List<vector> 
2222
(
(3.199801632 0.0001768970083 0)
(3.200204676 0.0002741382941 0)
(3.20051132 0.0001541154759 0)
(3.200730475 0.0001480559387 0)
(3.200690486 -0.0001678153156 0)
(3.200728771 -0.0002169501768 0)
(3.20053713 -6.472298609e-05 0)
(3.200093777 -0.0001827945768 0)
(3.199610225 -0.0002148022783 0)
(3.199278898 -0.0003952095883 0)
(3.199028167 -0.0003438040709 0)
(3.198948575 -0.00037508305 0)
(3.199029728 -0.0002672691663 0)
(3.199169382 0.0001543906653 0)
(3.199414717 0.0003592843482 0)
(3.199695651 0.0005688032523 0)
(3.201089195 0.003082315644 0)
(3.20140374 0.001730223479 0)
(3.201222016 0.0007674882911 0)
(3.200895451 -0.0002373895031 0)
(3.200540805 -0.0002437080767 0)
(3.200638657 7.298828956e-05 0)
(3.200765045 0.0001212842459 0)
(3.200984098 -0.0001117391641 0)
(3.200927711 -0.0002937388348 0)
(3.200790605 -0.0004171394975 0)
(3.200955381 -0.0003992234256 0)
(3.201110153 -0.0005288608203 0)
(3.201164593 -0.0007420531061 0)
(3.201034472 -0.0009672933704 0)
(3.200874147 -0.001384526199 0)
(3.200662673 -0.001424481379 0)
(3.200248018 -0.001471843607 0)
(3.199676848 -0.0008522571385 0)
(3.199321918 -0.0003676296107 0)
(3.199275351 -0.0002263686067 0)
(3.199440085 -0.0004534342431 0)
(3.199537666 -0.0004166131435 0)
(3.199608588 -5.965574622e-05 0)
(3.199783823 0.0002788718508 0)
(3.200129023 0.0004360269795 0)
(3.200419343 0.0004000879194 0)
(3.200609087 0.00044982893 0)
(3.200652539 0.0002076820097 0)
(3.200483027 4.043170369e-05 0)
(3.20018418 0.0001159689843 0)
(3.199818466 0.000208060142 0)
(3.199587911 0.0002061726785 0)
(3.199396241 0.0002647672501 0)
(3.19912924 0.0001617749422 0)
(3.198932376 8.268593906e-05 0)
(3.198962868 2.967647054e-05 0)
(3.199194579 0.0001765254663 0)
(3.199360347 0.0002767594546 0)
(3.199631355 0.0005041328955 0)
(3.200718658 0.002453662389 0)
(3.201223702 0.001597712967 0)
(3.201064244 0.0007592206266 0)
(3.200652092 0.0003629211034 0)
(3.200203631 0.0002912390513 0)
(3.200275617 0.0004191399367 0)
(3.200581334 0.0003985377556 0)
(3.200976635 2.007094789e-06 0)
(3.200900748 -0.0002599559951 0)
(3.20071825 -0.0008274184166 0)
(3.200907239 -0.000921378259 0)
(3.201093885 -0.001071561926 0)
(3.201116192 -0.00135338781 0)
(3.200989498 -0.001672147342 0)
(3.200732054 -0.001656445148 0)
(3.200427806 -0.001396802897 0)
(3.199953998 -0.001050431352 0)
(3.199501476 -0.0006188391598 0)
(3.199332469 -0.0003722420183 0)
(3.199275829 -0.0003119535942 0)
(3.199248342 -0.0003481453854 0)
(3.199389338 -0.0003615029273 0)
(3.199491879 -0.0005300701983 0)
(3.199753842 -0.0003310099636 0)
(3.200066017 -0.0003532895916 0)
(3.200250084 8.804901931e-05 0)
(3.200250204 0.0007018736949 0)
(3.200220293 0.0006233960483 0)
(3.200054653 0.0004023918821 0)
(3.199733448 0.000353048198 0)
(3.199397378 0.0004629081402 0)
(3.199213786 0.0006315484726 0)
(3.199036738 0.0008237451752 0)
(3.198813587 0.0006194496417 0)
(3.198625868 0.0004554111698 0)
(3.198653775 9.228942353e-05 0)
(3.198869313 -9.474916375e-05 0)
(3.199188133 -3.656998814e-05 0)
(3.19947048 5.291641663e-05 0)
(3.200150703 8.707936328e-05 0)
(3.200546876 0.0002879848161 0)
(3.200432361 0.0003643197635 0)
(3.200069635 0.0004780143191 0)
(3.19960174 0.000530929679 0)
(3.199639708 0.0005087885232 0)
(3.199974709 0.0006054693551 0)
(3.200509714 0.0001211338475 0)
(3.200454963 -7.933595505e-05 0)
(3.200216426 -0.0009792295111 0)
(3.200322491 -0.001145131873 0)
(3.200539379 -0.001124858095 0)
(3.200635288 -0.001184450946 0)
(3.200535924 -0.001326697748 0)
(3.200286065 -0.001211400254 0)
(3.199876477 -0.0009648967254 0)
(3.19916734 -0.0005548859996 0)
(3.19897113 -0.0006607288265 0)
(3.1989776 -0.0005956058804 0)
(3.198885651 -0.000340296239 0)
(3.19869173 -4.777519681e-05 0)
(3.198792471 -0.0001340870343 0)
(3.19896577 -0.0007969021702 0)
(3.199361399 -0.001390956355 0)
(3.199677876 -0.001593667572 0)
(3.199807555 -0.00113318532 0)
(3.199597781 8.995950013e-05 0)
(3.19933605 0.0009557518095 0)
(3.199240886 0.0007890544379 0)
(3.198941136 0.0006260685792 0)
(3.198703081 0.0007434204982 0)
(3.198553679 0.0008300318533 0)
(3.198324882 0.001019005245 0)
(3.198149225 0.0008919492194 0)
(3.19796263 0.0008079660525 0)
(3.198065388 0.0002582344202 0)
(3.198127386 -0.0001980584583 0)
(3.198545537 -0.0003808741095 0)
(3.198804677 -0.0003855193782 0)
(3.198733881 -0.002103294185 0)
(3.199070011 -0.001049500888 0)
(3.198878114 -0.0003868353665 0)
(3.198620175 -0.0004114631907 0)
(3.198277951 -0.0001856175648 0)
(3.198306302 -6.029039399e-05 0)
(3.198622402 0.0002016881161 0)
(3.199198369 -0.0002257709554 0)
(3.199230493 -0.0004208027 0)
(3.198850523 -0.001426708054 0)
(3.198757477 -0.001585602221 0)
(3.198995695 -0.001453963576 0)
(3.199092023 -0.001213749854 0)
(3.198960715 -0.000938539635 0)
(3.198738958 -0.0006813983943 0)
(3.198421997 -0.0004655208476 0)
(3.197872208 -0.00023627614 0)
(3.197605487 -0.0005630804088 0)
(3.197485495 -0.0003249360789 0)
(3.197399105 -4.665166934e-05 0)
(3.197311002 4.597998135e-05 0)
(3.197396354 -0.0003237094366 0)
(3.197520859 -0.0009247628815 0)
(3.197675594 -0.001728703638 0)
(3.197814435 -0.002054177063 0)
(3.198025571 -0.001702537388 0)
(3.198125041 -0.0005712668875 0)
(3.19780189 0.0007065144527 0)
(3.197422274 0.000933771497 0)
(3.197122909 0.0006532381942 0)
(3.197125142 0.0008005604501 0)
(3.197130114 0.0006136135772 0)
(3.197052526 0.0007198043512 0)
(3.196929267 0.0006952984991 0)
(3.196849329 0.0005965670393 0)
(3.196769018 0.0003233183083 0)
(3.196793547 -0.0001926076241 0)
(3.196899978 -0.0004349352483 0)
(3.19711385 -0.0003583459389 0)
(3.196149444 -0.00171889427 0)
(3.196473439 -0.001126262594 0)
(3.196174366 -0.001043754669 0)
(3.195874763 -0.001239109913 0)
(3.195579539 -0.0008720147419 0)
(3.195808864 -0.0002047891261 0)
(3.196211384 0.0003431074747 0)
(3.196655756 -0.0002379190819 0)
(3.19657169 -0.0009999045887 0)
(3.196125325 -0.002001374406 0)
(3.196001055 -0.001847906727 0)
(3.196151397 -0.001824836978 0)
(3.196106817 -0.001728522066 0)
(3.19590136 -0.001302035611 0)
(3.19573984 -0.0007685784986 0)
(3.195520293 -0.0004293078962 0)
(3.195213464 -0.0001987948662 0)
(3.194909048 -4.124399516e-05 0)
(3.194570999 6.502358976e-06 0)
(3.194553175 0.0002159312223 0)
(3.194583836 9.931398505e-05 0)
(3.1946644 -0.0002213364334 0)
(3.194657615 -0.000700783026 0)
(3.194465217 -0.001226356509 0)
(3.194444164 -0.001541490895 0)
(3.194617503 -0.001169972004 0)
(3.194772018 -0.0004996646302 0)
(3.19474707 3.549352825e-05 0)
(3.194350384 0.0003406584881 0)
(3.193949792 0.0001218273979 0)
(3.194044063 0.0001421478688 0)
(3.194117609 6.246587785e-05 0)
(3.194288463 0.0001768389903 0)
(3.194341306 0.0002394676066 0)
(3.194304342 0.0001280240606 0)
(3.194158856 9.327874149e-05 0)
(3.194071319 -0.0003196297616 0)
(3.193953901 -0.0004033118341 0)
(3.194116564 -0.0002390472215 0)
(3.191234432 -0.0005264453358 0)
(3.191838228 -0.0005527552305 0)
(3.191629706 -0.001328204797 0)
(3.191303177 -0.001298517123 0)
(3.191062279 -0.0008522909845 0)
(3.191320075 -0.0002354553934 0)
(3.191719757 0.000686065537 0)
(3.192073513 0.0002444310192 0)
(3.191916443 -0.0001079398549 0)
(3.191530476 -0.001555461494 0)
(3.191413983 -0.001811298704 0)
(3.19149595 -0.001597336167 0)
(3.191439978 -0.001353899456 0)
(3.191331763 -0.0009469846134 0)
(3.191166662 -0.0006253363685 0)
(3.19085297 -0.0002846713903 0)
(3.190554665 -1.070686857e-05 0)
(3.190181884 0.0003487510487 0)
(3.189887998 0.0002518110838 0)
(3.189840394 0.0003488598791 0)
(3.189942216 0.0001892689433 0)
(3.189838399 -6.479385147e-05 0)
(3.189719267 -0.0004399617881 0)
(3.189471258 -0.0006303910848 0)
(3.189375478 -0.0006600277234 0)
(3.18945578 -0.0004420721483 0)
(3.189467937 -0.0001885246187 0)
(3.189439026 -0.0002830863767 0)
(3.189282283 -0.0002422621079 0)
(3.188942289 -0.0002403956129 0)
(3.18895689 -0.0003866903293 0)
(3.188997087 -0.0002621958024 0)
(3.189100787 -0.0002029252693 0)
(3.189207036 -0.0002423985779 0)
(3.189195837 -0.0003887676352 0)
(3.189199324 -0.0002513364492 0)
(3.189145405 -0.0003675066279 0)
(3.189106843 -0.0003803231622 0)
(3.189140293 -0.0001555387069 0)
(3.184612504 0.0006956391842 0)
(3.184668873 -0.0002304049345 0)
(3.184263483 -0.00059817027 0)
(3.184117081 -0.0005992587592 0)
(3.184172206 0.0001404490455 0)
(3.184398924 0.001127033052 0)
(3.18465551 0.001047129882 0)
(3.184638755 0.0005414243854 0)
(3.184260469 -0.001047748635 0)
(3.184000946 -0.001257242014 0)
(3.184192151 -0.001233320905 0)
(3.184331297 -0.001143164529 0)
(3.184369557 -0.0008863193508 0)
(3.184116508 -0.0003889330244 0)
(3.183698779 -0.0001747714375 0)
(3.183394661 3.396949886e-05 0)
(3.182915349 0.000169867557 0)
(3.182568838 0.0002173839073 0)
(3.182471904 0.0001727539623 0)
(3.182404398 0.0002397516927 0)
(3.182321196 8.592754632e-05 0)
(3.182280854 -0.0001576474474 0)
(3.18207547 -0.0002349741041 0)
(3.181943831 -0.0001552718506 0)
(3.18196059 4.633461557e-06 0)
(3.182052408 9.751535436e-05 0)
(3.1818912 -0.000160613636 0)
(3.181769038 -0.0001497053145 0)
(3.181722149 -0.0001405740416 0)
(3.181668007 -0.0004102279863 0)
(3.181718423 -0.0002217882268 0)
(3.181800473 -0.0002768737334 0)
(3.181844461 -0.0005123601955 0)
(3.181834226 -0.0006056815803 0)
(3.181790568 -0.0004421081505 0)
(3.181788919 -0.0001481945829 0)
(3.181809714 -0.000117457612 0)
(3.181801447 -0.0001568171581 0)
(3.174078142 0.00190865459 0)
(3.17480176 0.0008182445709 0)
(3.174366657 -2.638360597e-05 0)
(3.174110317 -9.218632844e-05 0)
(3.173978687 0.0005133413075 0)
(3.173971347 0.00165168922 0)
(3.174065012 0.001935747959 0)
(3.173942951 0.001598365587 0)
(3.173408663 -3.230180232e-05 0)
(3.173027183 -0.0004196660163 0)
(3.173250224 -0.0004314804576 0)
(3.173707378 -0.0005279011624 0)
(3.174064332 -0.000642047871 0)
(3.174171694 -0.0008775423109 0)
(3.173949896 -0.0007894532361 0)
(3.1734957 -0.0003285031882 0)
(3.172920992 -0.0001071039768 0)
(3.17244125 4.906597451e-05 0)
(3.172249747 2.031439347e-05 0)
(3.172049635 7.373653227e-05 0)
(3.171990477 9.619980479e-05 0)
(3.171999539 0.0001128581759 0)
(3.171934809 0.0001457811356 0)
(3.171868996 0.0003186722253 0)
(3.17182572 0.000397939799 0)
(3.171991782 0.0003434188982 0)
(3.171879056 0.0002011824654 0)
(3.171810229 0.0002499405395 0)
(3.171951789 0.0001196682912 0)
(3.171959246 -0.0001263892089 0)
(3.17202016 -9.245513482e-05 0)
(3.172054985 -0.0003402207557 0)
(3.172032751 -0.0005225354868 0)
(3.171977931 -0.0005887049946 0)
(3.171933355 -0.0003961154605 0)
(3.171887154 -0.0001395629315 0)
(3.171905272 -5.217480989e-05 0)
(3.171875153 -6.729286266e-07 0)
(3.16134393 0.001991085454 0)
(3.162229017 0.001496600908 0)
(3.161751755 0.0007510598666 0)
(3.161407207 0.0004440491503 0)
(3.161111264 0.0007853783375 0)
(3.160986105 0.001985331584 0)
(3.160893905 0.002478834181 0)
(3.160840312 0.002119958624 0)
(3.160378052 0.0005397813687 0)
(3.160053937 -0.000259191368 0)
(3.160023041 -0.0003633878623 0)
(3.160538322 -0.0005807971444 0)
(3.161021044 -0.0008395439582 0)
(3.161389584 -0.001180331266 0)
(3.161326348 -0.00110930429 0)
(3.160945707 -0.0006017875947 0)
(3.160400959 -0.0003441720689 0)
(3.159846619 -0.0002673730134 0)
(3.15960256 -0.0003524241245 0)
(3.159473616 -0.0001964883416 0)
(3.15929967 -2.979627321e-05 0)
(3.159097982 6.316728371e-05 0)
(3.158969704 0.0001804851314 0)
(3.158852182 0.0005024021982 0)
(3.15885187 0.0004028236788 0)
(3.159080367 0.000445656311 0)
(3.1593431 0.0004447015207 0)
(3.159432532 0.0004819770019 0)
(3.159491034 0.0003142253828 0)
(3.159427619 0.0001276173764 0)
(3.159683591 6.356729902e-05 0)
(3.159719701 -0.0001602895064 0)
(3.159668516 -0.0002652466003 0)
(3.15959603 -0.0003002189904 0)
(3.159563142 -0.00022064839 0)
(3.159480391 -9.552057074e-05 0)
(3.15942424 -4.191672071e-05 0)
(3.159392834 -2.378063125e-05 0)
(3.147204316 0.001447823759 0)
(3.147964701 0.001080471715 0)
(3.147548531 0.0003903462015 0)
(3.146955855 -0.0001088399516 0)
(3.146402752 0.0001971140518 0)
(3.146200335 0.001586014208 0)
(3.146153468 0.002185144112 0)
(3.146357462 0.001694982581 0)
(3.146033076 0.0005909369835 0)
(3.145649219 -0.000320808787 0)
(3.145499847 -0.0005224700813 0)
(3.145922542 -0.0008021301387 0)
(3.146279975 -0.001089853818 0)
(3.146511571 -0.001433740074 0)
(3.146381138 -0.001456056874 0)
(3.146072915 -0.001181271666 0)
(3.145729319 -0.0008984502891 0)
(3.14530888 -0.0006560217151 0)
(3.145087824 -0.0004237873751 0)
(3.145037231 -0.0003334103149 0)
(3.144848556 -0.0001051044984 0)
(3.144520843 8.334202888e-05 0)
(3.1442399 0.0001313809987 0)
(3.144063929 0.0002058388783 0)
(3.14407347 -0.0001240912588 0)
(3.144062411 0.0001819324719 0)
(3.144352805 0.0005702948567 0)
(3.144562378 0.0006671719731 0)
(3.144593363 0.0004916993196 0)
(3.144484903 0.0007025412691 0)
(3.144714656 0.0003203414623 0)
(3.144778597 3.84418758e-05 0)
(3.144782521 5.830836662e-06 0)
(3.144783823 -7.716637604e-05 0)
(3.144819508 -0.0001316816822 0)
(3.144768787 -7.528052117e-05 0)
(3.144581766 0.0001457893122 0)
(3.144387744 0.0001529442942 0)
(3.131279316 0.0007787618018 0)
(3.132148565 0.0003176247625 0)
(3.131800513 -0.0006075905114 0)
(3.131040448 -0.001225359525 0)
(3.130228352 -0.0009296548932 0)
(3.129962902 0.0005072484414 0)
(3.130031163 0.001406561047 0)
(3.130284635 0.001023901528 0)
(3.129904748 0.0004036338329 0)
(3.129426555 -0.0005362016321 0)
(3.129277785 -0.000775586533 0)
(3.12962477 -0.001008094005 0)
(3.130010196 -0.001273124496 0)
(3.130152457 -0.001535802902 0)
(3.130078788 -0.001512620252 0)
(3.129734263 -0.001175417764 0)
(3.129293094 -0.0007290856774 0)
(3.128986235 -0.0003285477706 0)
(3.128702375 0.0001787475313 0)
(3.128573075 0.0003562914866 0)
(3.128395842 0.0005418449341 0)
(3.128182945 0.0004145497954 0)
(3.128046732 0.0001259140104 0)
(3.127885836 -0.000112270741 0)
(3.127765161 -0.0001243099125 0)
(3.127742891 9.365546078e-05 0)
(3.12752961 0.000402558203 0)
(3.127634403 0.0008111939924 0)
(3.127772473 0.0008212418432 0)
(3.127828723 0.001054190032 0)
(3.12777334 0.0005617133815 0)
(3.127795713 0.0003640082633 0)
(3.127816589 0.0003350426748 0)
(3.127787947 0.0002060987111 0)
(3.127750446 0.0001065883207 0)
(3.127723758 0.0001754396373 0)
(3.127606968 0.0003821748493 0)
(3.127285603 0.0002026526114 0)
(3.114431808 0.0007685783017 0)
(3.115343145 9.911562514e-05 0)
(3.115126196 -0.001279251262 0)
(3.114226906 -0.002093847202 0)
(3.113147356 -0.001978474659 0)
(3.112935192 -0.0006883957823 0)
(3.112963404 0.0004794628238 0)
(3.113194378 0.000241430007 0)
(3.113033194 -0.0003244031221 0)
(3.112562329 -0.001495247579 0)
(3.112311765 -0.001696566693 0)
(3.112343712 -0.001682478959 0)
(3.112463511 -0.001649221139 0)
(3.112446134 -0.001486461976 0)
(3.112373051 -0.001130709955 0)
(3.112154103 -0.0005029715008 0)
(3.111636722 0.0002293871239 0)
(3.11094717 0.0006840132114 0)
(3.110555939 0.0009825609671 0)
(3.110360299 0.0009203312233 0)
(3.110225086 0.0007198348626 0)
(3.110132006 0.000251391254 0)
(3.109952726 -0.0001159452095 0)
(3.109716773 -0.0002504407196 0)
(3.109594186 -9.81949845e-05 0)
(3.109838164 0.0002507049001 0)
(3.10981141 0.0003958267872 0)
(3.109673492 0.0007127413599 0)
(3.109693084 0.001117212784 0)
(3.109814533 0.001201519605 0)
(3.109676902 0.0008258582303 0)
(3.109601216 0.0007076109992 0)
(3.109563789 0.0007169486742 0)
(3.109392208 0.0004991630666 0)
(3.109193804 0.0003717142987 0)
(3.109166817 0.0002832287822 0)
(3.109219983 0.0003599771703 0)
(3.10888647 7.391675112e-05 0)
(3.098057432 0.0008845063855 0)
(3.097840825 -0.000815169022 0)
(3.096837371 -0.00199435584 0)
(3.095834906 -0.002325445729 0)
(3.095639306 -0.001346413123 0)
(3.095441087 -0.0002399859257 0)
(3.095317199 -0.0005791717784 0)
(3.09516521 -0.001222308299 0)
(3.094665785 -0.002618421894 0)
(3.094293975 -0.002848655706 0)
(3.094078496 -0.002478525832 0)
(3.09407882 -0.001969298069 0)
(3.094174642 -0.001153567825 0)
(3.094264189 -0.000349853126 0)
(3.094138482 0.0006551811121 0)
(3.09353033 0.001631623139 0)
(3.092751817 0.00184738124 0)
(3.09236415 0.001575884182 0)
(3.092049897 0.00103304526 0)
(3.091770098 0.0004100358059 0)
(3.091526946 -0.0003140062327 0)
(3.091074587 -0.0006180358678 0)
(3.090760469 -0.0004964942794 0)
(3.090760599 -0.0002301621794 0)
(3.09080636 2.894742298e-05 0)
(3.091019336 0.000569325461 0)
(3.091013411 0.0007572244504 0)
(3.090944432 0.001033199133 0)
(3.090865863 0.001041823122 0)
(3.090703352 0.0008884540997 0)
(3.090556714 0.0009082578931 0)
(3.090518033 0.0009244180116 0)
(3.090335207 0.000674988639 0)
(3.090120039 0.0005880034528 0)
(3.090062944 0.0003066278855 0)
(3.089939077 0.0001766483275 0)
(3.089532392 -1.567175002e-05 0)
(3.089146923 -8.624549513e-05 0)
(3.080237211 0.002162021268 0)
(3.079965101 0.0002705810089 0)
(3.078840264 -0.001387743328 0)
(3.077687466 -0.001957949463 0)
(3.077455988 -0.001242021965 0)
(3.077376305 -0.0002066574016 0)
(3.077028311 -0.0007781286539 0)
(3.076687588 -0.001817086283 0)
(3.07621744 -0.003451056079 0)
(3.075972396 -0.003783089601 0)
(3.075839506 -0.003086258215 0)
(3.075872411 -0.002119926865 0)
(3.075997728 -0.0008243277162 0)
(3.076004 0.0005658675795 0)
(3.075725204 0.001604124865 0)
(3.075296001 0.002230645427 0)
(3.074631122 0.0022760478 0)
(3.073964129 0.00190787704 0)
(3.073330149 0.001203387228 0)
(3.072740774 0.000430230644 0)
(3.07232528 -0.0002241937523 0)
(3.071933118 -0.0002888214569 0)
(3.071731004 -7.844307341e-05 0)
(3.071699528 -3.048200507e-05 0)
(3.071658531 -0.0002439075386 0)
(3.07172244 0.0002560630144 0)
(3.071711301 0.0004632779609 0)
(3.071688242 0.0007572767591 0)
(3.071476107 0.0006514465454 0)
(3.071182137 0.0006493876939 0)
(3.070922867 0.00070503844 0)
(3.070759855 0.0007214170168 0)
(3.070599672 0.0006167205907 0)
(3.070420765 0.0006566033542 0)
(3.070297665 0.0003566276612 0)
(3.069926437 -8.819005796e-05 0)
(3.069566137 -0.0001657290809 0)
(3.069157457 -0.0001663415467 0)
(3.062165981 0.002788212022 0)
(3.061800262 0.001152946594 0)
(3.060785398 -0.0006630041899 0)
(3.059600731 -0.001233087969 0)
(3.059002116 -0.000886474433 0)
(3.058712941 0.0002838549849 0)
(3.05853775 -0.0001900008637 0)
(3.058214277 -0.001145939071 0)
(3.05758895 -0.002883257391 0)
(3.05722625 -0.003344698808 0)
(3.057200395 -0.002722241653 0)
(3.057243311 -0.001949705284 0)
(3.057360167 -0.001062988905 0)
(3.057427354 0.0001415585564 0)
(3.057164806 0.001116406544 0)
(3.056469927 0.001819880245 0)
(3.05539751 0.002162396182 0)
(3.054264972 0.00183599763 0)
(3.053395197 0.001199921913 0)
(3.052667746 0.0005500901268 0)
(3.052115059 0.0002850576346 0)
(3.051953735 0.0005398110381 0)
(3.051897406 0.0006426703935 0)
(3.051963652 0.0004132328053 0)
(3.05222815 -8.0662565e-05 0)
(3.052508585 2.395558547e-05 0)
(3.052452572 8.181921292e-05 0)
(3.052260031 0.0002528797392 0)
(3.052039041 0.0002722110877 0)
(3.051575474 0.0003684400804 0)
(3.051184287 0.0003959467668 0)
(3.050789414 0.0003941301693 0)
(3.050507472 0.0003364572273 0)
(3.050263892 0.0003785793575 0)
(3.050127358 0.0001301576934 0)
(3.049802328 -0.000400211492 0)
(3.049528367 -0.0003299635856 0)
(3.049077165 -0.0002626431043 0)
(3.043623608 0.002278422633 0)
(3.043274078 0.0008556444146 0)
(3.042350707 -0.0003870088629 0)
(3.041459608 -0.0007852913596 0)
(3.040918543 -0.0003368435956 0)
(3.040416933 0.0009983837366 0)
(3.040060366 0.001038189198 0)
(3.039587277 7.005155464e-05 0)
(3.03861665 -0.001825265364 0)
(3.037811033 -0.002929723127 0)
(3.037712893 -0.002959277369 0)
(3.038022951 -0.002539308435 0)
(3.038331599 -0.001884739709 0)
(3.038370535 -0.0008524684643 0)
(3.037911664 5.258058084e-05 0)
(3.037194502 0.000802653387 0)
(3.036052822 0.001178140478 0)
(3.034507547 0.001147370957 0)
(3.033329592 0.0008583000415 0)
(3.032636691 0.0003894891416 0)
(3.032263288 0.0001247426455 0)
(3.032308941 0.0003207878541 0)
(3.032350275 0.0005429048578 0)
(3.032411007 0.0002282334176 0)
(3.032640642 4.795468249e-05 0)
(3.033125788 -1.264444877e-05 0)
(3.033314891 0.0001268203086 0)
(3.033113681 -0.0002150816432 0)
(3.032795306 -0.0002195687413 0)
(3.032394197 0.0001258273714 0)
(3.031834141 0.0002878902286 0)
(3.031322214 3.543976471e-05 0)
(3.030875935 -6.241847288e-05 0)
(3.030534993 -0.0001526062306 0)
(3.030222244 -0.0001346790953 0)
(3.029934826 -0.0004241908697 0)
(3.029711054 -0.0004479941293 0)
(3.029241136 -0.0004160283252 0)
(3.024273622 0.001256226205 0)
(3.024189817 0.0001004615516 0)
(3.023453771 -0.0009673674979 0)
(3.022660358 -0.0009805931747 0)
(3.022236056 -2.654143322e-05 0)
(3.022077518 0.001428023901 0)
(3.021739965 0.002056918981 0)
(3.021143487 0.001299310611 0)
(3.02024325 -0.0006023675486 0)
(3.019551813 -0.00207292815 0)
(3.019284264 -0.002747454137 0)
(3.019240486 -0.002776840904 0)
(3.019274701 -0.002539865055 0)
(3.019071997 -0.002182027394 0)
(3.018445726 -0.001572474508 0)
(3.017723378 -0.0006406276293 0)
(3.016710859 -0.0001028180601 0)
(3.015340767 1.52092015e-05 0)
(3.014205567 -4.405779912e-05 0)
(3.013706769 -6.017680978e-05 0)
(3.013607135 -6.530063521e-05 0)
(3.013600986 9.415917801e-05 0)
(3.01361348 0.0003275114156 0)
(3.013484464 0.0003409865929 0)
(3.013548781 0.0002576480429 0)
(3.013832714 -8.207071425e-06 0)
(3.014137336 0.0002032437183 0)
(3.014145205 -0.0003197619911 0)
(3.013938618 -0.0003729625723 0)
(3.0135787 8.480648491e-05 0)
(3.01287109 0.000264376936 0)
(3.012325047 -4.329370709e-05 0)
(3.011760936 -0.0001845674397 0)
(3.011319042 -0.0004559302542 0)
(3.010877899 -0.0004328723796 0)
(3.010537734 -0.0005153796886 0)
(3.010287675 -0.0004266674523 0)
(3.009816702 -0.0003497008006 0)
(3.00439784 0.0007111345828 0)
(3.004766109 0.0004321831414 0)
(3.004361775 -0.0009069657492 0)
(3.003487264 -0.001426714788 0)
(3.002988577 -0.000550027944 0)
(3.002829654 0.001267097278 0)
(3.002649053 0.002252209104 0)
(3.002239106 0.001800867694 0)
(3.001561755 0.0004152418269 0)
(3.00088192 -0.0009626186137 0)
(3.000306341 -0.001977682289 0)
(2.999934973 -0.002502194391 0)
(2.999812648 -0.002846216646 0)
(2.999499579 -0.003073472922 0)
(2.998877827 -0.002942456186 0)
(2.998158798 -0.002036875152 0)
(2.997252691 -0.00126114792 0)
(2.996351318 -0.0009113303672 0)
(2.995551016 -0.000601984638 0)
(2.995161573 -0.0001180056403 0)
(2.995024027 0.0001938845621 0)
(2.994909808 0.0003816530451 0)
(2.994830297 0.0003902355157 0)
(2.994712463 0.000422924037 0)
(2.994895906 0.0002236029138 0)
(2.995097732 4.213697364e-05 0)
(2.995392378 0.0001180975218 0)
(2.995434071 -0.0002742474446 0)
(2.995372596 -0.0002523990445 0)
(2.994966939 -0.0001019087547 0)
(2.994364328 -0.0001405470121 0)
(2.993812661 -0.0003914890765 0)
(2.993244089 -0.0004931282832 0)
(2.99274006 -0.0007880183867 0)
(2.992220364 -0.0007564559813 0)
(2.991795104 -0.0007090334318 0)
(2.99142832 -0.0005167680292 0)
(2.990971447 -0.0002871207507 0)
(2.9844817 0.001347815578 0)
(2.985116002 0.00117461714 0)
(2.985023034 -0.0004207420359 0)
(2.984352176 -0.001632447624 0)
(2.983885243 -0.001151928784 0)
(2.983472405 0.0007239551506 0)
(2.982978508 0.00165693133 0)
(2.982600251 0.001341480473 0)
(2.981785104 0.0001219903507 0)
(2.980836286 -0.001253912364 0)
(2.980333352 -0.001946880813 0)
(2.980283532 -0.002162247759 0)
(2.980268769 -0.002560673123 0)
(2.980120216 -0.002759349154 0)
(2.979590624 -0.002696261271 0)
(2.978864173 -0.002113038783 0)
(2.977978504 -0.001518057949 0)
(2.977327151 -0.001031925961 0)
(2.97677584 -0.000395490709 0)
(2.976294796 1.228374251e-05 0)
(2.976181375 0.0005339873484 0)
(2.976096384 0.0008007467908 0)
(2.97613508 0.0006481519154 0)
(2.976319147 0.00054369219 0)
(2.976755288 0.0003721380284 0)
(2.977077847 0.000222527115 0)
(2.97740569 0.0001201789464 0)
(2.977458032 -9.420924735e-06 0)
(2.977368824 9.849649729e-05 0)
(2.977062487 -5.985705164e-05 0)
(2.976619779 -0.0003938656833 0)
(2.976069002 -0.0006114252713 0)
(2.975534926 -0.0006659285338 0)
(2.974966796 -0.0008150822482 0)
(2.974403404 -0.0007692526062 0)
(2.973890973 -0.0006313841714 0)
(2.973452723 -0.000383604322 0)
(2.973021939 -9.655711117e-05 0)
(2.96535627 0.00211885816 0)
(2.965750881 0.0003986030651 0)
(2.965410235 -0.001335920778 0)
(2.9650115 -0.0012937426 0)
(2.964509498 0.0003501394686 0)
(2.963688142 0.0008909272796 0)
(2.963237137 0.0006744527862 0)
(2.962332059 -0.0005686411143 0)
(2.961575923 -0.001817434585 0)
(2.961351296 -0.002293158599 0)
(2.961447582 -0.002245388042 0)
(2.961535021 -0.002383309206 0)
(2.961505649 -0.002218483933 0)
(2.961195291 -0.001876185534 0)
(2.960550733 -0.001534903773 0)
(2.959708085 -0.001126007977 0)
(2.959097763 -0.0006171709132 0)
(2.958426393 -6.330687719e-05 0)
(2.957918023 0.0004110763605 0)
(2.957693959 0.0007997658621 0)
(2.957774676 0.000952988251 0)
(2.958223376 0.000731242748 0)
(2.95876284 0.0004348351266 0)
(2.959425547 0.0003204906334 0)
(2.959901306 0.0002662157608 0)
(2.960303787 0.0001925158594 0)
(2.960454383 0.0002624667469 0)
(2.960443329 0.0003007205662 0)
(2.960257639 4.109048443e-05 0)
(2.959901924 -0.0002206134054 0)
(2.959365676 -0.0003182737642 0)
(2.958816023 -0.0003611038915 0)
(2.958262565 -0.0004251468214 0)
(2.957678359 -0.0004474520063 0)
(2.957154483 -0.0004105636967 0)
(2.956748451 -0.0002835772076 0)
(2.956351974 -3.515748597e-05 0)
(2.946205378 0.002296906125 0)
(2.947080461 0.0007382060721 0)
(2.947148298 -0.001056715471 0)
(2.946940469 -0.001261424556 0)
(2.94650697 0.0001484313697 0)
(2.945613872 0.0004801347863 0)
(2.945164275 0.0002295912103 0)
(2.944290072 -0.001191574984 0)
(2.943761185 -0.002115370445 0)
(2.943754993 -0.002266193495 0)
(2.943890103 -0.002034847505 0)
(2.944172949 -0.001688006952 0)
(2.944269545 -0.001356065963 0)
(2.944144812 -0.0008687231726 0)
(2.943771887 -0.000605676169 0)
(2.943142847 -0.0003853245364 0)
(2.942448646 7.195399548e-05 0)
(2.941667655 0.0005443124285 0)
(2.941029647 0.0008503297062 0)
(2.94073159 0.001099944632 0)
(2.940983417 0.001188012816 0)
(2.941675675 0.0009086765233 0)
(2.942557391 0.0005977898241 0)
(2.943417299 0.0004783454782 0)
(2.94397242 0.00029278657 0)
(2.94440064 0.0001621155558 0)
(2.944698263 0.0002961194128 0)
(2.944861372 0.0005244396404 0)
(2.944846861 0.00045951375 0)
(2.944556338 0.0003592253485 0)
(2.944013097 0.0002878194722 0)
(2.943435589 0.0001918276166 0)
(2.942949665 0.0001456659155 0)
(2.942446686 0.0001352801321 0)
(2.942074695 0.0001419986982 0)
(2.94179821 0.0001346967748 0)
(2.941488722 0.0002297786278 0)
(2.928993914 0.002675640111 0)
(2.930033836 0.001208720931 0)
(2.930546152 -0.0006656587237 0)
(2.930614072 -0.001109431909 0)
(2.930379537 0.0001354520931 0)
(2.929632686 0.0004500070923 0)
(2.929193275 0.0002150033518 0)
(2.928281797 -0.001112136652 0)
(2.927826061 -0.00206003949 0)
(2.928085759 -0.002281720657 0)
(2.928378914 -0.001858282229 0)
(2.928683128 -0.00177137608 0)
(2.928909947 -0.001601012914 0)
(2.929027552 -0.001225677047 0)
(2.928959397 -0.0008246159345 0)
(2.928659678 -0.0002877941207 0)
(2.927992979 0.0004917255924 0)
(2.927212324 0.001049736276 0)
(2.926842801 0.001478321365 0)
(2.92675561 0.001418600779 0)
(2.927097479 0.0011513213 0)
(2.927594908 0.0006481338882 0)
(2.928359351 0.0003670335443 0)
(2.929228345 0.000346730905 0)
(2.929752851 0.0003119210356 0)
(2.930155959 0.0003233973328 0)
(2.930498347 0.0005970360237 0)
(2.930786295 0.0007763120528 0)
(2.930895062 0.0007673139993 0)
(2.930817646 0.0008899360731 0)
(2.930369577 0.0009307254184 0)
(2.929835546 0.0008329336515 0)
(2.9294508 0.0008210697949 0)
(2.92917018 0.0007847409217 0)
(2.929033671 0.0006778563719 0)
(2.928934701 0.0003843371526 0)
(2.928780096 0.000343049186 0)
(2.914777384 0.002122549423 0)
(2.91579516 0.001006961996 0)
(2.916692286 -0.0006681874393 0)
(2.916939195 -0.001140915567 0)
(2.916944778 4.957591149e-05 0)
(2.916618565 0.0008186147096 0)
(2.916251942 0.0006955779451 0)
(2.915500857 -0.0003985496209 0)
(2.914932953 -0.00156100056 0)
(2.915299882 -0.001909635795 0)
(2.915762378 -0.001560578485 0)
(2.915954494 -0.001490028682 0)
(2.916205424 -0.001639813544 0)
(2.91648171 -0.001451966577 0)
(2.916632995 -0.001119263226 0)
(2.916561042 -0.0003263357278 0)
(2.916139178 0.000710199388 0)
(2.915575259 0.001406442516 0)
(2.91565074 0.001771325764 0)
(2.916096117 0.001848342499 0)
(2.916441807 0.001355868376 0)
(2.916387907 0.0006707763753 0)
(2.916520975 0.0002742253532 0)
(2.91711671 0.0001587110615 0)
(2.917638283 0.0003901614375 0)
(2.917980886 0.0006835693147 0)
(2.918206156 0.001088100814 0)
(2.918542828 0.001340499863 0)
(2.918829339 0.001415478394 0)
(2.919037464 0.001587356161 0)
(2.91882677 0.001724590668 0)
(2.918434166 0.001680595746 0)
(2.91818312 0.001609761106 0)
(2.918174295 0.001498173446 0)
(2.918279286 0.001234914493 0)
(2.918355504 0.0008599917498 0)
(2.918337519 0.0006759740489 0)
(2.90433181 0.001098508958 0)
(2.905037454 9.610425883e-05 0)
(2.90580848 -0.001547446387 0)
(2.906216861 -0.001663040522 0)
(2.906492312 -0.0001531461135 0)
(2.906830481 0.001157348213 0)
(2.906738321 0.001217222255 0)
(2.906445654 0.0005339102418 0)
(2.905892125 -0.0007687888398 0)
(2.906087061 -0.0017586371 0)
(2.906257771 -0.002224178226 0)
(2.906221424 -0.002562416439 0)
(2.906452302 -0.00263188555 0)
(2.906778075 -0.00230954128 0)
(2.906959032 -0.001700579255 0)
(2.906989832 -0.0006528819703 0)
(2.906857082 0.000419013445 0)
(2.906838327 0.001050748875 0)
(2.906854629 0.0008675535875 0)
(2.907193286 0.0005820669742 0)
(2.907329889 4.77341326e-05 0)
(2.907138355 -0.000344039866 0)
(2.906985006 -0.0003764135406 0)