/*--------------------------------*- C++ -*----------------------------------*\
  =========                 |
  \\      /  F ield         | OpenFOAM: The Open Source CFD Toolbox
   \\    /   O peration     | Website:  https://openfoam.org
    \\  /    A nd           | Version:  7
     \\/     M anipulation  |
\*---------------------------------------------------------------------------*/
FoamFile
{
    version     2.0;
    format      ascii;
    class       volScalarField;
    location    "3.9";
    object      rho;
}
// * * * * * * * * * * * * * * * * * * * * * * * * * * * * * * * * * * * * * //

dimensions      [1 -3 0 0 0 0 0];

internalField   nonuniform List<scalar> 
2223
(
1.174788968
1.165166139
1.145501093
1.120617632
1.109601718
1.104004446
1.093559763
1.074600915
1.05767181
1.052204985
1.046690478
1.035489597
1.019611738
1.008095758
1.003773699
0.9990574842
0.9882684376
0.9747121069
0.9692248799
0.9640388837
0.957908949
0.9515082521
1.38375171
1.365212258
1.351819993
1.323613542
1.286622127
1.271814473
1.262138686
1.242093402
1.210789884
1.192995852
1.18575469
1.173866129
1.151250952
1.128895488
1.121190647
1.114784965
1.101984316
1.081108461
1.067794685
1.063250924
1.056433995
1.043566873
1.026890906
1.017885535
1.01449415
1.00846514
0.9955340678
0.9845166167
0.9784884536
0.9727555522
0.9677860201
1.426871031
1.38957249
1.375607489
1.359739889
1.326468625
1.294409555
1.2843667
1.273187597
1.248271535
1.217771627
1.205501195
1.197765256
1.18219677
1.156379205
1.139097998
1.133203809
1.125111895
1.108544465
1.087815845
1.078897346
1.07414353
1.065326744
1.050141166
1.034652123
1.028851787
1.025028263
1.016200304
1.003130437
0.9939587267
0.9872142102
0.9824190389
1.468568331
1.427116643
1.397332528
1.385070472
1.364874437
1.327995441
1.303155907
1.294403385
1.279714859
1.25087481
1.224918673
1.216107235
1.206796367
1.187971488
1.162166801
1.149586329
1.143842302
1.133803287
1.114680351
1.095835021
1.089233862
1.083738811
1.073550911
1.056830069
1.04320204
1.039117258
1.03418276
1.023940881
1.011860744
1.001800418
0.9957772837
1.499954552
1.470507376
1.428573215
1.406195686
1.393484878
1.368892997
1.331503849
1.313812875
1.305158457
1.287140403
1.25557628
1.235541669
1.228110239
1.216482773
1.193516377
1.169897822
1.161039528
1.154515884
1.141385305
1.119901941
1.105035557
1.099764664
1.093158723
1.080571365
1.062784091
1.0531075
1.049438161
1.042667106
1.031549642
1.019175198
1.009462819
1.525795094
1.504874047
1.470926066
1.431993638
1.415128594
1.400461896
1.370861739
1.336352286
1.323553705
1.313039735
1.290551295
1.259412495
1.24481716
1.237143909
1.222865465
1.198024995
1.178150171
1.171181611
1.163360582
1.147850266
1.126015674
1.114379692
1.109356126
1.101709142
1.087204229
1.069583725
1.062769781
1.058516146
1.050852031
1.039412649
1.025362072
1.554524952
1.531218901
1.508286021
1.470766004
1.437359336
1.42339034
1.405982266
1.372533234
1.34304097
1.333189238
1.321045793
1.294896855
1.26618416
1.255826787
1.247511461
1.230031817
1.203581264
1.18815899
1.181914042
1.172167777
1.153334691
1.132769796
1.124415452
1.119265322
1.109724395
1.09252716
1.07762511
1.072637567
1.067514019
1.05873237
1.045346509
1.591782635
1.556913487
1.535948144
1.510204497
1.470951099
1.44377381
1.430745405
1.409838959
1.373972207
1.350575037
1.341675398
1.326396466
1.296974566
1.272724124
1.264638844
1.254626974
1.23431193
1.20878641
1.197295348
1.190827917
1.179165362
1.158553767
1.140356092
1.13398959
1.128238417
1.116923206
1.098342306
1.086128232
1.081587944
1.075873296
1.066177257
1.629352745
1.590354728
1.560052015
1.539819737
1.510835506
1.471957946
1.450535435
1.437062418
1.412252648
1.376173743
1.358767367
1.349829438
1.331656642
1.300233068
1.28152598
1.274741357
1.263011653
1.239300543
1.216081738
1.20758125
1.200374396
1.185903011
1.163598717
1.149192286
1.143988162
1.13703122
1.122854627
1.104353526
1.095326211
1.090879111
1.084210103
1.660048034
1.628001914
1.589673977
1.563594891
1.542874888
1.510463398
1.474056924
1.457174202
1.442225387
1.413159433
1.37954552
1.366927532
1.356707716
1.334488574
1.303544884
1.289847208
1.282574892
1.267951551
1.242301648
1.222986665
1.216125377
1.207631878
1.191067608
1.16906629
1.158010089
1.152940983
1.144529774
1.12853468
1.111321317
1.104102508
1.099396274
1.686853865
1.659981013
1.626162924
1.589946033
1.567302741
1.545051471
1.509516175
1.477528751
1.463410869
1.446000627
1.413250225
1.384536079
1.374747884
1.362740395
1.33702435
1.308690396
1.298933472
1.291070827
1.273693611
1.24683649
1.23187424
1.225687314
1.215534888
1.196083216
1.175647755
1.167466075
1.161942338
1.151388617
1.133634093
1.118896382
1.113042838
1.71502032
1.686497998
1.659405152
1.624176961
1.591326576
1.570828482
1.546109825
1.508764984
1.482223607
1.469004666
1.448354772
1.413531195
1.390687521
1.381916837
1.367206159
1.338515367
1.314497578
1.306708568
1.29702455
1.276538166
1.250841773
1.239627673
1.233112603
1.221108889
1.200293013
1.182424985
1.175860153
1.169481769
1.157437265
1.139292137
1.126342427
1.744146822
1.713053115
1.686336073
1.658380906
1.622545798
1.593538156
1.573719839
1.546034203
1.508956539
1.487477017
1.473815416
1.449661398
1.414954166
1.397369784
1.388329203
1.370774876
1.340442431
1.32124715
1.314474884
1.303306123
1.280151885
1.256819564
1.24852712
1.241573984
1.227308647
1.205037538
1.190334128
1.184631934
1.17716127
1.163043287
1.144656566
1.769507302
1.741546001
1.71181345
1.68629124
1.656988763
1.621566531
1.596012772
1.575760828
1.545244855
1.510284198
1.492684363
1.477846458
1.450368133
1.417650928
1.40405364
1.393997504
1.37313662
1.342746128
1.328013572
1.32107761
1.307372814
1.282287749
1.262513574
1.255717876
1.247571925
1.231390219
1.209398149
1.197551574
1.192022876
1.183562805
1.168274975
1.79012223
1.767462882
1.739332065
1.711170023
1.686103711
1.655345659
1.621253316
1.598403729
1.577077786
1.544233502
1.512589757
1.497645724
1.481131396
1.450724501
1.421469478
1.41055332
1.399011807
1.374970383
1.346114481
1.335001076
1.327580402
1.311703941
1.285389491
1.269559341
1.263792227
1.25463771
1.236035148
1.214732616
1.205647009
1.200154869
1.190234002
1.807446269
1.788359637
1.765357999
1.737224981
1.710564494
1.685472271
1.653523051
1.621554364
1.600731291
1.577866043
1.543316424
1.515801263
1.502337674
1.483576198
1.450986103
1.42620972
1.41675068
1.403228007
1.376282943
1.35046269
1.341778138
1.33313688
1.314402523
1.288372383
1.276045721
1.270188119
1.259242157
1.238914992
1.219763383
1.212719158
1.206735632
1.8216113
1.805585255
1.786334422
1.762742097
1.734937823
1.709766917
1.684366322
1.651676104
1.622533042
1.602986583
1.578051635
1.54289036
1.519814844
1.506629061
1.485089631
1.451660175
1.431600395
1.422479141
1.406596622
1.377598338
1.355737871
1.348445068
1.338537623
1.317323443
1.292571639
1.283389391
1.277429829
1.26475103
1.242492216
1.226306673
1.22070922
1.831953702
1.819883435
1.803393633
1.783899135
1.75977827
1.732743791
1.708911441
1.682811008
1.650014045
1.624008386
1.604813509
1.577538568
1.543413599
1.524216275
1.510334372
1.485825912
1.453158968
1.437195867
1.427609599
1.409046259
1.379156226
1.361581585
1.35479368
1.342954947
1.319372235
1.297357685
1.290132081
1.283083494
1.268033921
1.245502412
1.232475978
1.838815369
1.830617907
1.817835206
1.801060695
1.781380865
1.756912517
1.730984323
1.707938163
1.680746798
1.648694806
1.625529493
1.605903393
1.57661889
1.544887426
1.528481658
1.513350794
1.486110389
1.455593434
1.442687561
1.432084293
1.410746851
1.38142582
1.367776137
1.360774338
1.346958714
1.321798754
1.303163104
1.297131659
1.289221481
1.272171213
1.249977015
1.84233807
1.837419073
1.82878443
1.81562919
1.798971622
1.779134723
1.75445465
1.729572593
1.706638408
1.678372241
1.647790585
1.626774214
1.606297445
1.575609884
1.546872496
1.532296718
1.515624439
1.48619314
1.458862062
1.447943493
1.435918055
1.411960164
1.384617639
1.373907447
1.366149457
1.349997573
1.324335239
1.309080271
1.3033077
1.293816505
1.274983335
1.843854807
1.841581276
1.836303764
1.82722388
1.813802791
1.797177552
1.776933455
1.752106433
1.728115401
1.705033954
1.676062761
1.647294988
1.627786199
1.606192698
1.57456186
1.549086562
1.535580891
1.517102168
1.48628307
1.462720297
1.452851003
1.439160614
1.413171252
1.388649925
1.37973765
1.370967997
1.352745857
1.327446544
1.315129894
1.309427884
1.298906777
1.844319126
1.843367571
1.841016499
1.835558149
1.825924756
1.812004356
1.795152143
1.774398043
1.749640461
1.726646467
1.703430486
1.67400614
1.647250647
1.62872419
1.605636841
1.57359584
1.551473982
1.538314068
1.517810506
1.486619253
1.466820175
1.457323878
1.441884625
1.414575846
1.393086374
1.385234741
1.375305063
1.355045156
1.330869058
1.320972864
1.314933457
1.844533739
1.844675765
1.84399046
1.841119306
1.834862694
1.824444647
1.81004786
1.792929846
1.77162281
1.747260941
1.725406819
1.701822694
1.67215673
1.647663255
1.629529233
1.604634464
1.573047638
1.553969899
1.540539287
1.517944018
1.48731569
1.470895518
1.461343585
1.444088323
1.4160284
1.397732682
1.390503204
1.37931357
1.357214814
1.334865574
1.326900924
1.845304566
1.846639993
1.84619581
1.844718909
1.841049125
1.834064783
1.822865781
1.808048363
1.790615885
1.768839139
1.745316528
1.724334636
1.699956831
1.670585022
1.648356711
1.630028603
1.603362717
1.573112556
1.556524198
1.542408073
1.5177146
1.488396328
1.474874321
1.464917584
1.445630351
1.417523316
1.402577285
1.395545127
1.382816795
1.359206306
1.339405803
1.84547452
1.846311209
1.846024411
1.845799528
1.844274454
1.840222744
1.832732768
1.821164373
1.806347051
1.788630826
1.766531117
1.743892167
1.72313263
1.697799068
1.669346158
1.649010538
1.630100534
1.601955619
1.57375936
1.559141122
1.543990935
1.51721313
1.490032219
1.47879561
1.467998973
1.446458431
1.419394604
1.407471991
1.400156339
1.38573698
1.361358932
1.843448405
1.842414685
1.844072644
1.845951897
1.845786671
1.843903475
1.839581764
1.831864624
1.820061332
1.805068387
1.786844938
1.764551138
1.742612292
1.721701871
1.695603034
1.668408935
1.649509325
1.629751788
1.600497111
1.574990407
1.561720783
1.54513893
1.516654058
1.492452926
1.482616145
1.470496543
1.446839929
1.421827139
1.412103043
1.404181551
1.388089054
1.831725326
1.836349243
1.8433722
1.845671664
1.845072864
1.844864344
1.843200022
1.83867838
1.830572994
1.818532638
1.80344527
1.784922371
1.762697164
1.741466377
1.720347549
1.693600912
1.667801404
1.649891569
1.628985877
1.59920813
1.576702217
1.564026969
1.545740696
1.516473721
1.495474922
1.486131777
1.472441642
1.447248817
1.424698926
1.416369072
1.407703802
1.815062966
1.839365182
1.843794594
1.842876817
1.843302731
1.844437065
1.844317596
1.842399074
1.837483355
1.829037217
1.816727192
1.801591557
1.782887767
1.760936587
1.740474528
1.718980173
1.691751344
1.667624945
1.650238868
1.62798706
1.598433637
1.578625096
1.56592785
1.545964308
1.516803118
1.49857795
1.489254801
1.474085342
1.447962569
1.427875154
1.420414285
1.80809692
1.830833635
1.832007533
1.836806507
1.843469412
1.844970178
1.844423398
1.843766212
1.841635413
1.836528298
1.827468974
1.81474949
1.79961901
1.780712756
1.759204034
1.739435276
1.717422432
1.690224457
1.66790824
1.650609327
1.627056724
1.598208844
1.580494927
1.567447413
1.545942055
1.517343842
1.501575596
1.49218141
1.475625283
1.448971441
1.43135528
1.75494885
1.783778896
1.807699043
1.836357325
1.843264415
1.843970103
1.84383553
1.844053515
1.843655567
1.84119331
1.835451338
1.825832104
1.813013939
1.797676225
1.778305986
1.757344665
1.738112114
1.715647662
1.689059937
1.668440688
1.651000698
1.626270503
1.598328362
1.582317684
1.568755484
1.545690346
1.518073298
1.504635703
1.495015495
1.476934033
1.450216018
1.631746469
1.725403427
1.802411869
1.831442524
1.831406351
1.836831805
1.843263463
1.844547308
1.844211978
1.843300957
1.84048025
1.834403659
1.824370048
1.811221742
1.7953582
1.775695145
1.755490213
1.736653315
1.713854721
1.688146436
1.669013085
1.651256855
1.625353738
1.598723215
1.58425435
1.569957174
1.545294775
1.519283181
1.507774263
1.497575965
1.477827367
1.501857367
1.626043839
1.758438456
1.791986073
1.808303451
1.828308853
1.841129527
1.842356076
1.842825773
1.84367335
1.843088179
1.83981926
1.833164836
1.822773684
1.809407168
1.793144657
1.773391168
1.753867743
1.735186046
1.711960673
1.687190038
1.669300504
1.650981848
1.624189682
1.599629731
1.586368275
1.571023629
1.545003083
1.521075194
1.510812143
1.499715316
1.429467573
1.508815419
1.634815669
1.7252497
1.803864504
1.831435774
1.831166273
1.834139138
1.840477888
1.843872097
1.843388381
1.842178925
1.838663417
1.831832897
1.821146221
1.807546941
1.791065906
1.771419448
1.752485402
1.733654312
1.709840576
1.686139971
1.669210705
1.650189533
1.62316321
1.601006713
1.588381578
1.571823952
1.544979382
1.523259743
1.513654934
1.40568529
1.433849343
1.503268624
1.624579014
1.757434255
1.803021509
1.812981904
1.826188421
1.841362349
1.842213183
1.841126577
1.841211439
1.840628449
1.837344729
1.830251684
1.819396071
1.805985467
1.789440699
1.769778125
1.751163215
1.731841673
1.707537561
1.685104662
1.6688284
1.649132856
1.622407888
1.602379153
1.590013154
1.572336802
1.545241699
1.525673442
1.400745514
1.406676011
1.42951116
1.510674233
1.635193268
1.724368289
1.799137373
1.8330173
1.836003565
1.836116235
1.838441652
1.841225852
1.841661092
1.840593052
1.836847785
1.829307962
1.818176251
1.804564559
1.787488346
1.767792854
1.749522868
1.729820331
1.705468849
1.684366731
1.668486162
1.648121727
1.621730245
1.603468747
1.591219157
1.572569958
1.545709285
1.400071839
1.400867052
1.405568999
1.435074535
1.50449449
1.625065225
1.750668257
1.812966473
1.819069812
1.828480851
1.840765612
1.842248172
1.841181635
1.840906105
1.83990675
1.835986313
1.827979176
1.816488369
1.802531113
1.785019015
1.765633201
1.747911699
1.728019344
1.703824596
1.683892046
1.668189476
1.646986004
1.620944855
1.604334905
1.592106566
1.572570879
1.400009191
1.400080524
1.400728455
1.407024835
1.430141154
1.51180543
1.635832419
1.726893639
1.792189072
1.831256997
1.838996697
1.838267921
1.83967898
1.84202899
1.841788369
1.839840656
1.83501228
1.826424643
1.814569078
1.800169468
1.782367057
1.763603016
1.74645852
1.726326014
1.702321105
1.68358693
1.667867464
1.645677806
1.620277661
1.605229709
1.592850464
1.400005224
1.400009523
1.40007043
1.400915091
1.405679903
1.435923591
1.5050252
1.625643545
1.746966313
1.816880219
1.817364064
1.827282569
1.84014039
1.842843403
1.842268338
1.84151132
1.839342714
1.834131178
1.825025289
1.812741075
1.798051473
1.780220341
1.762030089
1.745120254
1.724404383
1.700766459
1.683249143
1.667315194
1.644288945
1.620012649
1.60625296
1.400005046
1.400005219
1.400009168
1.400083361
1.400727354
1.407262074
1.430961167
1.511682698
1.635188206
1.735461517
1.78309981
1.822058126
1.839416947
1.840474683
1.840746209
1.842486512
1.842115789
1.839387552
1.833514512
1.823971635
1.811512554
1.796520436
1.778347547
1.760387278
1.743279592
1.721993673
1.699213902
1.682882619
1.66670579
1.64320723
1.620208875
1.40000504
1.400005045
1.400005222
1.400009684
1.400069032
1.400957327
1.405903119
1.436554907
1.505957942
1.6225746
1.747898237
1.817412799
1.821789136
1.826628813
1.837538195
1.84262711
1.842216128
1.841114523
1.838636301
1.8329451
1.823201725
1.810454373
1.794935709
1.776417022
1.758647264
1.741310852
1.719748011
1.698081528
1.682641006
1.666159765
1.64230099
1.40000504
1.40000504
1.400005046
1.400005231
1.400009108
1.400087615
1.400758295
1.407429888
1.431847347
1.509594539
1.633459581
1.749994386
1.785747529
1.812812765
1.836288831
1.840606316
1.83924858
1.840660698
1.841241176
1.838960884
1.832652291
1.822277235
1.809240606
1.793250867
1.774555853
1.757077765
1.739612929
1.718054604
1.697302013
1.682412681
1.665452387
1.641259718
1.40000504
1.40000504
1.40000504
1.400005046
1.400005224
1.400009936
1.400070282
1.400991422
1.406145554
1.435894853
1.508697107
1.625769036
1.742695891
1.816002862
1.825771673
1.828595518
1.833929886
1.840330094
1.841478556
1.841016562
1.838107965
1.831410669
1.820877579
1.807669396
1.791481291
1.773071244
1.756105696
1.738627775
1.716825688
1.696658608
1.682008117
1.664412274
1.40000504
1.40000504
1.40000504
1.40000504
1.400005046
1.400005241
1.400009077
1.4000911
1.400800945
1.40747408
1.432945725
1.509535009
1.632381854
1.756199601
1.789129355
1.813576221
1.835955086
1.840387279
1.839186583
1.839683625
1.839714159
1.836997986
1.829981631
1.819278377
1.80620957
1.790104502
1.772008217
1.755491311
1.737684359
1.715491197
1.695920732
1.681430644
1.40000504
1.40000504
1.40000504
1.40000504
1.40000504
1.400005046
1.400005221
1.400010193
1.400073751
1.401017646
1.406525428
1.434454683
1.511169456
1.632336295
1.737173908
1.809907549
1.827953152
1.830736964
1.834556562
1.839131528
1.840038044
1.839452219
1.835917118
1.828715793
1.818044602
1.804876855
1.78855508
1.770841406
1.754670115
1.736467566
1.714111609
1.695402218
1.40000504
1.40000504
1.40000504
1.40000504
1.40000504
1.40000504
1.400005046
1.400005251
1.400009165
1.400094027
1.400846257
1.407244044
1.433600436
1.510511178
1.633118444
1.756131779
1.786074185
1.811769217
1.836502386
1.840152333
1.839337009
1.838949256
1.83850092
1.835329223
1.827831874
1.816745564
1.803292323
1.786801392
1.769409133
1.753436347
1.734918035
1.712905134
1.40000504
1.40000504
1.40000504
1.40000504
1.40000504
1.40000504
1.40000504
1.400005046
1.400005217
1.400010364
1.400077472
1.400999026
1.406860807
1.433661747
1.512151684
1.636132879
1.733623774
1.805777997
1.830696411
1.830408797
1.834698364
1.83798415
1.838984772
1.838354267
1.834647154
1.826723732
1.815367604
1.801506635
1.784745181
1.767670844
1.751916704
1.733400073
1.40000504
1.40000504
1.40000504
1.40000504
1.40000504
1.40000504
1.40000504
1.40000504
1.400005046
1.40000526
1.400009346
1.400096881
1.400903672
1.407040293
1.434531619
1.510408139
1.636412018
1.761642103
1.78871359
1.808032666
1.831730075
1.83814207
1.838840079
1.8385637
1.83769198
1.834006342
1.825786363
1.81386835
1.799618948
1.782743402
1.765945771
1.750444967
1.40000504
1.40000504
1.40000504
1.40000504
1.40000504
1.40000504
1.40000504
1.40000504
1.40000504
1.400005047
1.40000522
1.400010654
1.400084316
1.400968232
1.407168814
1.433685912
1.514762709
1.641595863
1.731489397
1.803214633
1.828584644
1.828517482
1.833309748
1.838261633
1.838203865
1.837251125
1.833080131
1.824314562
1.812274456
1.797863039
1.780762857
1.764282466
1.40000504
1.40000504
1.40000504
1.40000504
1.40000504
1.40000504
1.40000504
1.40000504
1.40000504
1.40000504
1.400005046
1.400005271
1.400009618
1.400096878
1.400953945
1.406890396
1.435817696
1.510136061
1.634733761
1.762426789
1.793917626
1.808941336
1.826455575
1.836413263
1.836734766
1.836822766
1.836507096
1.832110376
1.823037378
1.810846187
1.796152461
1.77896418
1.40000504
1.40000504
1.40000504
1.40000504
1.40000504
1.40000504
1.40000504
1.40000504
1.40000504
1.40000504
1.40000504
1.400005047
1.400005224
1.400010777
1.400090265
1.40093428
1.407310447
1.433237245
1.516391494
1.643540374
1.730322281
1.804706997
1.829412802
1.828109113
1.830599869
1.835598411
1.836652364
1.835510161
1.830516889
1.821331196
1.809203379
1.794353628
1.40000504
1.40000504
1.40000504
1.40000504
1.40000504
1.40000504
1.40000504
1.40000504
1.40000504
1.40000504
1.40000504
1.40000504
1.400005046
1.400005284
1.400009985
1.400093872
1.400986524
1.406718888
1.437485513
1.511704363
1.634573487
1.763107031
1.80345123
1.811431018
1.823729884
1.836188391
1.835668438
1.833783653
1.833098665
1.829087679
1.82002022
1.80757616
1.40000504
1.40000504
1.40000504
1.40000504
1.40000504
1.40000504
1.40000504
1.40000504
1.40000504
1.40000504
1.40000504
1.40000504
1.40000504
1.400005047
1.400005238
1.400010783
1.400095589
1.400925026
1.407677802
1.433459887
1.518652606
1.644872752
1.728803688
1.800750024
1.829812191
1.831596566
1.830673402
1.83266593
1.834590068
1.833528355
1.828532074
1.818777083
1.40000504
1.40000504
1.40000504
1.40000504
1.40000504
1.40000504
1.40000504
1.40000504
1.40000504
1.40000504
1.40000504
1.40000504
1.40000504
1.40000504
1.400005046
1.400005298
1.40001046
1.400092097
1.401028478
1.406586482
1.438735742
1.512224341
1.633398838
1.759186016
1.812031606
1.816584296
1.824514016
1.835093874
1.835002582
1.833736217
1.83165461
1.826464159
1.40000504
1.40000504
1.40000504
1.40000504
1.40000504
1.40000504
1.40000504
1.40000504
1.40000504
1.40000504
1.40000504
1.40000504
1.40000504
1.40000504
1.40000504
1.400005048
1.400005257
1.400010656
1.400097427
1.400897964
1.408003903
1.433698203
1.519792512
1.646237475
1.730267775
1.794895594
1.829480966
1.833406242
1.832069424
1.832965187
1.833510578
1.831498998
1.40000504
1.40000504
1.40000504
1.40000504
1.40000504
1.40000504
1.40000504
1.40000504
1.40000504
1.40000504
1.40000504
1.40000504
1.40000504
1.40000504
1.40000504
1.40000504
1.400005046
1.400005297
1.400010729
1.400089731
1.401082177
1.406619287
1.439887537
1.513177667
1.633504199
1.753793875
1.815794033
1.816580371
1.824669115
1.834897604
1.834975574
1.833870019
1.40000504
1.40000504
1.40000504
1.40000504
1.40000504
1.40000504
1.40000504
1.40000504
1.40000504
1.40000504
1.40000504
1.40000504
1.40000504
1.40000504
1.40000504
1.40000504
1.40000504
1.400005048
1.400005279
1.400010633
1.400101264
1.400886804
1.40833042
1.434185911
1.519845287
1.645374594
1.73350169
1.786506757
1.826093197
1.834460367
1.833182402
1.833196947
1.40000504
1.40000504
1.40000504
1.40000504
1.40000504
1.40000504
1.40000504
1.40000504
1.40000504
1.40000504
1.40000504
1.40000504
1.40000504
1.40000504
1.40000504
1.40000504
1.40000504
1.40000504
1.400005047
1.400005296
1.400010921
1.400086811
1.401130188
1.406721559
1.440529848
1.513827415
1.631566049
1.754871884
1.818143068
1.818461305
1.824146588
1.83291986
1.40000504
1.40000504
1.40000504
1.40000504
1.40000504
1.40000504
1.40000504
1.40000504
1.40000504
1.40000504
1.40000504
1.40000504
1.40000504
1.40000504
1.40000504
1.40000504
1.40000504
1.40000504
1.40000504
1.400005048
1.400005289
1.400010478
1.400105639
1.40089665
1.408586398
1.435036673
1.51911138
1.645410614
1.744751856
1.781555315
1.814241613
1.833411579
1.40000504
1.40000504
1.40000504
1.40000504
1.40000504
1.40000504
1.40000504
1.40000504
1.40000504
1.40000504
1.40000504
1.40000504
1.40000504
1.40000504
1.40000504
1.40000504
1.40000504
1.40000504
1.40000504
1.40000504
1.400005047
1.400005295
1.400011188
1.400086209
1.401179868
1.406938222
1.440610737
1.515347347
1.63110753
1.751762037
1.816274365
1.82181095
1.40000504
1.40000504
1.40000504
1.40000504
1.40000504
1.40000504
1.40000504
1.40000504
1.40000504
1.40000504
1.40000504
1.40000504
1.40000504
1.40000504
1.40000504
1.40000504
1.40000504
1.40000504
1.40000504
1.40000504
1.40000504
1.400005048
1.400005298
1.400010319
1.400110071
1.4009235
1.408680827
1.435870006
1.517657034
1.644330397
1.756067263
1.787900282
1.40000504
1.40000504
1.40000504
1.40000504
1.40000504
1.40000504
1.40000504
1.40000504
1.40000504
1.40000504
1.40000504
1.40000504
1.40000504
1.40000504
1.40000504
1.40000504
1.40000504
1.40000504
1.40000504
1.40000504
1.40000504
1.40000504
1.400005048
1.400005287
1.400011451
1.4000873
1.401209691
1.407239864
1.43964661
1.51802113
1.636988975
1.744550468
1.40000504
1.40000504
1.40000504
1.40000504
1.40000504
1.40000504
1.40000504
1.40000504
1.40000504
1.40000504
1.40000504
1.40000504
1.40000504
1.40000504
1.40000504
1.40000504
1.40000504
1.40000504
1.40000504
1.40000504
1.40000504
1.40000504
1.40000504
1.400005048
1.40000531
1.40001026
1.400113987
1.400969544
1.40862037
1.436655945
1.518403946
1.64068838
1.40000504
1.40000504
1.40000504
1.40000504
1.40000504
1.40000504
1.40000504
1.40000504
1.40000504
1.40000504
1.40000504
1.40000504
1.40000504
1.40000504
1.40000504
1.40000504
1.40000504
1.40000504
1.40000504
1.40000504
1.40000504
1.40000504
1.40000504
1.40000504
1.400005048
1.400005279
1.40001174
1.400090765
1.40121692
1.407584904
1.438310689
1.519550581
1.40000504
1.40000504
1.40000504
1.40000504
1.40000504
1.40000504
1.40000504
1.40000504
1.40000504
1.40000504
1.40000504
1.40000504
1.40000504
1.40000504
1.40000504
1.40000504
1.40000504
1.40000504
1.40000504
1.40000504
1.40000504
1.40000504
1.40000504
1.40000504
1.40000504
1.400005048
1.400005323
1.400010353
1.400117338
1.401026034
1.408414016
1.437550055
1.40000504
1.40000504
1.40000504
1.40000504
1.40000504
1.40000504
1.40000504
1.40000504
1.40000504
1.40000504
1.40000504
1.40000504
1.40000504
1.40000504
1.40000504
1.40000504
1.40000504
1.40000504
1.40000504
1.40000504
1.40000504
1.40000504
1.40000504
1.40000504
1.40000504
1.40000504
1.400005049
1.400005275
1.400012039
1.400096947
1.401206178
1.40791322
1.40000504
1.40000504
1.40000504
1.40000504
1.40000504
1.40000504
1.40000504
1.40000504
1.40000504
1.40000504
1.40000504
1.40000504
1.40000504
1.40000504
1.40000504
1.40000504
1.40000504
1.40000504
1.40000504
1.40000504
1.40000504
1.40000504
1.40000504
1.40000504
1.40000504
1.40000504
1.40000504
1.400005048
1.400005337
1.40001057
1.400121241
1.401055716
1.40000504
1.40000504
1.40000504
1.40000504
1.40000504
1.40000504
1.40000504
1.40000504
1.40000504
1.40000504
1.40000504
1.40000504
1.40000504
1.40000504
1.40000504
1.40000504
1.40000504
1.40000504
1.40000504
1.40000504
1.40000504
1.40000504
1.40000504
1.40000504
1.40000504
1.40000504
1.40000504
1.40000504
1.400005049
1.400005276
1.400012322
1.400101451
1.40000504
1.40000504
1.40000504
1.40000504
1.40000504
1.40000504
1.40000504
1.40000504
1.40000504
1.40000504
1.40000504
1.40000504
1.40000504
1.40000504
1.40000504
1.40000504
1.40000504
1.40000504
1.40000504
1.40000504
1.40000504
1.40000504
1.40000504
1.40000504
1.40000504
1.40000504
1.40000504
1.40000504
1.40000504
1.400005048
1.400005351
1.400010916
1.40000504
1.40000504
1.40000504
1.40000504
1.40000504
1.40000504
1.40000504
1.40000504
1.40000504
1.40000504
1.40000504
1.40000504
1.40000504
1.40000504
1.40000504
1.40000504
1.40000504
1.40000504
1.40000504
1.40000504
1.40000504
1.40000504
1.40000504
1.40000504
1.40000504
1.40000504
1.40000504
1.40000504
1.40000504
1.40000504
1.400005049
1.400005289
1.40000504
1.40000504
1.40000504
1.40000504
1.40000504
1.40000504
1.40000504
1.40000504
1.40000504
1.40000504
1.40000504
1.40000504
1.40000504
1.40000504
1.40000504
1.40000504
1.40000504
1.40000504
1.40000504
1.40000504
1.40000504
1.40000504
1.40000504
1.40000504
1.40000504
1.40000504
1.40000504
1.40000504
1.40000504
1.40000504
1.40000504
1.400005048
1.40000504
1.40000504
1.40000504
1.40000504
1.40000504
1.40000504
1.40000504
1.40000504
1.40000504
1.40000504
1.40000504
1.40000504
1.40000504
1.40000504
1.40000504
1.40000504
1.40000504
1.40000504
1.40000504
1.40000504
1.40000504
1.40000504
1.40000504
1.40000504
1.40000504
1.40000504
1.40000504
1.40000504
1.40000504
1.40000504
1.40000504
1.40000504
)
;

boundaryField
{
    inlet
    {
        type            calculated;
        value           nonuniform 0();
    }
    outlet
    {
        type            calculated;
        value           nonuniform 0();
    }
    bottom
    {
        type            calculated;
        value           nonuniform 0();
    }
    top
    {
        type            calculated;
        value           nonuniform List<scalar> 
32
(
1.40000504
1.40000504
1.40000504
1.40000504
1.40000504
1.40000504
1.40000504
1.40000504
1.40000504
1.40000504
1.40000504
1.40000504
1.40000504
1.40000504
1.40000504
1.40000504
1.40000504
1.40000504
1.40000504
1.40000504
1.40000504
1.40000504
1.40000504
1.40000504
1.40000504
1.40000504
1.40000504
1.40000504
1.40000504
1.40000504
1.40000504
1.40000504
)
;
    }
    obstacle
    {
        type            calculated;
        value           nonuniform 0();
    }
    defaultFaces
    {
        type            empty;
    }
    procBoundary34to27
    {
        type            processor;
        value           nonuniform List<scalar> 9(1.426345652 1.464748274 1.49372257 1.520192973 1.553276361 1.593572374 1.630098001 1.659690651 1.687381721);
    }
    procBoundary34to28
    {
        type            processor;
        value           nonuniform List<scalar> 
32
(
1.153851143
1.13859663
1.113796022
1.097619525
1.091909025
1.083878949
1.068294872
1.048567737
1.040119465
1.035733975
1.027075248
1.012459684
0.9987728362
0.992419583
0.9884265918
0.9810521468
0.9664624814
0.9582007774
0.9546985513
0.9485512317
0.942131649
0.9341825002
1.35455437
1.343049417
1.321085178
1.28288001
1.261320217
1.252778596
1.236892108
1.206845446
1.18289936
1.18289936
)
;
    }
    procBoundary34to29
    {
        type            processor;
        value           uniform 0.9408934502;
    }
    procBoundary34to33
    {
        type            processor;
        value           nonuniform List<scalar> 
61
(
1.717432583
1.746901454
1.771665253
1.792189599
1.809537046
1.823143776
1.832991898
1.8396474
1.843542064
1.844579657
1.844329384
1.845048978
1.844898131
1.842439052
1.837947291
1.836361426
1.827083105
1.78738011
1.730025439
1.626244637
1.506163277
1.432067135
1.406406132
1.400839192
1.400078611
1.400009182
1.400005195
1.400005044
1.40000504
1.40000504
1.40000504
1.40000504
1.40000504
1.40000504
1.40000504
1.40000504
1.40000504
1.40000504
1.40000504
1.40000504
1.40000504
1.40000504
1.40000504
1.40000504
1.40000504
1.40000504
1.40000504
1.40000504
1.40000504
1.40000504
1.40000504
1.40000504
1.40000504
1.40000504
1.40000504
1.40000504
1.40000504
1.40000504
1.40000504
1.40000504
1.40000504
)
;
    }
    procBoundary34to35
    {
        type            processor;
        value           nonuniform List<scalar> 
71
(
0.9600367385
0.9769665045
0.9921221924
1.005665594
1.01785525
1.032013462
1.050793411
1.072178215
1.091805041
1.10793675
1.121190045
1.134155498
1.150140631
1.172723397
1.195456616
1.214064796
1.227267052
1.239722696
1.254313304
1.278627281
1.302762667
1.320453517
1.332733211
1.344407838
1.363700743
1.390055021
1.41089803
1.424387781
1.435117233
1.451747476
1.478410408
1.501534079
1.516397538
1.528252003
1.546359752
1.572419797
1.593475398
1.607300097
1.620503905
1.620503905
1.620734809
1.640040008
1.663184325
1.680963127
1.695060664
1.711851149
1.731829858
1.748919448
1.762820159