/*--------------------------------*- C++ -*----------------------------------*\
  =========                 |
  \\      /  F ield         | OpenFOAM: The Open Source CFD Toolbox
   \\    /   O peration     | Website:  https://openfoam.org
    \\  /    A nd           | Version:  7
     \\/     M anipulation  |
\*---------------------------------------------------------------------------*/
FoamFile
{
    version     2.0;
    format      ascii;
    class       volVectorField;
    location    "0.1";
    object      U;
}
// * * * * * * * * * * * * * * * * * * * * * * * * * * * * * * * * * * * * * //

dimensions      [0 1 -1 0 0 0 0];

internalField   nonuniform List<vector> 
2222
(
(2.527346221 -0.03076692199 0)
(2.523705255 -0.06545420139 0)
(2.476603132 -0.09555042256 0)
(2.414671934 -0.07331791278 0)
(2.404314428 -0.02474575532 0)
(2.439238794 0.0373427986 0)
(2.509488114 0.05466608527 0)
(2.550564631 0.06429169409 0)
(2.577433697 0.07147965491 0)
(2.608619011 0.06836891217 0)
(2.620693168 0.05254140876 0)
(2.594815988 0.02786298954 0)
(2.540340585 0.01479521389 0)
(2.478843804 0.009068244495 0)
(2.429437435 0.009117875414 0)
(2.395574241 0.003470170739 0)
(2.380419234 -0.003651032713 0)
(2.377542781 -0.005050295912 0)
(3.098216928 -1.094942529 0)
(3.078486029 -0.7446655895 0)
(2.857108306 -0.314079472 0)
(2.567046534 -0.01444978919 0)
(2.540903831 0.001909371542 0)
(2.568494961 -0.03700339027 0)
(2.54958645 -0.08670318754 0)
(2.4993795 -0.1031918364 0)
(2.435768472 -0.08686036753 0)
(2.415235174 -0.03897439965 0)
(2.430261892 0.02129811382 0)
(2.492335493 0.05316643077 0)
(2.544510163 0.06268985675 0)
(2.567709255 0.07138392593 0)
(2.600911098 0.07145885412 0)
(2.612192633 0.05347145163 0)
(2.593207695 0.03589511849 0)
(2.542346404 0.01887681016 0)
(2.480528719 0.01597663762 0)
(2.426891957 0.01537627555 0)
(2.392000665 0.00435987592 0)
(2.378977897 -0.001212026387 0)
(2.376147035 -0.003609771364 0)
(3.026498015 -1.190983923 0)
(3.021508137 -1.185827109 0)
(2.92578909 -0.5648339974 0)
(2.666585257 -0.07869450782 0)
(2.591078839 -0.0145539473 0)
(2.587406578 -0.05712072945 0)
(2.571485673 -0.09111869337 0)
(2.519717315 -0.1044931748 0)
(2.452482928 -0.08769947586 0)
(2.422029374 -0.04929001266 0)
(2.42054834 0.001544851553 0)
(2.471633819 0.05000526353 0)
(2.534531612 0.06086287622 0)
(2.559567621 0.06944351136 0)
(2.590882433 0.07309551633 0)
(2.604194996 0.05374866249 0)
(2.59078966 0.03829483805 0)
(2.542504746 0.01849809356 0)
(2.480747229 0.0196106263 0)
(2.423600253 0.01780505061 0)
(2.387189083 0.004007858126 0)
(2.376112479 0.001011078014 0)
(2.372762227 -0.002070923817 0)
(3.025180074 -1.199738583 0)
(3.027187466 -1.197894242 0)
(2.980539715 -1.129961943 0)
(2.717175193 -0.2918158891 0)
(2.638067279 -0.06481043477 0)
(2.600468686 -0.06977492879 0)
(2.586900319 -0.07898004887 0)
(2.531875908 -0.08998223696 0)
(2.461085318 -0.09069240879 0)
(2.431368155 -0.06239406883 0)
(2.419183102 -0.01980192009 0)
(2.45715705 0.02946190555 0)
(2.517685652 0.05521762612 0)
(2.552430417 0.06551582675 0)
(2.579294516 0.07089805553 0)
(2.597297849 0.05428189522 0)
(2.584231373 0.03965140185 0)
(2.53874967 0.02285528864 0)
(2.476714151 0.02588175977 0)
(2.41723393 0.01889780354 0)
(2.381379936 0.004627095589 0)
(2.370944281 0.002153537434 0)
(2.36828962 -0.0008242404853 0)
(3.024417804 -1.20282921 0)
(3.028594817 -1.195016493 0)
(3.004158036 -1.185056318 0)
(2.910479677 -0.629269565 0)
(2.705962031 -0.1258328328 0)
(2.617466811 -0.06201093595 0)
(2.597090522 -0.05127316833 0)
(2.534935481 -0.08455961474 0)
(2.46501157 -0.1017020161 0)
(2.438295288 -0.08781420226 0)
(2.421009619 -0.0402233767 0)
(2.446329208 0.01029720025 0)
(2.50374329 0.04644249249 0)
(2.545965518 0.05835513825 0)
(2.570202676 0.06421628702 0)
(2.588915612 0.05556071504 0)
(2.576276859 0.03796519268 0)
(2.531819903 0.02891193151 0)
(2.469672454 0.02951612169 0)
(2.408663242 0.01906734019 0)
(2.374686022 0.006727935799 0)
(2.364709848 0.002080626378 0)
(2.363449464 0.000603503321 0)
(3.023997794 -1.204294177 0)
(3.02795799 -1.197755341 0)
(3.012902246 -1.198216723 0)
(2.962572795 -0.9926067212 0)
(2.758833686 -0.1750245091 0)
(2.644273901 -0.03764857449 0)
(2.597632461 -0.03913874838 0)
(2.538033298 -0.07648082589 0)
(2.466681217 -0.1137094811 0)
(2.448211017 -0.1121816942 0)
(2.432464976 -0.06801774024 0)
(2.447040421 -0.01666905326 0)
(2.494376955 0.03295897352 0)
(2.540434742 0.05126828601 0)
(2.562359703 0.05670006326 0)
(2.58157728 0.05738790578 0)
(2.56914789 0.04159093013 0)
(2.527285976 0.04088376989 0)
(2.461848097 0.03175210637 0)
(2.399765633 0.02052534256 0)
(2.365249598 0.008508979224 0)
(2.358245762 0.001246813736 0)
(2.358429107 0.001254820952 0)
(2.366544478 -0.00188791451 0)
(3.024600482 -1.206279692 0)
(3.028759166 -1.197525496 0)
(3.018988423 -1.191474995 0)
(2.982744492 -1.181195993 0)
(2.817559271 -0.3110016488 0)
(2.699423557 -0.003129115776 0)
(2.595581847 -0.04361642635 0)
(2.541538992 -0.07361831825 0)
(2.471218341 -0.1289897145 0)
(2.450636444 -0.1225331392 0)
(2.439365802 -0.08131629898 0)
(2.447604749 -0.03034791077 0)
(2.487909241 0.02314521484 0)
(2.532639948 0.05225355243 0)
(2.552150902 0.05307843285 0)
(2.5722923 0.05771726401 0)
(2.561484242 0.04778562036 0)
(2.520200958 0.05054296395 0)
(2.452675563 0.03445248466 0)
(2.39302139 0.02545250645 0)
(2.355777453 0.009518108688 0)
(2.351564868 -0.0002711087647 0)
(2.353891273 0.002098721263 0)
(2.365189338 -0.001128157452 0)
(3.025580461 -1.208136239 0)
(3.029307985 -1.197988316 0)
(3.01964382 -1.196610039 0)
(2.995047758 -1.205428612 0)
(2.998173011 -1.008963816 0)
(2.781383739 -0.1626230968 0)
(2.621412388 -0.06499132115 0)
(2.553534918 -0.08166663941 0)
(2.483923931 -0.1307762894 0)
(2.454923105 -0.1246296291 0)
(2.445789386 -0.08675430754 0)
(2.452088218 -0.03370848599 0)
(2.481914345 0.02634693655 0)
(2.521575312 0.06043871904 0)
(2.543340038 0.05301382522 0)
(2.55793471 0.05852426877 0)
(2.55038073 0.05308998379 0)
(2.512330998 0.05350132651 0)
(2.445839698 0.03788354665 0)
(2.387802205 0.03026095114 0)
(2.349404301 0.009625892008 0)
(2.345294584 -0.001372943789 0)
(2.351390494 0.002391409981 0)
(2.365421092 -0.0004617776874 0)
(3.026096194 -1.209208181 0)
(3.029370066 -1.199818158 0)
(3.021782474 -1.197595596 0)
(2.998469102 -1.201768598 0)
(2.975469411 -1.187641617 0)
(2.926415245 -0.5856088366 0)
(2.716489763 -0.1486296569 0)
(2.564087043 -0.1064254151 0)
(2.496632917 -0.127362425 0)
(2.46126753 -0.1195655388 0)
(2.45320205 -0.08813877347 0)
(2.457846147 -0.0419007512 0)
(2.478058877 0.01690837135 0)
(2.509139405 0.05813611845 0)
(2.532024671 0.05729739643 0)
(2.544094921 0.05831869198 0)
(2.540494879 0.05878665121 0)
(2.503273983 0.05151932109 0)
(2.442378197 0.04019733716 0)
(2.385741079 0.03437418429 0)
(2.345769222 0.008812837204 0)
(2.341385372 -0.001620165907 0)
(2.350963492 0.002635214486 0)
(2.367841553 -0.0003138393268 0)
(3.026648486 -1.210888779 0)
(3.029323653 -1.199795043 0)
(3.023686016 -1.199587301 0)
(3.004611667 -1.212932552 0)
(2.984894685 -1.19529201 0)
(2.956905308 -1.115221496 0)
(2.828032363 -0.3041188796 0)
(2.609045445 -0.1424628885 0)
(2.51074399 -0.1195129994 0)
(2.471915614 -0.1149969575 0)
(2.460255396 -0.09005517483 0)
(2.461401586 -0.04890734887 0)
(2.475026116 0.00386717025 0)
(2.497256875 0.04735426783 0)
(2.520141998 0.05767008952 0)
(2.530569672 0.05604623106 0)
(2.531318986 0.05918601393 0)
(2.498004684 0.04826012091 0)
(2.440720055 0.04376901426 0)
(2.385194242 0.03599639558 0)
(2.345492461 0.006435726597 0)
(2.339823917 -0.001048374902 0)
(2.351592703 0.002228416938 0)
(2.370858437 -0.001682967708 0)
(3.026405366 -1.21193712 0)
(3.02835935 -1.201543722 0)
(3.024513993 -1.199816446 0)
(3.009692529 -1.208644508 0)
(2.997641809 -1.194081396 0)
(2.968973173 -1.188541324 0)
(2.923443258 -0.8660935277 0)
(2.726168903 -0.2426572442 0)
(2.525333954 -0.108430885 0)
(2.489881383 -0.1176299817 0)
(2.467666594 -0.09564571181 0)
(2.463153259 -0.06130254912 0)
(2.472005202 -0.01050589569 0)
(2.489508825 0.03506379999 0)
(2.508411179 0.05518305536 0)
(2.517712159 0.05748805687 0)
(2.522711567 0.05723065328 0)
(2.494929293 0.04709990447 0)
(2.442170867 0.04738017146 0)
(2.385829766 0.031259665 0)
(2.349482834 0.006884200259 0)
(2.341027988 0.0005585613117 0)
(2.352834724 0.001016167958 0)
(2.37506045 -0.002792208616 0)
(3.02612656 -1.212082428 0)
(3.027629093 -1.20188045 0)
(3.025730509 -1.198100618 0)
(3.013134689 -1.206234799 0)
(2.998156325 -1.200957164 0)
(2.983561287 -1.170432255 0)
(2.955276447 -1.167699398 0)
(2.863969882 -0.5496206156 0)
(2.603364051 -0.1576673877 0)
(2.504415257 -0.1415356578 0)
(2.47248284 -0.1109932726 0)
(2.464204432 -0.07940643665 0)
(2.471769821 -0.02024538288 0)
(2.490653474 0.02440578486 0)
(2.500306516 0.05035464722 0)
(2.50915763 0.0569902049 0)
(2.51422818 0.05277769132 0)
(2.493051777 0.05467963781 0)
(2.44451758 0.04479825717 0)
(2.388375051 0.02636570075 0)
(2.354914386 0.011413382 0)
(2.344382582 0.001800161058 0)
(2.354848734 -0.001192200166 0)
(2.379053148 -0.005569500872 0)
(2.425557719 -0.01687224559 0)
(3.025779922 -1.212646358 0)
(3.026997125 -1.203293391 0)
(3.02590273 -1.199028477 0)
(3.016606986 -1.207458694 0)
(3.008264197 -1.199185958 0)
(2.99419317 -1.177480333 0)
(2.968425886 -1.176041169 0)
(2.930652028 -1.078739104 0)
(2.679818281 -0.3014244345 0)
(2.535308767 -0.160545925 0)
(2.482416975 -0.1211132265 0)
(2.468119962 -0.08632489344 0)
(2.47292779 -0.02246413699 0)
(2.488689982 0.02025032289 0)
(2.498042849 0.04474682644 0)
(2.503634073 0.05256605138 0)
(2.505504438 0.05201962005 0)
(2.489325736 0.06107017739 0)
(2.446224542 0.04148375321 0)
(2.393980273 0.03134493743 0)
(2.359598774 0.01718103227 0)
(2.350577067 0.000259086899 0)
(2.358497803 -0.004760651721 0)
(2.384437956 -0.006219359842 0)
(2.432072734 -0.01877462726 0)
(3.024727588 -1.212599523 0)
(3.026124806 -1.203287135 0)
(3.026572177 -1.199052304 0)
(3.01953516 -1.209531923 0)
(3.012764741 -1.206263264 0)
(3.001176577 -1.194734127 0)
(2.980099257 -1.173431387 0)
(2.954982908 -1.165926997 0)
(2.91041108 -0.6631921047 0)
(2.59963666 -0.2239771187 0)
(2.494069571 -0.1185433229 0)
(2.478417933 -0.07552274689 0)
(2.475854212 -0.01392133712 0)
(2.486688633 0.02475895416 0)
(2.495789656 0.04389592952 0)
(2.500598218 0.04749874495 0)
(2.500268143 0.05167968817 0)
(2.486433149 0.06752191984 0)
(2.448342363 0.04490174862 0)
(2.401241646 0.04215995622 0)
(2.363636661 0.02104242851 0)
(2.358846716 -0.005094344795 0)
(2.365678216 -0.007466369358 0)
(2.390805779 -0.008284639359 0)
(2.437141312 -0.01990576769 0)
(3.024425904 -1.212735463 0)
(3.025791508 -1.203815408 0)
(3.026538717 -1.200358529 0)
(3.021917662 -1.210633494 0)
(3.017302474 -1.212826917 0)
(3.010117176 -1.199843744 0)
(2.992715826 -1.180924703 0)
(2.958654991 -1.182332243 0)
(2.926209651 -1.002345688 0)
(2.695041756 -0.3208772442 0)
(2.515262159 -0.1167894774 0)
(2.48649088 -0.05706779595 0)
(2.476833506 -0.00241397425 0)
(2.485491305 0.03137639836 0)
(2.494435142 0.04637757746 0)
(2.497413057 0.04327255803 0)
(2.497700412 0.05286224906 0)
(2.484678905 0.06647187205 0)
(2.450140429 0.05570721979 0)
(2.408109381 0.05268137487 0)
(2.36782846 0.0168431309 0)
(2.366405841 -0.008209627809 0)
(2.374619959 -0.009467219433 0)
(2.397813189 -0.008990860662 0)
(2.441300589 -0.01927299598 0)
(3.024074278 -1.213950872 0)
(3.025357336 -1.205143194 0)
(3.026787652 -1.200922038 0)
(3.023634953 -1.212334351 0)
(3.021482365 -1.216599049 0)
(3.019180795 -1.207557171 0)
(3.000704078 -1.199369947 0)
(2.963582301 -1.179702873 0)
(2.933225102 -1.137312156 0)
(2.804190158 -0.4547797469 0)
(2.558399566 -0.1244854087 0)
(2.498059112 -0.0367737916 0)
(2.482502375 0.01121990519 0)
(2.487484963 0.03743870479 0)
(2.493471101 0.04877289763 0)
(2.494399871 0.04230828128 0)
(2.494537086 0.05229983195 0)
(2.480933888 0.05574127896 0)
(2.452630858 0.06519187871 0)
(2.415064563 0.05140990209 0)
(2.373970622 0.01076523748 0)
(2.371592746 -0.00936455919 0)
(2.383869998 -0.009658807609 0)
(2.404647536 -0.01084272894 0)
(2.44528529 -0.02048642292 0)
(3.023590279 -1.214899536 0)
(3.024627881 -1.206194348 0)
(3.0270221 -1.201500076 0)
(3.025356467 -1.210697436 0)
(3.024604158 -1.216422668 0)
(3.023917928 -1.20770554 0)
(3.012360844 -1.193078021 0)
(2.979398199 -1.178610783 0)
(2.942948769 -1.177498029 0)
(2.92684047 -0.848802658 0)
(2.608161019 -0.1876428935 0)
(2.510335443 -0.02761697607 0)
(2.491594984 0.009388486286 0)
(2.490750012 0.04169850259 0)
(2.494121771 0.05052351407 0)
(2.493053534 0.04781660012 0)
(2.490027691 0.04871636922 0)
(2.475639958 0.05237138534 0)
(2.45333264 0.07393559114 0)
(2.420235884 0.04047548369 0)
(2.38337349 0.009697094999 0)
(2.375992705 -0.007117795106 0)
(2.3919527 -0.009895859236 0)
(2.410517641 -0.01395489358 0)
(2.448687125 -0.02402915773 0)
(3.022537282 -1.214732758 0)
(3.023703991 -1.206326713 0)
(3.027253635 -1.201047287 0)
(3.02687051 -1.209495568 0)
(3.028961988 -1.21526081 0)
(3.031798155 -1.209558916 0)
(3.026808668 -1.191176727 0)
(2.99361073 -1.183706993 0)
(2.946181623 -1.17540826 0)
(2.914249712 -1.087461086 0)
(2.695874753 -0.3428626107 0)
(2.541210055 -0.05731398537 0)
(2.503885507 -0.005807063282 0)
(2.499292399 0.03679724745 0)
(2.496112117 0.05062133283 0)
(2.492643351 0.05883735729 0)
(2.485584406 0.04794859759 0)
(2.471407547 0.05584516487 0)
(2.453351965 0.08025165498 0)
(2.424854219 0.03179844912 0)
(2.394572098 0.01255616967 0)
(2.381650014 -0.004800204083 0)
(2.397958797 -0.01148847851 0)
(2.415948388 -0.01749179959 0)
(2.451492456 -0.02786669958 0)
(3.021269614 -1.214139845 0)
(3.022986373 -1.206248514 0)
(3.02765969 -1.200396859 0)
(3.029151226 -1.209058288 0)
(3.033203253 -1.217705301 0)
(3.040269321 -1.214067407 0)
(3.039831279 -1.200199142 0)
(3.012370268 -1.189129439 0)
(2.962949598 -1.168952169 0)
(2.928279777 -1.140471216 0)
(2.969164683 -0.6914712541 0)
(2.603058009 -0.1420687174 0)
(2.519985726 -0.00510186784 0)
(2.51031018 0.03125762387 0)
(2.500893378 0.04978642623 0)
(2.493457313 0.06497055871 0)
(2.481998153 0.05136179716 0)
(2.469101715 0.06464891514 0)
(2.452498893 0.07149132487 0)
(2.430542861 0.03265910487 0)
(2.405262719 0.02034901371 0)
(2.388774628 -0.004846708334 0)
(2.403685037 -0.0134096762 0)
(2.421336317 -0.02017676241 0)
(2.453681065 -0.03013259454 0)
(2.496934112 -0.03961860003 0)
(3.020326096 -1.21342117 0)
(3.022386603 -1.205881699 0)
(3.028014612 -1.200523708 0)
(3.031107569 -1.209853416 0)
(3.037343291 -1.219604586 0)
(3.0478483 -1.219782652 0)
(3.053812515 -1.206886202 0)
(3.032478341 -1.195347115 0)
(2.975307461 -1.17999614 0)
(2.922928501 -1.154729489 0)
(2.88780375 -0.9617114095 0)
(2.665941233 -0.2498461392 0)
(2.544229541 -0.01957963757 0)
(2.520300082 0.02684979713 0)
(2.506775677 0.05016990656 0)
(2.495358752 0.06595825682 0)
(2.479912705 0.05965896335 0)
(2.465221308 0.07257577975 0)
(2.449922704 0.05857948053 0)
(2.436306953 0.04416619853 0)
(2.415593595 0.02473691596 0)
(2.397525465 -0.007603881594 0)
(2.409983416 -0.01719100475 0)
(2.426674119 -0.02265574725 0)
(2.455696556 -0.03118572635 0)
(2.496132854 -0.04109634833 0)
(3.019796343 -1.212558984 0)
(3.021947836 -1.20540118 0)
(3.028426801 -1.200403711 0)
(3.032926047 -1.210275192 0)
(3.04087746 -1.22121765 0)
(3.054645731 -1.224534844 0)
(3.0648803 -1.216542842 0)
(3.049208778 -1.204624813 0)
(2.989309204 -1.196167301 0)
(2.92680593 -1.155787198 0)
(2.889368767 -1.092109755 0)
(2.783987053 -0.4394688698 0)
(2.579728518 -0.03943096625 0)
(2.527240351 0.03139897922 0)
(2.515342301 0.05079816777 0)
(2.499372766 0.06415554684 0)
(2.479867095 0.06454100815 0)
(2.462551104 0.07791590079 0)
(2.4490904 0.06036860446 0)
(2.442003153 0.06029047061 0)
(2.425535807 0.02110396009 0)
(2.408407841 -0.009955586565 0)
(2.416070663 -0.01888788574 0)
(2.432240732 -0.0242349435 0)
(2.457960374 -0.03149973411 0)
(2.494790538 -0.04142314578 0)
(3.019272575 -1.211899555 0)
(3.021585167 -1.20483491 0)
(3.028533271 -1.200464974 0)
(3.034217563 -1.210759772 0)
(3.043815037 -1.222937849 0)
(3.06053849 -1.228043974 0)
(3.074805155 -1.222234244 0)
(3.064617276 -1.211913232 0)
(3.005697614 -1.204744063 0)
(2.93257619 -1.160898593 0)
(2.892083668 -1.115238733 0)
(2.848375121 -0.8303177462 0)
(2.584712717 -0.1003652818 0)
(2.533662659 0.0428474563 0)
(2.522031864 0.05049745639 0)
(2.505182774 0.0553721326 0)
(2.481368582 0.06993539112 0)
(2.460831097 0.07447072242 0)
(2.450532038 0.06612260544 0)
(2.445147758 0.07365168777 0)
(2.435134279 0.01346677742 0)
(2.420697995 -0.007432312165 0)
(2.42225342 -0.02147187459 0)
(2.437644091 -0.02600627988 0)
(2.460470096 -0.0308101193 0)
(2.493536006 -0.04107992756 0)
(3.018725611 -1.211688633 0)
(3.021296573 -1.204383653 0)
(3.028811822 -1.200439353 0)
(3.035378347 -1.210770169 0)
(3.046571788 -1.222965898 0)
(3.06469595 -1.230639503 0)
(3.082192231 -1.227077916 0)
(3.076373033 -1.215387485 0)
(3.022509998 -1.204811322 0)
(2.943961014 -1.177898431 0)
(2.891324895 -1.119053285 0)
(2.846991299 -1.032732696 0)
(2.636293105 -0.3170662778 0)
(2.536429328 0.04074268302 0)
(2.529269362 0.04767682591 0)
(2.505583242 0.04942752666 0)
(2.485068455 0.07031531496 0)
(2.459523455 0.05849062521 0)
(2.450942868 0.07390464932 0)
(2.449297235 0.07308941329 0)
(2.443996981 0.009257640255 0)
(2.432906714 -0.001682132723 0)
(2.429244008 -0.02310364785 0)
(2.442858269 -0.02730605865 0)
(2.46352303 -0.03136319173 0)
(2.492201591 -0.04141936414 0)
(3.018565498 -1.213178504 0)
(3.021628966 -1.204885651 0)
(3.029387061 -1.200922016 0)
(3.036556932 -1.21011767 0)
(3.048197407 -1.222331537 0)
(3.067067281 -1.231039402 0)
(3.086697303 -1.227950107 0)
(3.086599083 -1.213171953 0)
(3.037606673 -1.19987887 0)
(2.949342748 -1.178269642 0)
(2.889417528 -1.115853793 0)
(2.858348743 -1.076601857 0)
(2.887831814 -0.6938382172 0)
(2.55059594 -0.04743924579 0)
(2.536234345 0.04022287334 0)
(2.505434322 0.05338885305 0)
(2.487130621 0.06112975651 0)
(2.460952311 0.05276254916 0)
(2.452688317 0.08116469299 0)
(2.453721564 0.05585362549 0)
(2.452591042 0.01617831785 0)
(2.442852393 0.004886564634 0)
(2.437221662 -0.0284444876 0)
(2.447312246 -0.02921950293 0)
(2.466820313 -0.03388626495 0)
(2.491227704 -0.04323824469 0)
(3.017528277 -1.213471065 0)
(3.021946454 -1.205099903 0)
(3.030406833 -1.200898847 0)
(3.037577542 -1.20794584 0)
(3.049314893 -1.221562704 0)
(3.069591158 -1.232456716 0)
(3.09165434 -1.230769187 0)
(3.096679664 -1.217232232 0)
(3.054711145 -1.201074292 0)
(2.964026115 -1.175450087 0)
(2.892556646 -1.105703064 0)
(2.843316107 -1.07981315 0)
(2.810039224 -0.9202915474 0)
(2.578404517 -0.1958337968 0)
(2.54577483 0.03185701894 0)
(2.50627552 0.06344143949 0)
(2.486391008 0.05893723772 0)
(2.468556678 0.06178283096 0)
(2.454918568 0.07535254105 0)
(2.458647103 0.04924286651 0)
(2.461298519 0.02745886309 0)
(2.450179312 0.007986561052 0)
(2.44539496 -0.02927155248 0)
(2.45191356 -0.03321278151 0)
(2.469376754 -0.0389958445 0)
(2.491675776 -0.04576556256 0)
(2.526509936 -0.05099377403 0)
(3.016852845 -1.21252881 0)
(3.022206609 -1.204504417 0)
(3.031293698 -1.200417772 0)
(3.038487316 -1.20660086 0)
(3.050827678 -1.221711264 0)
(3.073258808 -1.234204321 0)
(3.097120903 -1.234533929 0)
(3.105438753 -1.224409189 0)
(3.070664179 -1.206989415 0)
(2.980532106 -1.180377779 0)
(2.894190071 -1.117129154 0)
(2.838710034 -1.083645011 0)
(2.81490227 -1.042814243 0)
(2.755046621 -0.4408433739 0)
(2.566428285 0.0261883636 0)
(2.508250667 0.09216845073 0)
(2.483177411 0.06225889932 0)
(2.475316924 0.07594934055 0)
(2.459504832 0.06360594692 0)
(2.462091831 0.04701037691 0)
(2.464700086 0.03989138941 0)
(2.455683467 -0.001489174991 0)
(2.452159473 -0.0259980618 0)
(2.457137503 -0.03699004907 0)
(2.471936803 -0.04234547425 0)
(2.49415449 -0.04772101097 0)
(2.524737891 -0.05238985311 0)
(3.016911753 -1.210298885 0)
(3.022546589 -1.203244417 0)
(3.032653581 -1.199364187 0)
(3.039703454 -1.205929278 0)
(3.052760864 -1.221937579 0)
(3.076972755 -1.235763893 0)
(3.102022501 -1.238286391 0)
(3.112529977 -1.230944671 0)
(3.08376024 -1.213628605 0)
(2.994467061 -1.190798931 0)
(2.899854132 -1.123572503 0)
(2.837028172 -1.090384362 0)
(2.814749928 -1.064719266 0)
(2.798734789 -0.7310622997 0)
(2.573209679 -0.04263255738 0)
(2.512177605 0.1071652077 0)
(2.484585712 0.07321979163 0)
(2.477059075 0.08414768078 0)
(2.463534367 0.05694167065 0)
(2.468693693 0.0587629725 0)
(2.469834398 0.04477592301 0)
(2.459621255 -0.01440708639 0)
(2.457049844 -0.02018489886 0)
(2.463118723 -0.03886366675 0)
(2.475835362 -0.04167999533 0)
(2.497126467 -0.04724332624 0)
(2.523280626 -0.05549597451 0)
(3.016582252 -1.208701402 0)
(3.022524203 -1.201954201 0)
(3.033206344 -1.198457607 0)
(3.041022699 -1.205473092 0)
(3.054792767 -1.222061539 0)
(3.078903608 -1.237052937 0)
(3.106034651 -1.241422339 0)
(3.117938689 -1.237236483 0)
(3.093845419 -1.218081461 0)
(3.007826252 -1.199320213 0)
(2.906318236 -1.137051072 0)
(2.838580269 -1.094740498 0)
(2.812641905 -1.072099581 0)
(2.797900567 -1.021896404 0)
(2.668789782 -0.2930752691 0)
(2.517087666 0.05754894915 0)
(2.488272518 0.09609886654 0)
(2.480552156 0.08615105347 0)
(2.468459143 0.06107333538 0)
(2.47531735 0.07057536088 0)
(2.471948864 0.04120475676 0)
(2.463659574 -0.01235812196 0)
(2.461185299 -0.0140090875 0)
(2.469088308 -0.03848187612 0)
(2.479113146 -0.04168725714 0)
(2.499453629 -0.04775227462 0)
(2.522794742 -0.05871299118 0)
(3.016511315 -1.207898987 0)
(3.022420869 -1.200968252 0)
(3.033770559 -1.197720454 0)
(3.041962759 -1.205058218 0)
(3.056134939 -1.222046343 0)
(3.08086408 -1.238590405 0)
(3.109615209 -1.244246933 0)
(3.122202444 -1.241304893 0)
(3.101275316 -1.220996895 0)
(3.020152829 -1.202569978 0)
(2.916068754 -1.150073802 0)
(2.843043579 -1.101497651 0)
(2.809280857 -1.072553871 0)
(2.803745578 -1.056562723 0)
(2.819864322 -0.6894602964 0)
(2.574659398 -0.07614312155 0)
(2.503932513 0.1119651702 0)
(2.484058944 0.07489999696 0)
(2.472929476 0.07309907603 0)
(2.475315976 0.0800911591 0)
(2.473968796 0.02866172052 0)
(2.468222401 -0.007545192646 0)
(2.466460665 -0.01379582387 0)
(2.473302754 -0.034800861 0)
(2.481920252 -0.03911886254 0)
(2.500840669 -0.0484036001 0)
(2.523304933 -0.05978827706 0)
(3.016398321 -1.207355321 0)
(3.022092583 -1.200250653 0)
(3.034359053 -1.197286495 0)
(3.043466564 -1.204827337 0)
(3.058190433 -1.222258718 0)
(3.083172688 -1.239487475 0)
(3.112629057 -1.246306936 0)
(3.125422156 -1.243331293 0)
(3.108221368 -1.224225645 0)
(3.032497352 -1.201380006 0)
(2.929259452 -1.156451827 0)
(2.850320435 -1.102585209 0)
(2.807804345 -1.071172661 0)
(2.796494282 -1.058776609 0)
(2.780217564 -0.9833486972 0)
(2.644734132 -0.1962643866 0)
(2.516963681 0.08582225504 0)
(2.49647122 0.06904853799 0)
(2.480941211 0.0901779616 0)
(2.477068591 0.06687126377 0)
(2.47682426 0.02216238258 0)
(2.472321084 0.004056808774 0)
(2.471563503 -0.0237603539 0)
(2.47679653 -0.03198716585 0)
(2.486311916 -0.03948880007 0)
(2.501224004 -0.05084164778 0)
(2.52398366 -0.05944447857 0)
(3.016659488 -1.209576631 0)
(3.022244889 -1.201299522 0)
(3.035169931 -1.198095098 0)
(3.044568409 -1.204767632 0)
(3.059091182 -1.222150856 0)
(3.085426924 -1.240076469 0)
(3.115493447 -1.247416944 0)
(3.127700922 -1.245529208 0)
(3.113399768 -1.229330571 0)
(3.04681721 -1.200860114 0)
(2.940478109 -1.152842754 0)
(2.857517846 -1.100593394 0)
(2.806858333 -1.076378442 0)
(2.792684092 -1.066614645 0)
(2.785371916 -1.046858325 0)
(2.750573573 -0.5082937524 0)
(2.579550171 -0.02580185896 0)
(2.514723943 0.06618834122 0)
(2.496028528 0.09600050393 0)
(2.481946698 0.05787517471 0)
(2.484036951 0.03223609535 0)
(2.477535343 0.01637207101 0)
(2.47525843 -0.03593287925 0)
(2.479598242 -0.02956670884 0)
(2.489535523 -0.04449045272 0)
(2.502169295 -0.05210535546 0)
(2.524779525 -0.05945771384 0)
(3.016815654 -1.212684359 0)
(3.023021415 -1.202510892 0)
(3.035725375 -1.198864855 0)
(3.045393526 -1.203856553 0)
(3.061030768 -1.219918459 0)
(3.089009613 -1.240276694 0)
(3.118624914 -1.248713331 0)
(3.129054907 -1.247579779 0)
(3.116134232 -1.235780347 0)
(3.059635816 -1.20467836 0)
(2.95647882 -1.156392142 0)
(2.865987143 -1.100670364 0)
(2.809761964 -1.080855619 0)
(2.788730248 -1.072687141 0)
(2.784773751 -1.064436164 0)
(2.768539374 -0.9714062254 0)
(2.64153116 -0.153312557 0)
(2.54440324 0.07594583625 0)
(2.50889825 0.08280643203 0)
(2.483740085 0.05214552551 0)
(2.489125834 0.0470462813 0)
(2.479906575 0.02621062701 0)
(2.476305861 -0.03979039405 0)
(2.484023824 -0.03530700867 0)
(2.492137825 -0.05056102474 0)
(2.503444325 -0.05258877292 0)
(2.526010187 -0.05965142167 0)
(2.550631526 -0.06928541158 0)
(3.016400536 -1.212637352 0)
(3.023513989 -1.20248567 0)
(3.035827955 -1.198718074 0)
(3.046421814 -1.202092241 0)
(3.062539869 -1.21769464 0)
(3.090821104 -1.239536228 0)
(3.12057138 -1.249575648 0)
(3.129517602 -1.250309994 0)
(3.117624632 -1.240504847 0)
(3.069328948 -1.210907225 0)
(2.972526861 -1.16753355 0)
(2.876929187 -1.108239706 0)
(2.812662793 -1.087450064 0)
(2.78553761 -1.079092428 0)
(2.780592747 -1.067006437 0)
(2.777403323 -1.051780046 0)
(2.740800353 -0.5161693222 0)
(2.566445762 0.08090994799 0)
(2.534772872 0.0686482262 0)
(2.490414835 0.06157156473 0)
(2.491149586 0.06272079277 0)
(2.482046346 0.01719869562 0)
(2.478344515 -0.03230968458 0)
(2.486504916 -0.04507798755 0)
(2.495885834 -0.05282250808 0)
(2.506342665 -0.05093382869 0)
(2.527315531 -0.06059160248 0)
(2.549611666 -0.07193369359 0)
(3.016382502 -1.211400189 0)
(3.023613037 -1.201949815 0)
(3.035794827 -1.198238353 0)
(3.046798256 -1.201316328 0)
(3.063007579 -1.217090048 0)
(3.090212597 -1.240253048 0)
(3.120385181 -1.251475372 0)
(3.130215584 -1.253628439 0)
(3.118020236 -1.242839774 0)
(3.075321757 -1.21794509 0)
(2.986199306 -1.181483127 0)
(2.888615211 -1.120764086 0)
(2.818045134 -1.093873681 0)
(2.78462056 -1.086091593 0)
(2.779462805 -1.07755845 0)
(2.779613964 -1.064432982 0)
(2.765941921 -1.005564983 0)
(2.672407802 -0.2065392774 0)
(2.575411313 0.02291260629 0)
(2.503939472 0.08063484122 0)
(2.490741929 0.0674255972 0)
(2.484172527 0.007633000431 0)
(2.478327051 -0.01656664831 0)
(2.488111178 -0.05101534109 0)
(2.499053264 -0.04838500427 0)
(2.510051457 -0.05042667674 0)
(2.526823557 -0.06404439558 0)
(2.548609371 -0.07263509559 0)
(3.016998034 -1.208155126 0)
(3.023362806 -1.201213882 0)
(3.035783191 -1.197706396 0)
(3.04714297 -1.200860312 0)
(3.062928153 -1.21694679 0)
(3.089615035 -1.241541883 0)
(3.120901328 -1.25343867 0)
(3.13106401 -1.254503814 0)
(3.118151969 -1.243960001 0)
(3.078293992 -1.224152753 0)
(2.996785503 -1.197634024 0)
(2.90075232 -1.137784633 0)
(2.825067675 -1.099334991 0)
(2.784359503 -1.086436898 0)
(2.773603842 -1.079486251 0)
(2.771382474 -1.06655912 0)
(2.772208613 -1.063290976 0)
(2.748744081 -0.6822266206 0)
(2.641464342 -0.04933227314 0)
(2.522998686 0.0965854883 0)
(2.494689045 0.0536142702 0)
(2.489081966 0.008882516109 0)
(2.475789302 -0.004082900217 0)
(2.486856005 -0.0540398549 0)
(2.502118348 -0.04326082961 0)
(2.514237038 -0.05456557394 0)
(2.526780173 -0.06490597814 0)
(2.548497873 -0.07214173187 0)
(3.017221508 -1.206347371 0)
(3.022895383 -1.200573889 0)
(3.035806128 -1.197219092 0)
(3.04752199 -1.20082082 0)
(3.062445834 -1.2171856 0)
(3.089090947 -1.242144607 0)
(3.121521741 -1.255290782 0)
(3.131406599 -1.256554631 0)
(3.117280042 -1.246961732 0)
(3.080031677 -1.229163317 0)
(3.007533553 -1.208914189 0)
(2.911539562 -1.155910848 0)
(2.837008318 -1.102857291 0)
(2.787409917 -1.086989817 0)
(2.772499582 -1.08052479 0)
(2.766952937 -1.071466647 0)
(2.770800478 -1.067242477 0)
(2.762725013 -1.049593002 0)
(2.705675133 -0.3029761756 0)
(2.570833596 0.03763215388 0)
(2.50702728 0.02976755661 0)
(2.495666286 0.01181277495 0)
(2.480969069 0.004752888613 0)
(2.486975088 -0.04921115311 0)
(2.504243651 -0.03989638721 0)
(2.516394464 -0.05987909791 0)
(2.527295308 -0.0637921981 0)
(2.548529335 -0.07115267415 0)
(3.017362122 -1.205958195 0)
(3.022503203 -1.20110597 0)
(3.035887584 -1.197626244 0)
(3.047355407 -1.201125454 0)
(3.062100924 -1.217468184 0)
(3.088603142 -1.243193266 0)
(3.120686863 -1.256804814 0)
(3.130570598 -1.258638691 0)
(3.114935614 -1.251168328 0)
(3.080497863 -1.234217808 0)
(3.019804868 -1.218258962 0)
(2.927681798 -1.171912212 0)
(2.845650643 -1.105496836 0)
(2.796213399 -1.08743066 0)
(2.772338116 -1.086857375 0)
(2.764009997 -1.080495349 0)
(2.766130034 -1.073185467 0)
(2.765550814 -1.062562474 0)
(2.749478059 -0.9205212387 0)
(2.67878566 -0.1937248913 0)
(2.543315504 0.00381356829 0)
(2.506030627 0.02084278141 0)
(2.483296517 -0.009957076727 0)
(2.48778901 -0.03807681362 0)
(2.504276041 -0.03891032697 0)
(2.516818932 -0.06126582492 0)
(2.528060047 -0.06074006821 0)
(2.54805568 -0.07042394146 0)
(3.017549066 -1.207098349 0)
(3.022438737 -1.202411706 0)
(3.035382038 -1.198590547 0)
(3.047217902 -1.2011227 0)
(3.061561396 -1.216720602 0)
(3.087550427 -1.243382629 0)
(3.119577786 -1.258813525 0)
(3.130153986 -1.261203509 0)
(3.112483324 -1.25408977 0)
(3.079359254 -1.239438398 0)
(3.028596256 -1.225914832 0)
(2.94359991 -1.194987251 0)
(2.858374743 -1.134982487 0)
(2.803707041 -1.099963346 0)
(2.772538384 -1.098663162 0)
(2.763018771 -1.093923839 0)
(2.763910605 -1.082815144 0)
(2.763859034 -1.066147465 0)
(2.754461777 -1.056387996 0)
(2.734133426 -0.6463615201 0)
(2.593727872 -0.02959080865 0)
(2.506421574 0.03896348972 0)
(2.488614648 -0.0249768523 0)
(2.489878709 -0.02424012353 0)
(2.503505194 -0.05396642946 0)
(2.516709069 -0.05674786924 0)
(2.530372923 -0.0582684136 0)
(2.545427794 -0.07421002997 0)
(2.566265038 -0.08459676536 0)
(3.01767088 -1.21174573 0)
(3.022343779 -1.203184126 0)
(3.03471642 -1.198889081 0)
(3.047231665 -1.200947369 0)
(3.060966666 -1.213984695 0)
(3.08679471 -1.242554154 0)
(3.119159487 -1.260415587 0)
(3.129703711 -1.263051658 0)
(3.110626176 -1.256658796 0)
(3.07798139 -1.243885811 0)
(3.033084744 -1.230786882 0)
(2.953008519 -1.210741451 0)
(2.870352928 -1.174675158 0)
(2.811071416 -1.130323965 0)
(2.777233274 -1.113437367 0)