/*--------------------------------*- C++ -*----------------------------------*\
  =========                 |
  \\      /  F ield         | OpenFOAM: The Open Source CFD Toolbox
   \\    /   O peration     | Website:  https://openfoam.org
    \\  /    A nd           | Version:  7
     \\/     M anipulation  |
\*---------------------------------------------------------------------------*/
FoamFile
{
    version     2.0;
    format      ascii;
    class       volVectorField;
    location    "4";
    object      U;
}
// * * * * * * * * * * * * * * * * * * * * * * * * * * * * * * * * * * * * * //

dimensions      [0 1 -1 0 0 0 0];

internalField   nonuniform List<vector> 
143
(
(3.02718838 -0.08813259733 0)
(3.039780262 -0.1468887215 0)
(3.057233119 -0.2273723904 0)
(3.074928417 -0.2529356087 0)
(3.076698315 -0.2480322762 0)
(3.07521405 -0.2462008989 0)
(3.068657363 -0.2350004434 0)
(2.970302724 0.08305157448 0)
(2.998654442 0.006683566816 0)
(3.013185512 -0.04091974628 0)
(3.035790281 -0.122605586 0)
(3.031712251 -0.1270421351 0)
(3.059050715 -0.2023116635 0)
(3.065892651 -0.2273500657 0)
(3.066521541 -0.233495038 0)
(2.942460834 0.1487258554 0)
(2.965110746 0.09199142096 0)
(2.992075623 0.01882435538 0)
(3.013674441 -0.03805629171 0)
(3.024777936 -0.09867139314 0)
(3.046066357 -0.1776494123 0)
(3.052821156 -0.1928368012 0)
(3.065823829 -0.2408964183 0)
(2.919358748 0.1962204532 0)
(2.940981724 0.1475836818 0)
(2.960589676 0.1013257207 0)
(2.986345842 0.03323597051 0)
(3.006725759 -0.02189671961 0)
(3.019687848 -0.06723310392 0)
(3.033716048 -0.1123893487 0)
(3.045194678 -0.1605847852 0)
(2.911222583 0.2121628223 0)
(2.921364623 0.1936819039 0)
(2.93680054 0.1561828276 0)
(2.96254004 0.09171463322 0)
(2.977440586 0.05545246145 0)
(3.00337936 -0.01786918446 0)
(3.018300928 -0.05884475592 0)
(3.034237817 -0.1174283897 0)
(2.910519867 0.2190955246 0)
(2.913564176 0.2109061586 0)
(2.920241039 0.1916437169 0)
(2.935646302 0.1562097473 0)
(2.954831354 0.1101104799 0)
(2.980332156 0.04803321517 0)
(2.991999898 0.0151936798 0)
(3.01571848 -0.05773410052 0)
(2.921286996 0.202526512 0)
(2.915315158 0.2018744034 0)
(2.916422325 0.2003183268 0)
(2.923066052 0.189162109 0)
(2.938504651 0.1548903594 0)
(2.955712469 0.1131384933 0)
(2.975446372 0.05860064085 0)
(2.994700808 0.008552337211 0)
(2.937077925 0.1593631851 0)
(2.921074794 0.1935270422 0)
(2.919615934 0.2019468705 0)
(2.917621769 0.2030297347 0)
(2.92236267 0.1888187023 0)
(2.93601471 0.1555890671 0)
(2.951926264 0.1176236775 0)
(2.9736204 0.06601175168 0)
(2.959592827 0.09966015554 0)
(2.946621959 0.1423457349 0)
(2.922028536 0.2120205849 0)
(2.912403769 0.2061491658 0)
(2.916719883 0.1965238215 0)
(2.922769255 0.1861622124 0)
(2.935690977 0.1588692175 0)
(2.954771974 0.1158584551 0)
(2.985587558 0.03534212082 0)
(2.963890239 0.09463114037 0)
(2.941567245 0.1594709014 0)
(2.925592047 0.1759980816 0)
(2.924605122 0.190627337 0)
(2.920826381 0.1956648113 0)
(2.925119949 0.1838965422 0)
(2.934659823 0.1607579539 0)
(2.99645007 0.009026237106 0)
(2.989013249 0.02951252992 0)
(2.958254613 0.1061624033 0)
(2.945173983 0.1420099419 0)
(2.926507456 0.2020404205 0)
(2.920679777 0.2013199042 0)
(2.919956045 0.1920885094 0)
(2.924307073 0.1832698795 0)
(2.999553156 0.001150259194 0)
(2.996842807 0.008508639295 0)
(2.985297478 0.03559216557 0)
(2.968228619 0.08731151115 0)
(2.938955365 0.1678345954 0)
(2.93140708 0.1743498174 0)
(2.924883559 0.186716179 0)
(2.921804548 0.1909492008 0)
(2.999953089 0.000125003221 0)
(2.99959152 0.001051115583 0)
(2.996104919 0.009822076235 0)
(2.987923276 0.03300137558 0)
(2.960491472 0.1000020583 0)
(2.951144169 0.1326245095 0)
(2.92659975 0.192228892 0)
(2.922967097 0.1964326178 0)
(2.999997617 6.302148064e-06 0)
(2.999951374 0.000126293142 0)
(2.999487998 0.001308399099 0)
(2.996729713 0.008692177208 0)
(2.984856864 0.03636257537 0)
(2.967960008 0.08931343549 0)
(2.939426208 0.1602175069 0)
(2.937449194 0.1680175329 0)
(2.999999893 2.865234188e-07 0)
(2.999997258 6.961063839e-06 0)
(2.999942911 0.0001514881428 0)
(2.999522397 0.001236215375 0)
(2.996247315 0.009376503044 0)
(2.986918047 0.03469310889 0)
(2.9633616 0.08981901518 0)
(2.947121203 0.1399680153 0)
(2.999999998 6.179862877e-09 0)
(2.999999857 3.735493306e-07 0)
(2.999996848 8.323125084e-06 0)
(2.999945458 0.0001420631067 0)
(2.999481663 0.001342755583 0)
(2.99650126 0.009036753333 0)
(2.986216812 0.03402580969 0)
(2.966082143 0.08712741385 0)
(3 1.253302717e-10 0)
(2.999999996 9.369787902e-09 0)
(2.999999848 4.115967695e-07 0)
(2.999996754 8.401472949e-06 0)
(2.999942937 0.0001525679133 0)
(2.99948446 0.001330857036 0)
(2.996645657 0.008921440327 0)
(2.986268429 0.03583510278 0)
(3 7.795660131e-13 0)
(3 1.157420818e-10 0)
(2.999999995 5.900866781e-09 0)
(2.99999979 2.384295055e-07 0)
(2.999994783 5.555933989e-06 0)
(2.999922316 8.481066531e-05 0)
(2.999229513 0.0008416852391 0)
(2.994883592 0.005103285435 0)
)
;

boundaryField
{
    inlet
    {
        type            fixedValue;
        value           nonuniform 0();
    }
    outlet
    {
        type            inletOutlet;
        inletValue      nonuniform 0();
        value           nonuniform 0();
    }
    bottom
    {
        type            slip;
    }
    top
    {
        type            slip;
    }
    obstacle
    {
        type            slip;
    }
    defaultFaces
    {
        type            empty;
    }
    procBoundary34to27
    {
        type            processor;
        value           uniform (2.945739327 0.1458624926 0);
    }
    procBoundary34to28
    {
        type            processor;
        value           nonuniform List<vector> 9((3.043212985 -0.1655590656 0) (3.050571868 -0.1802225424 0) (3.06822422 -0.2471162948 0) (3.076325222 -0.2644818285 0) (3.074089305 -0.2590276761 0) (3.066487092 -0.232525738 0) (3.04544237 -0.1577845349 0) (3.00000135 -0.006790238768 0) (3.00000135 -0.006790238768 0));
    }
    procBoundary34to29
    {
        type            processor;
        value           uniform (3.056879689 -0.1975047113 0);
    }
    procBoundary34to33
    {
        type            processor;
        value           nonuniform List<vector> 
16
(
(2.920939233 0.1993204836 0)
(2.909998721 0.2154471397 0)
(2.910225601 0.2125631685 0)
(2.916353429 0.2024466618 0)
(2.930416225 0.1806694623 0)
(2.964293288 0.09092688605 0)
(2.986287538 0.03371246157 0)
(2.996904615 0.007567371497 0)
(2.999573498 0.001061882991 0)
(2.999958758 0.0001037194927 0)
(2.99999765 5.884313725e-06 0)
(2.999999892 2.782402805e-07 0)
(2.999999997 6.92352177e-09 0)
(3 1.39668328e-10 0)
(3 1.417402822e-12 0)
(3 6.549168841e-15 0)
)
;
    }
    procBoundary34to35
    {
        type            processor;
        value           nonuniform List<vector> 
17
(
(3.068344773 -0.2370489699 0)
(3.069392934 -0.2436746042 0)
(3.048174225 -0.1763389224 0)
(3.046912267 -0.1698607376 0)
(3.020925887 -0.07046655631 0)
(3.005467545 -0.02675702598 0)
(2.988490266 0.0259445292 0)
(2.968873819 0.07818960445 0)
(2.952285158 0.1172531334 0)
(2.934515816 0.160362534 0)
(2.925528722 0.1808618278 0)
(2.921416434 0.188914883 0)
(2.926119685 0.182852412 0)
(2.934399826 0.1782608224 0)
(2.942818291 0.15015128 0)
(2.970238692 0.07686451682 0)
(2.979028965 0.02173558452 0)
)
;
    }
}


// ************************************************************************* //
