/*--------------------------------*- C++ -*----------------------------------*\
  =========                 |
  \\      /  F ield         | OpenFOAM: The Open Source CFD Toolbox
   \\    /   O peration     | Website:  https://openfoam.org
    \\  /    A nd           | Version:  7
     \\/     M anipulation  |
\*---------------------------------------------------------------------------*/
FoamFile
{
    version     2.0;
    format      ascii;
    class       volScalarField;
    location    "2.1";
    object      rho;
}
// * * * * * * * * * * * * * * * * * * * * * * * * * * * * * * * * * * * * * //

dimensions      [1 -3 0 0 0 0 0];

internalField   nonuniform List<scalar> 
560
(
0.9904172533
1.006637554
1.055340316
1.157594473
1.267814878
1.350374968
1.366889296
1.382213351
1.389803551
1.388630872
1.385616273
1.384925135
1.385576018
1.387748923
1.39022241
1.391335805
0.9930566487
0.9968107225
1.003649439
1.034656268
1.105124988
1.204769821
1.282980728
1.361156416
1.378163966
1.373930332
1.379237694
1.382493258
1.385869781
1.390101642
1.39235498
1.392363148
1.02300176
1.011430978
1.00531355
1.004320674
1.015009222
1.059662353
1.16177735
1.270611183
1.317425132
1.346696119
1.383749364
1.385088578
1.386333984
1.389136222
1.391122971
1.391039854
1.059547485
1.033514705
1.017820537
1.00789894
1.009811174
1.013558197
1.043152275
1.107449374
1.210213004
1.306587184
1.367747964
1.372922072
1.380456832
1.382139035
1.380353524
1.384809589
1.100989079
1.075773343
1.053744873
1.037547162
1.024816669
1.015623263
1.016042698
1.025251864
1.073613673
1.1562535
1.253302402
1.306489694
1.353902532
1.369859257
1.373693761
1.384111907
1.133925603
1.111361481
1.085935403
1.067975986
1.048270865
1.028900841
1.018761189
1.02159334
1.027108604
1.050114982
1.107958905
1.212037491
1.30927199
1.356128318
1.375991104
1.389153843
1.166310345
1.14836697
1.126341482
1.102876731
1.085825656
1.066280463
1.046551875
1.035802557
1.02783805
1.027113107
1.035356629
1.079922649
1.154867322
1.249906413
1.333359089
1.377049317
1.197684944
1.180616801
1.15868339
1.134311748
1.114401521
1.096754249
1.077378848
1.056671457
1.039614806
1.029573614
1.032047609
1.037684245
1.058488947
1.122083851
1.203200377
1.305490118
1.2326296
1.209413734
1.1915389
1.170425779
1.147242719
1.130714262
1.112448409
1.093621622
1.075108149
1.055833888
1.04453583
1.038121122
1.0370295
1.045926709
1.079835545
1.198577105
1.270092748
1.243176686
1.222323943
1.202951169
1.180154862
1.156989192
1.141012779
1.123870447
1.10503907
1.086777892
1.064440792
1.046963158
1.03950118
1.042044213
1.045313269
1.095631494
1.306384775
1.279624771
1.251214117
1.233901917
1.212611774
1.188498464
1.169446722
1.153533604
1.138140737
1.119680856
1.10144275
1.080852093
1.06347785
1.054136244
1.046788146
1.052090892
1.342287912
1.315050049
1.284972083
1.263061214
1.244479008
1.223601102
1.198289081
1.180084573
1.162881749
1.145836995
1.129845568
1.111752922
1.092121502
1.073317935
1.054027164
1.053412714
1.377045922
1.352088133
1.32189878
1.293935916
1.272482807
1.253809577
1.231286434
1.209160016
1.191301143
1.173264683
1.156602593
1.142598326
1.12381326
1.10515506
1.087351829
1.068434203
1.410746382
1.384535184
1.35880027
1.329282962
1.301160765
1.28283578
1.261133863
1.240521705
1.220699989
1.200961986
1.182952133
1.167087483
1.15118926
1.132466546
1.114957365
1.088905642
1.446272728
1.415136327
1.393354274
1.364340019
1.336063701
1.311648424
1.289594486
1.270412113
1.248022165
1.229575055
1.209862764
1.192773897
1.178841224
1.161832254
1.144489491
1.117997366
1.484407494
1.449266278
1.423113344
1.397833818
1.371568435
1.342246109
1.318592125
1.29909202
1.277479393
1.258334776
1.236914865
1.2176836
1.202432332
1.187304449
1.171914522
1.144997085
1.521826478
1.487527808
1.454591616
1.427109092
1.405059879
1.37673205
1.348736049
1.326660916
1.305850222
1.287445008
1.26559527
1.244942818
1.226066767
1.209989251
1.196931189
1.172228505
1.553863755
1.525612604
1.492098757
1.457896598
1.433843233
1.408658271
1.383318455
1.354693748
1.332773666
1.314305916
1.293570465
1.27471285
1.253355221
1.234191126
1.219729571
1.194972251
1.587182493
1.55699817
1.527335415
1.495798664
1.463186279
1.43741291
1.415835755
1.386621888
1.362121018
1.339772001
1.31963254
1.301899853
1.280270947
1.261358031
1.244988735
1.218610603
1.624983801
1.588703119
1.558371976
1.531180652
1.497326073
1.46700635
1.443270736
1.418535679
1.394922436
1.367301621
1.346384861
1.326782267
1.305626314
1.287961111
1.269538902
1.241669618
1.659577977
1.623916652
1.589294484
1.561052167
1.531907205
1.501061316
1.470419348
1.446443347
1.424668778
1.397864731
1.376021532
1.352154436
1.332527657
1.314589484
1.293046024
1.264950086
1.692012609
1.6585122
1.623932134
1.589517362
1.56201883
1.534374452
1.503078811
1.475800012
1.450274036
1.427261093
1.405082618
1.378363279
1.360216547
1.338325922
1.317071035
1.29321438
1.725319682
1.692002244
1.658784966
1.622882835
1.590989133
1.561991699
1.534717284
1.507099988
1.478195413
1.455435961
1.431803215
1.407225597
1.38834012
1.358817319
1.340503338
1.331534207
1.754955526
1.72468071
1.690393696
1.657531967
1.623913044
1.591391223
1.563801109
1.536155493
1.509095046
1.483137362
1.457182962
1.437437333
1.411664286
1.381824714
1.371915809
1.386344735
1.774444196
1.753313296
1.723086222
1.690670963
1.657012818
1.62461117
1.593067056
1.564505226
1.539103636
1.51032863
1.486679349
1.461303374
1.433199945
1.417741366
1.418714367
1.465114437
1.780961554
1.77138589
1.751711119
1.721997797
1.688790865
1.657133213
1.624137271
1.595445993
1.56604597
1.540544085
1.514222925
1.484198109
1.46761533
1.469017343
1.485384761
1.573531924
1.775154284
1.778921051
1.771304305
1.750244783
1.721279257
1.688456778
1.657898684
1.625478563
1.596005128
1.567639335
1.538007024
1.518825465
1.519675655
1.543302165
1.598675966
1.695469378
1.771495874
1.780611632
1.777874107
1.76828818
1.748429137
1.720836205
1.687681705
1.65573556
1.62552002
1.593233433
1.572200992
1.574749784
1.595612057
1.654245058
1.756000287
1.788899961
1.76829101
1.770366828
1.772590542
1.773818204
1.767405173
1.748261707
1.718173559
1.687005515
1.652768539
1.630272566
1.632150235
1.658278628
1.722895568
1.798084981
1.868315943
1.855507338
1.699005088
1.734869247
1.764406343
1.77606131
1.774347097
1.76421785
1.743922058
1.716344019
1.691780586
1.69427068
1.72237057
1.784744044
1.873232192
1.914400764
1.910263049
1.88389595
1.579480856
1.694747963
1.75401421
1.773267972
1.770693081
1.768169892
1.761004277
1.752320133
1.759954289
1.797667959
1.868752003
1.943971599
1.999949359
1.990882154
1.95450365
1.891132627
1.480836698
1.58705462
1.681204073
1.739640272
1.760288782
1.766581913
1.782927208
1.815326927
1.872069715
1.945286147
2.01816011
2.043616523
2.038635296
2.025070014
1.999241702
1.928190596
1.42397135
1.477679859
1.579538164
1.692142945
1.748193985
1.786033108
1.842289866
1.916054846
2.020243417
2.114837522
2.139507498
2.120110536
2.072662517
2.030961259
1.995048132
1.916237819
1.404516047
1.422364683
1.483325498
1.585011419
1.700380548
1.814811305
1.944921694
2.03828605
2.118030551
2.169059836
2.168641074
2.150714523
2.106833412
2.04904845
1.998509866
1.912872007
1.400555447
1.404497914
1.425338381
1.495899064
1.652523545
1.857845336
2.020704538
2.184397199
2.233719787
2.225536807
2.195966045
2.160275046
2.12109776
2.065137234
2.003953879
1.910750334
)
;

boundaryField
{
    inlet
    {
        type            calculated;
        value           nonuniform 0();
    }
    outlet
    {
        type            calculated;
        value           nonuniform List<scalar> 
35
(
1.391347638
1.392363251
1.39100534
1.384763773
1.384116504
1.389168178
1.377061446
1.305506942
1.19857175
1.095630949
1.052091325
1.053413626
1.06843158
1.088889259
1.117992333
1.145011217
1.1722356
1.194971841
1.218611575
1.241666406
1.264949668
1.293217738
1.331535173
1.386348827
1.465121526
1.573535439
1.695470695
1.788899119
1.855507522
1.88389692
1.891134601
1.928194147
1.916240846
1.91287266
1.910752003
)
;
    }
    bottom
    {
        type            calculated;
        value           nonuniform 0();
    }
    top
    {
        type            calculated;
        value           nonuniform List<scalar> 
16
(
1.400555447
1.404497914
1.425338381
1.495899064
1.652523545
1.857845336
2.020704538
2.184397199
2.233719787
2.225536807
2.195966045
2.160275046
2.12109776
2.065137234
2.003953879
1.910750334
)
;
    }
    obstacle
    {
        type            calculated;
        value           nonuniform 0();
    }
    defaultFaces
    {
        type            empty;
    }
    procBoundary35to29
    {
        type            processor;
        value           nonuniform List<scalar> 
16
(
1.025687216
1.111425125
1.214662328
1.290818211
1.331077268
1.374603363
1.378699744
1.382960613
1.387737086
1.389308433
1.388645135
1.387948999
1.386915143
1.387266984
1.387844642
1.388809067
)
;
    }
    procBoundary35to34
    {
        type            processor;
        value           nonuniform List<scalar> 
35
(
0.9896685149
1.005476806
1.047973525
1.081089173
1.120382934
1.151134597
1.184038121
1.222866066
1.260078776
1.296584487
1.331855593
1.368417512
1.404329593
1.439971543
1.480368689
1.518477913
1.55251819
1.587828778
1.624650546
1.658908631
1.692412437
1.7265931
1.756663131
1.775568515
1.783270922
1.784805944
1.770926532
1.737582593
1.696111441
1.585981756
1.480612855
1.422319851
1.404083466
1.400516613
1.400045328
)
;
    }
}


// ************************************************************************* //
