/*--------------------------------*- C++ -*----------------------------------*\
  =========                 |
  \\      /  F ield         | OpenFOAM: The Open Source CFD Toolbox
   \\    /   O peration     | Website:  https://openfoam.org
    \\  /    A nd           | Version:  7
     \\/     M anipulation  |
\*---------------------------------------------------------------------------*/
FoamFile
{
    version     2.0;
    format      ascii;
    class       volScalarField;
    location    "0.5";
    object      T;
}
// * * * * * * * * * * * * * * * * * * * * * * * * * * * * * * * * * * * * * //

dimensions      [0 0 0 1 0 0 0];

internalField   nonuniform List<scalar> 
23
(
0.9712278595
0.9702018238
1.00623499
0.9767607265
0.9647396819
1.034468777
1.009532867
0.9840533448
1.040385771
1.032575958
1.012471214
1.038597919
1.037090756
1.029822031
1.025145688
1.032630189
1.03142224
1.009972008
1.022910945
1.030493787
1.00237726
1.010848669
1.025902123
)
;

boundaryField
{
    inlet
    {
        type            fixedValue;
        value           nonuniform 0();
    }
    outlet
    {
        type            inletOutlet;
        inletValue      nonuniform 0();
        value           nonuniform 0();
    }
    bottom
    {
        type            slip;
    }
    top
    {
        type            slip;
    }
    obstacle
    {
        type            zeroGradient;
    }
    defaultFaces
    {
        type            empty;
    }
    procBoundary34to27
    {
        type            processor;
        value           uniform 1.03880082;
    }
    procBoundary34to28
    {
        type            processor;
        value           nonuniform List<scalar> 4(0.9773629199 0.9946131755 0.9773581107 0.9773581107);
    }
    procBoundary34to33
    {
        type            processor;
        value           nonuniform List<scalar> 6(1.047404344 1.041001765 1.026078457 1.00956366 1.002023808 1.000252292);
    }
    procBoundary34to35
    {
        type            processor;
        value           nonuniform List<scalar> 8(0.9773044934 0.9651162956 0.9701451355 0.9864930028 1.013204626 1.028009436 1.032694891 1.036007157);
    }
}


// ************************************************************************* //
