/*--------------------------------*- C++ -*----------------------------------*\
  =========                 |
  \\      /  F ield         | OpenFOAM: The Open Source CFD Toolbox
   \\    /   O peration     | Website:  https://openfoam.org
    \\  /    A nd           | Version:  7
     \\/     M anipulation  |
\*---------------------------------------------------------------------------*/
FoamFile
{
    version     2.0;
    format      ascii;
    class       volScalarField;
    location    "2.8";
    object      T;
}
// * * * * * * * * * * * * * * * * * * * * * * * * * * * * * * * * * * * * * //

dimensions      [0 0 0 1 0 0 0];

internalField   nonuniform List<scalar> 
2222
(
1
1
1
1
1
1
1.579017412
2.597522847
2.739748835
2.738223784
2.748801598
2.76336387
2.782309274
2.805913303
2.851899723
2.90982058
1.833739378
1.331972046
0.8954257588
0.7710792719
0.9008832583
1.018801223
1.033540789
1.059572506
1.164693726
1.24274365
1.298554862
1.38409097
1.436484538
1.449560873
1.469399755
1.490850462
1.512488248
1.539382071
2.043006408
1.803443942
1.561472382
1.378023103
1.370936152
1.351361791
1.287771932
1.212193127
1.191728167
1.200450387
1.205160606
1.207544959
1.207358378
1.204607139
1.212309588
1.235742873
1.259141306
1.273666977
1.284573243
1.296769007
1.316107864
1.337568873
1.361744981
1.387056564
1.409706866
1.428182744
1.442911071
1.45851601
1.477096655
1.499291017
1.524098087
1.549501431
1.565320883
2.105290255
1.957653553
1.846963697
1.735396744
1.625616844
1.540889395
1.467767137
1.403395859
1.360145003
1.320413507
1.277177551
1.224540409
1.199185017
1.184733931
1.171311998
1.157066705
1.157629775
1.163525259
1.171924216
1.183954037
1.201731618
1.223798263
1.241169065
1.249129051
1.252889273
1.260015764
1.27103725
1.280900541
1.294845461
1.314018419
1.335211573
1.365842892
1.400009809
2.159087434
2.052747607
1.948444793
1.857105372
1.778160604
1.704757416
1.625837023
1.561937212
1.508372987
1.458221507
1.420578537
1.372636
1.336027023
1.303350599
1.274501885
1.255397986
1.241134171
1.223180201
1.204541393
1.186104072
1.177077833
1.179441679
1.179080544
1.172874442
1.169966241
1.173460684
1.180924762
1.184612076
1.187765164
1.194090621
1.20516121
1.226825384
1.260871046
2.211761636
2.118831332
2.028884267
1.951929831
1.875428086
1.796002792
1.731210346
1.676767428
1.628982494
1.573431469
1.52716675
1.482434765
1.442823278
1.414552764
1.382656184
1.347158883
1.31651844
1.29250639
1.275282432
1.256431964
1.231412558
1.213561733
1.20296525
1.193012207
1.180490618
1.173734499
1.172052129
1.171253468
1.171126223
1.173146573
1.179528339
1.183222582
1.189042046
2.244860103
2.170972323
2.098042381
2.022028258
1.94777107
1.885181863
1.826389681
1.763941504
1.708767796
1.663401296
1.619206672
1.577358259
1.532436892
1.498839614
1.465568651
1.436625078
1.408221081
1.375601107
1.354166828
1.33612348
1.31956078
1.297721497
1.280439084
1.266358317
1.249049015
1.232631666
1.223369684
1.215932821
1.2069296
1.195662275
1.188725189
1.185721512
1.183021209
2.263290887
2.205602178
2.141159859
2.075888741
2.017084717
1.956332856
1.891495478
1.835689536
1.788620372
1.742749336
1.692042193
1.648669154
1.610219985
1.575384279
1.540055788
1.505513434
1.478603262
1.450986261
1.428021071
1.40109852
1.381599076
1.361147664
1.34123517
1.325620728
1.310395912
1.291825813
1.27193157
1.257675457
1.248362929
1.239608709
1.226754854
1.213386243
1.204762725
2.268374798
2.220003416
2.168363836
2.116195865
2.059638014
2.002629499
1.952751632
1.904027804
1.851002413
1.799660839
1.758496359
1.719974648
1.681349085
1.639134174
1.605933526
1.574487727
1.546405808
1.516182149
1.490043176
1.466528683
1.444035756
1.42485672
1.401733382
1.382098084
1.365407222
1.351137266
1.337387996
1.320208745
1.304573158
1.293394222
1.284262896
1.271834097
1.25959094
2.266136303
2.226323715
2.183728682
2.136702402
2.089196333
2.045235135
1.998494703
1.947530557
1.90120352
1.862126413
1.822717303
1.778370488
1.73669188
1.702890568
1.671777208
1.639943022
1.605626845
1.577138214
1.550612533
1.52704163
1.501101865
1.479723621
1.458232
1.439021863
1.419933832
1.400996965
1.385689742
1.37071043
1.35906592
1.344678979
1.33040968
1.317614247
1.304358163
2.258939116
2.224978291
2.188119549
2.1500082
2.111068251
2.069154886
2.027382516
1.988980676
1.949612878
1.906472046
1.865418559
1.830858571
1.797344119
1.762136081
1.723730967
1.692810695
1.664559596
1.637424859
1.607684907
1.580044964
1.556904557
1.534164484
1.512731034
1.490232399
1.472309112
1.454363812
1.438488813
1.420339818
1.406018649
1.393205193
1.379572561
1.368613597
1.356893361
2.24847069
2.220774736
2.190259679
2.158815777
2.124003743
2.087552187
2.053325112
2.017578022
1.978526398
1.941366274
1.909310455
1.876141176
1.839373553
1.804030355
1.774186271
1.746150336
1.716616163
1.68443097
1.656850644
1.632118952
1.609813254
1.585493568
1.561996528
1.540879336
1.521551058
1.503732915
1.486334506
1.470099104
1.453467555
1.439322858
1.424783539
1.412295705
1.400106248
2.234294745
2.211485972
2.186245637
2.158041856
2.129067692
2.098799169
2.065681037
2.032574288
2.002376843
1.970687408
1.935363325
1.902183302
1.874442636
1.846304095
1.815325913
1.782361432
1.755286244
1.730596729
1.706191341
1.679223626
1.652422034
1.630659893
1.610005701
1.590941247
1.569329898
1.549351297
1.53178606
1.51589139
1.500564949
1.483990756
1.469372281
1.455781574
1.443585382
2.215586454
2.196680466
2.176176139
2.153422575
2.128493715
2.102349451
2.074681297
2.046641126
2.017864662
1.987478866
1.956956683
1.929211865
1.901239895
1.871793927
1.843204401
1.817757204
1.793401615
1.767023089
1.739927862
1.716611021
1.695168105
1.674627416
1.651256663
1.629727784
1.611141783
1.593349552
1.5764187
1.557874063
1.541529895
1.525176322
1.510771003
1.496394375
1.483404812
2.200460064
2.182381604
2.163395457
2.143682822
2.122574902
2.099717408
2.07533762
2.04943576
2.022662046
1.99762256
1.972440089
1.944436403
1.915839289
1.891985266
1.869341584
1.844197164
1.816950158
1.793652765
1.773327737
1.752837666
1.728959881
1.705717988
1.686421585
1.668620501
1.650766786
1.629518527
1.611085693
1.595275401
1.580335163
1.564803944
1.546730779
1.532224679
1.519124792
2.181030052
2.163851337
2.145839339
2.12754198
2.108881452
2.089540645
2.0690798
2.046700845
2.023603674
2.000641776
1.976715044
1.953066487
1.930583655
1.906972479
1.882019562
1.859602565
1.839763465
1.819027815
1.79501532
1.772667833
1.754687649
1.737515536
1.718520903
1.695894623
1.676761434
1.660671481
1.645349659
1.628428594
1.609995543
1.594720076
1.579471081
1.565782871
1.551476914
2.155953358
2.141878963
2.126219112
2.109275635
2.092114953
2.075184503
2.057563839
2.038737273
2.01956134
1.999708663
1.978917103
1.957709277
1.936607033
1.916144522
1.8959952
1.874733393
1.852229289
1.832070097
1.81425547
1.796655827
1.776439827
1.754981899
1.73762535
1.721477584
1.705441526
1.686657709
1.666572545
1.651026003
1.637461528
1.624398961
1.607986613
1.589123603
1.576642712
2.132758871
2.117689686
2.103253604
2.088132839
2.072550546
2.056889814
2.041352183
2.026242777
2.010680813
1.993236596
1.974766261
1.957035526
1.939053583
1.91870624
1.897472693
1.879093659
1.862088984
1.844433621
1.824797023
1.806208772
1.789303836
1.772983686
1.756648177
1.737941857
1.719761862
1.704237584
1.689735086
1.675283918
1.65726885
1.642147306
1.628584487
1.61389026
1.600035869
2.116884353
2.100978533
2.08742675
2.073587273
2.058414621
2.043456516
2.029292714
2.014882474
1.999805494
1.985373262
1.971107366
1.955399953
1.937714624
1.920387307
1.903956628
1.887195731
1.86814979
1.848700127
1.833269959
1.819397313
1.803252161
1.783680412
1.765972646
1.751876549
1.738054667
1.722260063
1.703539009
1.687358283
1.674355634
1.662176473
1.648578826
1.630266818
1.613220163
2.101209298
2.086433499
2.065447752
2.049752477
2.037690097
2.025281306
2.011528989
1.998264055
1.98682434
1.975026128
1.960972239
1.946161297
1.933557767
1.919977641
1.903017759
1.884940272
1.870560721
1.856364487
1.838778267
1.819297974
1.805099517
1.792809262
1.778745193
1.761168387
1.744774626
1.731967663
1.719479978
1.705979379
1.688469152
1.671614014
1.659863542
1.647809865
1.634046224
2.039323014
2.067137775
2.052675194
2.034665163
2.019450674
2.007922467
1.99751763
1.98702893
1.975815127
1.964457698
1.954127267
1.943306798
1.929980336
1.915127622
1.901651899
1.888193742
1.871804411
1.854145181
1.839151808
1.824702326
1.809514495
1.792214206
1.777533368
1.765328008
1.753153724
1.73933857
1.722338655
1.708948191
1.696694332
1.683899394
1.670709879
1.654297446
1.641535815
1.793042725
1.954249445
2.015430739
2.016014319
2.004402073
1.990756205
1.980625341
1.97277057
1.964549806
1.955759691
1.946143555
1.935191236
1.923403573
1.911246123
1.897961992
1.883761762
1.87006724
1.855978465
1.840377746
1.823654249
1.808759939
1.795123421
1.781355869
1.767633409
1.753289113
1.740274029
1.727661918
1.715191233
1.703357187
1.68888234
1.675149744
1.66336825
1.651751002
1.321831862
1.651742718
1.884997055
1.953711993
1.986300704
1.977566302
1.961521901
1.950829809
1.944438539
1.938034013
1.930121144
1.921412999
1.912059842
1.900948157
1.888499925
1.876593512
1.864868714
1.851569521
1.836782542
1.822241022
1.808318438
1.794267333
1.780028802
1.765712737
1.753547566
1.741870921
1.729939939
1.716883731
1.704057717
1.693389238
1.683128638
1.672316871
1.658804044
1.025213475
1.170093882
1.504981393
1.773780193
1.902788036
1.951365858
1.949771582
1.938371774
1.923463057
1.911224751
1.905524586
1.900325828
1.893138122
1.883983409
1.875163258
1.866918595
1.856691404
1.844267815
1.832038577
1.819358939
1.805758939
1.790805903
1.777374287
1.765963831
1.753731125
1.74014167
1.726491331
1.716784745
1.70779124
1.697539811
1.684530277
1.674016845
1.665088155
1.000278272
1.005572593
1.073177273
1.331132709
1.647570631
1.861241526
1.900631273
1.917035732
1.912813664
1.896388026
1.880343189
1.872059733
1.867587913
1.8632763
1.858225551
1.851333251
1.84207894
1.832570809
1.822880571
1.811739744
1.798458604
1.786326663
1.77544014
1.762504414
1.74855555
1.737226654
1.727760427
1.717235649
1.705332895
1.696001871
1.687690281
1.678421306
1.667331928
0.9999994285
1.000022492
1.001150302
1.023309968
1.177196002
1.516954249
1.751434184
1.852922977
1.892864494
1.890565969
1.878864386
1.865289556
1.850860754
1.840755812
1.83684813
1.832092803
1.824637634
1.816152084
1.807805762
1.798613302
1.787988206
1.778121662
1.767233648
1.755217939
1.743041356
1.732237428
1.723569714
1.714107726
1.704470494
1.696072656
1.687453595
1.67771379
1.666627816
0.9999996911
0.9999994377
1.000001763
1.000184223
1.006090653
1.078942777
1.337727019
1.605457959
1.805889136
1.868035592
1.867821897
1.862238392
1.850965833
1.833940203
1.820612562
1.811648041
1.804469242
1.798436135
1.792450876
1.784093289
1.775236572
1.766188799
1.75574617
1.745411481
1.733361215
1.725099003
1.717802139
1.708639829
1.698965899
1.691140677
1.684111364
1.675305132
1.665796007
0.9999999547
0.9999997774
0.999999714
0.9999999023
1.000027026
1.001316455
1.02500285
1.161849164
1.451418784
1.733184651
1.813399786
1.838169976
1.843590155
1.836100853
1.82105515
1.807024424
1.796174254
1.786310017
1.777492159
1.770557873
1.763282923
1.753910714
1.744868579
1.73253808
1.723271008
1.717131322
1.709315834
1.699276704
1.690750755
1.683983866
1.677034123
1.667831759
1.661026984
0.9999999985
0.9999999818
0.999999917
0.9999998887
0.9999999063
1.000002926
1.000202835
1.005300348
1.061224671
1.299892394
1.590488444
1.731717276
1.801652461
1.828798105
1.826142277
1.815402453
1.801718559
1.785332463
1.770910345
1.76393929
1.755604762
1.745513759
1.732439308
1.724225087
1.718838186
1.710582156
1.699376232
1.689881513
1.682099766
1.675326114
1.666486996
1.659367252
1.653898387
1
0.9999999998
0.9999999962
0.9999999795
0.9999999561
0.9999999604
1.000000207
1.000022205
1.000994467
1.019408243
1.145324143
1.390750222
1.602957757
1.767221196
1.812334093
1.808818466
1.802674103
1.792182838
1.774926432
1.760506847
1.748982912
1.740048331
1.732700287
1.725082104
1.715556078
1.704707815
1.694435721
1.685361514
1.677601607
1.667059994
1.658495643
1.653684505
1.646413126
1
1
1
0.9999999996
0.9999999969
0.9999999877
0.9999999889
1.000000006
1.000002336
1.000156821
1.004036581
1.043211716
1.195677136
1.466043139
1.700546198
1.756768296
1.77821372
1.786548731
1.780487966
1.768026151
1.756039488
1.744959779
1.732573822
1.7223511
1.714819106
1.706034105
1.696526235
1.685231648
1.672121078
1.664686252
1.659443624
1.650760418
1.640283648
1
1
1
1
1
0.9999999995
0.9999999969
0.9999999971
0.9999999985
1.000000191
1.000014264
1.000508996
1.009154753
1.076964902
1.312437347
1.536938965
1.670665923
1.751825036
1.774229397
1.768217209
1.762305525
1.754492668
1.738001768
1.725409664
1.714004648
1.702241874
1.694234298
1.687586119
1.678783094
1.668242685
1.658282912
1.648253592
1.639789347
1
1
1
1
1
1
0.9999999999
0.9999999994
0.9999999991
0.9999999992
1.000000008
1.000000843
1.000056867
1.001539352
1.024184506
1.138651511
1.327869304
1.559349018
1.700410024
1.733409951
1.750372718
1.751475214
1.744234979
1.73152311
1.718065708
1.707239131
1.697901137
1.687049051
1.677693514
1.670556193
1.66180784
1.652322619
1.640314177
1
1
1
1
1
1
1
1
0.9999999999
0.9999999997
0.9999999997
1
1.000000057
1.000004548
1.000224439
1.004217456
1.033006087
1.162172085
1.410250583
1.576284035
1.676311871
1.72925483
1.739027445
1.734603919
1.726783458
1.716481409
1.70246252
1.688917545
1.680183903
1.671216453
1.661025465
1.652527104
1.644665819
1
1
1
1
1
1
1
1
1
0.9999999999
0.9999999999
0.9999999999
1.000000003
1.000000315
1.000015209
1.000394028
1.00638234
1.059799629
1.215256081
1.398481127
1.596083122
1.675841173
1.701791935
1.717901223
1.718257099
1.711023134
1.698942891
1.685629115
1.672950632
1.663935234
1.656268213
1.646698685
1.693994873
1.683157339
1.668703101
1.658461419
1.649960256
1.640294462
1
1
1
1
1
1
1
1
1
1
1
1
1
1
1
1
1
1
1
1
1
1
1
1.221637218
2.450290758
2.721498922
2.714700664
2.722942053
2.735061953
2.747847362
2.756522866
2.729650492
2.653758758
1
1
1
1
1
1
1
1
1
1
1
1
1
1
1
1
1
1
1
1
1
1
1
1.013340072
2.311983154
2.685942622
2.687350738
2.700555607
2.709994988
2.710969346
2.696308748
2.652087966
2.475937996
1
1
1
1
1
1
1
1
1
1
1
1
1
1
1
1
1
1
1
1
1
1
1
1.000090468
2.104305279
2.655758714
2.687109887
2.692701492
2.691984273
2.681116722
2.649049113
2.584796125
2.370231982
1
1
1
1
1
1
1
1
1
1
1
1
1
1
1
1
1
1
1
1
1
1
1
0.9999999982
1.762310582
2.56669777
2.676042081
2.677969631
2.673585117
2.654019869
2.616297576
2.525040691
2.330656047
1
1
1
1
1
1
1
1
1
1
1
1
1
1
1
1
1
1
1
1
1
1
1
1
1.26915582
2.392382149
2.654280159
2.646654147
2.643357944
2.623814404
2.583967687
2.487608018
2.337336425
1
1
1
1
1
1
1
1
1
1
1
1
1
1
1
1
1
1
1
1
1
1
1
1
1.019990914
2.219810915
2.597471222
2.600817821
2.602977859
2.589340217
2.546037088
2.460863588
2.341728102
1
1
1
1
1
1
1
1
1
1
1
1
1
1
1
1
1
1
1
1
1
1
1
1
1.000102948
1.868551364
2.505096089
2.582048812
2.573860052
2.551982921
2.508174451
2.435448569
2.338513653
1
1
1
1
1
1
1
1
1
1
1
1
1
1
1
1
1
1
1
1
1
1
1
1
0.9999998314
1.294977651
2.326891417
2.553927722
2.533784409
2.5099584
2.470304005
2.408560687
2.329454056
1
1
1
1
1
1
1
1
1
1
1
1
1
1
1
1
1
1
1
1
1
1
1
1
0.9999999407
1.022628798
2.127152539
2.490478725
2.481825426
2.468628196
2.437380944
2.385159332
2.318473338
1
1
1
1
1
1
1
1
1
1
1
1
1
1
1
1
1
1
1
1
1
1
1
1
0.9999999821
1.000113321
1.668016423
2.369913307
2.465157372
2.437386472
2.40511962
2.358625465
2.302414055
1
1
1
1
1
1
1
1
1
1
1
1
1
1
1
1
1
1
1
1
1
1
1
1
0.9999999982
0.9999999405
1.133161636
2.176060322
2.430971631
2.397346058
2.367581736
2.328026062
2.283174695
1
1
1
1
1
1
1
1
1
1
1
1
1
1
1
1
1
1
1
1
1
1
1
1
1
0.9999999892
1.004226143
1.784824258
2.328936935
2.374764546
2.346771531
2.306648117
2.264699002
1
1
1
1
1
1
1
1
1
1
1
1
1
1
1
1
1
1
1
1
1
1
1
1
1
0.9999999983
1.000010162
1.208748333
2.13582551
2.351460708
2.313992999
2.278724671
2.241626828
1
1
1
1
1
1
1
1
1
1
1
1
1
1
1
1
1
1
1
1
1
1
1
1
1
0.9999999999
1.000000005
1.010301764
1.738307189
2.249449257
2.278911141
2.255363068
2.224739594
1
1
1
1
1
1
1
1
1
1
1
1
1
1
1
1
1
1
1
1
1
1
1
1
1
1
1
1.000055539
1.192053908
2.046431497
2.262599205
2.233483078
2.203963606
1
1
1
1
1
1
1
1
1
1
1
1
1
1
1
1
1
1
1
1
1
1
1
1
1
1
1
1.000000067
1.008610872
1.60844084
2.13257239
2.215806907
2.17775473
1
1
1
1
1
1
1
1
1
1
1
1
1
1
1
1
1
1
1
1
1
1
1
1
1
1
1
1
1.00005334
1.126208861
1.898247023
2.182022995
2.157279456
1
1
1
1
1
1
1
1
1
1
1
1
1
1
1
1
1
1
1
1
1
1
1
1
1
1
1
1
1.00000008
1.00400024
1.413875634
2.020460195
2.133308453
1
1
1
1
1
1
1
1
1
1
1
1
1
1
1
1
1
1
1
1
1
1
1
1
1
1
1
1
1
1.000022739
1.051018233
1.69396136
2.021960206
1
1
1
1
1
1
1
1
1
1
1
1
1
1
1
1
1
1
1
1
1
1
1
1
1
1
1
1
1
1.000000031
1.000958114
1.203175832
1.807462858
1
1
1
1
1
1
1
1
1
1
1
1
1
1
1
1
1
1
1
1
1
1
1
1
1
1
1
1
1
1
1.000004032
1.01119444
1.370663525
1
1
1
1
1
1
1
1
1
1
1
1
1
1
1
1
1
1
1
1
1
1
1
1
1
1
1
1
1
1
1.000000004
1.000115117
1.042565154
1
1
1
1
1
1
1
1
1
1
1
1
1
1
1
1
1
1
1
1
1
1
1
1
1
1
1
1
1
1
1
1.000000297
1.000254034
1
1
1
1
1
1
1
1
1
1
1
1
1
1
1
1
1
1
1
1
1
1
1
1
1
1
1
1
1
1
1
1
0.999997451
1
1
1
1
1
1
1
1
1
1
1
1
1
1
1
1
1
1
1
1
1
1
1
1
1
1
1
1
1
1
1
1
0.9999990782
1
1
1
1
1
1
1
1
1
1
1
1
1
1
1
1
1
1
1
1
1
1
1
1
1
1
1
1
1
1
1
1
0.9999999101
1
1
1
1
1
1
1
1
1
1
1
1
1
1
1
1
1
1
1
1
1
1
1
1
1
1
1
1
1
1
1
1
0.9999999972
1
1
1
1
1
1
1
1
1
1
1
1
1
1
1
1
1
1
1
1
1
1
1
1
1
1
1
1
1
1
1
1
1
1
1
1
1
1
1
1
1
1
1
1
1
1
1
1
1
1
1
1
1
1
1
1
1
1
1
1
1
1
1
1
1
1
1
1
1
1
1
1
1
1
1
1
1
1
1
1
1
1
1
1
1
1
1
1
1
1
1
1
1
1
1
1
1
1
1
1
1
1
1
1
1
1
1
1
1
1
1
1
1
1
1
1
1
1
1
1
1
1
1
1
1
1
1
1
1
1
1
1
1
1
1
1
1
1
1
1
1
1
1
1
1
1
1
1
1
1
1
1
1
1
1
1
1
1
1
1
1
1
1
1
1
1
1
1
1
1
1
1
1
1
1
1
1
1
1
1
1
1
1
1
1
1
1
1
1
1
1
1
1
1
1
1
1
1
1
1
1
1
1
)
;

boundaryField
{
    inlet
    {
        type            fixedValue;
        value           nonuniform 0();
    }
    outlet
    {
        type            inletOutlet;
        inletValue      nonuniform 0();
        value           nonuniform 0();
    }
    bottom
    {
        type            slip;
    }
    top
    {
        type            slip;
    }
    obstacle
    {
        type            zeroGradient;
    }
    defaultFaces
    {
        type            empty;
    }
    procBoundary19to13
    {
        type            processor;
        value           nonuniform List<scalar> 
51
(
1
1
1
1
1
1
1.877658813
2.711512733
2.767476174
2.770561272
2.780194542
2.790068378
2.804677474
2.826976391
2.854513245
2.881919908
1
1
1
1
1
1
1
1
1
1
1
1
1
1
1
1
1
1
3.043295272
1.557552973
1.557552973
1.556953183
1.549037092
1.533397402
1.53797617
1.556752206
1.581254767
1.597876
1.609380255
1.622008829
1.638720274
1.660673081
1.677208673
1.682109845
1.679914569
)
;
    }
    procBoundary19to18
    {
        type            processor;
        value           nonuniform List<scalar> 
33
(
1
1
1
1
1
1
1
1
1
1
1
1
1
1
1
1
1
1
1
1
1
1
1
1
1
1
1
1
1
1
1
1
1
)
;
    }
    procBoundary19to20
    {
        type            processor;
        value           nonuniform List<scalar> 
30
(
1.572478405
1.425984625
1.293364679
1.19859594
1.182193318
1.198095064
1.251274319
1.293534916
1.343059134
1.38790248
1.42881324
1.470128368
1.507168489
1.537760252
1.564913811
1.586478257
1.602666308
1.618094269
1.629817885
1.639579421
1.644532119
1.655038793
1.655243259
1.658313744
1.658061183
1.654043909
1.646102458
1.637997885
1.631294208
1.630726911
)
;
    }
    procBoundary19to24
    {
        type            processor;
        value           uniform 1;
    }
    procBoundary19to25
    {
        type            processor;
        value           nonuniform List<scalar> 
70
(
1
1
1
1
1
1
1
1
1
1
1
1
1
1
1
1
1.000000009
1.000000671
1.000034221
1.001001171
1.011901992
1.064081188
1.230171371
1.449582893
1.567021767
1.657740573
1.704418584
1.70504628
1.699140955
1.699140955
1.677902524
1.683111569
1.677736361
1.668923541
1.659891151
1.646154909
1
1
1
1
1
1
1
1
1
1
1
1
1
1
1
1
1
1
1
1
1
1
1
1
1
1
1
1
1
1
1
1
1
1
)
;
    }
    procBoundary19to26
    {
        type            processor;
        value           nonuniform List<scalar> 5(1.629230556 1.636740301 1.636757761 1.636757761 1.631272902);
    }
}


// ************************************************************************* //
