/*--------------------------------*- C++ -*----------------------------------*\
  =========                 |
  \\      /  F ield         | OpenFOAM: The Open Source CFD Toolbox
   \\    /   O peration     | Website:  https://openfoam.org
    \\  /    A nd           | Version:  7
     \\/     M anipulation  |
\*---------------------------------------------------------------------------*/
FoamFile
{
    version     2.0;
    format      ascii;
    class       volScalarField;
    location    "1.3";
    object      rho;
}
// * * * * * * * * * * * * * * * * * * * * * * * * * * * * * * * * * * * * * //

dimensions      [1 -3 0 0 0 0 0];

internalField   nonuniform List<scalar> 
22
(
1.04476165
1.21098172
1.025657815
1.027680827
1.15267538
1.559794943
1.206376257
1.142802025
1.18771681
1.664550695
1.52019519
1.294656024
1.196659429
1.629062299
1.618560748
1.517975488
1.360695988
1.490221621
1.577082561
1.572385075
1.52263319
1.413867399
)
;

boundaryField
{
    inlet
    {
        type            calculated;
        value           nonuniform 0();
    }
    outlet
    {
        type            calculated;
        value           nonuniform 0();
    }
    bottom
    {
        type            calculated;
        value           nonuniform 0();
    }
    top
    {
        type            calculated;
        value           nonuniform 0();
    }
    obstacle
    {
        type            calculated;
        value           uniform 1.025657815;
    }
    defaultFaces
    {
        type            empty;
    }
    procBoundary27to20
    {
        type            processor;
        value           nonuniform List<scalar> 2(1.930206755 1.665293012);
    }
    procBoundary27to21
    {
        type            processor;
        value           nonuniform List<scalar> 4(1.071221428 1.248411076 0.9963211506 0.9963211506);
    }
    procBoundary27to26
    {
        type            processor;
        value           nonuniform List<scalar> 3(1.479852348 1.406520062 1.400090648);
    }
    procBoundary27to28
    {
        type            processor;
        value           nonuniform List<scalar> 6(1.341270029 1.307351974 1.307351974 1.273933498 1.212704461 1.283655811);
    }
    procBoundary27to33
    {
        type            processor;
        value           nonuniform List<scalar> 5(1.493566405 1.567004218 1.562011409 1.493566405 1.400882104);
    }
    procBoundary27to34
    {
        type            processor;
        value           uniform 1.402215308;
    }
}


// ************************************************************************* //
