/*--------------------------------*- C++ -*----------------------------------*\
  =========                 |
  \\      /  F ield         | OpenFOAM: The Open Source CFD Toolbox
   \\    /   O peration     | Website:  https://openfoam.org
    \\  /    A nd           | Version:  7
     \\/     M anipulation  |
\*---------------------------------------------------------------------------*/
FoamFile
{
    version     2.0;
    format      ascii;
    class       volScalarField;
    location    "1.6";
    object      rho;
}
// * * * * * * * * * * * * * * * * * * * * * * * * * * * * * * * * * * * * * //

dimensions      [1 -3 0 0 0 0 0];

internalField   nonuniform List<scalar> 
2222
(
1.377155238
1.37589877
1.377541255
1.378880313
1.379254522
1.378863216
1.379097957
1.379307759
1.379317316
1.379493086
1.379765878
1.37934559
1.378708608
1.378999172
1.380795218
1.382313912
1.382852381
1.382783244
1.38302727
1.38242442
1.381918196
1.381449984
1.380882219
1.37983142
1.378926339
1.378253726
1.377382081
1.378042495
1.376360979
1.374297345
1.373037962
1.3746892
1.374817354
1.37562557
1.376293792
1.37824921
1.379068668
1.378416956
1.378200528
1.37799598
1.377962391
1.37799217
1.378080841
1.378373585
1.378853624
1.379273782
1.379172229
1.380499003
1.381978554
1.382608951
1.382709599
1.382309209
1.381734379
1.380777757
1.380125661
1.379613477
1.379549671
1.378920072
1.37849314
1.377585896
1.378408743
1.379248605
1.376850611
1.374780969
1.373310074
1.374817032
1.375981842
1.377661171
1.378940901
1.379068675
1.378868954
1.378180044
1.377104215
1.377472106
1.377129299
1.377121478
1.377237502
1.377317498
1.377559495
1.378223874
1.379302317
1.380867099
1.382108192
1.382539559
1.382267633
1.381686456
1.38018345
1.379267405
1.378683334
1.378215079
1.378921111
1.378640774
1.378576353
1.379410538
1.380146875
1.380439139
1.376448536
1.374542625
1.373827329
1.375447454
1.378008113
1.379118485
1.379927768
1.379436806
1.378717404
1.378418728
1.377644612
1.377284405
1.376994977
1.376879922
1.376813929
1.376802002
1.376908074
1.377351577
1.379259977
1.381059256
1.38197084
1.381743324
1.38112776
1.380422518
1.379479612
1.379117146
1.37880257
1.379091442
1.3801198
1.380557461
1.380993302
1.381361219
1.38087792
1.380926613
1.375365328
1.374042304
1.37391703
1.37595704
1.378565233
1.379249914
1.379510971
1.37928028
1.37899968
1.378072859
1.377630054
1.377528119
1.377610531
1.377214265
1.376853642
1.3770909
1.377531181
1.378441533
1.38034579
1.381737488
1.381862725
1.381245531
1.380460847
1.379716326
1.379620823
1.379103062
1.379514466
1.380517223
1.381376726
1.382061702
1.382319124
1.381507434
1.38094641
1.380909336
1.37459957
1.373786658
1.37374586
1.376072425
1.37826979
1.378652074
1.378475504
1.37786902
1.377475592
1.377240889
1.377245316
1.37783119
1.378230732
1.37788408
1.377566366
1.377395063
1.378011792
1.380101827
1.382615104
1.383050391
1.382834783
1.382217859
1.381432333
1.380757985
1.380425339
1.380313367
1.38042275
1.380911732
1.381468486
1.381620819
1.381620059
1.381071231
1.381021791
1.380061886
1.374503265
1.373899308
1.373564268
1.375847125
1.377438457
1.377295345
1.376948289
1.376411776
1.376210699
1.377035694
1.378045814
1.379032987
1.378740694
1.378202845
1.378066609
1.378491147
1.380312866
1.382581921
1.384143731
1.38400944
1.383510372
1.382951664
1.382306511
1.381761153
1.381065897
1.380918548
1.380701285
1.380432479
1.380879216
1.380588818
1.380502465
1.380816168
1.380071696
1.379012349
1.374254483
1.373344747
1.375355847
1.376256098
1.376056187
1.375936513
1.376427495
1.377325219
1.378895785
1.379779388
1.379998071
1.379300011
1.37882379
1.379269702
1.380598544
1.382195968
1.383217373
1.383947241
1.383784394
1.383205711
1.382738378
1.382057225
1.38136379
1.381025188
1.380148022
1.379903441
1.379858502
1.3799649
1.379898173
1.379634919
1.38003151
1.37863496
1.377943273
1.374365598
1.372970629
1.37456348
1.375440075
1.375772852
1.376464476
1.377838492
1.379337155
1.380172255
1.380117878
1.380051991
1.379868052
1.3800314
1.380800136
1.381566612
1.382010844
1.382676938
1.383181418
1.383259884
1.382904853
1.38248619
1.381706957
1.38073994
1.380165897
1.378877799
1.378609337
1.378815005
1.379008462
1.379533041
1.379569576
1.378548396
1.377455961
1.377855466
1.377470522
1.374068699
1.372588251
1.373911847
1.375456065
1.376831873
1.378309644
1.37933095
1.379886773
1.380020883
1.379707376
1.379460371
1.379710124
1.380157819
1.380876202
1.381238001
1.381197134
1.381777773
1.38241014
1.382256927
1.381893643
1.381561463
1.380924887
1.379989335
1.378640898
1.377620473
1.377259538
1.37762504
1.377893875
1.37831777
1.378395502
1.377564271
1.377689846
1.377325011
1.378221117
1.374189547
1.373554819
1.37448637
1.376690368
1.378795723
1.379275565
1.379328055
1.379192217
1.379097435
1.378754645
1.378664302
1.379033115
1.379767994
1.380164706
1.380390274
1.380463612
1.380897969
1.381293231
1.380829724
1.380332086
1.38006976
1.37958316
1.378285881
1.377093439
1.377475391
1.376900823
1.376747375
1.377323203
1.377260755
1.377503884
1.378120616
1.378124801
1.379304284
1.381135497
1.375054108
1.3753314
1.375803226
1.378480293
1.379316503
1.379201885
1.378622851
1.378274914
1.378028548
1.377556856
1.377729973
1.378555751
1.379292817
1.379362903
1.379370957
1.379778398
1.379431831
1.378710032
1.37904156
1.378694483
1.378170259
1.377403965
1.376701218
1.376491559
1.376051207
1.376441217
1.376462489
1.377300262
1.378367197
1.379002919
1.37990003
1.380867347
1.382029014
1.382477547
1.376403457
1.376405665
1.376817228
1.378996129
1.379281364
1.378611325
1.377938958
1.376899601
1.376479003
1.376584403
1.377413507
1.378641831
1.378772868
1.37890868
1.378165401
1.378181175
1.37753105
1.377285048
1.377419999
1.377735164
1.37657293
1.376004595
1.375702615
1.376064328
1.375036001
1.375788584
1.377241655
1.379186537
1.381026989
1.381993294
1.382677872
1.382776282
1.382562145
1.382282919
1.376829916
1.376153235
1.376792931
1.37870714
1.378823566
1.377772962
1.37646856
1.376017744
1.376247007
1.376756376
1.377922635
1.378685422
1.37846138
1.37821616
1.377831248
1.377118971
1.376485496
1.377517131
1.377016468
1.376186094
1.376218975
1.376149049
1.376047764
1.375220832
1.376246958
1.378112209
1.380986879
1.382779739
1.383407252
1.38342339
1.383300481
1.382926194
1.382125408
1.381566275
1.37657929
1.375470806
1.376023499
1.37791707
1.377871856
1.377149943
1.376141296
1.375778554
1.376447987
1.377721236
1.378748943
1.378419351
1.377775212
1.37696521
1.376697372
1.376224255
1.375983185
1.376433567
1.376355379
1.375459842
1.375298238
1.375708902
1.376362052
1.377545507
1.380050997
1.382742836
1.383900225
1.383905787
1.383426623
1.38311923
1.382854079
1.382321351
1.381497371
1.380651431
1.37477707
1.374759752
1.37665907
1.376885421
1.37654519
1.376301854
1.376791525
1.378294729
1.379407199
1.379094081
1.377989061
1.377212297
1.376288589
1.375888943
1.376069649
1.375869543
1.375567334
1.376275631
1.376624661
1.377182419
1.378436614
1.380202885
1.382609516
1.384123521
1.384567478
1.384128358
1.383484626
1.383168459
1.382618612
1.38205996
1.381377646
1.380667119
1.379136136
1.374198123
1.373957237
1.376015601
1.376527603
1.376810715
1.377871587
1.379382229
1.380268156
1.379890962
1.378713958
1.377673659
1.377120288
1.376937831
1.376572507
1.37596888
1.375919068
1.376897637
1.377844178
1.379886892
1.381915284
1.383820109
1.384979731
1.385103325
1.384900205
1.384361961
1.383846344
1.382947222
1.382360423
1.381762986
1.380923631
1.380011426
1.378623517
1.378161336
1.374027309
1.374291898
1.376184904
1.377670347
1.37921303
1.3803618
1.380658623
1.380416873
1.379547559
1.378310203
1.377885123
1.378122736
1.378511628
1.378436063
1.378434799
1.379026326
1.380680785
1.382422115
1.384184311
1.385306849
1.385744951
1.385757721
1.385070058
1.385035454
1.383973669
1.383121143
1.382120911
1.380765189
1.379521011
1.378846855
1.378274057
1.377755362
1.377793526
1.375606959
1.375835857
1.377930579
1.380430818
1.381116274
1.380934665
1.380313012
1.3799389
1.379104833
1.378656796
1.379323289
1.380391199
1.380784381
1.380798185
1.381291308
1.382153289
1.383420498
1.384570736
1.385173992
1.385488357
1.385517178
1.385258446
1.385058965
1.384360639
1.383290902
1.381675399
1.379572402
1.378098179
1.377235836
1.37765337
1.377651544
1.377911828
1.378456566
1.377551721
1.377815161
1.37987994
1.38142933
1.381277172
1.380517433
1.379755631
1.379006064
1.37895427
1.379601716
1.38089059
1.381273193
1.381389994
1.381551611
1.382351941
1.383094385
1.383671388
1.384437057
1.385334964
1.385521493
1.385470913
1.38464135
1.384450271
1.382896809
1.381170574
1.378349233
1.376206999
1.376110521
1.377118664
1.377246006
1.378317094
1.379298935
1.380739308
1.378501304
1.378169466
1.379931123
1.381230879
1.380929077
1.38000816
1.378627642
1.378542827
1.379254775
1.380738459
1.381085931
1.381058995
1.38127952
1.381548134
1.3823079
1.383089335
1.383578262
1.384192535
1.384717501
1.384902569
1.384711439
1.38423945
1.382603637
1.380295355
1.37677166
1.37450287
1.375127783
1.375452196
1.376671798
1.378615706
1.380792897
1.38249582
1.382857862
1.378257852
1.377886086
1.379546038
1.380885373
1.380352898
1.379118838
1.378236122
1.378737581
1.380338218
1.380893614
1.380697134
1.380597835
1.380815534
1.381200257
1.38187486
1.382685821
1.38299139
1.383679055
1.383647823
1.383522834
1.382754917
1.381115182
1.378652538
1.375173608
1.373937766
1.373917832
1.374511599
1.376622075
1.379405872
1.38188269
1.383648484
1.383736612
1.38307447
1.377588524
1.377222214
1.378773601
1.380235711
1.379958488
1.379045305
1.378660277
1.37984231
1.380946277
1.380512122
1.379964521
1.379634197
1.379902089
1.38040919
1.380912935
1.381670793
1.38147725
1.381554582
1.381230567
1.380130959
1.378589569
1.376538881
1.37463026
1.373804384
1.373595212
1.374628132
1.376523856
1.380412929
1.383388075
1.383965197
1.383933486
1.383472895
1.382746644
1.377119882
1.37851489
1.379972553
1.379882402
1.379822847
1.380161823
1.380992946
1.380812239
1.379979976
1.378727409
1.378277135
1.37866202
1.378948038
1.379212146
1.379126269
1.378487942
1.377559412
1.376614713
1.375935674
1.375738894
1.375438915
1.374196879
1.374247964
1.374985308
1.377416164
1.381354909
1.384011992
1.383714485
1.384181186
1.383685087
1.383007021
1.382056904
1.378037364
1.378815359
1.380467362
1.381013064
1.381419556
1.381271333
1.381136217
1.38051682
1.379016156
1.377525894
1.377387443
1.377495934
1.37749487
1.377164447
1.376323641
1.375271149
1.374879628
1.375271842
1.375417289
1.375368843
1.375027429
1.375402126
1.376098025
1.37880122
1.38248739
1.383707279
1.383839361
1.383766726
1.38393526
1.38348577
1.382352937
1.380684765
1.379335983
1.378865317
1.3795209
1.381782665
1.382251332
1.381824489
1.381156115
1.380874732
1.379950218
1.378017895
1.377310407
1.377159893
1.377241314
1.376790541
1.375923137
1.375073661
1.374735802
1.374590712
1.374962754
1.375749397
1.376118081
1.377052657
1.378605127
1.381090965
1.382880143
1.383546593
1.383688329
1.383575006
1.383821555
1.382955813
1.381682589
1.379884312
1.378893515
1.378882243
1.378960491
1.379773896
1.382159116
1.382346248
1.381854607
1.380926795
1.38017734
1.378866009
1.378253632
1.377933824
1.377935943
1.377557554
1.376726701
1.375792354
1.374890631
1.374669346
1.375028478
1.376198809
1.37808183
1.379810972
1.381652809
1.382844951
1.383437741
1.383399369
1.383442166
1.383781265
1.383813739
1.382592173
1.380627848
1.379115678
1.378532019
1.37878117
1.379290239
1.378795528
1.379582957
1.38192479
1.382176352
1.381749005
1.380378839
1.378828481
1.378740615
1.378755363
1.379300618
1.379307519
1.378681309
1.3776395
1.376535126
1.376138264
1.37676319
1.378310453
1.380330513
1.381815285
1.383033072
1.383596558
1.383489744
1.383440937
1.383563225
1.383694554
1.383187818
1.381667136
1.379577548
1.378345311
1.37840759
1.378644775
1.379286419
1.379909237
1.378428345
1.379212179
1.381250232
1.381711665
1.381156838
1.379303295
1.378544391
1.378995095
1.380064346
1.380079608
1.379607415
1.37919142
1.378943561
1.378620551
1.379151177
1.380229796
1.381221596
1.382061335
1.382951693
1.383429193
1.38375995
1.383583523
1.383399512
1.383085802
1.382415252
1.380665686
1.378454635
1.377799175
1.378168584
1.378569529
1.379137117
1.380858507
1.381636944
1.378033291
1.378794537
1.38046979
1.380998663
1.380444635
1.379107502
1.378810514
1.380265807
1.380700286
1.380303648
1.379774073
1.379454476
1.379533014
1.379993565
1.381019399
1.381266026
1.381674173
1.382328525
1.38329587
1.383325924
1.383419697
1.383187644
1.382835976
1.381806177
1.379753095
1.37790695
1.377656601
1.378059336
1.378601663
1.379074272
1.381304857
1.382413398
1.382683475
1.377874325
1.378583182
1.380244515
1.380732078
1.380411323
1.379680317
1.380081679
1.380485084
1.380509591
1.379885302
1.379286066
1.379332233
1.379816333
1.380635645
1.381573405
1.38177165
1.381634111
1.382155867
1.382766969
1.383349481
1.383372336
1.382861173
1.38175905
1.379646286
1.378079303
1.377865408
1.377986908
1.378648938
1.379211757
1.381563432
1.382480626
1.382578686
1.383013542
1.378503774
1.380299335
1.380701956
1.380338829
1.379883853
1.380322561
1.380594027
1.38021034
1.379083315
1.378576229
1.378985891
1.379579527
1.380943513
1.381899828
1.381889879
1.381352569
1.381389406
1.381961653
1.38227477
1.382402073
1.381704147
1.380101922
1.378578435
1.378004138
1.378242289
1.378454401
1.379700508
1.381325292
1.382634313
1.382454901
1.382944626
1.382198624
1.377984903
1.379994561
1.380901703
1.380781187
1.380321508
1.380233149
1.380099635
1.379356068
1.378387588
1.378249213
1.378746685
1.379557245
1.380831617
1.381287445
1.380732769
1.379927768
1.379775323
1.38029035
1.380665189
1.380640554
1.380016353
1.379136979
1.378584165
1.378366288
1.378691362
1.379859172
1.380824198
1.381810763
1.381944554
1.382287603
1.381716715
1.380811527
1.377197272
1.379180153
1.380534299
1.380796353
1.380272247
1.379945508
1.379455478
1.378742263
1.378238842
1.378331908
1.378864414
1.379456286
1.379908041
1.379259655
1.378668963
1.378463618
1.378571911
1.378813749
1.378804367
1.378822474
1.378811786
1.378784652
1.378723899
1.378769724
1.37937752
1.380451432
1.381274152
1.381341033
1.381301547
1.380777817
1.37974504
1.379080925
1.376832749
1.378894214
1.380189167
1.380448797
1.379996055
1.379479989
1.378997419
1.378748671
1.378693074
1.378840639
1.379139078
1.37896691
1.378112959
1.377164036
1.377076659
1.377688782
1.378301066
1.37821175
1.377598008
1.377470185
1.377973827
1.378374336
1.378543993
1.378796379
1.379546592
1.380200939
1.380481755
1.380310626
1.379857778
1.379413029
1.37915822
1.379011144
1.376373362
1.378253594
1.379639771
1.380046833
1.379647007
1.379155544
1.379259363
1.379527171
1.379520303
1.379335883
1.378730731
1.377448898
1.376653348
1.376697174
1.377265763
1.37803711
1.378402799
1.378315593
1.377684711
1.377273294
1.377595161
1.377969558
1.378116799
1.378304955
1.378820398
1.379207373
1.379354591
1.379515032
1.379628762
1.379616692
1.37954533
1.37947535
1.376099713
1.377632882
1.379186983
1.379987351
1.379891632
1.379785417
1.380153497
1.380290512
1.379939269
1.379042389
1.377240631
1.376449482
1.376716568
1.377419203
1.37829676
1.378968804
1.379148778
1.379131621
1.378402844
1.37766267
1.377959815
1.378090541
1.378085953
1.378179103
1.378337965
1.378914493
1.379349287
1.379772952
1.380120234
1.380268159
1.380327096
1.380501317
1.376463997
1.377886923
1.379689329
1.380644221
1.380502236
1.38038961
1.38056767
1.380357662
1.379528475
1.377707834
1.376527493
1.376588128
1.377292493
1.378291054
1.379422024
1.379812088
1.379863042
1.379915567
1.379615769
1.378744202
1.378682058
1.378541443
1.37845145
1.378428694
1.37845643
1.379100364
1.379622957
1.380208083
1.38072182
1.381059169
1.381410021
1.381836827
1.376880911
1.378323258
1.380256161
1.381107242
1.380523293
1.380207082
1.380132949
1.379613801
1.37861318
1.377497809
1.376784301
1.376962979
1.377759287
1.379450731
1.38077913
1.380912703
1.380794541
1.38104434
1.381053465
1.380026936
1.37934217
1.378975152
1.378989775
1.379122645
1.378623747
1.379312172
1.380039454
1.380855623
1.381524657
1.381972534
1.38236027
1.382642761
1.376528694
1.378026084
1.379910657
1.380602789
1.380525114
1.380197809
1.380084824
1.379673008
1.378866261
1.377957438
1.377691516
1.378157178
1.379119374
1.380147153
1.380649939
1.380993381
1.381337459
1.381690091
1.381687409
1.381082575
1.380347926
1.380241776
1.380314745
1.380417752
1.379868606
1.380252157
1.380706792
1.381221441
1.381741502
1.382112172
1.382370777
1.382515388
1.379125644
1.380111481
1.380881015
1.381192993
1.381403913
1.381624324
1.381567867
1.381111167
1.380198254
1.379361699
1.379197968
1.379452211
1.379842939
1.380276212
1.380842722
1.381467325
1.382045847
1.382445695
1.382613558
1.382306071
1.381942802
1.381547975
1.381142366
1.381084291
1.381043736
1.381201871
1.381607397
1.382090416
1.38238953
1.382470583
1.382485231
1.382218292
1.381611809
1.381706339
1.382463072
1.383557258
1.384099154
1.383938581
1.383138429
1.381751474
1.380434457
1.379703968
1.379506738
1.37983
1.380438151
1.381335871
1.382317082
1.383079778
1.383546459
1.383432786
1.38321536
1.382930128
1.382573108
1.382237202
1.382217037
1.382373395
1.382600349
1.382831893
1.383049155
1.383147479
1.383154564
1.383159093
1.380942374
1.380422103
1.381857741
1.383485659
1.384468864
1.385140982
1.385250455
1.3850165
1.384371885
1.383237696
1.381935474
1.381185535
1.381259277
1.381503376
1.381855696
1.382468635
1.383010106
1.383371309
1.383421575
1.383437914
1.383484737
1.383416341
1.38323206
1.383292327
1.383450953
1.383589279
1.383687669
1.383837316
1.383973539
1.384046347
1.384071238
1.374005628
1.376573925
1.382161104
1.384491049
1.38449558
1.384417103
1.385144634
1.385910194
1.386460879
1.38617855
1.385551798
1.384855148
1.384247328
1.383629947
1.382926312
1.382776725
1.383101035
1.383599659
1.383871849
1.384180236
1.384429244
1.384451237
1.384317251
1.384381989
1.384472381
1.38446159
1.384433963
1.384465541
1.384639682
1.384902799
1.385042498
1.362068611
1.377082968
1.384646031
1.384617921
1.383304233
1.38383942
1.385755766
1.387428791
1.38773532
1.387639442
1.387393653
1.38697707
1.385954864
1.385314876
1.384875601
1.384341605
1.384676626
1.385152274
1.38533979
1.385435493
1.385571476
1.385584759
1.385490622
1.38556412
1.385623805
1.385547531
1.38544427
1.385400803
1.38549833
1.385802605
1.38600839
1.325371112
1.375429149
1.378090362
1.37632374
1.379851793
1.383825953
1.386961527
1.387841596
1.38728243
1.386849802
1.386758027
1.387139252
1.386792654
1.386120782
1.385740935
1.385961078
1.386264284
1.386161466
1.385931197
1.385657975
1.385668397
1.385802992
1.38599436
1.38630649
1.386336589
1.386231165
1.386053764
1.385955028
1.38610758
1.386506648
1.38670677
1.198812561
1.305031891
1.328958863
1.361184934
1.38426621
1.384564245
1.383551847
1.38314956
1.381478421
1.381451732
1.383231845
1.385942065
1.386634071
1.386702977
1.387065117
1.387369014
1.387167936
1.386858739
1.386235668
1.385663396
1.385687337
1.385934187
1.386371665
1.386746827
1.386747548
1.38665462
1.386454918
1.38631366
1.386423069
1.386800491
1.386890125
1.008159896
1.121617937
1.241177337
1.339742612
1.375931514
1.366074678
1.371784131
1.376133107
1.377536133
1.37938275
1.384226288
1.385958286
1.386912592
1.387118087
1.38754237
1.387399315
1.387009357
1.386709879
1.385888506
1.385319752
1.385378912
1.385591642
1.386032443
1.38644896
1.386592534
1.386589529
1.386511177
1.386469463
1.386661799
1.387084543
1.387098983
0.916274521
0.9525930475
1.050634735
1.171158805
1.283007978
1.321781983
1.367193269
1.376436015
1.383671944
1.387986668
1.389738991
1.387671576
1.386371758
1.38586783
1.384732021
1.384408933
1.385598621
1.386389125
1.386191761
1.385816298
1.38508698
1.384911931
1.385072266
1.385292752
1.385475063
1.385656354
1.385910976
1.386144777
1.386591776
1.387086816
1.387133324
0.9052652733
0.9079407034
0.9270841277
0.9836126842
1.0999794
1.24143243
1.338459023
1.360124451
1.377083526
1.388285198
1.387776361
1.383336934
1.382889599
1.382128141
1.381737769
1.382569744
1.385497142
1.38692895
1.38665413
1.385996243
1.384720183
1.384356048
1.384401661
1.384536147
1.384670107
1.38486903
1.385302646
1.385792364
1.386426975
1.38701525
1.387128766
0.9047267843
0.9045454505
0.9052408947
0.9119435347
0.9457917724
1.033306977
1.15389845
1.250013936
1.330759249
1.377252249
1.367885606
1.373370105
1.378871266
1.379848991
1.381930985
1.385565894
1.388890083
1.388329161
1.38740894
1.385735874
1.38457854
1.384443541
1.384915473
1.385423381
1.385461197
1.385180695
1.384930753
1.385325024
1.386023874
1.386603666
1.386880317
0.9063734109
0.905137519
0.9053930501
0.9062970342
0.9089489825
0.9234322203
0.9704478472
1.088799993
1.208694178
1.306009827
1.334314727
1.3738326
1.380592495
1.381854502
1.387773583
1.391392683
1.391004822
1.389262845
1.386857293
1.385513601
1.385499479
1.385827673
1.386679659
1.386740331
1.386413829
1.385526536
1.384863263
1.3850151
1.385590869
1.386215266
1.386730737
0.9135092234
0.9103782458
0.9090831225
0.9096135427
0.9087680006
0.9083121065
0.9119325382
0.9387047943
1.008910345
1.130055961
1.263771598
1.352404418
1.364333958
1.372872675
1.384723366
1.389420368
1.385941069
1.386177585
1.386805293
1.386872955
1.386869546
1.387038311
1.387214943
1.386919012
1.38640743
1.385313891
1.384854673
1.385048914
1.385764759
1.386780501
1.387252789
0.9189091977
0.915235177
0.9118949629
0.9121592168
0.9106194773
0.9084530195
0.908468087
0.9097659369
0.9194309562
0.9612531547
1.060311505
1.187537838
1.272980928
1.324952985
1.371702763
1.37087358
1.37500657
1.382584993
1.387884052
1.387348771
1.38671882
1.385996073
1.384478826
1.383765207
1.384016649
1.38426962
1.384788947
1.385605434
1.386806478
1.38768017
1.387704572
0.9270845181
0.9206923833
0.9139893168
0.9130581143
0.910655785
0.9074737358
0.9077098507
0.9088697293
0.9088352178
0.9116344604
0.9323670575
0.9912338699
1.118303743
1.238607839
1.327810645
1.344186157
1.373435123
1.387914103
1.386855939
1.383820535
1.383871037
1.383655239
1.382338958
1.38269373
1.383716021
1.384520926
1.385137305
1.385937424
1.38707119
1.387428368
1.38739424
0.9490836556
0.9414132445
0.9300504473
0.9250683859
0.9192738746
0.9112309203
0.9109724643
0.9107246852
0.9091365379
0.9093776056
0.9105473171
0.9172322714
0.9509480346
1.035939232
1.159559755
1.273885732
1.359382498
1.378531567
1.367309319
1.37422082
1.379977885
1.382262315
1.383965976
1.38624577
1.386577041
1.385906788
1.385535857
1.385823642
1.385776763
1.385778261
1.386202783
0.9691658774
0.9597529538
0.9456718049
0.9394223975
0.9353143653
0.9268517636
0.9245113966
0.9228814215
0.9163884133
0.9127456523
0.9129787848
0.9124520004
0.9136571556
0.9279117687
0.9775238378
1.087350949
1.212225911
1.296988568
1.331654068
1.376981197
1.382624397
1.385768979
1.389612012
1.390785038
1.389153842
1.386602642
1.385201564
1.384896186
1.385000461
1.385397181
1.386249825
0.9899675696
0.9804625292
0.9649299528
0.9551952346
0.9497746337
0.9403692677
0.9343156275
0.9325904776
0.9267810884
0.9200325705
0.9193970736
0.9173840713
0.9154378128
0.9159508164
0.9205807171
0.947802655
1.014928272
1.140604833
1.272059054
1.354722606
1.365874824
1.378319313
1.388161888
1.38808437
1.384039256
1.384889446
1.385065536
1.385674609
1.386526596
1.387666984
1.388021211
1.021239839
1.010258849
0.9942621289
0.9809201215
0.9725184986
0.9610346216
0.9477346847
0.9417495911
0.9348235083
0.9238267678
0.9230155451
0.9213275691
0.9171255671
0.9168892244
0.9176895007
0.9182798107
0.9265937121
0.9703871412
1.066246826
1.192064669
1.270486131
1.339518648
1.372945416
1.367416762
1.373780986
1.38214165
1.38583904
1.387973875
1.390274885
1.390494664
1.389630845
1.045266117
1.033227384
1.016605603
1.002797112
0.995818903
0.9866434294
0.9736421052
0.9650204472
0.9565922525
0.9426849056
0.9354343541
0.931105361
0.9222839154
0.9189414985
0.9184456106
0.917468882
0.9168922074
0.9197685817
0.9402880913
0.998652558
1.128131387
1.257525604
1.326367955
1.345052065
1.376776409
1.385553438
1.385536547
1.387061675
1.390031304
1.389807975
1.388391365
1.074008744
1.063298488
1.04737359
1.03153723
1.021392408
1.00894544
0.9920082737
0.9835264209
0.9769974616
0.965502552
0.9567505806
0.9524854767
0.9441279172
0.9349959689
0.930638273
0.9233374414
0.9180756305
0.9192482847
0.9203925143
0.9264778739
0.964791869
1.048331232
1.177514854
1.291359275
1.364026774
1.371676388
1.374418242
1.379840641
1.380452629
1.380681102
1.384439002
1.105544841
1.09223257
1.073892085
1.054612231
1.044135134
1.033245476
1.015258341
1.003876872
0.9959369812
0.9819350927
0.9714713582
0.9675372715
0.9606473399
0.9495338591
0.9451788437
0.9400018828
0.9300261293
0.9280340479
0.926441489
0.9231273849
0.9247207768
0.9394015399
0.9964460522
1.10009114
1.2316678
1.290054031
1.33936322
1.373334658
1.369447531
1.374588387
1.383291039
1.133360792
1.120153923
1.10273454
1.081497893
1.071349778
1.061526973
1.043869223
1.030662007
1.022317935
1.008956424
0.9937633038
0.9858485243
0.9768471791
0.9616546518
0.955004965
0.9507899207
0.9410055223
0.9355560313
0.9342460953
0.9286201561
0.9265561402
0.9272305943
0.9317061193
0.9588829651
1.027324228
1.158921319
1.280347765
1.358444173
1.364920979
1.383984369
1.390869882
1.163819373
1.151286892
1.134952143
1.111081049
1.097133067
1.085470827
1.064810863
1.04979979
1.04317463
1.032431278
1.01705755
1.009320339
1.002216853
0.987826877
0.9771368475
0.971011906
0.9604749195
0.9480243466
0.943642628
0.9368859411
0.9280040201
0.9289797229
0.9283891146
0.9286859298
0.9376079271
0.9861293282
1.077013116
1.206083047
1.304033402
1.373146415
1.380554038
1.195032322
1.180141196
1.163343236
1.136923562
1.122203212
1.112645198
1.094168469
1.076614354
1.068194183
1.056181291
1.036920136
1.028009959
1.02125135
1.006985316
0.9955025774
0.991365018
0.9837644929
0.971487443
0.9645919591
0.9584012336
0.9452967548
0.9373013325
0.9323799213
0.9290802283
0.929354857
0.9332802249
0.9555684926
1.023043624
1.139307353
1.257580011
1.310264285
1.225416771
1.209418076
1.194651361
1.16741472
1.149610411
1.139738432
1.12161511
1.100037325
1.090886338
1.0808936
1.061156174
1.048932357
1.0417651
1.027311538
1.011978928
1.006657237
0.9990871753
0.9847236019
0.9793880483
0.9753814707
0.9657337032
0.9561274
0.9514734578
0.9431857668
0.9347644757
0.934964249
0.9350739463
0.9411378429
0.9809436093
1.063541828
1.190356781
1.257178099
1.238845673
1.225395514
1.19886631
1.176300472
1.165800341
1.149032754
1.123424247
1.113472625
1.105343174
1.086362186
1.071921856
1.066019759
1.054567472
1.037006854
1.028800125
1.021511972
1.005220713
0.9948932967
0.9894294882
0.9789831923
0.9679514478
0.9644423511
0.9595200996
0.9484401641
0.944549296
0.9410971481
0.9377190738
0.9393316263
0.9545209082
1.014887731
1.291986054
1.26824825
1.254867841
1.22962311
1.201786382
1.19186684
1.178873383
1.152652598
1.138329365
1.129826866
1.110788346
1.091050041
1.084363136
1.074232016
1.054838698
1.0473384
1.042712355
1.029717217
1.016273577
1.011219527
1.00271682
0.9883954557
0.9810955852
0.9752783122
0.9620312693
0.9534875432
0.9505630502
0.9431317837
0.9397714859
0.9409218928
0.9472402088
1.326737283
1.296835715
1.284202798
1.263513993
1.231192617
1.217747912
1.205964858
1.179224089
1.16009477
1.153129644
1.138351718
1.115283721
1.106908769
1.098966036
1.079220765
1.066479116
1.060378278
1.047386274
1.031168725
1.027415553
1.021877174
1.007989011
1.000064584
0.9963331162
0.987397373
0.9738419918
0.9673661984
0.958661924
0.9445952581
0.9424327672
0.9438520437
1.364582444
1.327435727
1.312360063
1.295420065
1.261660132
)
;

boundaryField
{
    inlet
    {
        type            calculated;
        value           nonuniform 0();
    }
    outlet
    {
        type            calculated;
        value           nonuniform 0();
    }
    bottom
    {
        type            calculated;
        value           nonuniform 0();
    }
    top
    {
        type            calculated;
        value           nonuniform 0();
    }
    obstacle
    {
        type            calculated;
        value           nonuniform 0();
    }
    defaultFaces
    {
        type            empty;
    }
    procBoundary28to21
    {
        type            processor;
        value           nonuniform List<scalar> 
19
(
1.377641204
1.378260297
1.377804425
1.376548677
1.375574994
1.375341746
1.374903505
1.374903505
1.375395513
1.375512015
1.375843036
1.376167744
1.376591465
1.377074376
1.376993953
1.375942578
1.375942578
1.375024483
1.374830523
)
;
    }
    procBoundary28to22
    {
        type            processor;
        value           nonuniform List<scalar> 
36
(
1.377924942
1.374925758
1.37560118
1.377277717
1.379161107
1.379920605
1.380001932
1.380496942
1.380570962
1.380417153
1.37999482
1.379527369
1.378510885
1.377554707
1.377988884
1.379612596
1.381683781
1.383081626
1.383261673
1.383638607
1.383268109
1.38229777
1.381071222
1.380189133
1.379328578
1.379195504
1.378145878
1.378145878
1.375330398
1.373789368
1.373334126
1.375225741
1.375279694
1.374710605
1.375071397
1.375071397
)
;
    }
    procBoundary28to23
    {
        type            processor;
        value           nonuniform List<scalar> 3(1.377001528 1.378730772 1.380577776);
    }
    procBoundary28to27
    {
        type            processor;
        value           nonuniform List<scalar> 
55
(
1.375440731
1.376711569
1.377577145
1.377517057
1.37726128
1.377361251
1.377361251
1.377715711
1.378547275
1.378798408
1.378751796
1.378491755
1.378021596
1.377172955
1.377942196
1.377942196
1.37782237
1.376756851
1.376222781
1.375807485
1.375488804
1.375391148
1.375517194
1.375342484
1.377712724
1.377712724
1.381190181
1.379381948
1.377101222
1.360050464
1.259141232
1.078012666
0.9341377512
0.9066287357
0.9047674824
0.9046791343
0.906592505
0.9134208021
0.9189491841
0.9310836791
0.9551858607
0.9790868201
1.00166624
1.034005116
1.062065676
1.090494649
1.124760687
1.155591549
1.187720162
1.223050032
1.257010814
1.291697065
1.327277965
1.360431361
1.393524247
)
;
    }
    procBoundary28to29
    {
        type            processor;
        value           nonuniform List<scalar> 
69
(
1.380592839
1.380298308
1.380384011
1.379413075
1.378107759
1.377073963
1.377073963
1.377325491
1.379256659
1.381657861