/*--------------------------------*- C++ -*----------------------------------*\
  =========                 |
  \\      /  F ield         | OpenFOAM: The Open Source CFD Toolbox
   \\    /   O peration     | Website:  https://openfoam.org
    \\  /    A nd           | Version:  7
     \\/     M anipulation  |
\*---------------------------------------------------------------------------*/
FoamFile
{
    version     2.0;
    format      ascii;
    class       volScalarField;
    location    "3";
    object      rho;
}
// * * * * * * * * * * * * * * * * * * * * * * * * * * * * * * * * * * * * * //

dimensions      [1 -3 0 0 0 0 0];

internalField   nonuniform List<scalar> 
2222
(
5.231118453
5.224000285
5.216544355
5.230111328
5.222214779
5.213869141
5.205436298
5.197637359
5.190408895
5.183479958
5.176920195
5.170641482
5.164228606
5.157422232
5.22997773
5.221743048
5.212826225
5.20360475
5.194811218
5.186709546
5.178981939
5.171764267
5.16517688
5.158844592
5.152208138
5.145348377
5.138231444
5.130461943
5.121734636
5.111995004
5.10128101
5.089773564
5.230650978
5.222485572
5.213435192
5.203834663
5.194377639
5.185513727
5.176975389
5.168836132
5.161408792
5.15459131
5.147778659
5.140908924
5.133916912
5.126392201
5.117898761
5.108291708
5.097611616
5.086074112
5.073853274
5.061211835
5.048356408
5.035550103
5.022899847
5.010555305
4.998455456
5.231980221
5.224442844
5.215737991
5.206169762
5.196398834
5.186905673
5.177624767
5.168624636
5.160371163
5.152877929
5.14558396
5.138463414
5.131493632
5.12423841
5.116115481
5.106835589
5.096353118
5.08484952
5.072525947
5.059707178
5.046662094
5.033690827
5.020920432
5.008531555
4.996470357
4.984742606
4.973004394
4.961152598
4.948801345
4.93594521
4.922317548
5.234123477
5.227580685
5.219493547
5.210292428
5.200612807
5.190865537
5.181013343
5.17125904
5.162275143
5.154114091
5.146375945
5.139012225
5.13201679
5.125032964
5.117449645
5.108799097
5.098844615
5.087657725
5.075440782
5.062551606
5.049286106
5.036014253
5.022912801
5.010218828
4.997879336
4.985939024
4.974037357
4.962077086
4.949557701
4.936432782
4.922345931
4.907413431
4.891680586
4.875442255
4.85892536
4.842447116
4.826249374
5.2373615
5.232521416
5.225582071
5.217045592
5.207594778
5.197670554
5.187403494
5.177241655
5.167879888
5.159222025
5.151195831
5.143751702
5.136825046
5.130089149
5.122954141
5.114893275
5.105600225
5.095031808
5.083309731
5.070732971
5.057551174
5.044143711
5.030672832
5.017439323
5.004424293
4.9917873
4.97921504
4.966686435
4.953642259
4.940030428
4.92536824
4.909778295
4.893231028
4.87598134
4.858359156
4.840624515
4.823164632
4.806137296
4.789809501
4.774135416
4.759136149
4.744807727
4.731285584
5.241976989
5.239066875
5.23349314
5.225868563
5.216924299
5.207086757
5.196557862
5.186046844
5.17627501
5.167183215
5.158853668
5.151273351
5.144408464
5.137967978
5.131370387
5.124015254
5.115507941
5.105691328
5.094587946
5.082388582
5.069285375
5.055670686
5.041732987
5.027853158
5.014019376
5.000478558
4.986984586
4.973598207
4.959822512
4.945647884
4.93050823
4.914490438
4.897324745
4.879246143
4.860642023
4.841810899
4.823229906
4.804982482
4.787487727
4.770753247
4.755012929
4.74018966
4.726210017
4.713012198
4.700546655
4.688786648
4.677609154
4.666890763
5.247074738
5.245669109
5.241553285
5.235021293
5.226704097
5.217051274
5.206460491
5.19578158
5.185593086
5.176183135
5.167621951
5.159971075
5.153231322
5.147126909
5.141084807
5.134453129
5.126743684
5.11769351
5.107250502
5.095519946
5.082637924
5.068973385
5.054676479
5.040182327
5.02547356
5.010906911
4.996311405
4.981838116
4.967104756
4.952109867
4.936278837
4.919673336
4.901895056
4.883386024
4.864386937
4.845149276
4.825929693
4.806908891
4.788459694
4.770706007
4.754032023
4.738476222
4.724062438
4.710676509
4.69812608
4.686252078
4.67487584
4.663955075
4.65330664
4.642903196
4.632302402
4.621507634
4.61004013
5.250767053
5.250134706
5.247271568
5.241923815
5.234527505
5.225465375
5.215266781
5.20477278
5.194447517
5.184923648
5.176330939
5.168745105
5.162171133
5.156366787
5.150798144
5.14480366
5.137823479
5.129484705
5.119655494
5.108383125
5.095755606
5.08211736
5.067561189
5.052573306
5.037112471
5.021618349
5.005955006
4.990349672
4.974580574
4.958694355
4.94222908
4.925276681
4.90721638
4.888365332
4.868798207
4.849021693
4.829469306
4.810362293
4.791862683
4.773942669
4.756842859
4.74064052
4.725572973
4.711662964
4.698705884
4.686551167
4.675007709
4.664018777
4.653336485
4.642946788
4.632363111
4.621656307
4.610273824
4.598373689
4.585568596
4.572132497
4.557765029
4.542908803
5.251982496
5.251755096
5.249840748
5.245712863
5.239519344
5.231511586
5.222219877
5.212372599
5.202449833
5.193147354
5.184712121
5.177275742
5.170869698
5.165286629
5.160028363
5.154450387
5.147967885
5.14014178
5.130776387
5.119878776
5.107485349
5.093924725
5.079225654
5.063911498
5.047909681
5.031723414
5.015230499
4.998730255
4.982101389
4.965413065
4.948369702
4.931051542
4.912856177
4.894093428
4.874530533
4.854716645
4.834983744
4.815592889
4.796839526
4.778885956
4.761968182
4.746060035
4.731031126
4.716823939
4.703330745
4.690697132
4.678760635
4.667494197
4.656585989
4.646051875
4.63537114
4.62471141
4.613361705
4.601570643
4.588802501
4.575371565
4.560820794
4.545602948
4.529379831
4.512591277
4.49514403
4.477287623
4.459146176
5.251531873
5.251468257
5.250251269
5.247261952
5.242407099
5.235747076
5.227729066
5.218912941
5.209741842
5.200866622
5.1927108
5.185444175
5.179123405
5.173592928
5.168408315
5.162968398
5.156700828
5.149146987
5.140068385
5.129445911
5.117270547
5.103857641
5.089177455
5.073766218
5.057515945
5.040966923
5.023974741
5.006891528
4.989657619
4.972377073
4.954945008
4.937405102
4.919324606
4.900894274
4.88169287
4.862211402
4.842671094
4.823460434
4.804826155
4.786885904
4.769838507
4.7537349
4.738576566
4.724459759
4.71108648
4.698452658
4.686187682
4.674443621
4.66296309
4.65195326
4.640878622
4.629996235
4.61847672
4.606634956
4.593828526
4.580372344
4.565757798
4.550287689
4.533601608
4.51599528
4.497505147
4.478602093
4.459349422
4.440285703
4.421132891
4.401819004
4.382052435
5.250593805
5.25044298
5.249744292
5.247709064
5.244127374
5.238887922
5.232284823
5.224723045
5.216552216
5.208202975
5.200305768
5.193110915
5.186691933
5.180954332
5.175532673
5.169897049
5.163525193
5.155968483
5.146974933
5.13652101
5.124572419
5.111407416
5.096961441
5.081744928
5.065623344
5.049129757
5.032067451
5.014830615
4.997390451
4.979901714
4.962398126
4.944873285
4.927129161
4.909213859
4.890741167
4.871973279
4.852954106
4.83409259
4.815621712
4.797756956
4.780644879
4.764369219
4.74886738
4.734291762
4.720326597
4.707160307
4.694401106
4.682265257
4.670283859
4.658723768
4.647021073
4.63550828
4.623479762
4.6113347
4.598376262
4.584856406
4.57029699
4.554787051
4.537997455
4.520072515
4.500975526
4.481258191
4.460826465
4.440623991
4.420025634
4.399499436
4.378354588
5.249978479
5.249423746
5.249066387
5.247818121
5.245361465
5.241435259
5.236186057
5.229872024
5.22272908
5.214947264
5.207158166
5.19981662
5.193042872
5.186824277
5.180880676
5.17477558
5.168041005
5.16023942
5.151160257
5.140790087
5.129106201
5.11632273
5.102367628
5.087665659
5.072070787
5.056084751
5.039448398
5.022561848
5.005396831
4.988150861
4.970947577
4.953752805
4.936560667
4.919305104
4.901720385
4.883846075
4.865590482
4.847266751
4.829028244
4.811181659
4.793849472
4.777223528
4.761198366
4.745993208
4.731230273
4.717225727
4.703503805
4.690409072
4.677465462
4.66503702
4.652497017
4.640211783
4.627498107
4.614767392
4.601429826
4.587684426
4.57312618
4.557689864
4.541003363
4.523170756
4.50382292
4.483822035
4.4626384
4.441504881
4.419842246
4.398449222
4.376329447
5.250010033
5.249037665
5.248540087
5.247707228
5.246013325
5.243097832
5.238972091
5.233750624
5.227580585
5.220460218
5.21271681
5.20505022
5.19771942
5.190831759
5.184156081
5.177390799
5.170105706
5.161971651
5.152748667
5.142407325
5.130964059
5.118655136
5.105401404
5.091542701
5.076866638
5.061840051
5.046131083
5.030080921
5.013647948
4.997065522
4.980519384
4.963976815
4.947538287
4.931082119
4.914411918
4.897444171
4.879966695
4.862191163
4.844151581
4.826235005
4.808552029
4.791385522
4.774602817
4.758510844
4.742710707
4.727634391
4.71275889
4.698563119
4.684478176
4.670901943
4.657207513
4.643860046
4.630232978
4.616732666
4.602875375
4.588766505
4.574091844
4.558712786
4.542108281
4.524499232
4.505036278
4.485015585
4.463515143
4.442099802
4.419880192
4.398069043
4.375466986
5.250776821
5.249241387
5.248261073
5.247460877
5.246094526
5.243721773
5.240292403
5.235821011
5.230395997
5.223867023
5.216178234
5.208132223
5.200207073
5.19263143
5.185358535
5.177990048
5.170135353
5.161573216
5.152150363
5.141845145
5.13071537
5.118951356
5.106458783
5.09364144
5.080196969
5.066470934
5.052116203
5.037342667
5.022060699
5.006498439
4.990859966
4.975158039
4.959525044
4.943862882
4.927979977
4.911788835
4.89496079
4.877666805
4.859786632
4.841750582
4.823640366
4.8058104
4.788154766
4.77104796
4.754107345
4.737853118
4.721767013
4.706336287
4.690943316
4.676081785
4.661181945
4.646684532
4.632070609
4.617715819
4.60321462
4.58868667
4.57377459
4.558365461
4.541736074
4.524323014
4.504839493
4.48491158
4.463224254
4.441766161
4.419349496
4.397648247
4.375021831
5.252294563
5.249941406
5.248079134
5.246785018
5.245332827
5.243057676
5.23989566
5.235782333
5.230733394
5.224597458
5.217142496
5.209002025
5.200775446
5.192618741
5.184552175
5.176491867
5.168094949
5.159103329
5.149485544
5.139264176
5.128566759
5.11749399
5.105992958
5.094302135
5.082316765
5.070098699
5.057369076
5.044168522
5.030354384
5.016085103
5.001517822
4.986730686
4.971828306
4.956817391
4.941475971
4.92581879
4.9094226
4.892482687
4.874708861
4.856530402
4.837986851
4.819460293
4.800938293
4.782808988
4.764793415
4.747407971
4.730112511
4.713406932
4.696752589
4.680637073
4.664548136
4.648912425
4.63331298
4.618080243
4.602895758
4.587911301
4.572672584
4.557181202
4.540464848
4.523194867
4.503716956
4.483935586
4.462092112
4.44060404
4.418102935
4.396767998
4.374403879
5.253678826
5.250419886
5.247590668
5.245355553
5.243399509
5.24087524
5.23764727
5.233647075
5.228816287
5.223041378
5.215988057
5.207830314
5.199241663
5.190607156
5.181835237
5.173049911
5.164112861
5.154842399
5.145209371
5.13523128
5.125071525
5.114800412
5.104441615
5.094031665
5.083574499
5.072947329
5.061905323
5.050349678
5.038093454
5.025184836
5.011690924
4.997753662
4.983420267
4.968855022
4.953805544
4.938454358
4.922303283
4.9056122
4.887921726
4.869653856
4.850784194
4.831690718
4.812493404
4.793518643
4.774569772
4.756082545
4.737625718
4.719748636
4.701943882
4.684686689
4.667511062
4.650812911
4.634265092
4.618169227
4.602265392
4.586735229
4.571082018
4.555461553
4.538678746
4.521557537
4.502133375
4.482436923
4.460433192
4.438938261
4.416499354
4.395453532
4.373267822
5.254757479
5.25049825
5.246571063
5.243084489
5.240193127
5.237086434
5.233405891
5.229202462
5.224452617
5.219013608
5.212434815
5.204460621
5.195608348
5.186592078
5.17747161
5.16830149
5.159046298
5.149651376
5.140139403
5.130542714
5.121040947
5.111668776
5.102445756
5.093333225
5.084239119
5.075149823
5.06568801
5.055662843
5.044861365
5.033228922
5.020726059
5.007527187
4.993623447
4.97934286
4.964430255
4.949235518
4.933205522
4.916672206
4.899046093
4.880759471
4.861695607
4.842201094
4.822488547
4.802729656
4.782914482
4.763441072
4.744048443
4.725185643
4.706436136
4.688230103
4.670155837
4.652568707
4.635195106
4.618330384
4.601746342
4.585687824
4.569599424
4.553788542
4.536890397
4.51980137
4.500405012
4.480753797
4.45869499
4.437271923
4.414979222
4.394104086
4.3718748
5.255195563
5.249931826
5.244836587
5.240027097
5.235861875
5.231939597
5.227593145
5.222895261
5.217940148
5.212606803
5.206450729
5.198943094
5.190258856
5.18123699
5.172037014
5.162770314
5.153457634
5.144126672
5.134906414
5.125757095
5.116866944
5.10829458
5.100087064
5.092144416
5.084335056
5.076590523
5.068603266
5.059986017
5.05047083
5.039933817
5.02826427
5.015663497
5.002087199
4.987976995
4.973083337
4.957895991
4.941839455
4.925335869
4.907725187
4.88945731
4.870275026
4.850474738
4.830345643
4.809950895
4.789561735
4.769387078
4.749303348
4.729680142
4.710214836
4.691273519
4.672513626
4.654251633
4.63624098
4.618775071
4.60161438
4.585107135
4.568588577
4.552531039
4.535471893
4.518305596
4.498885282
4.479196654
4.45714307
4.435854659
4.41372693
4.392912263
4.37041359
5.255113263
5.248617973
5.242290694
5.236168159
5.230601512
5.225648436
5.220552004
5.215209172
5.209861702
5.204472585
5.198661349
5.191772985
5.183610399
5.174928329
5.165989616
5.156919369
5.147795612
5.138722354
5.12981614
5.121092717
5.112733821
5.104799599
5.097360023
5.090313378
5.083526381
5.076806643
5.06988168
5.062378844
5.053962409
5.044390611
5.033476308
5.021384279
5.008075971
4.994052849
4.979097422
4.963826446
4.947669945
4.931149508
4.913573936
4.895408905
4.876223484
4.856286585
4.835972416
4.815247129
4.794495418
4.773803158
4.753245607
4.733091894
4.713145525
4.693701482
4.674476763
4.655750657
4.637282333
4.619395795
4.601802517
4.584962836
4.568094878
4.551746114
4.534433823
4.517068309
4.49760883
4.477902777
4.455948397
4.434818921
4.412819007
4.391945417
4.369035271
5.254221077
5.246424485
5.238854277
5.231468298
5.224538059
5.218380474
5.212492661
5.206482442
5.200680728
5.195183092
5.189686006
5.183503342
5.176118877
5.168016489
5.159620546
5.151013752
5.142256718
5.133525805
5.124956549
5.116621681
5.108714552
5.10128846
5.094388076
5.087938037
5.081765457
5.075677249
5.069346436
5.062528758
5.054856526
5.046004676
5.035747002
5.024146237
5.011167439
4.997286151
4.982338166
4.967009526
4.950778953
4.934269712
4.916792402
4.898835205
4.879814143
4.859985848
4.839618296
4.818695177
4.797763647
4.776736888
4.75588723
4.735375655
4.715123301
4.695379674
4.675900999
4.656954487
4.638255335
4.620148609
4.60226438
4.585129808
4.567964717
4.551385181
4.533891485
4.51632575
4.496728445
4.476864198
4.454989973
4.434046522
4.41218428
4.391128829
4.367708675
5.252690339
5.243713075
5.234977074
5.226381559
5.218171373
5.210715904
5.203904073
5.197181573
5.190873347
5.18522612
5.179996162
5.174506384
5.168067276
5.160802835
5.153166469
5.145229635
5.13700568
5.128665235
5.120436643
5.112440044
5.104833219
5.097697676
5.091068309
5.084916711
5.079065103
5.073352765
5.067476982
5.061117995
5.053903962
5.045519181
5.035778348
5.02463727
5.012066822
4.998432785
4.983592288
4.968274067
4.952007172
4.935509813
4.918086616
4.900266218
4.881385818
4.861749241
4.841448339
4.820483037
4.799512671
4.778328902
4.75739334
4.736743024
4.71639993
4.696560703
4.676975723
4.65794737
4.639123647
4.620912698
4.602818061
4.585458084
4.567994156
4.551111334
4.533373363
4.515571787
4.495902722
4.475985034
4.454233953
4.433373912
4.411534324
4.390253038
4.366409834
5.251384475
5.241362249
5.231529197
5.221840536
5.212405581
5.203642238
5.195813946
5.188419156
5.181572656
5.175644984
5.170542996
5.165645295
5.16017189
5.153884548
5.147147127
5.139985993
5.132331677
5.124367884
5.116365748
5.108529351
5.101002006
5.093911876
5.087295772
5.081174404
5.075374626
5.069795228
5.064104424
5.058032048
5.051227823
5.043315966
5.034103536
5.023412597
5.011271036
4.997909688
4.983212333
4.96792846
4.951612069
4.935089181
4.917673518
4.899967042
4.881256833
4.86187917
4.84176829
4.820940386
4.800090332
4.778935816
4.758027043
4.737322273
4.716965602
4.69712697
4.677530468
4.658507519
4.639624837
4.621379263
4.60316248
4.585665788
4.567949384
4.55072964
4.532665404
4.514509654
4.494714308
4.474701456
4.453201688
4.432559052
4.410837481
4.389242489
4.364856077
5.251253764
5.24046102
5.229775867
5.219183387
5.208744546
5.198872743
5.189999857
5.181941386
5.17461689
5.168388956
5.163218169
5.15859612
5.153759155
5.148272551
5.142415266
5.13602996
5.128914522
5.121213878
5.113205222
5.105213868
5.097446366
5.090089408
5.083193474
5.076851045
5.070866982
5.065188495
5.059474003
5.053510391
5.046951363
5.039402487
5.030687243
5.020466806
5.008759869
4.995651102
4.981087619
4.96582545
4.949451235
4.932885343
4.91549298
4.897949775
4.879519812
4.860551221
4.840820712
4.820327237
4.799723529
4.778736928
4.757961758
4.737279596
4.71692619
4.697078278
4.677468846
4.658479244
4.639573425
4.621324824
4.603001961
4.585366966
4.567426133
4.54992517
4.53155193
4.513028026
4.493024641
4.472836492
4.451591444
4.431088797
4.40957144
4.387647226
4.362834537
5.25296218
5.241537544
5.23025155
5.219091794
5.208127112
5.197589061
5.187964918
5.17940046
5.171714804
5.165126209
5.159681631
5.155016723
5.150440035
5.145399323
5.139939004
5.133846298
5.12698453
5.119381462
5.111307346
5.103046658
5.094808635
5.08692163
5.079414536
5.072515505
5.066034289
5.059974273
5.054011555
5.047955266
5.041458164
5.0341179
5.025741277
5.015858801
5.004501231
4.991607312
4.977201784
4.96198885
4.945613854
4.929049245
4.911741216
4.894414031
4.876344633
4.857916874
4.838719963
4.818746804
4.798482291
4.777735957
4.757165292
4.736570541
4.716256289
4.696403404
4.676754674
4.657768997
4.638796871
4.620497208
4.602019691
4.584177594
4.565946599
4.548110549
4.529444638
4.510672537
4.49058192
4.470331581
4.449289718
4.428825676
4.407422745
4.385078999
4.359953583
5.25789691
5.245851508
5.233988841
5.222357626
5.210989244
5.200014209
5.189856646
5.180797726
5.172767477
5.16575671
5.159955212
5.155063561
5.150462417
5.145692382
5.140629436
5.134814928
5.128020628
5.120213023
5.111724494
5.10291442
5.094067339
5.085534296
5.077323216
5.069572369
5.062193013
5.055325343
5.04871288
5.042210956
5.035453824
5.028050431
5.019780995
5.01008018
4.998990651
4.986289315
4.972060221
4.956915305
4.940597054
4.924102971
4.906940414
4.889879064
4.872196552
4.854285691
4.835589739
4.816163095
4.796277018
4.775801875
4.755438367
4.734951706
4.714693334
4.694832975
4.675110305
4.656069877
4.636965327
4.618540737
4.599857067
4.581760001
4.563247007
4.5451001
4.526173177
4.507151671
4.486987577
4.466727698
4.44590535
4.425481415
4.403996821
4.381239857
4.355880856
5.269850025
5.257168194
5.244658006
5.232355996
5.2203169
5.208677829
5.197808358
5.188104327
5.179693971
5.172443029
5.166465355
5.16152787
5.157036809
5.152590105
5.148003632
5.142496105
5.135604654
5.127322174
5.117963459
5.108019147
5.097816778
5.087792356
5.078154349
5.069238431
5.060857495
5.053047913
5.045400634
5.037950879
5.030434278
5.022483497
5.013927898
5.004107174
4.993055051
4.980397261
4.966269965
4.951154145
4.934893114
4.918470506
4.901439331
4.884600856
4.86724948
4.849796691
4.831552998
4.812639565
4.793128715
4.772932721
4.752745425
4.73234858
4.712130972
4.692244143
4.672408136
4.65323913
4.633918503
4.615275289
4.596320072
4.577921982
4.559107753
4.540638909
4.521461455
4.502231003
4.482044978
4.461809275
4.441202128
4.420796281
4.3992557
4.37624678
4.350837501
5.274580834
5.261983672
5.249698989
5.237811257
5.226417997
5.215771182
5.206177617
5.197916347
5.191006191
5.185378802
5.180529886
5.175935813
5.171239353
5.166141909
5.159993786
5.152355082
5.143103893
5.132477844
5.120976542
5.108949269
5.097083626
5.085410392
5.07439147
5.063873183
5.054233594
5.045215405
5.036713306
5.02828463
5.019498277
5.010193899
4.999828956
4.988436705
4.975511836
4.961233071
4.945931478
4.929553461
4.913030545
4.89596039
4.879175628
4.861995829
4.844846596
4.826939468
4.80843081
4.789223324
4.769269184
4.74919416
4.728821633
4.708572907
4.688590689
4.668575432
4.649191876
4.629572553
4.610620871
4.5913272
4.572578087
4.553433065
4.534628478
4.515173737
4.495723446
4.475512633
4.455346443
4.434972878
4.414589643
4.392994985
4.369781392
4.344540657
5.247678258
5.237925429
5.229125421
5.221439471
5.214886732
5.209337928
5.20435467
5.199658173
5.194883256
5.189642645
5.183301077
5.175430241
5.165757475
5.15441901
5.141818004
5.128334616
5.114632588
5.100797322
5.087547363
5.07475988
5.062769792
5.051315203
5.040467511
5.03013462
5.019996773
5.009752791
4.998676008
4.98673832
4.973364876
4.958752258
4.943087782
4.926325018
4.909401005
4.891968411
4.874882498
4.857505629
4.840303491
4.822439167
4.804068681
4.784958678
4.765096386
4.745000234
4.724533127
4.704131039
4.683928456
4.663624203
4.643909799
4.623896022
4.604542096
4.584839271
4.56568641
4.546167853
4.526996811
4.507234287
4.487574703
4.467350222
4.447288296
4.427121323
4.40678488
4.385170785
4.361838482
4.336914214
5.236540461
5.231133649
5.226319057
5.221921186
5.21751076
5.212628461
5.206599095
5.199012138
5.189488038
5.178109119
5.165138351
5.150970588
5.136277488
5.121263961
5.106655822
5.092298574
5.078603992
5.065399358
5.052723006
5.040361781
5.028001013
5.015658418
5.002812694
4.989562857
4.975230842
4.959886272
4.943511668
4.926102826
4.908566302
4.890580539
4.872994627
4.85517258
4.83750187
4.819280179
4.800622605
4.781209692
4.761095666
4.740664175
4.719856924
4.699091861
4.678479369
4.657730093
4.637533239
4.617007628
4.597142851
4.57694021
4.557308182
4.537349751
4.517772147
4.497680582
4.477828983
4.457600275
4.437664882
4.417675
4.397424071
4.375835855
4.352474809
4.327903492
5.236292498
5.231837065
5.226325441
5.219346849
5.210405916
5.199528824
5.186804383
5.172628319
5.157627592
5.142107073
5.126804852
5.111692042
5.097206428
5.083243792
5.069764498
5.056594707
5.043385062
5.030017532
5.016018576
5.001396174
4.985557094
4.968627635
4.950662934
4.931699396
4.912691734
4.893329383
4.874490406
4.855685394
4.837162874
4.818308608
4.799086431
4.779083497
4.758325839
4.737142876
4.715572305
4.694033891
4.672679144
4.651239238
4.630352726
4.609165337
4.588655326
4.567839421
4.547629613
4.527144684
4.507112857
4.486669926
4.466630311
4.446381613
4.426548586
4.406682892
4.386513064
4.36497965
4.341632539
4.317392431
5.235438651
5.227305491
5.217232414
5.205128459
5.191392915
5.176557554
5.161014935
5.145519519
5.130177885
5.11542308
5.101198656
5.087420132
5.073966868
5.060496113
5.04691075
5.032715527
5.017830406
5.001687898
4.984341994
4.965758376
4.945736869
4.925246105
4.903900657
4.882789352
4.861761969
4.841190785
4.820719831
4.800150637
4.779194773
4.757592302
4.735502949
4.71277504
4.690024807
4.667441614
4.644873304
4.622941005
4.600849537
4.579496122
4.557918379
4.537005204
4.515894496
4.495353912
4.474522557
4.454265871
4.433934369
4.41411641
4.394275336
4.374106081
4.352600295
4.32921778
4.305247404
5.207029313
5.192737012
5.177584232
5.162299153
5.147080346
5.132350024
5.118116167
5.10431619
5.090894485
5.077508031
5.064030519
5.049941922
5.035137407
5.019038461
5.001676097
4.982905358
4.962649881
4.941697455
4.919676026
4.897551862
4.875071573
4.852565326
4.829893775
4.80697777
4.783806823
4.76012063
4.736320804
4.712155303
4.688144779
4.663984888
4.639856251
4.616385293
4.592949055
4.570391588
4.547812799
4.526011847
4.504140064
4.482991971
4.461686517
4.441119601
4.420578292
4.400620987
4.380641274
4.360328184
4.338740088
4.315210689
4.291374012
5.177162323
5.162344977
5.147914235
5.133936599
5.120360203
5.107148556
5.093938637
5.080623293
5.066705973
5.052104084
5.036229633
5.019115589
5.000454562
4.98027681
4.95908336
4.936695919
4.913928285
4.890675155
4.867289212
4.843483109
4.819159957
4.794051256
4.76813063
4.741960636
4.71544821
4.68934254
4.663214332
4.637413732
4.611995919
4.586809524
4.562558785
4.538528067
4.515492428
4.492630276
4.470691546
4.448747403
4.427681182
4.406719847
4.386381909
4.366021967
4.3453555
4.323496979
4.299678441
4.275777608
5.135271844
5.122313371
5.109308621
5.096188907
5.082459478
5.068072028
5.052426148
5.035593468
5.017128201
4.997171989
4.975974351
4.95360414
4.930663829
4.907171853
4.8833787
4.858868236
4.833704492
4.807292814
4.779970362
4.751909954
4.723122607
4.694572502
4.66603259
4.638092813
4.610588279
4.583538547
4.557279442
4.531484129
4.506756379
4.482423618
4.459288276
4.436406681
4.414552694
4.392885495
4.371838638
4.350781662
4.329485046
4.307106222
4.282825965
4.258616985
5.110720613
5.097193124
5.083005568
5.067543141
5.050945994
5.032681327
5.012965331
4.991830319
4.969540455
4.946457166
4.922792885
4.89871664
4.873869836
4.84851633
4.821623777
4.793736733
4.76445553
4.734265781
4.703899783
4.673117936
4.642764273
4.612870179
4.583629773
4.555270358
4.5275402
4.500889335
4.474810819
4.449966728
4.42557505
4.402424058
4.379673635
4.357546697
4.335428333
4.313173342
4.289963057
4.265033041
4.240245912
5.081354128
5.065035474
5.047044664
5.027627887
5.006651933
4.984511745
4.961348586
4.9375817
4.913275365
4.888225983
4.862820199
4.835744773
4.807727469
4.777840643
4.746879221
4.715230342
4.683014321
4.651027968
4.619023137
4.587608075
4.557124259
4.527334658
4.498689985
4.470633003
4.443808548
4.417552896
4.392454218
4.367918328
4.344131506
4.320526408
4.296984417
4.272615304
4.246802876
4.221154662
5.041086496
5.02039045
4.99850105
4.975367318
4.951585981
4.927097228
4.901886274
4.87637667
4.849267752
4.821429604
4.791444248
4.760228817
4.727886629
4.694734824
4.661481327
4.628085006
4.595155296
4.562729653
4.530940386
4.500295078
4.470226054
4.441355534
4.412891493
4.385516711
4.358864304
4.33285459
4.30706298
4.28165953
4.255701417
4.228719892
4.201925855
4.988537885
4.964923723
4.940410634
4.915166173
4.889572505
4.862510396
4.834862803
4.804998361
4.773809075
4.741143455
4.707435823
4.673411057
4.639077198
4.604988004
4.571367639
4.538166305
4.505690207
4.473649675
4.442691409
4.412093945
4.38230929
4.352883873
4.324313964
4.296072817
4.268344801
4.240204533
4.211590591
4.18322405
4.928053531
4.902522322
4.875640608
4.848172254
4.81854825
4.787505761
4.754767482
4.720776089
4.686300564
4.651345169
4.616496814
4.581935001
4.547508542
4.513723247
4.480112462
4.447201222
4.41455864
4.38264366
4.350890195
4.319285043
4.288044314
4.257588643
4.22687547
4.19621823
4.165809122
4.888606872
4.861362571
4.832063415
4.80121257
4.768577903
4.734476419
4.699769448
4.664407577
4.629026211
4.593719916
4.558370892
4.523407703
4.48833089
4.453854744
4.419318915
4.385292846
4.351538507
4.317831226
4.283541147
4.250000231
4.216269812
4.183118684
4.150206808
4.814878563
4.782466229
4.748356821
4.713536917
4.677849109
4.642025574
4.606030575
4.569872933
4.533839932
4.497547713
4.46170703
4.425528926
4.389649561
4.35381499
4.318246255
4.281691449
4.245425435
4.208524339
4.172488485
4.136801397
4.727412318
4.691446664
4.655208332
4.618508759
4.581608895
4.544584451
4.507206754
4.470108749
4.432489347
4.395161263
4.357277089
4.319883522
4.281177691
4.242795309
4.203086049
4.164258205
4.125591483
4.668315604
4.630939547
4.5933786
4.555452639
4.517107796
4.478858483
4.439890337
4.401063578
4.361386736
4.322086603
4.281207618
4.24091452
4.198757923
4.157629435
4.116242183
4.605107481
4.566342494
4.527088321
4.487715799
4.447453832
4.407098342
4.365598109
4.324501233
4.281351544
4.239255838
4.194774666
4.151636848
4.10788947
4.496599568
4.454952234
4.413005619
4.369580199
4.326619017
4.281328845
4.237371647
4.190495198
4.145387053
4.099602833
4.418572644
4.373201188
4.328322272
4.280971989
4.234752932
4.185480151
4.138235819
4.09057502
4.329503938
4.279897722
4.231130463
4.179518917
4.129803034
4.080222509
4.172660449
4.120166592
4.068349613
4.05484035
)
;

boundaryField
{
    inlet
    {
        type            calculated;
        value           nonuniform 0();
    }
    outlet
    {
        type            calculated;
        value           nonuniform 0();
    }
    bottom
    {
        type            calculated;
        value           nonuniform 0();
    }
    top
    {
        type            calculated;
        value           nonuniform 0();
    }
    obstacle
    {
        type            calculated;
        value           nonuniform 0();
    }
    defaultFaces
    {
        type            empty;
    }
    procBoundary8to1
    {
        type            processor;
        value           nonuniform List<scalar> 9(5.238067891 5.237707277 5.237650904 5.237990398 5.23833727 5.238962105 5.240040985 5.242445601 5.246213869);
    }
    procBoundary8to2
    {
        type            processor;
        value           nonuniform List<scalar> 
78
(
5.232952143
5.226851173
5.22042895
5.20913496
5.20913496
5.202309066
5.195711426
5.189175496
5.182735972
5.176238116
5.16940814
5.162310904
5.150440266
5.150440266
5.143134669
5.135164399
5.126333834
5.116616448
5.106018455
5.094654143
5.077640858
5.077640858
5.065096082
5.052304943
5.03951597
5.026836614
5.014383523
5.002053333
4.986599708
4.986599708
4.974689711
4.962664222
4.950250763
4.937454864
4.924094438
4.908038668
4.908038668
4.893095782
4.877777047
4.862280466
4.846875431
4.831724933
4.81045175
4.81045175
4.795109426
4.780316855
4.766155483
4.752690228
4.740000057
4.718587944
4.718587944
4.706644923
4.695332634
4.684508818
4.674011646
4.6564024
4.6564024
4.646045637
4.635399914
4.624405846
4.612670772
4.597967386
4.597967386
4.585020349
4.571470368
4.55715967
4.542521877
4.527238795
4.527238795
4.511168488
4.494552289
4.477637317
4.460629052
4.441247543
4.441247543
4.423614036
4.405812384
4.38773058
)
;
    }
    procBoundary8to3
    {
        type            processor;
        value           nonuniform List<scalar> 
23
(
4.335518757
4.330179238
4.326735639
4.324593233
4.32310733
4.321594374
4.319558953
4.316893622
4.314025947
4.311157229
4.308308983
4.305437728
4.302158124
4.298604701
4.29464785
4.289952619
4.284464754
4.277869419
4.269882177
4.260321452
4.249002861
4.23577392
4.220578979
)
;
    }
    procBoundary8to7
    {
        type            processor;
        value           nonuniform List<scalar> 
19
(
5.249514359
5.250862303
5.250864293
5.250664681
5.250793716
5.251540157
5.253106789
5.255385477
5.257627241
5.259667324
5.261147825
5.262141623
5.262285898
5.262017865
5.261687117
5.262185567
5.264546867
5.270162136
5.282658289
)
;
    }
    procBoundary8to9
    {
        type            processor;
        value           nonuniform List<scalar> 
17
(
4.203489076
4.184743834
4.164731336
4.14395184
4.122914618
4.102131808
4.082170239
4.063360292
4.046064234
4.03025643
4.015781064
4.002102573
3.988506701
3.974172669