/*--------------------------------*- C++ -*----------------------------------*\
  =========                 |
  \\      /  F ield         | OpenFOAM: The Open Source CFD Toolbox
   \\    /   O peration     | Website:  https://openfoam.org
    \\  /    A nd           | Version:  7
     \\/     M anipulation  |
\*---------------------------------------------------------------------------*/
FoamFile
{
    version     2.0;
    format      ascii;
    class       volScalarField;
    location    "3";
    object      p;
}
// * * * * * * * * * * * * * * * * * * * * * * * * * * * * * * * * * * * * * //

dimensions      [1 -1 -2 0 0 0 0];

internalField   nonuniform List<scalar> 
2222
(
3.545245815
3.493552561
3.383806976
3.338950395
3.296060497
3.211386062
3.15404615
3.113264687
3.071543096
3.024465115
2.968471624
2.914669063
2.862864024
2.812514957
2.762619545
2.712423441
2.661147711
5.85327897
5.845303604
5.794632905
5.642502082
5.357291535
5.001836179
4.580673338
4.233219796
3.843298416
3.441060672
3.333319045
3.870635441
4.594694826
4.590894577
4.380975506
4.115561905
3.86152767
3.767331189
3.656571321
3.491882446
3.439938505
3.375561397
3.293008038
3.253301259
3.185370591
3.12240585
3.079917445
3.037339428
3.002673508
2.954086401
2.896349623
2.849995867
2.804773019
2.760005773
2.71404997
2.665922452
2.615731567
5.851952376
5.843156217
5.784786627
5.614811109
5.309873854
4.934594474
4.518154429
4.123574628
3.806525778
3.392931218
3.07996119
3.168707934
3.87070553
4.399227329
4.240292733
4.001306044
3.761647215
3.660837268
3.539667169
3.381360732
3.329233432
3.268931894
3.202579141
3.146887477
3.082684071
3.051089495
3.006209269
2.962653703
2.931785311
2.877773674
2.82603749
2.789311099
2.750183972
2.708117014
2.663897492
2.617189828
2.569057977
5.851849681
5.841612905
5.773856647
5.583902163
5.26241945
4.859672863
4.456512481
4.030625698
3.694931234
3.37928193
2.998227975
2.826619127
3.140696798
3.946151772
4.054581509
3.884043818
3.656406841
3.54734647
3.418996032
3.264298801
3.215511365
3.171536122
3.100485217
3.028631543
2.995071641
2.978286443
2.923812981
2.886706323
2.858454795
2.801706655
2.759366664
2.731059604
2.69464858
2.655341151
2.613515513
2.56850113
2.522531432
5.852623417
5.83990952
5.761122365
5.551687923
5.206795163
4.792868257
4.369030565
3.96882374
3.580594766
3.306402708
2.959663456
2.659666466
2.665936992
3.223500326
3.808020607
3.735247089
3.546212465
3.433508619
3.301159032
3.153356746
3.112067054
3.075699084
2.989279596
2.922016576
2.915006347
2.898490389
2.836858498
2.810124772
2.784906639
2.727988306
2.697671035
2.673004932
2.638342886
2.600734023
2.560459081
2.518046641
2.475506378
5.852999538
5.837333849
5.746472118
5.516110895
5.146795051
4.724672524
4.277182918
3.892249504
3.492257901
3.190630024
2.936003749
2.591255253
2.429593604
2.618173354
3.268563041
3.552541798
3.442012937
3.332629139
3.193364685
3.045415034
3.011287756
2.973968329
2.877123669
2.824785639
2.832337593
2.807021286
2.747216951
2.735573281
2.711124197
2.65536491
2.636108162
2.614912741
2.58046828
2.545553056
2.508464964
2.468656738
2.428689671
5.852659364
5.833670379
5.729076349
5.47601201
5.085410587
4.64429222
4.197952417
3.792385441
3.428024662
3.075133022
2.846714096
2.555873532
2.301188346
2.256348746
2.639321154
3.24313066
3.323616863
3.230985553
3.088644302
2.942976725
2.912362732
2.869992283
2.770378058
2.736828929
2.750851425
2.711529258
2.662470292
2.664481039
2.633698574
2.585384951
2.576515296
2.55267685
2.519809862
2.489773136
2.454586054
2.418175845
2.382425215
5.852308793
5.828599455
5.708298336
5.429850755
5.021248956
4.558549908
4.11809681
3.689707301
3.348892899
2.991073316
2.7326288
2.516848172
2.232498406
2.07599866
2.164577893
2.675989252
3.158122512
3.110855732
2.989217725
2.847084359
2.816724766
2.762146883
2.667163517
2.652860933
2.664137305
2.61200497
2.584001149
2.592723221
2.550406772
2.521936079
2.515198124
2.484950179
2.460638911
2.434104499
2.402111564
2.369817915
2.337036547
5.851557448
5.821664207
5.683334574
5.378803339
4.952871896
4.469681228
4.028401179
3.60083946
3.24546198
2.923103787
2.621982146
2.435699798
2.195380677
1.973589869
1.919024009
2.181467425
2.83015193
2.956219586
2.872327631
2.756557554
2.727196617
2.654959957
2.571929135
2.575711566
2.57078107
2.518110472
2.51477402
2.510200963
2.467816476
2.461300102
2.445746336
2.418611752
2.403018345
2.377551932
2.348442007
2.320791426
2.291555013
5.850835327
5.813413627
5.654796519
5.323544653
4.874985044
4.384907325
3.926388625
3.515096581
3.139021875
2.844200635
2.540094738
2.33035018
2.149610948
1.909979066
1.784086202
1.839914772
2.317786807
2.75633425
2.733218151
2.652641366
2.625597237
2.541423728
2.482460839
2.493062801
2.466539552
2.436557662
2.445000073
2.416756791
2.399994693
2.398866522
2.37296146
2.358039634
2.347334364
2.321741289
2.29746837
2.273629718
2.246272305
5.850175925
5.804465394
5.622415394
5.264166552
4.791563724
4.296180181
3.819801749
3.426391872
3.041275668
2.743967368
2.472852428
2.228310166
2.073732078
1.86973571
1.694615848
1.655917602
1.88519989
2.452176103
2.625910596
2.560758756
2.521561016
2.440515977
2.405874271
2.404065084
2.368526863
2.365207457
2.364332551
2.335457388
2.336138137
2.326445322
2.303475976
2.299745187
2.290323937
2.266091202
2.246420751
2.225117104
2.19979526
5.84979929
5.794680544
5.586749833
5.19969975
4.70251639
4.201667338
3.719488314
3.322103537
2.951152748
2.635802629
2.397895752
2.146034623
1.978040892
1.825554231
1.632691488
1.540210198
1.590847884
1.995055546
2.435141779
2.45556874
2.416601974
2.34831899
2.323036763
2.302705149
2.282291547
2.294262935
2.276324743
2.264349557
2.271783074
2.254801605
2.239876424
2.242541849
2.232959206
2.211620217
2.196843036
2.177388109
2.152617783
5.850067081
5.784053662
5.547388441
5.128797718
4.612863622
4.095524546
3.621934331
3.208702118
2.862693929
2.533044476
2.308688087
2.078482025
1.883013873
1.758670788
1.59118379
1.456443551
1.43327852
1.617346089
2.089214724
2.35535779
2.317436462
2.265176131
2.23305481
2.205411855
2.204476583
2.215542182
2.192303574
2.193691247
2.201121932
2.182548858
2.175214244
2.183627706
2.173479094
2.156139754
2.144830932
2.126554477
2.105103828
5.850820213
5.772003046
5.504738779
5.049686734
4.519591467
3.984140713
3.52067417
3.0947025
2.764277645
2.442923199
2.206683007
2.01043783
1.801701752
1.675498329
1.55084595
1.398840522
1.328593989
1.36669737
1.711694875
2.201788708
2.210914038
2.174008626
2.135642219
2.116310742
2.132627385
2.133134504
2.113765846
2.125000609
2.13214541
2.116432322
2.115105755
2.125979967
2.113488345
2.102032317
2.094104214
2.077316469
2.059059962
5.850795795
5.757265722
5.45673055
4.964080929
4.423146764
3.868127613
3.411473092
2.987975523
2.654231549
2.357870256
2.104492424
1.932365647
1.733576924
1.588455653
1.493496184
1.355789075
1.254075256
1.240450208
1.402327427
1.875704322
2.108630052
2.090161924
2.053908355
2.037865963
2.057854854
2.048321601
2.037312041
2.053831916
2.058837267
2.04897885
2.056596591
2.066664458
2.054312457
2.048678551
2.043158974
2.027352349
2.013653599
5.849346944
5.738213111
5.401426256
4.873459342
4.316590349
3.753943516
3.291040847
2.883358177
2.53906282
2.270238325
2.011546397
1.842940687
1.671280801
1.509190176
1.424507808
1.318399046
1.200183923
1.152673792
1.196659499
1.547070467
1.972178697
2.008810012
1.974568976
1.959133472
1.978811491
1.965836266
1.96074889
1.983497838
1.987616823
1.985031211
2.00074405
2.006222186
1.997979536
1.998331968
1.993632549
1.979344696
1.970441861
5.846471081
5.713869473
5.33653839
4.779749959
4.199398451
3.638371394
3.162505522
2.777849677
2.427238951
2.171199217
1.926871437
1.748253086
1.605053358
1.442623776
1.348694862
1.269525188
1.153864765
1.083825512
1.087759227
1.266600379
1.696607316
1.910251583
1.891014996
1.890562672
1.901904496
1.888210686
1.883643824
1.907620906
1.913331939
1.918401804
1.942826202
1.944550641
1.939938938
1.945469672
1.942324067
1.93326745
1.927268362
5.843046618
5.684750155
5.261951961
4.681310536
4.070587847
3.521412169
3.032434482
2.665555576
2.319802277
2.064482149
1.847494506
1.656368667
1.529533864
1.383548549
1.274126931
1.21280911
1.119120219
1.032903383
1.010713334
1.067111769
1.417138524
1.769672922
1.818562397
1.818634725
1.819902912
1.811224801
1.810814894
1.839572034
1.849082704
1.859160786
1.883666806
1.882283899
1.88484324
1.895775068
1.893395326
1.886567805
1.883384585
5.839333939
5.649157128
5.178138914
4.574709349
3.935584823
3.397656245
2.900773256
2.546272441
2.215461561
1.955726544
1.763553392
1.571899488
1.448241802
1.327725405
1.209351825
1.148244403
1.079435119
0.9879760487
0.9479851671
0.9604329092
1.156901116
1.529940822
1.745533134
1.742736445
1.749303824
1.741625823
1.737306301
1.765855264
1.783234491
1.802485895
1.825844137
1.823465048
1.829187461
1.843563192
1.842088326
1.841278332
1.840034693
5.833605721
5.607550433
5.087047348
4.455893833
3.799959456
3.261701875
2.774051883
2.419545219
2.111658009
1.849967538
1.672330655
1.495821598
1.363320212
1.266433553
1.152167834
1.084004129
1.032746529
0.9527208583
0.8945435291
0.8852486079
0.9569978052
1.279491113
1.62427579
1.695097672
1.692081913
1.676746882
1.668655467
1.697542832
1.722423198
1.745171183
1.765298667
1.765544922
1.776978215
1.795528289
1.794776811
1.795413398
1.795647437
5.827607671
5.559996542
4.986714531
4.326540184
3.662679748
3.115166231
2.650080452
2.287306792
2.007162645
1.746570439
1.577072367
1.422542323
1.284918412
1.19884806
1.100043614
1.022359498
0.981668232
0.9223572425
0.8566199342
0.8284300184
0.8462376325
1.054337271
1.41106124
1.615650785
1.623384613
1.609249845
1.600255894
1.622773539
1.655911727
1.684129033
1.706629895
1.709239446
1.722099123
1.743207259
1.748086038
1.752167168
1.752509743
5.821269619
5.503186889
4.87931107
4.185216611
3.521770383
2.961176497
2.524431654
2.155150758
1.897124436
1.648990111
1.480525686
1.344710821
1.212662769
1.129075341
1.049942478
0.9654852778
0.9243972163
0.8815208003
0.8178698931
0.7831007678
0.7840977851
0.8782474556
1.194709521
1.51498067
1.555956927
1.54126054
1.539038727
1.565174689
1.597691602
1.62287065
1.644716246
1.654653427
1.671697243
1.695560143
1.700728921
1.706539337
1.70968135
5.812389241
5.435208231
4.763342409
4.032523695
3.373828761
2.805934102
2.391375871
2.028380278
1.779549459
1.55569695
1.38555756
1.267356518
1.143179001
1.058790711
0.9985384122
0.9202946075
0.8732543785
0.8394848767
0.7845734331
0.7402736386
0.7312189854
0.764040544
0.9900730067
1.366519144
1.494785067
1.480139907
1.474597555
1.497166987
1.533762546
1.563668563
1.589174689
1.601645127
1.618171907
1.643699232
1.654884681
1.662662725
1.66900349
5.797399709
5.353353957
4.638237233
3.871043171
3.216298585
2.650116385
2.251266936
1.903603274
1.663289913
1.462094201
1.29391179
1.189492396
1.080026705
0.9904774079
0.9358423777
0.8711066535
0.8210528171
0.7965505047
0.7574811333
0.7118906041
0.6923671525
0.7017752122
0.8253785266
1.161668226
1.42220672
1.428683246
1.423530892
1.444844652
1.478688365
1.504965799
1.533571089
1.552413999
1.570347024
1.598651706
1.61055178
1.615743008
1.627008362
5.774145776
5.258999109
4.504580532
3.69788607
3.045651023
2.499967318
2.100011455
1.782546725
1.546750286
1.367978328
1.201516369
1.104520572
1.017677081
0.9355661462
0.8828523835
0.8298017944
0.7738346905
0.7480972012
0.7194270646
0.6762881456
0.6527909428
0.6523502741
0.7060725802
0.958455087
1.318664384
1.354721828
1.357630208
1.3833545
1.423951708
1.452645514
1.482801838
1.502042808
1.517915755
1.546756763
1.569390211
1.573840305
1.579951612
5.743503502
5.154214799
4.354829388
3.512567708
2.874021542
2.336217536
1.946894434
1.66253514
1.426071724
1.271515152
1.12441807
1.027602993
0.9520322007
0.8733212231
0.8213777292
0.7835513361
0.734436872
0.7061204615
0.6855700125
0.6499562546
0.6230779893
0.61635484
0.6356120143
0.7795120015
1.155506222
1.316773192
1.315094048
1.331530211
1.362350994
1.389217922
1.426097335
1.455194561
1.474485569
1.50106884
1.520442264
1.532997133
1.544317606
5.709410343
5.039337449
4.184113408
3.318305705
2.692138248
2.166552891
1.7959683
1.539794945
1.311530858
1.168379892
1.047659483
0.9535352061
0.8915171793
0.8201558575
0.7683550818
0.7368560505
0.6970970147
0.6669099896
0.6512780539
0.6268444415
0.5990890182
0.5848850632
0.5892680705
0.6580801637
0.9633042575
1.224296879
1.252306823
1.277228864
1.313841283
1.343605876
1.378864687
1.403458491
1.423235108
1.457415115
1.48445172
1.489876493
1.496938536
5.668343041
4.906873659
3.990724083
3.118233911
2.493076287
1.998872194
1.639065087
1.410181722
1.211024503
1.074719671
0.9672942826
0.8744989665
0.8227783103
0.7664655979
0.7165315161
0.6878311313
0.6575578698
0.6265761299
0.6108363731
0.5939591675
0.5671521262
0.5525950607
0.5536925637
0.5830689953
0.7820084368
1.139118944
1.200519467
1.227925675
1.25532244
1.283186748
1.333975816
1.372989572
1.386635574
1.405560558
1.431441901
1.454057094
1.467653006
5.620864787
4.757602916
3.774914746
2.902875957
2.2777255
1.829662924
1.495143893
1.272006832
1.099133137
0.9802407007
0.8982813654
0.8149452916
0.7635124004
0.7157493808
0.6687020218
0.6459879273
0.6255026133
0.5959113331
0.5763960876
0.5659676865
0.5470059702
0.533815963
0.5310454546
0.5419512137
0.6503217778
0.9923632654
1.132032514
1.196331698
1.223746111
1.242042551
1.2716865
1.307596359
1.34659117
1.377727619
1.395060259
1.406250463
1.420848229
5.55931881
4.5900111
3.520921646
2.680314816
2.062090283
1.644632888
1.344441153
1.145991364
0.9972178666
0.8838936124
0.8161674925
0.7488644178
0.7053688797
0.6699901444
0.6285503797
0.6046845048
0.5890102242
0.5672706409
0.5476540347
0.5408667563
0.5300144719
0.5157980147
0.5065432076
0.5088653533
0.5554205467
0.8354584024
1.063320203
1.106502848
1.154271991
1.209121995
1.251373843
1.280947501
1.300417035
1.323476439
1.351558712
1.370467081
1.385513365
5.481096416
4.386388376
3.254386139
2.431584248
1.839533494
1.461667599
1.177256969
1.024702576
0.9121972719
0.8102104257
0.7445864963
0.6888132075
0.6434472268
0.6189064447
0.5845511381
0.5626285015
0.5531915747
0.5386178201
0.5193042272
0.5114929943
0.5043541033
0.4891884282
0.4783360804
0.4786543997
0.4975869905
0.6672266277
0.9936018773
1.058158573
1.102448563
1.163334157
1.216570617
1.253915764
1.266725561
1.279844016
1.299243789
1.325302053
1.352153307
5.382602976
4.13725679
2.967027636
2.163860575
1.609199045
1.288299498
1.038547498
0.9006221062
0.8034241956
0.7169635166
0.6731154308
0.6382206424
0.6015066422
0.5827002732
0.555398175
0.5332700568
0.5221991222
0.5093864735
0.4905446515
0.4819697081
0.4797210854
0.4711482166
0.4643479806
0.4635445561
0.4710886111
0.5586087713
0.8597150671
0.9933599289
1.066979741
1.129323055
1.178736048
1.213763636
1.231617733
1.243992648
1.257513193
1.282153629
1.316676534
5.256209857
3.838945014
2.645476525
1.898871854
1.363667689
1.088889832
0.9067496566
0.8015064068
0.7210483728
0.649687725
0.6036511907
0.5778048399
0.5516337553
0.535745482
0.5196646449
0.4977983317
0.4948061028
0.4884158999
0.4744334779
0.464452504
0.465578779
0.4624487768
0.4550866046
0.4497442001
0.4524205784
0.4933264178
0.699295949
0.9634938423
1.031656332
1.074681911
1.120596647
1.165028088
1.200116434
1.220736219
1.232554179
1.25051051
1.280309185
5.076949404
3.50936006
2.268559965
1.616491
1.157673992
0.9103929176
0.7626131936
0.6843787728
0.6333801555
0.5925587531
0.5563952796
0.5435315756
0.5237825281
0.5042564011
0.493641996
0.4797907661
0.4750823556
0.4691554666
0.4570479914
0.4448869873
0.4461585252
0.445135149
0.4375879174
0.4296988392
0.4308036233
0.4484943913
0.5800503479
0.8600123373
1.030886018
1.062754941
1.08508534
1.118583271
1.161208702
1.198125401
1.215809435
1.229095099
1.247246188
4.834254015
3.101338109
1.908470516
1.273355256
0.9394365133
0.7758715385
0.6790657757
0.5995679934
0.5654419842
0.5298104527
0.5003451206
0.4986776059
0.4909733069
0.4711163396
0.4631955428
0.4564095777
0.4478982627
0.4417329796
0.4315776784
0.4249685867
0.4258569934
0.4259115027
0.421592928
0.4188704072
0.420384777
0.4282966906
0.5010708237
0.741509017
1.004187832
1.052202696
1.05630458
1.08079742
1.12252411
1.16834082
1.195441471
1.208269521
1.221561642
4.523759502
2.544404191
1.570052729
0.9998076823
0.7338596134
0.619642543
0.5698102554
0.5175612068
0.5098712516
0.4879798207
0.4685602853
0.4643787467
0.4590398671
0.4423302453
0.438059891
0.4358445359
0.4309351836
0.4256644036
0.4223028401
0.4200350793
0.4207348624
0.4213067978
0.4181678183
0.417186994
0.4184936696
0.422771809
0.4583874429
0.6291155431
0.9405135415
1.045527536
1.046185331
1.061400158
1.096651211
1.143571711
1.17796674
1.190281386
1.2007314
4.087264464
1.971261455
1.105034351
0.7229240141
0.6106046756
0.5257552067
0.5026300074
0.4794732321
0.4653031099
0.4541158119
0.4431713735
0.441724323
0.4368042121
0.424276469
0.4234755917
0.4276374714
0.427057228
0.4227579175
0.4214411832
0.4204584508
0.4200166128
0.42014041
0.4188565698
0.4171046429
0.4164500066
0.4179900043
0.4338625467
0.5402648332
0.83409626
1.034166623
1.039000806
1.048040891
1.07667798
1.119265113
1.16014681
1.174700275
1.18315531
3.255321918
1.484069107
0.7472027115
0.5264640669
0.5104499709
0.4642143985
0.4596743823
0.4531082691
0.438021524
0.4324911809
0.4269754752
0.4263191189
0.4243926196
0.4199188378
0.4196444903
0.4231556346
0.4231669755
0.4196372096
0.4174309464
0.4171235063
0.4163594963
0.416128042
0.4155027907
0.4131206912
0.4116498426
0.41170497
0.4179194336
0.477716341
0.7102709083
1.001213247
1.030660269
1.036448292
1.060399735
1.10098726
1.141567841
1.160418842
1.171386826
1.991996169
0.6932446777
0.5261325593
0.4645861125
0.4611933787
0.4364494174
0.4239099158
0.4254939271
0.4234085279
0.4240096866
0.4212910604
0.4186780067
0.4164795262
0.4162285637
0.4172779404
0.4192313365
0.4191308015
0.4155489305
0.4119549022
0.4113677698
0.4105886084
0.4101880342
0.4095814855
0.4078586061
0.4064841091
0.4055456895
0.4071881374
0.4295193301
0.5594062513
0.8861541446
1.004927903
1.009781194
1.035771265
1.080059613
1.124079956
1.142454607
1.151451113
0.4762412668
0.4786454689
0.4631295279
0.4421517231
0.4382170945
0.4378283343
0.4309808717
0.4306957615
0.4273087063
0.4232049444
0.4175026448
0.4145459077
0.4152633022
0.4162125595
0.4157142569
0.4166172433
0.4159737089
0.4116960701
0.4082056835
0.4083592231
0.4075955387
0.4069686638
0.4061260412
0.4046265293
0.4037566233
0.4023474438
0.4051205659
0.4308127806
0.5795790099
0.8922672221
0.9979475813
1.010685313
1.038303751
1.082507026
1.119792411
1.136922526
0.434450213
0.4702524856
0.460360698
0.4403680982
0.4336877795
0.4289196168
0.4295721363
0.4295616975
0.4261012246
0.4208635735
0.4148383712
0.4134132288
0.4146912459
0.4160750351
0.4150952891
0.4152390594
0.4144386826
0.4093460251
0.4072794668
0.407086559
0.4066415376
0.406094876
0.4053273577
0.4035891222
0.4025863667
0.401144685
0.4045286898
0.4344616902
0.5960248038
0.8992359717
0.997720636
1.011257816
1.040559818
1.084160995
1.119579401
1.136864929
0.4383621287
0.4681931496
0.4558747354
0.4401204577
0.4304650122
0.4247045656
0.4306382839
0.4302155172
0.4255167322
0.4193255229
0.4145150656
0.4131951734
0.4142131745
0.415688829
0.414553567
0.4140547556
0.4129069924
0.4082792417
0.4064890021
0.4061473536
0.4056562437
0.4050412884
0.4044154025
0.4031414601
0.4020147338
0.4002904959
0.4042460886
0.4398994044
0.6159694771
0.9088769363
0.9957318202
1.011079919
1.042868582
1.085876002
1.119711026
1.13677465
0.4407891599
0.4657955242
0.4518196293
0.4378013928
0.426869269
0.4236432276
0.4299795882
0.4298827449
0.4244790958
0.417762116
0.4132188369
0.4124621821
0.4136100248
0.4150773571
0.4138689158
0.4129615132
0.4109458985
0.4074028735
0.4057281333
0.4049488249
0.4040393928
0.4033956325
0.4030014606
0.4022266617
0.4010607081
0.3998843506
0.4040964122
0.4466943244
0.6374919998
0.9190953147
0.9965928263
1.012304391
1.045604785
1.087275519
1.119475225
1.137165416
0.4440236897
0.4646964769
0.4486582234
0.4350228703
0.4227375969
0.423097384
0.4297049
0.4293137025
0.4231520661
0.4159270811
0.4127559135
0.4116156206
0.4129980814
0.4143528501
0.413127416
0.4118673309
0.4090804063
0.4064999609
0.4051782579
0.4043559168
0.4033223675
0.4026800419
0.4022235379
0.4005556089
0.3995430543
0.3993496731
0.4042574389
0.4547973668
0.6593488122
0.9279256161
0.9962105132
1.014696867
1.048845185
1.088117276
1.118128952
1.135643831
0.449121665
0.4633750442
0.4460425485
0.4324736541
0.4189481847
0.4224421125
0.428799687
0.4269820863
0.4207908669
0.4133854201
0.4121447586
0.4109025327
0.4123518176
0.4136273852
0.4125188121
0.4110207242
0.4076517562
0.4055729414
0.4041874251
0.4037791535
0.4029444002
0.4022033741
0.401209027
0.3998877443
0.3989838579
0.3986069439
0.4046855562
0.4642955339
0.6812173033
0.9363788658
0.9974101342
1.017599734
1.050066049
1.088215984
1.117861269
1.135128583
0.4529987679
0.4614930894
0.4437973437
0.4301058581
0.4157111588
0.4217542645
0.4273679105
0.423802924
0.4183198509
0.4122243815
0.4110898515
0.4102415904
0.411615554
0.412659528
0.4116512176
0.4100752629
0.4067084229
0.4047137421
0.4037165151
0.4031987131
0.4024850945
0.4015085404
0.4002782723
0.3998019463
0.3986571961
0.3982853403
0.4054405884
0.475176937
0.7028695556
0.9440771406
1.000490722
1.019007294
1.049802005
1.088571933
1.115804158
1.134040587
0.4532750662
0.4601069619
0.4415773356
0.428056475
0.4138582779
0.4204010473
0.4251603797
0.4213008049
0.4166043902
0.4114021634
0.4103379776
0.4095814113
0.4107900814
0.4115226842
0.4102933028
0.4085025924
0.4054315248
0.4039615102
0.4027660889
0.4020676056
0.4014305673
0.4004531664
0.3999647391
0.3993103829
0.3980555942
0.3980239035
0.4066129581
0.4875014216
0.7241042088
0.950947415
1.002750308
1.019727092
1.04959431
1.086892191
1.114607192
1.133839237
0.4546932789
0.4593058093
0.4385370538
0.4257889603
0.4127835954
0.4172282441
0.4222303089
0.4194334988
0.4150941294
0.410811033
0.4091373191
0.4089577275
0.4099011407
0.4104299881
0.4093079338
0.4077375686
0.4047963213
0.4029017317
0.4014758759
0.400796991
0.3999314253
0.3995126512
0.3991235408
0.3983034157
0.3971822802
0.3979525062
0.4082921209
0.5011916411
0.745013973
0.9566164769
1.003878809
1.0195457
1.04837243
1.085140544
1.114040989
1.134638072
0.4636302769
0.4581644616
0.4357486241
0.4224251057
0.4105442592
0.4154381808
0.4200548693
0.4177078914
0.4125747117
0.4106688165
0.4084506081
0.4083291849
0.4090639313
0.4097415955
0.4087716155
0.4071251932
0.4041217297
0.4020552643
0.4010975423
0.4001703059
0.3993252377
0.3990300774
0.3986045983
0.3977151839
0.3965224797
0.3977587575
0.4105649745
0.5161974988
0.7659128685
0.9617931166
1.005463189
1.017821407
1.046523432
1.084143232
1.114188279
0.4810546126
0.4558490867
0.4360528771
0.419324082
0.4088411917
0.4155224904
0.4189331463
0.4162068385
0.4094104385
0.4096908995
0.4076112703
0.407631742
0.4082034458
0.4087550243
0.407665009
0.4058991309
0.4031006684
0.4012204754
0.3998965213
0.3999278549
0.3991518477
0.3986842491
0.3982466496
0.3973813645
0.3961240149
0.3973735959
0.4135653911
0.5323747391
0.7861200532
0.9650085672
1.004546579
1.017723091
1.045621613
1.083812199
1.115304444
0.4861557369
0.4542258886
0.4326345019
0.4142022905
0.409961491
0.4158208794
0.4179437745
0.4149690184
0.4083567414
0.409236976
0.4067141982
0.4068174948
0.4070115555
0.4073058147
0.4062497712
0.4046838623
0.4021848872
0.4006317694
0.3994514182
0.3992485915
0.3986697749
0.398106939
0.3977879436
0.3973275842
0.3959095123
0.3970093507
0.4174179993
0.5496525772
0.8059482172
0.9688616145
1.003781161
1.017780847
1.045400467
1.084425061
1.116775238
0.4862266206
0.4488324881
0.4254849088
0.4134873018
0.4112679063
0.4158453074
0.4165454199
0.4132393964
0.4078651543
0.4081943706
0.4059568081
0.405943119
0.4058880639
0.4062423164
0.4050626626
0.4032556978
0.4006993658
0.3992787632
0.3987313041
0.3983020962
0.3977865693
0.3972505979
0.3971139938
0.3969046788
0.3954421544
0.3967664228
0.4222463892
0.5676805999
0.8243489201
0.9695822008
1.003418443
1.016650075
1.045379379
1.085832825
1.118733813
0.4857056506
0.439001245
0.4247305124
0.4143628332
0.4108306005
0.4152455866
0.4147633239
0.4102495521
0.407584704
0.4074018745
0.4053633879
0.4051434411
0.4052277763
0.4058792913
0.4044617779
0.4026202965
0.4000596324
0.3987595206
0.3978461709
0.3975138857
0.3968856147
0.3966190869
0.3965089351
0.3960527701
0.3946058091
0.3967310977
0.4280756907
0.586543595
0.8422009493
0.9709898081
1.001980111
1.016271821
1.045937215
1.087744552
1.1224595
0.4837438364
0.4387722415
0.4269803341
0.414650577
0.4106479959
0.4136493477
0.4125885573
0.4082759992
0.4080679839
0.4063789791
0.4047062696
0.4044262629
0.4047394012
0.4055564858
0.4042031385
0.4022081523
0.3994081695
0.3978733612
0.3974178606
0.3971099138
0.39644268
0.3962401998
0.3960716257
0.3952515694
0.3938136735
0.3968925685
0.4350483552
0.6057131038
0.8591686494
0.9739346254
0.9991443307
1.015923685
1.04716048
1.0907322
1.122141922
0.478501694
0.4408071595
0.4286618897
0.4142461002
0.4091181852
0.4097826293
0.4095691172
0.4079463738
0.4078833372
0.4054079995
0.4039005533
0.403530038
0.4040033577
0.4049374723
0.403669458
0.4017194203
0.3989401115
0.397171076
0.3973018572
0.396907179
0.3961806307
0.3959936844
0.3957583303
0.394750819
0.3933174872
0.3972586104
0.4431472613
0.6254277154
0.8753732257
0.9750941558
0.997955221
1.014506803
1.048313766
1.094651188
1.122105859
0.4728139309
0.4428871662
0.4293601479
0.4131777219
0.4077992441
0.408124384
0.4075467756
0.4075737974
0.4071868746
0.4042046596
0.402917339
0.4024247057
0.4029297535
0.4037256951
0.4025163725
0.4007226624
0.3981680177
0.3968966779
0.3966007829
0.3965947638
0.3960986797
0.3959649151
0.3956700372
0.3944583848
0.393044564
0.3978192377
0.4525791259
0.6452625113
0.8899227191
0.9773825666
0.9966761109
1.014442229
1.050658978
1.091705086
1.164436527
0.4671085752
0.4429664499
0.4281278888
0.4111461145
0.4066797687
0.406948582
0.4070224486
0.4068582969
0.4063067971
0.4029212411
0.4018640915
0.4013959261
0.4022159191
0.4027604932
0.4012868197
0.399475454
0.3972198118
0.3960163568
0.3962750552
0.3961867082
0.3957515608
0.3956572379
0.3953376272
0.3941233829
0.3926051385
0.3986844469
0.4632932295
0.6650224973
0.9024358696
0.9780009762
0.9938821708
1.014303562
1.05317564
1.093920394
0.4600088538
0.4409388759
0.4255467537
0.4102073437
0.405174245
0.4061116783
0.4068147683
0.4069220557
0.4056494177
0.402309247
0.4009428511
0.4002448422
0.4018748712
0.4022698975
0.4006489086
0.3987852333
0.3965733807
0.3955050851
0.3956566678
0.3955164128
0.3951566719
0.395091641
0.394774574
0.3934891413
0.3918432527
0.39997767
0.4752726795
0.6849293192
0.9136565867
0.9791527505
0.9925062045
1.014817649
1.048801172
1.144432217
0.4498008732
0.4370703155
0.4218878257
0.4090484192
0.4043627171
0.4059346929
0.4069498718
0.4070692457
0.4044276634
0.4014614378
0.4002098498
0.3994230515
0.4018161744
0.4021109226
0.4004127601
0.3984140594
0.3961868033
0.3951510986
0.395262685
0.3949976041
0.3946254417
0.3945364408
0.3941525991
0.392713011
0.3911863885
0.4017117378
0.4885312077
0.7044914445
0.9231561395
0.9812509642
0.9917768551
1.016377278
1.050520205
1.653490911
0.4359821248
0.4334463082
0.4175538392
0.4070401407
0.4051711232
0.4062496789
0.4070803915
0.4065460762
0.4029052572
0.4005705647
0.399267943
0.3988220623
0.4014115228
0.4018228749
0.4001904762
0.398376371
0.3961546494
0.3951121315
0.3951731019
0.3946848113
0.3943245471
0.3942530715
0.3938584849
0.3924387687
0.3910913245
0.4039076124
0.5029966002
0.7237555539
0.9316683585
0.9826869191
0.9902967918
1.014442306
1.134512151
2.016811246
0.4230395922
0.4297829792
0.4144384654
0.4057566563
0.4039781695
0.4054890854
0.4067508585
0.4053324173
0.401751242
0.3998982272
0.398060592
0.3980827929
0.4010552299
0.4013524704
0.3995879533
0.3978114494
0.3956554062
0.394840274
0.3950451938
0.3946834857
0.3942894215
0.3942243411
0.3938712822
0.3924888373
0.3913311608
0.4066764058
0.5184363746
0.7436336431
0.9389651148
0.9840893299
0.9898742904
1.019678993
1.66046336
2.334476533
0.4186027082
0.4270743705
0.4126586209
0.4050387695
0.4036468934
0.4060613257
0.4065457397
0.4046622091
0.4012814671
0.3993362859
0.3975346834
0.3976546628
0.4007840855
0.4008760791
0.3989728693
0.3968916611
0.3947224789
0.3941390351
0.3945209597
0.3944562405
0.3942518121
0.3942526926
0.3939090587
0.3923232838
0.3912993058
)
;

boundaryField
{
    inlet
    {
        type            fixedValue;
        value           nonuniform 0();
    }
    outlet
    {
        type            zeroGradient;
    }
    bottom
    {
        type            slip;
    }
    top
    {
        type            slip;
    }
    obstacle
    {
        type            zeroGradient;
    }
    defaultFaces
    {
        type            empty;
    }
    procBoundary9to3
    {
        type            processor;
        value           nonuniform List<scalar> 
38
(
3.644736936
3.611104155
3.488087364
3.413492466
3.389199358
3.314430452
3.234738929
3.186796937
3.140791742
3.088203072
3.035056702
2.980280831
2.922927939
2.867311674
2.813094825
2.759586677
2.706013114
5.853488891
5.847505255
5.804033157
5.66631053
5.406397902
5.049578541
4.669156811
4.32499955
3.851644291
3.579263284
3.894999782
4.790080061
4.983382728
4.704734804
4.47464138
4.231358229
3.975222889
3.880285749
3.779710991
3.604267152
3.604267152
)
;
    }
    procBoundary9to4
    {
        type            processor;
        value           nonuniform List<scalar> 9(2.609621236 2.565883418 2.522299981 2.478491088 2.434562778 2.390525273 2.347735576 2.304785393 2.261950954);
    }
    procBoundary9to8
    {
        type            processor;
        value           nonuniform List<scalar> 
14
(
5.853189716
5.853046343
5.851011557
5.851454878
5.853104559
5.853304948
5.852854817
5.852951375
5.853537409
5.8537802
5.853724034
5.854459106
5.855535012
5.855889253
)
;
    }
    procBoundary9to10
    {
        type            processor;
        value           nonuniform List<scalar> 
55
(
2.218530886
2.174448757
2.12938662
2.085673985
2.042902689
2.001200157
1.959728956
1.917737612
1.875565031
1.833712868
1.791483202
1.749254454
1.709432349
1.668276149
1.63041918
1.588418347
1.548654527