/*--------------------------------*- C++ -*----------------------------------*\
  =========                 |
  \\      /  F ield         | OpenFOAM: The Open Source CFD Toolbox
   \\    /   O peration     | Website:  https://openfoam.org
    \\  /    A nd           | Version:  7
     \\/     M anipulation  |
\*---------------------------------------------------------------------------*/
FoamFile
{
    version     2.0;
    format      ascii;
    class       volVectorField;
    location    "2";
    object      U;
}
// * * * * * * * * * * * * * * * * * * * * * * * * * * * * * * * * * * * * * //

dimensions      [0 1 -1 0 0 0 0];

internalField   nonuniform List<vector> 
143
(
(3.030299808 -0.08933522499 0)
(3.042866816 -0.1447565248 0)
(3.059558685 -0.2259399955 0)
(3.075501356 -0.256000869 0)
(3.078135135 -0.2492182915 0)
(3.076826639 -0.247299977 0)
(3.070198127 -0.2358155344 0)
(2.968117008 0.08166160733 0)
(2.998091521 0.008300606357 0)
(3.014350836 -0.0400108899 0)
(3.037145406 -0.1217500653 0)
(3.033610412 -0.1282360388 0)
(3.059271092 -0.200457505 0)
(3.066596214 -0.2279607374 0)
(3.067226356 -0.2341829491 0)
(2.939166933 0.1494814149 0)
(2.964321343 0.09228178379 0)
(2.992759019 0.01926082748 0)
(3.015225339 -0.0394524796 0)
(3.025667342 -0.0988676938 0)
(3.046125372 -0.1791587671 0)
(3.0536285 -0.1952736816 0)
(3.065524988 -0.2414330854 0)
(2.917904223 0.1965442996 0)
(2.939456995 0.1461967992 0)
(2.959724864 0.09959741543 0)
(2.985630624 0.03329341624 0)
(3.006316461 -0.02225046631 0)
(3.018455808 -0.06793893901 0)
(3.03225423 -0.1124243119 0)
(3.04438736 -0.1610459963 0)
(2.910106581 0.2126356388 0)
(2.918421895 0.1940583969 0)
(2.934041265 0.1581730096 0)
(2.961596329 0.09265961742 0)
(2.977078644 0.05527136055 0)
(3.002106566 -0.0179113985 0)
(3.018068992 -0.06171795774 0)
(3.03313825 -0.1176646105 0)
(2.91585207 0.2046791776 0)
(2.913695918 0.2075926507 0)
(2.920666646 0.1914533316 0)
(2.935891942 0.1561336166 0)
(2.954360185 0.1087834569 0)
(2.979808191 0.04465248386 0)
(2.989333771 0.01789913047 0)
(3.012876017 -0.0551780615 0)
(2.917571187 0.2111314412 0)
(2.911760095 0.2134492709 0)
(2.913322939 0.2061085701 0)
(2.919821737 0.1919912773 0)
(2.935805623 0.1564099665 0)
(2.953994656 0.1149274799 0)
(2.973741799 0.06067691932 0)
(2.993842385 0.007360525212 0)
(2.933323594 0.1824472317 0)
(2.923244255 0.1869477047 0)
(2.915579176 0.1989713095 0)
(2.916163121 0.2012900246 0)
(2.922584662 0.1892725146 0)
(2.937492212 0.154712794 0)
(2.953700542 0.1151953477 0)
(2.974947844 0.06379063406 0)
(2.95979165 0.1042236476 0)
(2.948279278 0.1378463302 0)
(2.918864186 0.1932271143 0)
(2.918897062 0.2091234832 0)
(2.915931275 0.2012124458 0)
(2.92237013 0.1869781248 0)
(2.935562552 0.1593255437 0)
(2.955179608 0.1177617673 0)
(2.984347183 0.03696476124 0)
(2.972071721 0.08497592282 0)
(2.932078144 0.1757467675 0)
(2.925905747 0.192161939 0)
(2.919724756 0.1924965116 0)
(2.920636545 0.1919194675 0)
(2.926613848 0.1838712481 0)
(2.937296257 0.1616755243 0)
(2.996540281 0.008136544036 0)
(2.987591515 0.03445167976 0)
(2.965012048 0.09015032578 0)
(2.940092456 0.151709911 0)
(2.925263212 0.184788631 0)
(2.923703549 0.1940208105 0)
(2.921535233 0.1949407427 0)
(2.925298094 0.1835293591 0)
(2.999512921 0.001199147801 0)
(2.99711814 0.007480170388 0)
(2.985720943 0.03532487354 0)
(2.961290126 0.09641112357 0)
(2.947900844 0.1389662142 0)
(2.924842714 0.2023587995 0)
(2.916118707 0.19652922 0)
(2.920269882 0.1884619575 0)
(2.999956497 0.0001100259245 0)
(2.999560085 0.001130186678 0)
(2.996662106 0.008178069336 0)
(2.985388038 0.03623912355 0)
(2.965238226 0.09099362533 0)
(2.942837209 0.1514644645 0)
(2.928457719 0.1678580071 0)
(2.926507392 0.1837989729 0)
(2.99999713 7.351522443e-06 0)
(2.999960536 0.0001009047199 0)
(2.999482567 0.001296053767 0)
(2.99640587 0.00911016691 0)
(2.988140352 0.03100879268 0)
(2.959694189 0.0999432041 0)
(2.947163252 0.1358533268 0)
(2.928433508 0.1945513898 0)
(2.999999883 2.971914605e-07 0)
(2.999997286 6.966084513e-06 0)
(2.99995 0.0001253376748 0)
(2.99947975 0.001333028732 0)
(2.996568389 0.008982519453 0)
(2.986475333 0.03269883843 0)
(2.964908013 0.09208454423 0)
(2.942289305 0.1511784791 0)
(2.999999996 9.72684826e-09 0)
(2.999999884 2.916898123e-07 0)
(2.999996441 8.982187845e-06 0)
(2.99994684 0.0001379310025 0)
(2.999480463 0.001303343878 0)
(2.996295592 0.009502699777 0)
(2.986912973 0.03383295567 0)
(2.962948302 0.08978563186 0)
(3 1.910662409e-10 0)
(2.999999996 1.059415668e-08 0)
(2.999999845 3.956398059e-07 0)
(2.99999635 9.526851538e-06 0)
(2.999943332 0.0001452790345 0)
(2.999438227 0.00145971369 0)
(2.996522991 0.009216300755 0)
(2.986712248 0.03354719442 0)
(3 1.712272995e-12 0)
(3 1.280619658e-10 0)
(2.999999993 7.632902975e-09 0)
(2.999999779 2.380423066e-07 0)
(2.999994622 5.965445542e-06 0)
(2.99991501 9.284739978e-05 0)
(2.999184662 0.0008665955324 0)
(2.994868184 0.005437265151 0)
)
;

boundaryField
{
    inlet
    {
        type            fixedValue;
        value           nonuniform 0();
    }
    outlet
    {
        type            inletOutlet;
        inletValue      nonuniform 0();
        value           nonuniform 0();
    }
    bottom
    {
        type            slip;
    }
    top
    {
        type            slip;
    }
    obstacle
    {
        type            slip;
    }
    defaultFaces
    {
        type            empty;
    }
    procBoundary34to27
    {
        type            processor;
        value           uniform (2.942676497 0.1428309867 0);
    }
    procBoundary34to28
    {
        type            processor;
        value           nonuniform List<vector> 9((3.047241932 -0.1702457486 0) (3.056403979 -0.1825329684 0) (3.069705819 -0.2451944005 0) (3.077511409 -0.26646652 0) (3.075303097 -0.2602019284 0) (3.068689115 -0.2298144628 0) (3.053953152 -0.1697154264 0) (3.003092298 -0.01148528139 0) (3.003092298 -0.01148528139 0));
    }
    procBoundary34to29
    {
        type            processor;
        value           uniform (3.057532519 -0.2003262461 0);
    }
    procBoundary34to33
    {
        type            processor;
        value           nonuniform List<vector> 
16
(
(2.915420495 0.2000783503 0)
(2.910419989 0.2156166708 0)
(2.906319883 0.2233584432 0)
(2.918386276 0.1936497987 0)
(2.944921998 0.1425611188 0)
(2.971184285 0.08524193524 0)
(2.989630291 0.02968646163 0)
(2.99761267 0.006392910588 0)
(2.999667179 0.0008560517783 0)
(2.999969666 7.667282798e-05 0)
(2.999998094 4.79910853e-06 0)
(2.99999992 2.020085583e-07 0)
(2.999999998 6.331398583e-09 0)
(3 1.237847067e-10 0)
(3 1.937522316e-12 0)
(3 7.936436223e-15 0)
)
;
    }
    procBoundary34to35
    {
        type            processor;
        value           nonuniform List<vector> 
17
(
(3.068394599 -0.23634948 0)
(3.070583413 -0.2425610037 0)
(3.049299206 -0.1768030094 0)
(3.04624947 -0.1694348463 0)
(3.018142934 -0.06974137193 0)
(3.004935677 -0.02947081103 0)
(2.988508185 0.02601546805 0)
(2.968994519 0.08021460711 0)
(2.954859709 0.1163283335 0)
(2.934899992 0.1598755547 0)
(2.925010287 0.1806745265 0)
(2.922270947 0.1883613069 0)
(2.920766747 0.1926357085 0)
(2.939493616 0.1677191087 0)
(2.954815704 0.136320062 0)
(2.967478579 0.09002797421 0)
(2.978457841 0.02048570135 0)
)
;
    }
}


// ************************************************************************* //
