/*--------------------------------*- C++ -*----------------------------------*\
  =========                 |
  \\      /  F ield         | OpenFOAM: The Open Source CFD Toolbox
   \\    /   O peration     | Website:  https://openfoam.org
    \\  /    A nd           | Version:  7
     \\/     M anipulation  |
\*---------------------------------------------------------------------------*/
FoamFile
{
    version     2.0;
    format      ascii;
    class       volScalarField;
    location    "4.7";
    object      p;
}
// * * * * * * * * * * * * * * * * * * * * * * * * * * * * * * * * * * * * * //

dimensions      [1 -1 -2 0 0 0 0];

internalField   nonuniform List<scalar> 
22
(
0.9817030407
0.9873712202
0.9927307843
0.9963675376
0.9821682497
0.9891730402
0.9942449567
0.9969428726
0.9814186242
0.9911372937
0.9973908341
0.997926944
0.9809799397
0.9878067938
0.9968739195
0.9961539762
0.975352212
0.9825600544
0.990180724
0.9945303707
0.970561096
0.9852541024
)
;

boundaryField
{
    inlet
    {
        type            fixedValue;
        value           nonuniform 0();
    }
    outlet
    {
        type            zeroGradient;
    }
    bottom
    {
        type            slip;
    }
    top
    {
        type            slip;
    }
    obstacle
    {
        type            zeroGradient;
    }
    defaultFaces
    {
        type            empty;
    }
    procBoundary17to11
    {
        type            processor;
        value           nonuniform List<scalar> 4(0.9802973529 0.9854139258 0.9893523149 0.9934932857);
    }
    procBoundary17to16
    {
        type            processor;
        value           nonuniform List<scalar> 5(1.013907276 1.017670525 1.017736563 1.020419323 1.01774053);
    }
    procBoundary17to22
    {
        type            processor;
        value           uniform 1.013934306;
    }
    procBoundary17to23
    {
        type            processor;
        value           nonuniform List<scalar> 5(0.9908353394 0.9960512161 0.9705594113 0.9908353394 0.9864509316);
    }
}


// ************************************************************************* //
