/*--------------------------------*- C++ -*----------------------------------*\
  =========                 |
  \\      /  F ield         | OpenFOAM: The Open Source CFD Toolbox
   \\    /   O peration     | Website:  https://openfoam.org
    \\  /    A nd           | Version:  7
     \\/     M anipulation  |
\*---------------------------------------------------------------------------*/
FoamFile
{
    version     2.0;
    format      ascii;
    class       volVectorField;
    location    "1.4";
    object      U;
}
// * * * * * * * * * * * * * * * * * * * * * * * * * * * * * * * * * * * * * //

dimensions      [0 1 -1 0 0 0 0];

internalField   nonuniform List<vector> 
139
(
(2.979054113 -0.0216404602 0)
(2.945764748 -0.04444582825 0)
(2.914913883 -0.07302191984 0)
(2.895389949 -0.05052809023 0)
(2.885328984 -0.07063932615 0)
(2.857503849 -0.02619411387 0)
(2.860385152 -0.004983669539 0)
(2.874121641 0.01207183759 0)
(2.970778355 -0.07735468765 0)
(2.950818843 -0.1407101775 0)
(2.923547318 -0.1436670812 0)
(2.906425716 -0.1294968529 0)
(2.885683025 -0.05958860503 0)
(2.869771807 -0.001326662063 0)
(2.873394488 0.0483872106 0)
(2.877070037 0.06445803118 0)
(2.948782739 -0.1417761293 0)
(2.938953364 -0.16407331 0)
(2.938287071 -0.1807668917 0)
(2.921012757 -0.1526093531 0)
(2.913660391 -0.1203886142 0)
(2.902103121 -0.06596663488 0)
(2.900221754 0.01347657134 0)
(2.898574065 0.06133064264 0)
(2.933270165 -0.1867217194 0)
(2.923880106 -0.1924293618 0)
(2.925947652 -0.1866466203 0)
(2.925628497 -0.1747626214 0)
(2.92902167 -0.1417344613 0)
(2.91794401 -0.07057312848 0)
(2.932223777 0.0050688747 0)
(2.925530146 0.104264418 0)
(2.927367879 -0.1826321156 0)
(2.924215738 -0.1858494031 0)
(2.924367384 -0.1810565307 0)
(2.934391685 -0.1555483052 0)
(2.938401241 -0.1350689988 0)
(2.954618267 -0.08280604812 0)
(2.949020463 -0.01291797088 0)
(2.953326683 0.09538198168 0)
(2.920862208 -0.1873094242 0)
(2.924609028 -0.1801612921 0)
(2.934012142 -0.1594222709 0)
(2.94511229 -0.1313948811 0)
(2.964388092 -0.08285396696 0)
(2.97802771 -0.06347079159 0)
(2.975667437 -0.005760039249 0)
(2.9801055 0.09342707466 0)
(2.924787393 -0.1799654836 0)
(2.932513954 -0.1605346553 0)
(2.949406777 -0.122287914 0)
(2.963203719 -0.0931737225 0)
(2.978622103 -0.04999093104 0)
(3.0019279 -0.006323151507 0)
(2.989058581 0.007185676443 0)
(3.009571305 0.09289024001 0)
(2.934216496 -0.1589819214 0)
(2.949451453 -0.1233768358 0)
(2.965492105 -0.08323417688 0)
(2.986028362 -0.03796734546 0)
(2.99295038 -0.01335654801 0)
(3.013036066 0.04451802004 0)
(3.011437437 0.04861627401 0)
(3.031351541 0.1307795669 0)
(2.952074004 -0.1171757432 0)
(2.967284966 -0.08284367406 0)
(2.982361395 -0.03958813737 0)
(3.000683946 0.009301237782 0)
(3.008802881 0.03038332337 0)
(3.02277025 0.08182535757 0)
(3.029349448 0.09454566847 0)
(3.039283984 0.1416587876 0)
(2.970196946 -0.07662393314 0)
(2.992144325 -0.0186672322 0)
(2.997714028 0.0004092599032 0)
(3.017660552 0.06444592587 0)
(3.024435834 0.07995057903 0)
(3.038400247 0.1392572487 0)
(3.047492158 0.1708798268 0)
(3.054169104 0.1991462771 0)
(2.989698928 -0.02634047941 0)
(3.006909648 0.02560525317 0)
(3.017762099 0.05424442135 0)
(3.028543061 0.09825485336 0)
(3.037438268 0.126540008 0)
(3.039485699 0.1485585339 0)
(3.050193076 0.1821111939 0)
(3.053079826 0.1914158094 0)
(3.007444003 0.02819079289 0)
(3.026496756 0.09196670976 0)
(3.035187804 0.1151463105 0)
(3.045405399 0.1733554144 0)
(3.053021726 0.1988032504 0)
(3.057760277 0.2215012006 0)
(3.0629722 0.2109839379 0)
(3.059160868 0.1992598797 0)
(3.021870852 0.07002398497 0)
(3.038313813 0.1306025384 0)
(3.044637819 0.1543558666 0)
(3.044469777 0.1723475406 0)
(3.057651251 0.2027454872 0)
(3.059294625 0.2089571278 0)
(3.059344896 0.2085347251 0)
(3.046485695 0.1601087039 0)
(3.048989715 0.1684958588 0)
(3.054342994 0.1992841363 0)
(3.05860873 0.2342513029 0)
(3.065717959 0.2239103509 0)
(3.064642545 0.2165671481 0)
(3.059750425 0.2046152105 0)
(3.049252174 0.1738030378 0)
(3.028160301 0.09948498193 0)
(3.051178036 0.1794887103 0)
(3.059941277 0.2103056993 0)
(3.060865916 0.2189939368 0)
(3.061214211 0.2196741169 0)
(3.055405367 0.1952942248 0)
(3.04707652 0.1533861698 0)
(3.029782083 0.09071072965 0)
(3.008879564 0.02115467712 0)
(3.065475433 0.2427083507 0)
(3.07064313 0.2314542301 0)
(3.06578148 0.2217876715 0)
(3.05059388 0.1846044761 0)
(3.042049636 0.1176663245 0)
(3.020307399 0.02697780866 0)
(3.013442116 0.03227566183 0)
(3.001651206 0.01501469317 0)
(3.065441759 0.2354351782 0)
(3.059304539 0.2114131951 0)
(3.046190009 0.1556153506 0)
(3.030804286 0.09366975477 0)
(3.035438602 0.07085060464 0)
(3.012624092 0.02856856085 0)
(3.008256309 0.01784308375 0)
(2.996925158 0.009075723223 0)
(3.053855248 0.1973917097 0)
(3.032785849 0.1204104077 0)
(3.028976364 0.07163386056 0)
)
;

boundaryField
{
    inlet
    {
        type            fixedValue;
        value           nonuniform 0();
    }
    outlet
    {
        type            inletOutlet;
        inletValue      uniform (3 0 0);
        value           nonuniform List<vector> 
17
(
(2.874121641 0.01207183759 0)
(2.877070037 0.06445803118 0)
(2.898574065 0.06133064264 0)
(2.925530146 0.104264418 0)
(2.953326683 0.09538198168 0)
(2.9801055 0.09342707466 0)
(3.009571305 0.09289024001 0)
(3.031351541 0.1307795669 0)
(3.039283984 0.1416587876 0)
(3.054169104 0.1991462771 0)
(3.053079826 0.1914158094 0)
(3.059160868 0.1992598797 0)
(3.046485695 0.1601087039 0)
(3.028160301 0.09948498193 0)
(3.008879564 0.02115467712 0)
(3.001651206 0.01501469317 0)
(2.996925158 0.009075723223 0)
)
;
    }
    bottom
    {
        type            slip;
    }
    top
    {
        type            slip;
    }
    obstacle
    {
        type            slip;
    }
    defaultFaces
    {
        type            empty;
    }
    procBoundary5to4
    {
        type            processor;
        value           nonuniform List<vector> 
17
(
(2.994849153 -0.005216568506 0)
(2.986660126 -0.03514234428 0)
(2.964638417 -0.09520634658 0)
(2.952677565 -0.135528346 0)
(2.93829025 -0.1690565809 0)
(2.921436956 -0.1960940713 0)
(2.921777045 -0.1898540608 0)
(2.923684777 -0.1821060465 0)
(2.934467957 -0.1597870942 0)
(2.955795172 -0.1156181289 0)
(2.974776927 -0.06708467501 0)
(2.996180972 -0.008367549282 0)
(3.01614658 0.05572589398 0)
(3.034066286 0.1178298029 0)
(3.044928564 0.1594160228 0)
(3.0660395 0.2357482396 0)
(3.065922736 0.2347765837 0)
)
;
    }
    procBoundary5to10
    {
        type            processor;
        value           uniform (3.069375788 0.2364853544 0);
    }
    procBoundary5to11
    {
        type            processor;
        value           nonuniform List<vector> 9((3.013047931 -0.01012530994 0) (2.993008595 0.00154411015 0) (2.993697217 0.004837575587 0) (3.001155588 0.006090333386 0) (2.999887381 0.004996075866 0) (3.024716203 0.06433901939 0) (3.021990822 0.05571113161 0) (3.013047931 -0.01012530994 0) (3.015363125 0.02950264374 0));
    }
}


// ************************************************************************* //
