/*--------------------------------*- C++ -*----------------------------------*\
  =========                 |
  \\      /  F ield         | OpenFOAM: The Open Source CFD Toolbox
   \\    /   O peration     | Website:  https://openfoam.org
    \\  /    A nd           | Version:  7
     \\/     M anipulation  |
\*---------------------------------------------------------------------------*/
FoamFile
{
    version     2.0;
    format      ascii;
    class       volScalarField;
    location    "3.1";
    object      rho;
}
// * * * * * * * * * * * * * * * * * * * * * * * * * * * * * * * * * * * * * //

dimensions      [1 -3 0 0 0 0 0];

internalField   nonuniform List<scalar> 5(1.453498805 1.450112697 1.431863328 1.353050894 1.331177216);

boundaryField
{
    inlet
    {
        type            calculated;
        value           nonuniform 0();
    }
    outlet
    {
        type            calculated;
        value           nonuniform 0();
    }
    bottom
    {
        type            calculated;
        value           uniform 1.453498805;
    }
    top
    {
        type            calculated;
        value           nonuniform 0();
    }
    obstacle
    {
        type            calculated;
        value           nonuniform 0();
    }
    defaultFaces
    {
        type            empty;
    }
    procBoundary4to3
    {
        type            processor;
        value           nonuniform List<scalar> 2(1.420705467 1.441473729);
    }
    procBoundary4to5
    {
        type            processor;
        value           nonuniform List<scalar> 3(1.471249866 1.444436323 1.395542955);
    }
    procBoundary4to9
    {
        type            processor;
        value           nonuniform List<scalar> 2(1.457090659 1.440918351);
    }
    procBoundary4to10
    {
        type            processor;
        value           uniform 1.39125186;
    }
    procBoundary4to11
    {
        type            processor;
        value           nonuniform List<scalar> 2(1.35008696 1.354244187);
    }
    procBoundary4to15
    {
        type            processor;
        value           uniform 1.314597931;
    }
}


// ************************************************************************* //
