/*--------------------------------*- C++ -*----------------------------------*\
  =========                 |
  \\      /  F ield         | OpenFOAM: The Open Source CFD Toolbox
   \\    /   O peration     | Website:  https://openfoam.org
    \\  /    A nd           | Version:  7
     \\/     M anipulation  |
\*---------------------------------------------------------------------------*/
FoamFile
{
    version     2.0;
    format      ascii;
    class       volScalarField;
    location    "5";
    object      T;
}
// * * * * * * * * * * * * * * * * * * * * * * * * * * * * * * * * * * * * * //

dimensions      [0 0 0 1 0 0 0];

internalField   nonuniform List<scalar> 
2222
(
1.062597372
1.062531623
1.062437966
1.062248382
1.062081318
1.061909102
1.061600672
1.06146685
1.061578637
1.062049
1.062636405
1.06321287
1.063675456
1.063788759
1.063745316
1.063632566
1.063607953
1.063745287
1.063713329
1.06362339
1.063456833
1.063386967
1.063621203
1.064151733
1.064613096
1.064800771
1.06486572
1.064861843
1.064810032
1.064650501
1.064279544
1.064185004
1.064920831
1.153637548
1.062546887
1.062386507
1.062206634
1.062048715
1.06190308
1.061682558
1.061335829
1.061258997
1.061397421
1.061894834
1.062642332
1.063204364
1.063375445
1.063330162
1.063123519
1.063197841
1.063414115
1.063595878
1.063623018
1.06356176
1.063476644
1.063540158
1.063971613
1.064350699
1.064508853
1.064480752
1.064412464
1.064365998
1.064284058
1.064076732
1.063800859
1.063807907
1.064473372
1.139058241
1.062303554
1.0621137
1.061957085
1.061859083
1.061778328
1.061529209
1.061147632
1.061107026
1.061317194
1.06188063
1.062668321
1.063082455
1.062950602
1.062739198
1.062827197
1.063018239
1.063261986
1.063522275
1.063560821
1.063523846
1.063578825
1.063802819
1.064027663
1.064170845
1.064214203
1.064187993
1.064015694
1.063823989
1.063710009
1.063577696
1.063632487
1.063773984
1.0644433
1.13020183
1.062020991
1.061843541
1.061739991
1.061719856
1.0617129
1.061471205
1.061097999
1.061117038
1.061387401
1.061962156
1.062635494
1.062855156
1.062810423
1.062576626
1.062673121
1.062922549
1.063251392
1.063525264
1.06350316
1.063516851
1.063693166
1.06374894
1.06380925
1.063906919
1.06394206
1.063837936
1.063528548
1.063437379
1.063407574
1.063343381
1.063406094
1.063676868
1.064451544
1.125363549
1.061850566
1.061618791
1.061614873
1.061640164
1.061645445
1.061457038
1.061192663
1.061280928
1.061515488
1.061883085
1.062419125
1.062573205
1.062530073
1.062475688
1.062641187
1.062929109
1.063197571
1.063423402
1.06348869
1.063549659
1.063572984
1.063507109
1.06356063
1.063655477
1.063637139
1.063432128
1.063380245
1.063273068
1.063216152
1.063239578
1.063495728
1.063922407
1.064690517
1.121421587
1.061713795
1.061527485
1.061516975
1.061507618
1.061575205
1.061539002
1.061469553
1.061411065
1.061470261
1.061706013
1.062122078
1.062296928
1.062376313
1.062486629
1.062728326
1.062850949
1.063010892
1.06318956
1.063353405
1.063403077
1.063350721
1.063239486
1.063269614
1.063278264
1.063226444
1.063336209
1.063356946
1.063265686
1.063230369
1.063401206
1.063753221
1.064070501
1.064612884
1.117078247
1.061582227
1.0615024
1.061400968
1.061381728
1.06155996
1.06174795
1.061717356
1.061440874
1.061407072
1.061605167
1.061942069
1.06216444
1.062377582
1.062621203
1.062722241
1.062735608
1.062815402
1.06296712
1.063131196
1.063175496
1.063130411
1.062992945
1.062873915
1.062842935
1.063039647
1.063199221
1.06330777
1.063414925
1.06353378
1.063688761
1.063758288
1.063877318
1.064351147
1.111251705
1.061321896
1.061298325
1.061337744
1.061665731
1.06190955
1.061778087
1.061413506
1.061374533
1.061561348
1.061887288
1.062258773
1.062594364
1.062684734
1.062651883
1.062641585
1.062677829
1.062774124
1.062912143
1.062950268
1.062902489
1.062746684
1.062597331
1.062680084
1.06293398
1.06327543
1.063626649
1.063809972
1.063752423
1.063635427
1.063581008
1.063664962
1.064004627
1.104003209
1.061098885
1.061170307
1.061347863
1.061866989
1.061952553
1.061688406
1.061352804
1.061363544
1.061592785
1.062017347
1.062527633
1.062681793
1.062592468
1.062517574
1.06249792
1.062553528
1.062540953
1.062675892
1.06271555
1.06263938
1.062482478
1.062522682
1.06266984
1.063062841
1.063650182
1.063882453
1.063803526
1.063682286
1.063576796
1.063442194
1.063463724
1.063669568
1.097916227
1.060934641
1.061118444
1.061484354
1.061868145
1.061871886
1.061543571
1.061371442
1.061509786
1.0618449
1.062305342
1.06258695
1.062632505
1.062496681
1.062302259
1.062330583
1.062375432
1.062460945
1.06253337
1.062507203
1.062424837
1.062378914
1.062437591
1.062765939
1.063453863
1.063793992
1.063788221
1.06366771
1.063543126
1.06349571
1.063505858
1.063512311
1.063595584
1.09424894
1.060892776
1.061160276
1.06137045
1.061753006
1.061765509
1.061465938
1.061533691
1.061771569
1.062070257
1.062354007
1.062505785
1.06253205
1.062472679
1.062275242
1.062198852
1.062288711
1.062412234
1.06251999
1.062420268
1.062357352
1.062404223
1.062599028
1.063174245
1.063645497
1.063736855
1.063629873
1.063471035
1.063310402
1.06330401
1.063431761
1.06355192
1.063606711
1.091648931
1.060979985
1.061170362
1.061278087
1.061601871
1.061676596
1.061509803
1.061589428
1.061828735
1.062112086
1.062320351
1.062396369
1.062424999
1.062356151
1.062208085
1.062152839
1.062255735
1.062452102
1.062523823
1.062411336
1.062322095
1.062483174
1.062942108
1.063390916
1.063617421
1.063641406
1.063516756
1.063187879
1.063045606
1.063173724
1.063401127
1.063624974
1.063642846
1.088907712
1.061020929
1.061173883
1.061267748
1.061532655
1.061636902
1.061566042
1.061583248
1.061818971
1.062110293
1.062260949
1.062291052
1.062300728
1.062255447
1.062233616
1.062233882
1.062364781
1.062486217
1.062489475
1.062386604
1.06235083
1.062750425
1.063110138
1.063350952
1.063541903
1.06354382
1.063279413
1.06299944
1.062994809
1.063156381
1.063496829
1.063645214
1.063630721
1.085557315
1.061044336
1.061145799
1.061204984
1.061513239
1.061632325
1.061568105
1.061568746
1.061786563
1.062083273
1.06214046
1.062236318
1.062310918
1.062340956
1.062443082
1.062429291
1.062351484
1.062386072
1.062396542
1.062371656
1.062526019
1.062784285
1.063050397
1.0632476
1.063386166
1.06332635
1.063074881
1.063031265
1.063071801
1.063328268
1.063534158
1.063611211
1.063563545
1.082230832
1.060969088
1.06099589
1.061078891
1.061466461
1.061591296
1.061550021
1.06151239
1.061684865
1.062009372
1.062121627
1.062267643
1.062465934
1.062653414
1.062691342
1.062491943
1.062336431
1.062317453
1.062350301
1.062461379
1.062700959
1.062852282
1.063021111
1.063109412
1.0631332
1.063087745
1.063082212
1.063104574
1.063320395
1.063506434
1.06349778
1.063477973
1.06338039
1.079903031
1.060872142
1.06086679
1.060984747
1.061341282
1.061429863
1.061437836
1.061366993
1.061516885
1.061861376
1.062166751
1.062455618
1.062809
1.062886442
1.06274463
1.062496612
1.062306194
1.062314136
1.062400264
1.062646206
1.062870657
1.06294464
1.062951194
1.062852145
1.062888646
1.06306041
1.063174022
1.063409334
1.063609265
1.063613643
1.063513622
1.063331266
1.06316877
1.078326269
1.060793434
1.060909332
1.0610585
1.061360763
1.06132973
1.061340186
1.061284173
1.061450788
1.061749646
1.062183396
1.062750266
1.063007265
1.062979811
1.062799602
1.062515124
1.062377236
1.062393437
1.062576649
1.062885657
1.063009594
1.062958912
1.062763667
1.062759092
1.062923404
1.063100066
1.063460369
1.063685392
1.063734409
1.063690441
1.063497098
1.063147001
1.063026927
1.076783509
1.060921325
1.061113774
1.061269807
1.061478672
1.061441709
1.061319972
1.061254201
1.061482728
1.061750822
1.062173591
1.062861904
1.063140238
1.063106975
1.06291314
1.062640714
1.062536209
1.062583907
1.062827983
1.06304629
1.063104918
1.062957745
1.062885344
1.062902254
1.063074273
1.063355319
1.063595491
1.063739034
1.063818712
1.063754407
1.063379675
1.063059781
1.063045791
1.074865501
1.061116136
1.06131651
1.061542845
1.061747136
1.061642608
1.061368741
1.061263745
1.061530751
1.061792042
1.062213246
1.062888779
1.063250904
1.063283918
1.063130839
1.06289421
1.062753099
1.062807916
1.063037308
1.063110571
1.06313174
1.06303017
1.063063145
1.063169513
1.063425164
1.063732056
1.063796486
1.063824491
1.063876548
1.063716186
1.063250022
1.063166695
1.063154049
1.073035752
1.061212914
1.061517428
1.061754474
1.061927541
1.061762801
1.061252391
1.061243936
1.061506454
1.061808444
1.062365339
1.063010104
1.063286874
1.063429574
1.063362883
1.063262392
1.063109654
1.063073367
1.063109882
1.063088826
1.063113351
1.06317142
1.063285469
1.063505611
1.063827464
1.063946967
1.063964817
1.063949792
1.06387967
1.063585726
1.063408788
1.063393214
1.063378988
1.072001932
1.061247255
1.061643117
1.061847358
1.061976371
1.061658741
1.061003207
1.061078678
1.061398902
1.061971666
1.062726455
1.063242307
1.063384638
1.063435261
1.063590666
1.063563856
1.063376178
1.063257672
1.063233141
1.063113431
1.063140598
1.063331493
1.063570907
1.063877602
1.064092667
1.064079129
1.064025051
1.063912363
1.063707803
1.063680069
1.06370248
1.063763436
1.06376947
1.071468682
1.061400524
1.061712349
1.061869896
1.06187858
1.061229099
1.060733548
1.060882266
1.061366032
1.062207643
1.063131996
1.06355259
1.063601283
1.06362325
1.063581037
1.063615963
1.06355625
1.063419422
1.063316574
1.063209725
1.063255369
1.063483638
1.063793206
1.064054236
1.064239985
1.064195216
1.064006896
1.063794139
1.063793108
1.063913218
1.064076718
1.064326521
1.064142251
1.070997608
1.061617938
1.061807438
1.061861555
1.061469504
1.060760634
1.060622917
1.060873228
1.061429266
1.062384825
1.063390271
1.063797754
1.063809506
1.063786113
1.063722405
1.063681253
1.063606493
1.063545166
1.06352172
1.063475341
1.063461022
1.063678362
1.063967559
1.064164748
1.064264987
1.064118147
1.063869938
1.063871597
1.064066862
1.064296847
1.064632806
1.064666891
1.064321163
1.07030706
1.061848169
1.061626174
1.060978662
1.060663585
1.060724508
1.061047798
1.061597767
1.062419363
1.063360604
1.063835145
1.063914454
1.06395901
1.063922587
1.063830732
1.06367264
1.063642094
1.06373008
1.063739167
1.063715244
1.063918547
1.064172665
1.064302242
1.064226837
1.063939339
1.063885486
1.064107605
1.064422634
1.064822407
1.064970612
1.064853432
1.064412352
1.069322847
1.061669636
1.06122069
1.060836929
1.060778185
1.060948491
1.061336183
1.061856505
1.062656953
1.063517195
1.06386229
1.064001524
1.064133118
1.064154464
1.064043879
1.063861612
1.063773567
1.063793745
1.063852356
1.063877402
1.064062303
1.06432913
1.064309143
1.064026531
1.063899236
1.064050957
1.064351855
1.064940885
1.065173789
1.065124905
1.064996626
1.064349705
1.068353469
1.06138309
1.061072577
1.060962983
1.060978466
1.061191483
1.061691131
1.062184665
1.062971376
1.063719223
1.064011869
1.064158752
1.064255422
1.064353897
1.064282459
1.064098271
1.063984531
1.063949718
1.06393401
1.063972852
1.064082645
1.064274096
1.064193179
1.064038422
1.064056257
1.064242054
1.064737138
1.065293155
1.065332644
1.06519717
1.064930148
1.064162256
1.06765791
1.061296069
1.061118885
1.061165592
1.061197569
1.061439018
1.061995419
1.062469762
1.063204725
1.063935627
1.064303692
1.064380084
1.064402822
1.064458582
1.064474933
1.064394896
1.064269538
1.064186121
1.064172485
1.064138395
1.064080444
1.064146129
1.064229674
1.064258719
1.06431996
1.064595151
1.064979528
1.065349415
1.06546242
1.065239165
1.064673811
1.064137379
1.06719693
1.061467225
1.061173604
1.061282958
1.06133723
1.061631031
1.06224817
1.062674398
1.063310772
1.064180693
1.064618379
1.064659889
1.064621975
1.0645865
1.064608547
1.064652504
1.064593121
1.06451905
1.064509101
1.064335168
1.064170568
1.064228178
1.064397838
1.064547534
1.064767083
1.065101526
1.065301649
1.065499811
1.065473886
1.065052774
1.064442911
1.064298844
1.066956487
1.061872118
1.06142054
1.061512497
1.061510891
1.061710319
1.062375122
1.062791304
1.063341308
1.064252852
1.064747549
1.064875028
1.064879807
1.064818674
1.06480565
1.064825847
1.064862088
1.064830812
1.064776742
1.064543726
1.064444145
1.064484059
1.064612173
1.064933878
1.065231658
1.065440271
1.065655886
1.065675698
1.065432958
1.064886971
1.064631651
1.064555909
1.067011778
1.062287135
1.06186618
1.061898478
1.061847722
1.062001132
1.062536698
1.063022541
1.063537222
1.06429876
1.064706297
1.064922851
1.065082892
1.06517386
1.065174112
1.065087465
1.065032567
1.064954888
1.064839233
1.064708544
1.064750655
1.064844028
1.064963067
1.06522083
1.065496168
1.065669056
1.065803184
1.065700995
1.06539258
1.065135991
1.065072247
1.064971962
1.067277687
1.062533071
1.062291125
1.062330626
1.062295604
1.062505709
1.063055794
1.063609818
1.06407916
1.064703062
1.064939517
1.065164605
1.06541038
1.065630035
1.065709191
1.065648564
1.065551694
1.065401768
1.06512909
1.064991506
1.065019107
1.065206799
1.065443206
1.065678576
1.065829309
1.065861797
1.06590434
1.065849891
1.065705907
1.065651322
1.065596812
1.065552103
1.067702606
1.062773095
1.062677105
1.062821949
1.062884055
1.063210807
1.063870972
1.064442771
1.064874147
1.065358019
1.065498406
1.065763385
1.066062923
1.06631999
1.06642128
1.06642119
1.066372023
1.066139332
1.065807319
1.065679963
1.065642654
1.065759249
1.066057207
1.066275422
1.066245617
1.066156767
1.066257688
1.066430057
1.066453225
1.06636346
1.066290132
1.066276156
1.068209993
1.063772366
1.063660161
1.063787595
1.0638908
1.064280691
1.06495263
1.065478818
1.0658287
1.06619209
1.06640783
1.066739948
1.067054509
1.067370132
1.067452008
1.067377349
1.067273062
1.066960439
1.066721798
1.066651041
1.066621523
1.066729009
1.067014481
1.067058885
1.066902577
1.066859685
1.067110565
1.067453723
1.067564494
1.067470172
1.067334575
1.067236767
1.068860069
1.065334755
1.065160695
1.065240235
1.065358685
1.065775316
1.066408593
1.066901403
1.067267841
1.067576039
1.0677869
1.068046023
1.06825445
1.068607379
1.068788842
1.068681514
1.068474042
1.068059834
1.067893758
1.06782281
1.06779222
1.067883771
1.068083382
1.068012277
1.067893314
1.068023754
1.068366407
1.068769456
1.06891444
1.068832674
1.068658437
1.068479865
1.069666971
1.066944024
1.06678812
1.066859403
1.067015947
1.067478789
1.068100033
1.068575033
1.068944909
1.069308721
1.069512082
1.069627096
1.069672693
1.0698873
1.070181316
1.070033101
1.069684481
1.069248118
1.069174336
1.069162134
1.069170563
1.069207378
1.069275442
1.069218404
1.069260414
1.069531215
1.069857818
1.070197321
1.070343974
1.070232407
1.069953342
1.069656934
1.070467911
1.068510046
1.068278219
1.068234238
1.068398201
1.068970398
1.069602046
1.070016981
1.070357504
1.070958144
1.07125865
1.071235003
1.071203688
1.071279173
1.071524772
1.071341666
1.07087431
1.070494054
1.070510561
1.070573488
1.070600151
1.070563432
1.070593009
1.070640697
1.0708059
1.071056443
1.071344157
1.071563257
1.071722122
1.071557171
1.071141992
1.07083161
1.071496192
1.069660483
1.069253589
1.069079693
1.069289937
1.069985751
1.07068752
1.071233597
1.071708892
1.072384456
1.072567084
1.07235023
1.072192842
1.072122926
1.072266566
1.072105742
1.071646516
1.071488017
1.071647864
1.071747495
1.071772929
1.071689768
1.071669749
1.071887422
1.072155966
1.07234944
1.07264019
1.072720413
1.072703178
1.072409885
1.071958468
1.071669224
1.072255109
1.07021819
1.069831296
1.069687932
1.069951231
1.070739493
1.071478022
1.072099029
1.07259569
1.07301215
1.072989027
1.072733723
1.072429565
1.072447828
1.072683556
1.072632557
1.072307427
1.072228325
1.072331767
1.072311652
1.072229439
1.072193293
1.072429992
1.072900847
1.073104206
1.07319354
1.073368132
1.073358267
1.072978203
1.072446283
1.07217613
1.072124353
1.072999166
1.070650054
1.070243503
1.06999397
1.070274534
1.071071187
1.071813516
1.072426616
1.072763126
1.073001962
1.072931831
1.072573029
1.072354896
1.072448498
1.072733809
1.072842043
1.072564964
1.072444232
1.07244987
1.072471658
1.072509171
1.072583218
1.072897758
1.073379255
1.073531295
1.073464886
1.073349914
1.07310478
1.072775025
1.072555729
1.072503604
1.07254088
1.073489792
1.069194005
1.068933062
1.068648631
1.068844751
1.069421963
1.06973445
1.069974904
1.070239088
1.070210474
1.07015893
1.069871794
1.069847849
1.069999172
1.070229778
1.070555791
1.070566805
1.070528855
1.070559833
1.070611188
1.070643873
1.070779469
1.071242008
1.071721897
1.071780794
1.071670368
1.071493408
1.071217813
1.070887827
1.070753645
1.070778515
1.070916654
1.071768406
1.063420823
1.063362462
1.063402796
1.06362649
1.064090482
1.064305917
1.064491924
1.06477915
1.065154208
1.065442744
1.065702403
1.06586198
1.065838568
1.065771619
1.065657772
1.0656536
1.065651249
1.065649081
1.06563352
1.065630424
1.065766149
1.066165017
1.066699736
1.066972882
1.067013027
1.066968035
1.066787888
1.066442159
1.066226728
1.066182574
1.066210405
1.066539057
1.054004441
1.054266792
1.054709183
1.055315574
1.056069251
1.056675856
1.057063599
1.057313705
1.057522812
1.057804472
1.058224109
1.058598899
1.058769051
1.058782813
1.058753726
1.058687134
1.058675534
1.058686911
1.058715747
1.058783971
1.05896597
1.059281284
1.059607878
1.059929112
1.060196598
1.060223889
1.060161396
1.060048724
1.059841776
1.059751027
1.059742093
1.059943286
1.046639452
1.047378096
1.047917143
1.048498
1.048974429
1.049112384
1.049107466
1.048932024
1.04874063
1.048784223
1.049003169
1.049415421
1.049806255
1.050129737
1.050423454
1.050703786
1.050927884
1.051070715
1.051155495
1.051192164
1.05126593
1.051435466
1.051662887
1.052001144
1.052423194
1.052670101
1.052684051
1.052639253
1.052457476
1.052301546
1.052284971
1.052506288
1.040161577
1.040873815
1.041193106
1.041322779
1.041265138
1.041187561
1.041006593
1.04071653
1.04046681
1.040450609
1.040534812
1.040839128
1.041351709
1.041973494
1.042571173
1.043119018
1.043502269
1.043688965
1.043832531
1.043881504
1.04387535
1.043909175
1.04400049
1.044174125
1.044489492
1.044848383
1.045078978
1.04524073
1.045318534
1.045345677
1.045389293
1.045601568
1.034759669
1.03503776
1.035130957
1.035059056
1.034850383
1.034732617
1.034592214
1.034434683
1.03437036
1.034401987
1.034499503
1.034828628
1.035443065
1.036144592
1.036776181
1.037324754
1.037687044
1.037785949
1.037845649
1.037934107
1.037944061
1.03798205
1.038046999
1.038174257
1.038468812
1.038885427
1.03924708
1.039548578
1.039788753
1.039882322
1.039907263
1.039997118
1.03082448
1.030901968
1.030919938
1.030715676
1.030455902
1.030359648
1.030348801
1.030488454
1.030844827
1.031101587
1.031247519
1.03148892
1.031865009
1.03233901
1.032871954
1.033413428
1.033877488
1.03406346
1.034153751
1.034354215
1.034531394
1.034617882
1.034694656
1.034821656
1.035041332
1.03532372
1.035550157
1.035787262
1.036063141
1.036167067
1.03615531
1.036176716
1.028620726
1.028428322
1.028536433
1.028855018
1.028959928
1.028890085
1.028841953
1.028982538
1.029344579
1.029684147
1.029833958
1.029906807
1.030030651
1.030380916
1.030984265
1.031657356
1.032147198
1.032244651
1.032194708
1.032120004
1.032153785
1.032233606
1.032351562
1.032512641
1.032664994
1.032835815
1.033063089
1.033361671
1.033597673
1.033621385
1.033605905
1.033562888
1.028032222
1.027805833
1.028039059
1.028793823
1.029020234
1.028905404
1.028653929
1.028397246
1.028391168
1.028525434
1.028713987
1.028863329
1.02900083
1.029293549
1.029728912
1.030075522
1.030246577
1.030338042
1.030340434
1.030181175
1.030040238
1.030091028
1.030257378
1.030475782
1.030672151
1.030847905
1.031041358
1.031275447
1.031511151
1.03158743
1.031580295
1.031527589
1.029592101
1.028832738
1.028581801
1.028343272
1.028270195
1.027945648
1.027460293
1.027047132
1.02696943
1.027073741
1.027316698
1.027692719
1.028096292
1.028229506
1.028265369
1.028286659
1.02832232
1.028470446
1.02865715
1.028665104
1.028564903
1.028452351
1.028460618
1.028561025
1.028784189
1.029077526
1.02932903
1.029540816
1.029722833
1.029830296
1.02986865
1.029887111
1.030615205
1.028964786
1.027617305
1.026703366
1.026209729
1.026004439
1.025672545
1.025264223
1.025148231
1.025276638
1.025580838
1.02611631
1.026874938
1.027200341
1.027192471
1.027075084
1.026920316
1.02691312
1.02704358
1.027131831
1.027046679
1.026861473
1.026790351
1.026843487
1.027100008
1.027551355
1.027990875
1.02827181
1.02838334
1.028462117
1.028535738
1.02862411
1.028751867
1.027115037
1.024339906
1.023110823
1.02320162
1.023701031
1.024041097
1.02401043
1.024182768
1.024381172
1.024630511
1.025038538
1.025616902
1.025874998
1.025848104
1.025692318
1.025368135
1.025022844
1.02503284
1.025185343
1.025312453
1.025408341
1.025550649
1.025839405
1.026294328
1.026785385
1.027139109
1.027327997
1.027449419
1.027522602
1.027505982
1.027486374
1.019845667
1.021461842
1.021212744
1.021393136
1.022444635
1.023348816
1.023871957
1.024195871
1.024732222
1.024740545
1.024514257
1.023867096
1.023740749
1.023795012
1.023759438
1.023598485
1.023286938
1.022956376
1.022913509
1.023135799
1.023711386
1.024386968
1.024885906
1.025366154
1.02577248
1.026079291
1.026282161
1.026369104
1.026401876
1.026360211
1.026243319
1.026174785
1.011672947
1.020739154
1.021170325
1.024191551
1.025661457
1.025489949
1.024466962
1.023787934
1.023762505
1.023621048
1.023219371
1.022237369
1.021230137
1.021048008
1.02110427
1.021189199
1.021182978
1.021281034
1.021475169
1.021916055
1.022702536
1.023506254
1.024148218
1.024533156
1.02476425
1.024828786
1.024795275
1.024771446
1.02475705
1.024734595
1.024634724
1.024500377
0.9916073763
1.010768984
1.016024787
1.023346122
1.025946163
1.02549534
1.023719076
1.022316498
1.021620666
1.021593544
1.020955371
1.01999557
1.01914548
1.019098525
1.019259114
1.019620175
1.020184254
1.020790148
1.021223582
1.02155087
1.021879295
1.02221206
1.022544196
1.022810843
1.02300761
1.023011181
1.022920077
1.022855973
1.022852652
1.022883926
1.022866584
1.022854188
0.8756002731
0.9364465226
0.9780098807
1.015921945
1.019380158
1.019097796
1.019310134
1.017151846
1.017104473
1.018432053
1.019475193
1.019024727
1.018541031
1.018652789
1.019095061
1.01964959
1.020052837
1.020365365
1.020677123
1.020818717
1.020707501
1.020590727
1.020686597
1.020927662
1.02111965
1.021140536
1.021055234
1.020926938
1.020993065
1.021199366
1.021424078
1.021643333
0.797428654
0.8308507912
0.8918387112
0.957948483
0.9819556361
1.000239291
1.014945303
1.014154086
1.016312095
1.01860506
1.019657369
1.020360988
1.020208333
1.020194374
1.02011073
1.019632805
1.019372935
1.019357446
1.019442434
1.019386705
1.019097745
1.018643342
1.018641659
1.018814769
1.019093011
1.019302195
1.019603566
1.01987233
1.020065634
1.020218179
1.020337269
1.020574929
0.7933418934
0.7944590627
0.8056100839
0.8394463545
0.9079557095
0.9655797398
1.003760925
1.0106144
1.02101791
1.021108115
1.020770286
1.021155373
1.021242694
1.021022426
1.020446098
1.019016672
1.017135963
1.016759433
1.016887635
1.01721032
1.017360498
1.017314749
1.017271668
1.017370202
1.017679556
1.018372159
1.019016427
1.01939179
1.019399369
1.01934054
1.019330412
1.01969035
0.7989953591
0.7959956388
0.79604554
0.7980915765
0.8154168942
0.8537182511
0.9141106089
0.9704902576
1.012482559
1.014500804
1.01622974
1.019091412
1.018880125
1.018212908
1.01787551
1.016797646
1.015315021
1.015203904
1.015554064
1.016123876
1.016852535
1.017377265
1.017550848
1.017580515
1.017572011
1.017609098
1.017956728
1.018352104
1.018436858
1.018438971
1.01842975
1.018789664
0.8056835926
0.8036177395
0.7998295525
0.7989795478
0.7997917012
0.802808296
0.821553167
0.8732165386
0.9330955646
0.9679510509
0.9940397217
1.010930723
1.009949356
1.01262214
1.014582145
1.015389618
1.015798003
1.015933379
1.016271969
1.01674076
1.017366479
1.017735069
1.017824705
1.017629861
1.01711974
1.016618896
1.016482994
1.016716216
1.01720028
1.017448289
1.017462274
1.01766714
0.8109335788
0.8103980432
0.8078503165
0.8040584956
0.8031016521
0.8028338968
0.8029531783
0.8080290011
0.8291527861
0.8877938867
0.9446871751
0.992831206
1.000412965
1.012152668
1.014421189
1.017020552
1.018752699
1.018539237
1.017979403
1.017221234
1.016713704
1.016458573
1.016421644
1.016410731
1.015801373
1.015101077
1.015072789
1.015292044
1.015745026
1.016367768
1.016922982
1.01728602
0.8160176352
0.8154900434
0.814598
0.8116402521
0.8084454546
0.8074220045
0.8058698691
0.8048374729
0.8055068561
0.814791249
0.8422409091
0.8974972103
0.9594546112
1.00109401
1.007066775
1.013030706
1.018073165
1.018510582
1.017684099
1.016089682
1.014056499
1.013324755
1.01365909
1.014409561
1.014570909
1.014434427
1.014515405
1.014802526
1.01530854
1.016047586
1.016655465
1.016887794
0.8222882031
0.8203747947
0.8199095031
0.818437352
0.8149535766
0.8131529125
0.8122005962
0.809931338
0.8070701199
0.8073310515
0.8091241202
0.8203814662
0.8606935618
0.9135248224
0.9551222487
0.9887971951
1.010534278
1.009818505
1.012034577
1.012169668
1.011664713
1.011943892
1.013267209
1.014080441
1.014779978
1.015426319
1.015726883
1.015781077
1.015606122
1.015517208
1.015760887
1.015894694
0.8293877205
0.8258102337
0.8247373048
0.8240263611
0.8218296342
0.8183777563
0.8173556844
0.8165966403
0.8137198858
0.8102940253
0.810017666
0.810486294
0.8132180517
0.8265201265
0.8728739595
0.9273709073
0.9775887284
0.990377131
1.004928234
1.009687392
1.012944097
1.014463073
1.015264033
1.015475994
1.015280837
1.015381773
1.015415274
1.015362723
1.014917513
1.014076059
1.013900335
1.014082457
0.8360856056
0.832622871
0.8296311378
0.8289550552
0.8278223663
0.824840015
0.8221081779
0.821567823
0.8206250473
0.8173634243
0.814196227
0.8135229301
0.813069719
0.8129093247
0.8174138109
0.8371111917
0.88562209
0.9458784921
0.9912512455
1.004024281
1.012747977
1.016380545
1.015908886
1.01523173
1.014676762
1.014354033
1.014240028
1.014278648
1.013262787
1.01228354
1.012292969
1.012820051
0.8412349191
0.8394307853
0.8356078608
0.8336674425
0.8330778505
0.8314096284
0.8278952332
0.8259734523
0.8255445597
0.8242220873
0.820891484
0.818350615
0.8173103128
0.8154127028
0.8145596943
0.8153891115
0.8228331436
0.8532833535
0.8995790813
0.9465266237
0.9902402893
1.011656622
1.010612426
1.011561454
1.01026308
1.009469815
1.010706845
1.012038507
1.011814573
1.011578683
1.011857458
1.012744479
0.846438725
0.8454997752
0.8427686857
0.838924712
0.8377134686
0.8368460023
0.8344404872
0.8309632621
0.8298168343
0.8292248371
0.8273218986
0.8238565453
0.82256332
0.821495398
0.8189692444
0.8165650381
0.8168664563
0.8187782822
0.82799334
0.8654455426
0.9159946804
0.9650898806
0.9832691388
1.001049362
1.004684744
1.006969542
1.01070491
1.011340456
1.012204928
1.01309367
1.013710427
1.013764868
0.8511040658
0.8501616893
0.8488608856
0.8454407086
0.8422832417
0.8416177477
0.8404976495
0.8374262487
0.8344745466
0.8336952296
0.8327726408
0.8302817155
0.827232667
0.8263860342
0.8253866563
0.8222011608
0.8191439124
0.8191012273
0.8195184196
0.8225017743
0.8363585472
0.8774866276
0.9321006124
0.9812566288
0.9996659492
1.008640688
1.014323015
1.012682227
1.012905724
1.014494595
1.014954948
1.014240327
0.8578748973
0.8552261822
0.8544359912
0.852504976
0.8484522796
0.8461643371
0.8454672107
0.8437223961
0.8400807578
0.8379553543
0.8373648961
0.8359958689
0.8328953252
0.8306857185
0.8301718325
0.8290088288
0.8255277317
0.8228865128
0.8222302154
0.8216713358
0.8217639685
0.8260343604
0.8480527382
0.888614004
0.9407153898
0.9888660584
1.008173848
1.007531689
1.010058336
1.013386729
1.013434596
1.011879222
0.8648816043
0.8604930181
0.8587687277
0.8577715708
0.8551390897
0.8510602406
0.8497032087
0.8489605693
0.8466883823
0.8430088156
0.8416281608
0.8409179873
0.8389772818
0.8355870439
0.8340809655
0.8336058893
)
;

boundaryField
{
    inlet
    {
        type            fixedValue;
        value           nonuniform 0();
    }
    outlet
    {
        type            inletOutlet;
        inletValue      uniform 1;
        value           nonuniform List<scalar> 
68
(
1.071785431
1.066540418
1.059946248
1.052510403
1.045603576
1.0399969
1.036176458
1.033559781
1.031522308
1.029882836
1.028622057
1.02748581
1.026171759
1.024492012
1.02284522
1.021639344
1.020580667
1.019708233
1.018804753
1.017662202
1.017267698
1.016885777
1.015895794
1.014101309
1.012828344
1.012727052
1.013751878
1.014232879
1.011893053
1.152245943
1.138475355
1.130722024
1.12613853
1.122072464
1.117357471
1.11096792
1.103562698
1.097908556
1.09450443
1.091865833
1.088899555
1.085350326
1.082122916
1.079980217
1.078444696
1.076813468
1.074772263
1.073001105
1.072089612
1.071566479
1.071035582
1.070243223
1.069180454
1.068236767
1.067601132
1.067185719
1.066993901
1.067077332
1.067343756
1.067757063
1.068243142
1.068848681
1.069610205
1.070394225
1.071447743
1.072230739
1.073035689
1.073534401
)
;
    }
    bottom
    {
        type            slip;
    }
    top
    {
        type            slip;
    }
    obstacle
    {
        type            zeroGradient;
    }
    defaultFaces
    {
        type            empty;
    }
    procBoundary29to23
    {
        type            processor;
        value           nonuniform List<scalar> 
34
(
1.062592836
1.062455491
1.062455886
1.062367961
1.062272673
1.062177047
1.061888705
1.061708485
1.061892847
1.062307325
1.06265807
1.063160936
1.063826234
1.064099212
1.064192881
1.064221625
1.064148517
1.063961137
1.063890972
1.063756424
1.063521848
1.063382341
1.063489113
1.063868881
1.064369346
1.064854265
1.065196706
1.065257718
1.065195615
1.065104208
1.064870318
1.064889752
1.066083714
1.168363923
)
;
    }
    procBoundary29to28
    {
        type            processor;
        value           nonuniform List<scalar> 
70
(
1.062712635
1.062654995
1.062434711
1.062178754
1.061897089
1.061709484
1.061547128
1.061334001
1.061334001
1.061044937
1.060794623
1.060678619
1.060660453
1.060692324
1.060644667
1.06063096
1.060641423
1.060560382
1.060514752
1.060482653
1.060462305
1.060597608
1.060869616
1.061195784
1.061753027
1.061753027
1.061643319
1.061440434
1.061399354
1.061669874
1.06209029
1.062423396
1.062344004
1.062749911
1.063814935
1.065337073
1.06696041
1.068592124
1.069963322
1.070664494
1.071153164
1.069479614
1.06347054
1.053799316
1.045763815
1.039260371
1.034600363
1.031396774
1.029726362
1.028915651
1.030044667
1.031236959
1.029095414
1.018532919
0.9968211549
0.9316786743
0.8217700463
0.7913287336
0.7942828192
0.8005697029
0.8061913043
0.8119603337