/*--------------------------------*- C++ -*----------------------------------*\
  =========                 |
  \\      /  F ield         | OpenFOAM: The Open Source CFD Toolbox
   \\    /   O peration     | Website:  https://openfoam.org
    \\  /    A nd           | Version:  7
     \\/     M anipulation  |
\*---------------------------------------------------------------------------*/
FoamFile
{
    version     2.0;
    format      ascii;
    class       volVectorField;
    location    "5";
    object      U;
}
// * * * * * * * * * * * * * * * * * * * * * * * * * * * * * * * * * * * * * //

dimensions      [0 1 -1 0 0 0 0];

internalField   nonuniform List<vector> 
143
(
(3.030209336 -0.08966281339 0)
(3.043011879 -0.1453020308 0)
(3.059705898 -0.2249830743 0)
(3.075548766 -0.2564145282 0)
(3.078397938 -0.2492396161 0)
(3.077018436 -0.2472727567 0)
(3.070364914 -0.2356618162 0)
(2.967754279 0.08172255305 0)
(2.997576309 0.007674202644 0)
(3.013739992 -0.03973953167 0)
(3.037141064 -0.121442967 0)
(3.034647684 -0.1284195582 0)
(3.060017696 -0.2001883793 0)
(3.067011669 -0.2283883263 0)
(3.067359181 -0.2348104241 0)
(2.938542194 0.1495239274 0)
(2.963435194 0.09210824489 0)
(2.991907412 0.01963680075 0)
(3.015502102 -0.04065429589 0)
(3.026391741 -0.0987768986 0)
(3.046861151 -0.1791542098 0)
(3.054857659 -0.195982272 0)
(3.065663314 -0.240862824 0)
(2.917896256 0.1961807257 0)
(2.939113256 0.14602736 0)
(2.959466586 0.09896963293 0)
(2.985328191 0.03329787399 0)
(3.006160434 -0.02200587136 0)
(3.019003271 -0.06914539256 0)
(3.031855139 -0.1106034095 0)
(3.043845583 -0.1602298278 0)
(2.910068187 0.2127153367 0)
(2.918115453 0.1939397627 0)
(2.933536826 0.1581359299 0)
(2.960699246 0.09336435335 0)
(2.976631209 0.05480802519 0)
(3.001538946 -0.01711896819 0)
(3.017255116 -0.06076557986 0)
(3.032741059 -0.1178759461 0)
(2.914515481 0.2055190838 0)
(2.91298883 0.2074351994 0)
(2.920294576 0.1914567421 0)
(2.935660508 0.1557098421 0)
(2.953638359 0.1090946696 0)
(2.979227331 0.0448715295 0)
(2.989383494 0.01720361337 0)
(3.012880572 -0.05496829376 0)
(2.917751339 0.2087490904 0)
(2.911496834 0.2121812939 0)
(2.913597001 0.2060806802 0)
(2.919847482 0.1919071291 0)
(2.935588078 0.1563705818 0)
(2.953661441 0.1149177844 0)
(2.973567523 0.06088121925 0)
(2.993955006 0.007686323037 0)
(2.93300887 0.1847283407 0)
(2.923495364 0.1873927405 0)
(2.915406269 0.1988996744 0)
(2.916310664 0.2011260486 0)
(2.92289034 0.189409468 0)
(2.937595796 0.1545457387 0)
(2.953772004 0.1143594715 0)
(2.975163933 0.06317186387 0)
(2.960201764 0.1037892079 0)
(2.94782645 0.1388673822 0)
(2.919653443 0.1898216625 0)
(2.919059396 0.2100894666 0)
(2.916470502 0.2023827921 0)
(2.922394919 0.1877594706 0)
(2.935362312 0.1590733695 0)
(2.955053412 0.1173455477 0)
(2.984412384 0.03685898984 0)
(2.970818047 0.08662880342 0)
(2.932176434 0.1718115691 0)
(2.92526334 0.1957713438 0)
(2.919666086 0.1937387467 0)
(2.920766771 0.1922126244 0)
(2.926655106 0.1836740635 0)
(2.937308068 0.1615710045 0)
(2.996635478 0.007940166203 0)
(2.986934334 0.03576620933 0)
(2.966233485 0.08685879079 0)
(2.939304466 0.1535058179 0)
(2.924766575 0.1845486629 0)
(2.923579609 0.1945754023 0)
(2.921489264 0.1952747066 0)
(2.925320182 0.183642728 0)
(2.999520212 0.001187012297 0)
(2.997019534 0.007670573655 0)
(2.986689827 0.03390448059 0)
(2.959315598 0.1008106966 0)
(2.94978166 0.134672926 0)
(2.925783679 0.1989151329 0)
(2.917003675 0.1964542892 0)
(2.920160199 0.1885356321 0)
(2.999957346 0.0001072906337 0)
(2.999552726 0.001145164752 0)
(2.996711763 0.008204302941 0)
(2.985480918 0.03533364465 0)
(2.965364604 0.09277644882 0)
(2.942333706 0.1555917077 0)
(2.929236584 0.1677685281 0)
(2.926527526 0.1829476111 0)
(2.999997157 7.226356156e-06 0)
(2.999959366 0.000104075174 0)
(2.999506552 0.001231355458 0)
(2.996236938 0.009526274059 0)
(2.988510397 0.03059492496 0)
(2.960253019 0.09940405171 0)
(2.947483448 0.1359151109 0)
(2.928276411 0.1939714652 0)
(2.999999882 2.986802056e-07 0)
(2.999997297 6.947322347e-06 0)
(2.999949718 0.0001262583045 0)
(2.999488521 0.001308826591 0)
(2.99657681 0.009129224663 0)
(2.986431583 0.03294878004 0)
(2.965904797 0.08985687013 0)
(2.941311999 0.1528724675 0)
(2.999999996 9.75115371e-09 0)
(2.999999884 2.957907771e-07 0)
(2.999996591 8.551064122e-06 0)
(2.999944557 0.000145208407 0)
(2.999507311 0.001250811541 0)
(2.996310871 0.009494818926 0)
(2.98702931 0.03372437092 0)
(2.962512339 0.09041195556 0)
(3 1.887751281e-10 0)
(2.999999996 1.012277957e-08 0)
(2.999999844 3.968200584e-07 0)
(2.999996408 9.355981074e-06 0)
(2.999943572 0.0001460553058 0)
(2.999455666 0.001412446621 0)
(2.996538077 0.009189496335 0)
(2.986814665 0.03320849325 0)
(3 1.618807858e-12 0)
(3 1.203701849e-10 0)
(2.999999993 7.405085814e-09 0)
(2.999999782 2.390333676e-07 0)
(2.999994692 5.794310934e-06 0)
(2.999916659 9.131079443e-05 0)
(2.999193693 0.000851125953 0)
(2.99491044 0.005440612493 0)
)
;

boundaryField
{
    inlet
    {
        type            fixedValue;
        value           nonuniform 0();
    }
    outlet
    {
        type            inletOutlet;
        inletValue      nonuniform 0();
        value           nonuniform 0();
    }
    bottom
    {
        type            slip;
    }
    top
    {
        type            slip;
    }
    obstacle
    {
        type            slip;
    }
    defaultFaces
    {
        type            empty;
    }
    procBoundary34to27
    {
        type            processor;
        value           uniform (2.942939868 0.1429151289 0);
    }
    procBoundary34to28
    {
        type            processor;
        value           nonuniform List<vector> 9((3.047172965 -0.1711539834 0) (3.056657295 -0.1822418046 0) (3.070074198 -0.2449578873 0) (3.077468787 -0.2661662775 0) (3.075393075 -0.2600429032 0) (3.06881698 -0.2296530275 0) (3.054314068 -0.1698473771 0) (3.003145806 -0.01145338677 0) (3.003145806 -0.01145338677 0));
    }
    procBoundary34to29
    {
        type            processor;
        value           uniform (3.05760023 -0.2004169661 0);
    }
    procBoundary34to33
    {
        type            processor;
        value           nonuniform List<vector> 
16
(
(2.91578131 0.200277914 0)
(2.910728055 0.2152776114 0)
(2.906921273 0.2232332186 0)
(2.919567723 0.1951639648 0)
(2.946796874 0.1413188504 0)
(2.971660448 0.08575641698 0)
(2.989521811 0.02996059273 0)
(2.997564354 0.006503024655 0)
(2.999660693 0.0008746773785 0)
(2.99996999 7.603753045e-05 0)
(2.999998118 4.739452891e-06 0)
(2.999999921 1.975628574e-07 0)
(2.999999998 6.358875782e-09 0)
(3 1.246070543e-10 0)
(3 1.891657633e-12 0)
(3 8.966055491e-15 0)
)
;
    }
    procBoundary34to35
    {
        type            processor;
        value           nonuniform List<vector> 
17
(
(3.068009276 -0.2361173455 0)
(3.07095984 -0.2420325287 0)
(3.049524341 -0.1770202499 0)
(3.046106497 -0.1694086558 0)
(3.018042016 -0.06955685471 0)
(3.005378239 -0.02997563007 0)
(2.988922224 0.02594293502 0)
(2.969199807 0.08024786724 0)
(2.955042307 0.116760915 0)
(2.935074847 0.1597401492 0)
(2.924902378 0.1804212489 0)
(2.922488867 0.1878944791 0)
(2.92205949 0.1932229883 0)
(2.940140988 0.1681445443 0)
(2.955651219 0.1343581582 0)
(2.967450529 0.09092831934 0)
(2.978609643 0.02040538585 0)
)
;
    }
}


// ************************************************************************* //
