/*--------------------------------*- C++ -*----------------------------------*\
  =========                 |
  \\      /  F ield         | OpenFOAM: The Open Source CFD Toolbox
   \\    /   O peration     | Website:  https://openfoam.org
    \\  /    A nd           | Version:  7
     \\/     M anipulation  |
\*---------------------------------------------------------------------------*/
FoamFile
{
    version     2.0;
    format      ascii;
    class       volScalarField;
    location    "4.1";
    object      p;
}
// * * * * * * * * * * * * * * * * * * * * * * * * * * * * * * * * * * * * * //

dimensions      [1 -1 -2 0 0 0 0];

internalField   nonuniform List<scalar> 
22
(
0.6965632242
0.8466487752
0.6824890323
0.6814137152
0.7906870392
1.19257618
0.8368430804
0.7768722459
0.8221484123
1.277113764
1.133705893
0.9154925868
0.8208805739
1.241016448
1.230306419
1.127929512
0.9713240376
1.093518975
1.185315453
1.180630743
1.12979753
1.01406506
)
;

boundaryField
{
    inlet
    {
        type            fixedValue;
        value           nonuniform 0();
    }
    outlet
    {
        type            zeroGradient;
    }
    bottom
    {
        type            slip;
    }
    top
    {
        type            slip;
    }
    obstacle
    {
        type            zeroGradient;
    }
    defaultFaces
    {
        type            empty;
    }
    procBoundary27to20
    {
        type            processor;
        value           nonuniform List<scalar> 2(1.574368131 1.275360525);
    }
    procBoundary27to21
    {
        type            processor;
        value           nonuniform List<scalar> 4(0.7216120362 0.8875060774 0.6563226496 0.6563226496);
    }
    procBoundary27to26
    {
        type            processor;
        value           nonuniform List<scalar> 3(1.0814512 1.006575727 1.000085505);
    }
    procBoundary27to28
    {
        type            processor;
        value           nonuniform List<scalar> 6(0.9845236745 0.9505494256 0.9505494256 0.9080073931 0.8363085089 0.8962442955);
    }
    procBoundary27to33
    {
        type            processor;
        value           nonuniform List<scalar> 5(1.096274569 1.173806263 1.168626279 1.096274569 1.000879111);
    }
    procBoundary27to34
    {
        type            processor;
        value           uniform 1.008358886;
    }
}


// ************************************************************************* //
