/*--------------------------------*- C++ -*----------------------------------*\
  =========                 |
  \\      /  F ield         | OpenFOAM: The Open Source CFD Toolbox
   \\    /   O peration     | Website:  https://openfoam.org
    \\  /    A nd           | Version:  7
     \\/     M anipulation  |
\*---------------------------------------------------------------------------*/
FoamFile
{
    version     2.0;
    format      ascii;
    class       volScalarField;
    location    "3.5";
    object      p;
}
// * * * * * * * * * * * * * * * * * * * * * * * * * * * * * * * * * * * * * //

dimensions      [1 -1 -2 0 0 0 0];

internalField   nonuniform List<scalar> 
555
(
0.9975675505
0.9974024169
0.9895328828
0.9957926362
0.9970120343
0.9944150253
0.9929894284
0.9929520167
0.9944200905
0.9968633685
0.9989640782
0.999666789
0.9993118921
0.9987902164
0.9980900373
0.9969506853
0.9960937664
0.9961903097
0.9969663273
0.9892337875
0.9960125905
0.9964868896
0.993588646
0.9920602998
0.9921760712
0.9937530909
0.9961067767
0.998442122
0.9996086427
0.99972554
0.9992419955
0.9980901353
0.9965169165
0.9953349783
0.9952701187
0.9966589083
0.9880016124
0.9951007363
0.9953827375
0.9920343486
0.9908450483
0.9911232093
0.9927960128
0.9948777171
0.9972823309
0.9987807696
0.9991379498
0.9988307215
0.9979751229
0.9967396171
0.9957301235
0.9956711398
0.9969405628
0.9868033678
0.9938122789
0.9939759767
0.9902762421
0.9894683979
0.98988199
0.9918758878
0.9936254358
0.9956309463
0.9973787513
0.9980616168
0.9980248653
0.9977386473
0.9970825057
0.9966980181
0.9973418507
0.9987426019
0.9862930887
0.9930697499
0.992956192
0.9892277613
0.9888508942
0.989449432
0.9917307575
0.9932114094
0.9944154098
0.9957383388
0.9966533627
0.9970550321
0.9978712561
0.9985647849
0.9990872624
1.000225315
1.000902077
0.9881829334
0.9871709858
0.993805555
0.993966695
0.9905507132
0.9902342916
0.9908242579
0.9932555707
0.9949657921
0.9951893165
0.9953575228
0.9958155675
0.9964067347
0.9977654988
0.9992623713
1.000599603
1.001280261
1.001692133
0.9897827617
0.9898789815
0.9965674116
0.9963139731
0.9924859877
0.9919709772
0.9923376299
0.9948458283
0.9972404489
0.9976951878
0.9977474728
0.9978850622
0.9979427613
0.9983022095
0.9992192197
1.000682243
1.001181304
1.00163314
0.9906014685
0.9914320988
0.9981452736
0.997343006
0.9930828245
0.9926469709
0.9930229316
0.9956554817
0.9982467566
0.9994446506
0.9999008917
1.000291468
1.000493193
1.000362718
0.9999610106
1.000327983
1.000722469
1.001298859
0.9894216781
0.9911159332
0.9974679831
0.9962366879
0.9921819227
0.9919436871
0.9924547425
0.995259055
0.9979200868
0.9994524946
1.000114509
1.000633493
1.001072577
1.001005541
1.000315663
0.999849977
0.9999136824
1.000350893
0.9879301488
0.9904241895
0.9963553855
0.9944955817
0.9908439264
0.9908842539
0.9915599156
0.9944881453
0.9972515272
0.9989087928
0.999470498
0.9997313358
1.000136814
1.000124025
0.9993639609
0.9984737186
0.9984546514
0.9873309185
0.9900529605
0.9959641197
0.9938500222
0.9905088752
0.9906234427
0.9913056839
0.994188875
0.9968474941
0.9982747778
0.9985057172
0.9984056175
0.9984474936
0.9983561886
0.9977390729
0.9968995792
0.9969505845
0.9872071605
0.9898526178
0.9955986881
0.9935463772
0.9905377209
0.9904949285
0.9912399332
0.9939976634
0.9961087817
0.9973050409
0.997586055
0.997582086
0.9972299729
0.9968883082
0.9964693257
0.9958376038
0.9960606488
0.9917528647
0.9874721733
0.9902658342
0.9955554501
0.9935457816
0.9907794098
0.9906023985
0.9916717583
0.9945052812
0.9957908328
0.9963882063
0.9965682719
0.9966550167
0.9963438359
0.9962309384
0.9963823441
0.9961848227
0.9966445392
0.9914651812
0.9876039328
0.9911671764
0.9958347167
0.9937343611
0.9912088985
0.990947532
0.9922247847
0.9952338711
0.9961692048
0.9962235572
0.9961534908
0.9962944936
0.9962642082
0.9965445552
0.9975749421
0.9988170867
1.000209873
0.9906070857
0.9873279941
0.9914590645
0.995497435
0.9931697466
0.9913601909
0.9913084566
0.9926638913
0.9956457994
0.9966387024
0.9968115345
0.9968085246
0.9972144688
0.9976031891
0.9982931319
0.9998440737
1.002203603
1.004379264
0.9901337357
0.9869961635
0.9911498872
0.9948279956
0.9921630612
0.990783594
0.9909181059
0.9926323464
0.9955914925
0.9970439664
0.9977381221
0.9981675222
0.9988447234
0.9997382344
1.000812626
1.002652891
1.005292431
1.006682213
0.9903462762
0.9867478721
0.990650426
0.994407337
0.9914314771
0.9903375385
0.9904990494
0.992709617
0.9959574586
0.9978873563
0.9990259384
0.9998001741
1.000457862
1.001390853
1.002560033
1.0036389
1.005152699
1.006024471
0.9900341679
0.9868760592
0.9908357233
0.9942096569
0.9912986119
0.9904711523
0.9904831877
0.9932003479
0.9968176686
0.9986406442
0.9995057899
1.000086174
1.000683242
1.001542392
1.002483547
1.003140551
1.004059968
1.004181022
0.9894496982
0.9860203624
0.9903566399
0.9941158351
0.9915210109
0.9906204655
0.9911513384
0.9940943825
0.9970968403
0.9983272724
0.9991480777
0.9997048357
1.000318614
1.001175968
1.001942325
1.002039182
1.001986182
1.001638061
0.9919630373
0.9876667139
0.9854574537
0.990124357
0.9940789729
0.9919181479
0.9906067626
0.9911874085
0.9942503101
0.9968991136
0.9975310109
0.9976683726
0.9979608975
0.9988501855
0.9999611385
1.000647549
1.000545434
1.00030311
1.000067257
0.9920892921
0.9868611858
0.9856026956
0.990880278
0.9942392958
0.9920517446
0.9906803779
0.9912687755
0.9944142631
0.9966320325
0.9968003642
0.9966060359
0.9965656317
0.9974109862
0.9986377032
0.9994423525
0.9993670552
0.9989874421
0.999156153
0.9922330348
0.987312938
0.9870960735
0.9920572001
0.994586274
0.9918251763
0.990140509
0.9906445314
0.9939274741
0.9956779689
0.9959288751
0.9957693006
0.9956775805
0.9962442673
0.9973084913
0.9983414559
0.998589006
0.9989102636
0.9995691
0.9932459383
0.9889673404
0.9887579572
0.9931104066
0.9950221093
0.9912570843
0.9887736031
0.9890649182
0.9928228996
0.9947191222
0.995223181
0.9954680307
0.9955351142
0.9959720861
0.9969930143
0.9981295288
0.9990521139
1.000116082
0.9949013431
0.9903385648
0.9898437946
0.9939632502
0.9947746831
0.9908518318
0.9874209706
0.9872950242
0.9913112707
0.9941150479
0.994924191
0.9954773197
0.9957185856
0.9967527415
0.9979125905
0.9990778429
1.000267143
1.001754357
0.995615787
0.9906519235
0.9886868858
0.9928377401
0.9938524367
0.9898736835
0.9865739597
0.9870284536
0.9910406609
0.993739092
0.9950192752
0.9956727287
0.9963427155
0.9978373478
0.9990744351
1.000177163
1.001671369
1.004107779
0.994403409
0.9933740835
0.9875818764
0.9869693632
0.9919903256
0.9934401075
0.9895217461
0.9868117265
0.9882261664
0.9921093297
0.9942326233
0.9952323776
0.9960542635
0.9974160857
0.9992113932
1.001125783
1.002468352
1.004495635
1.00665558
0.9926895901
0.9901291436
0.9841896537
0.9852109072
0.9918645162
0.9933133709
0.9897906888
0.9881869742
0.9904106985
0.9942245472
0.9956501624
0.9961410823
0.9965820037
0.9982407358
1.000256918
1.001862541
1.002983836
1.004608195
1.006029807
0.9925819118
0.989291044
0.9842259112
0.9855063595
0.9926013953
0.9941224991
0.9909867462
0.9898068449
0.9936830087
0.9971970817
0.9976987416
0.9975670913
0.9977385062
0.9989515411
1.000634052
1.001983773
1.003382951
1.00470356
1.005445231
0.9941188436
0.9892819464
0.9847104257
0.9866269852
0.9939077246
0.9950747186
0.9923333642
0.9920043592
0.9963985508
0.9991433918
0.9990845197
0.9984459669
0.9983567004
0.9991233678
1.000660375
1.002231008
1.00392732
1.005032442
1.00546744
0.9963265418
0.9898138263
0.9849476329
0.9885212085
0.9944830497
0.9953273351
0.9929639705
0.9928895391
0.9976674081
1.00022916
0.999679429
0.9980824023
0.9980045249
0.9983869735
1.000221271
1.002236759
1.004184598
1.00510206
1.005291997
0.9984280869
0.9907736257
0.9859883219
0.9904103627
0.9951929441
0.9935718123
0.990847343
0.9923945591
0.9975615613
0.9991495068
0.9982778347
0.996947627
0.9954800371
)
;

boundaryField
{
    inlet
    {
        type            fixedValue;
        value           nonuniform 0();
    }
    outlet
    {
        type            zeroGradient;
    }
    bottom
    {
        type            slip;
    }
    top
    {
        type            slip;
    }
    obstacle
    {
        type            zeroGradient;
    }
    defaultFaces
    {
        type            empty;
    }
    procBoundary16to10
    {
        type            processor;
        value           nonuniform List<scalar> 
18
(
0.9987480509
0.9984283075
0.9883691155
0.9939992953
0.9964394501
0.994215846
0.9931896943
0.9931355224
0.9944580014
0.9968166823
0.9984315727
0.9986199022
0.998471091
0.9986418555
0.9987914366
0.9980816517
0.9976293625
0.9976293625
)
;
    }
    procBoundary16to11
    {
        type            processor;
        value           uniform 0.9964636946;
    }
    procBoundary16to15
    {
        type            processor;
        value           nonuniform List<scalar> 
35
(
0.9920315033
0.9915390889
0.9905768589
0.9890428486
0.987692158
0.987692158
0.9957804032
0.9972598248
0.997239825
0.9949119955
0.9922781166
0.9910531141
0.9911827416
0.9911827416
0.9956686913
0.9947260501
0.9937741734
0.9938879248
0.9941751032
0.993433612
0.9923980703
0.9923980703
0.9925377857
0.9935280133
0.9932655064
0.9939356435
0.995281222
0.9952792134
0.9952792134
0.987459435
0.9883369308
0.9893221255
0.9909241939
0.993434476
0.9971710152
)
;
    }
    procBoundary16to17
    {
        type            processor;
        value           nonuniform List<scalar> 
32
(
0.9976346748
0.9981541301
0.9984055119
1.000131888
1.001401677
1.001479801
1.001274902
1.000765006
0.9998153081
0.9987830224
0.9987830224
0.9971300479
0.9962795089
0.9974077675
1.000804153
1.005364275
1.006634414
1.005728122
1.003551504
1.00102468
0.9992040561
0.9988001245
0.9998516463
1.001135771
1.001135771
1.003076577
1.005687472
1.00696324
1.006126484
1.005372894
1.005184513
1.004743536
)
;
    }
    procBoundary16to22
    {
        type            processor;
        value           nonuniform List<scalar> 
20
(
0.9954909791
0.9974890042
1.000955792
1.003286538
1.003910893
1.003733421
0.9994451348
0.9925185781
0.9872734852
0.9903238291
0.9946387723
0.993398963
0.989903976
0.9900583418
0.995137672
0.9970179621
0.9969515545
0.9961060424
0.9954909791
0.9952489873
)
;
    }
}


// ************************************************************************* //
