/*--------------------------------*- C++ -*----------------------------------*\
  =========                 |
  \\      /  F ield         | OpenFOAM: The Open Source CFD Toolbox
   \\    /   O peration     | Website:  https://openfoam.org
    \\  /    A nd           | Version:  7
     \\/     M anipulation  |
\*---------------------------------------------------------------------------*/
FoamFile
{
    version     2.0;
    format      ascii;
    class       volScalarField;
    location    "4.4";
    object      T;
}
// * * * * * * * * * * * * * * * * * * * * * * * * * * * * * * * * * * * * * //

dimensions      [0 0 0 1 0 0 0];

internalField   nonuniform List<scalar> 
138
(
1
1
1
1
1
1
1
1
1
1
1
1
1
1
1
1
1
1
1
1
1
1
1
1
1
1
1
1
1
1
1
1
1
1
1
1
1
1
1
1
1
1
1
1
1
1
1
1
1
1
1
1
1
1
1
1
1
1
1
1
1
1
1
1
1
1
1
1
1
1
1
1
1
1
1
1
1
1
1
1
1
1
1
1
1
1
1
1
1
1
1
1
1
1
1
1
1
1
0.9999999999
1
1
1
1
1
1
1
1
1
1
1
1
1
1
1
1
0.9999999945
1
1
1
1
1
1
1
1
1
1
1
1
1
1
1
1.000000002
0.9999998864
1.000000001
1.000000006
1.000000035
1.000000801
0.9999995067
)
;

boundaryField
{
    inlet
    {
        type            fixedValue;
        value           nonuniform 0();
    }
    outlet
    {
        type            inletOutlet;
        inletValue      nonuniform 0();
        value           nonuniform 0();
    }
    bottom
    {
        type            slip;
    }
    top
    {
        type            slip;
    }
    obstacle
    {
        type            zeroGradient;
    }
    defaultFaces
    {
        type            empty;
    }
    procBoundary8to1
    {
        type            processor;
        value           uniform 1;
    }
    procBoundary8to2
    {
        type            processor;
        value           nonuniform List<scalar> 
18
(
1
1
1
1
1
1
1
1
1
1
1
1
1
1
1
1
1
1
)
;
    }
    procBoundary8to3
    {
        type            processor;
        value           nonuniform List<scalar> 7(1 1 1 1 1 1.000000037 1.000004226);
    }
    procBoundary8to7
    {
        type            processor;
        value           nonuniform List<scalar> 7(1 1 1 1 1 1 1);
    }
    procBoundary8to9
    {
        type            processor;
        value           uniform 1.000176564;
    }
    procBoundary8to14
    {
        type            processor;
        value           nonuniform List<scalar> 
18
(
1
1
1
1
1
1
1
1
1
1
1
1
1
1.000001587
1.000005962
1.000020639
1.000101334
1.000106111
)
;
    }
}


// ************************************************************************* //
