/*--------------------------------*- C++ -*----------------------------------*\
  =========                 |
  \\      /  F ield         | OpenFOAM: The Open Source CFD Toolbox
   \\    /   O peration     | Website:  https://openfoam.org
    \\  /    A nd           | Version:  7
     \\/     M anipulation  |
\*---------------------------------------------------------------------------*/
FoamFile
{
    version     2.0;
    format      ascii;
    class       volScalarField;
    location    "2.9";
    object      p;
}
// * * * * * * * * * * * * * * * * * * * * * * * * * * * * * * * * * * * * * //

dimensions      [1 -1 -2 0 0 0 0];

internalField   nonuniform List<scalar> 
555
(
0.9986089661
0.9984510506
0.9977261922
0.9993419303
0.9990508949
0.9987369775
0.9987559582
0.9985876476
0.9984646843
0.9991437266
0.9997044277
0.9997816325
0.9995246701
0.9987769826
0.9972362728
0.9960451285
0.9960277635
0.9969146571
0.9975930206
0.9975438649
0.9975904567
0.9972786545
0.9996676487
0.9992142566
0.9987083204
0.99913954
0.9998363402
0.9998543165
1.000435512
1.001103985
1.000925617
1.000388732
0.9975917367
0.9961199055
0.9956211236
0.9954032842
0.9960642374
0.9968213117
0.9973292645
0.9974957033
0.9975776979
1.000147594
1.000244212
0.9990067223
0.9994031346
0.9998013711
1.000723531
1.000934004
1.001446785
1.001469473
0.9994625909
0.9986988179
0.9970370111
0.9955645409
0.9951586333
0.9958820089
0.9967567793
0.9974739297
0.9979209982
0.9996768067
0.9999897316
1.000381257
0.9998720435
0.999917976
0.9997420264
1.000104728
1.00021046
1.000486772
1.000129288
0.9994500224
0.998867939
0.9981045091
0.9969820837
0.9959735433
0.9964005464
0.9976293788
0.9991191956
1.000381799
1.00197049
0.9992533688
0.9999180906
0.9998009377
0.9991388528
0.998432839
0.9982227944
0.9976391701
0.9978404143
0.99849683
0.9987260741
0.9985869904
0.9983411721
0.9980594115
0.9977698675
0.9980689892
0.9999169579
1.001629321
1.002634827
1.002620952
0.9990936624
0.9994585557
0.9991795911
0.9978309937
0.9964732775
0.9954301055
0.9950685898
0.9954572882
0.9964551982
0.9974009488
0.9980302044
0.9981505343
0.9983269507
0.9989000132
0.9999610006
1.001331894
1.002135666
1.002866694
1.002773042
0.999136759
0.9993439182
0.9986848746
0.9970279943
0.9949385828
0.9939001271
0.9936440675
0.9938367928
0.9946785921
0.9958841885
0.9975408545
0.9979972649
0.9984352144
0.9997946192
1.001114978
1.00161882
1.001816252
1.002296215
1.002283353
0.9993464371
0.9994157383
0.9987797409
0.9969726715
0.9949081358
0.9934762175
0.9931111711
0.9932465044
0.993957483
0.9954229576
0.9968988324
0.9980282915
0.9989665136
1.000724135
1.001205287
1.001061273
1.000991574
1.00138984
1.00094616
1.000218373
0.9995712849
0.9976839733
0.9956034786
0.9946003473
0.9942960482
0.9940948094
0.994573114
0.9957693416
0.9972107788
0.9988319246
1.000277184
1.000978634
1.000776639
1.000196813
0.9994509987
0.9986072395
0.9971222799
1.001638055
1.001067778
0.9996696703
0.9981115364
0.9973291
0.9973815633
0.9977656258
0.9982944714
0.9985669155
0.9992258993
1.00049802
1.001305768
1.001093386
1.000368164
0.9981362582
0.9962626313
0.995411308
0.9953102181
1.002592348
1.001768666
1.001109367
1.000671398
1.00079502
1.001386947
1.001739127
1.001395874
1.001295809
1.000893657
1.001016753
1.001179839
1.000908908
0.9993968575
0.9968284517
0.9952182611
0.9947368645
0.9951502215
1.00251832
1.00157299
1.001126342
1.000992174
1.001532683
1.002443295
1.00308351
1.002758526
1.002326915
1.001883966
1.001228956
1.00093171
1.000109904
0.9975192392
0.9967120085
0.9963695004
0.9957940022
0.9959652275
1.001964998
1.000946836
1.000738912
1.000681541
1.001285336
1.002317599
1.003104454
1.002855949
1.002456639
1.001955918
1.001157381
0.9996782105
0.9973614911
0.9961055684
0.9965858988
0.9974462463
0.9975735621
0.9987223455
1.00055784
0.9995151853
0.9991935576
0.9988913911
0.9989018412
1.000017903
1.001936012
1.002346373
1.002058666
1.0013293
0.9997706424
0.9973680613
0.9948010194
0.9946843558
0.9964681653
0.9983711836
1.000777915
1.00322705
0.9990874576
0.9979785198
0.9970737004
0.9965509519
0.995931064
0.9964654207
0.9985319665
1.000500846
1.000285385
0.9994143995
0.9974555556
0.9951751955
0.9942631132
0.9947598196
0.9968387822
1.001547602
1.00458886
1.004948539
0.997890562
0.9969778804
0.9961618345
0.995507828
0.9949399743
0.995054962
0.99596428
0.9979850164
0.9981840066
0.9973879382
0.9960751282
0.9952358696
0.9951162118
0.9960669037
0.9985068537
1.000585576
1.003497041
1.00469703
0.9982063491
0.9977507597
0.9970382508
0.9963043728
0.9956160064
0.9955937676
0.9957730503
0.9962566431
0.9971096075
0.9969676997
0.9969400222
0.9969395142
0.9972840408
0.9990997931
1.000446465
1.000914187
1.001725728
1.001950439
0.9989421874
0.9992863106
0.9992445789
0.9984592497
0.9977763672
0.997353768
0.9966787814
0.9965449532
0.9970980069
0.9978293914
0.998403941
0.9991305192
1.000205446
1.001514061
1.002062147
1.001147075
0.9996945867
0.9977912865
1.000423093
1.000456402
1.000427222
0.9999625587
0.9995888692
0.999159521
0.9982080901
0.9975516618
0.9975785552
0.9984721788
0.9999093948
1.001757377
1.002704945
1.002996071
1.002478725
1.000210694
0.9964834701
0.9936915708
1.002540203
1.002532917
1.002048635
1.001606574
1.001131307
1.000796025
0.9996431504
0.9991000419
0.9986251513
0.9977415696
0.9987002497
1.001173665
1.003690656
1.003623099
1.000992929
0.9974062436
0.9938866528
0.9934567481
1.003949741
1.00419198
1.00359464
1.003005244
1.0022167
1.001551177
1.00029074
1.000346122
0.9994223026
0.9983496974
0.9988891075
1.000479878
1.002084292
1.00160348
0.9982999517
0.9964510792
0.9958220933
0.9956687914
1.004261266
1.004457956
1.003963034
1.003162401
1.002100492
1.000786126
0.9997526522
0.9999091309
0.9999353636
0.9993315349
0.9992578216
0.999577405
0.9988475309
0.9973697343
0.9974543274
0.9976445009
0.9980499926
0.9986396177
1.002839302
1.001656174
1.000451464
0.9993241664
0.9982569975
0.9981678325
0.9989963725
1.000241974
0.9997710682
0.9989253634
0.9975455602
0.9952031781
0.9943021811
0.99704671
0.9994595669
1.000052922
1.001648426
0.9986823087
0.9966950357
0.9955578471
0.99472094
0.994905082
0.9962883836
0.9986292388
0.9999889277
0.9989752032
0.9969250454
0.9950566222
0.9938446189
0.9945058666
0.9968335698
1.0005156
1.00349216
1.004625008
0.9936901987
0.9928230789
0.9926431761
0.9929745132
0.9944999217
0.9970705547
0.9991921183
0.9995501416
0.9978779353
0.994834596
0.994388573
0.9951597532
0.9965259332
0.9980191284
0.9997564577
1.00312536
1.004821684
0.9936137522
0.9936469793
0.9939089507
0.9942937711
0.9961661086
0.9989192133
0.999806769
0.9991349256
0.9972053556
0.9969213919
0.9968601221
0.9978467785
0.9991440218
1.000416305
1.001531224
1.002595683
1.002500059
0.9950670583
0.9952463424
0.9956199419
0.9963956071
0.9985637124
1.000679748
1.000337452
0.9985367514
0.9987075412
0.9992393973
0.9994362303
1.000490011
1.002030028
1.002943435
1.003183024
1.001420421
0.9985987436
0.9975687975
0.9978751447
0.9981053096
0.9999721874
1.000920038
1.001586835
1.000288161
0.9987431265
1.000177565
1.000918993
1.001603589
1.002946699
1.004133366
1.004485324
1.002425819
0.9974347493
0.9945927378
1.000577354
1.000668514
1.001415598
1.001571546
1.001827647
1.00089788
0.9989026583
0.9991621716
1.000917559
1.003167043
1.004186096
1.004605486
1.004832784
1.003430159
0.9992132799
0.9956859988
0.9951223291
1.001998147
1.002428093
1.002492719
1.002158181
1.001208041
0.9986113315
0.997092872
0.9986416297
0.9994038718
1.001235972
1.002990757
1.003567873
1.002938308
0.9996233142
0.9980869345
0.997493792
0.9972626997
1.002482525
1.002576394
1.002427549
1.001187795
0.998231448
0.9956997481
0.9966375256
0.9982406322
0.9995889391
1.000891865
1.001966806
1.001402866
)
;

boundaryField
{
    inlet
    {
        type            fixedValue;
        value           nonuniform 0();
    }
    outlet
    {
        type            zeroGradient;
    }
    bottom
    {
        type            slip;
    }
    top
    {
        type            slip;
    }
    obstacle
    {
        type            zeroGradient;
    }
    defaultFaces
    {
        type            empty;
    }
    procBoundary23to17
    {
        type            processor;
        value           nonuniform List<scalar> 
20
(
0.9992558032
0.9989082269
0.9980022361
1.000699086
0.9994974348
0.9986996708
0.9979572972
0.9967989469
0.9963589481
0.9972750002
0.9982289982
0.9989978263
0.9991699831
0.9991088156
0.9983568062
0.9972828583
0.9973180902
0.9983775514
0.9988429315
0.9988429315
)
;
    }
    procBoundary23to22
    {
        type            processor;
        value           nonuniform List<scalar> 
32
(
1.000669544
1.000738226
1.000201374
0.9994960127
0.99831347
0.9977244846
0.9981489866
0.9991861517
1.00039081
1.00039081
1.00178036
1.002964953
1.003021166
1.002439456
1.000435426
0.9987670024
0.9976161877
0.998121409
0.9995168046
1.000636469
1.002288367
1.00298652
1.00335634
1.003391528
1.003391528
1.000311714
0.9957669009
0.9943492831
0.9954805902
0.997753025
1.000777151
1.001610263
)
;
    }
    procBoundary23to28
    {
        type            processor;
        value           uniform 1.002108902;
    }
    procBoundary23to29
    {
        type            processor;
        value           nonuniform List<scalar> 
18
(
0.9983759419
0.9968906208
0.9979383988
0.999286123
1.000266712
1.001925045
1.001266555
0.9997138238
0.9971558107
0.9947542627
0.9952999093
0.9973742824
0.9993338572
0.9999388419
1.000726426
1.000421316
0.9983759419
0.997051662
)
;
    }
}


// ************************************************************************* //
