/*--------------------------------*- C++ -*----------------------------------*\
  =========                 |
  \\      /  F ield         | OpenFOAM: The Open Source CFD Toolbox
   \\    /   O peration     | Website:  https://openfoam.org
    \\  /    A nd           | Version:  7
     \\/     M anipulation  |
\*---------------------------------------------------------------------------*/
FoamFile
{
    version     2.0;
    format      ascii;
    class       volScalarField;
    location    "3.7";
    object      rho;
}
// * * * * * * * * * * * * * * * * * * * * * * * * * * * * * * * * * * * * * //

dimensions      [1 -3 0 0 0 0 0];

internalField   nonuniform List<scalar> 
555
(
1.25570352
1.255425905
1.255398001
1.25585408
1.256585316
1.257630522
1.258444974
1.250966488
1.245179684
1.24641989
1.251340428
1.254598279
1.254933064
1.257826514
1.25916583
1.258808398
1.258057729
1.257637515
1.257122529
1.255877273
1.255530543
1.256163193
1.256364495
1.257073758
1.258080304
1.257530843
1.25190925
1.24612498
1.24684641
1.251955966
1.254893727
1.255311204
1.257341532
1.258909802
1.258689327
1.257840145
1.25781086
1.257731761
1.257709684
1.257879083
1.25876287
1.259531085
1.260646687
1.261110972
1.256788656
1.253296403
1.248229613
1.248736223
1.2534301
1.255879703
1.256095484
1.258075387
1.259923445
1.259625019
1.258544422
1.25838534
1.258715853
1.259219007
1.259960575
1.261085018
1.262672498
1.263918833
1.264319185
1.259015106
1.257156801
1.252357065
1.253005349
1.256658553
1.258562941
1.258507345
1.260218156
1.2624119
1.262179647
1.26098023
1.260701382
1.260997156
1.261835172
1.262866889
1.263949797
1.265625305
1.266777568
1.267230534
1.265307019
1.265499213
1.260082154
1.259196362
1.261723896
1.26385194
1.2633488
1.264744889
1.267489174
1.267576123
1.26625172
1.265084152
1.265137337
1.266176465
1.266971455
1.267644481
1.269100534
1.270437481
1.270958632
1.276529046
1.275454763
1.26899503
1.266795745
1.268627781
1.270960276
1.270738987
1.272383142
1.274959199
1.275109807
1.273932059
1.27253404
1.272009751
1.272205322
1.272581144
1.272855183
1.274011333
1.275290513
1.275828673
1.28602816
1.279351057
1.275772752
1.277100985
1.279473351
1.279792749
1.281729392
1.284297059
1.284597455
1.283492716
1.282089246
1.280670709
1.279754961
1.279843011
1.27996294
1.280820699
1.281272317
1.281584408
1.297177406
1.290948663
1.286157366
1.286649047
1.288899233
1.289933771
1.291874244
1.294303394
1.294817145
1.294051342
1.29263119
1.290464104
1.288613332
1.288474101
1.288715694
1.288868098
1.289106
1.289377838
1.305643911
1.300810961
1.296077371
1.296747253
1.29867462
1.299943771
1.301946664
1.304452563
1.30524622
1.304604551
1.303213287
1.301043656
1.299034279
1.298207081
1.298183337
1.297815379
1.29796395
1.298288732
1.298660255
1.313254113
1.3094918
1.304797179
1.306354015
1.30757811
1.308739857
1.311015289
1.313767639
1.315304913
1.31477639
1.313576284
1.311842194
1.30998677
1.308535062
1.30836483
1.308018297
1.308192256
1.308494116
1.309106044
1.321092582
1.318567769
1.313804331
1.314710738
1.315948484
1.317024342
1.319429958
1.322498818
1.324230757
1.323884633
1.323065829
1.321709999
1.320247289
1.318910192
1.3185957
1.318799962
1.319312029
1.319936998
1.320480548
1.330076624
1.328131391
1.32351941
1.323191667
1.324613375
1.325536071
1.327169526
1.329873422
1.331883935
1.331844439
1.331740429
1.331118147
1.329944355
1.328785521
1.328528784
1.329113907
1.329718582
1.330476979
1.331423135
1.337350799
1.333612459
1.332582651
1.333864692
1.334460128
1.335298819
1.337693047
1.339791917
1.33994639
1.33999815
1.33993266
1.339177945
1.338363312
1.338274634
1.339112354
1.339469834
1.340748889
1.34210937
1.345777319
1.342008071
1.342910827
1.344221181
1.343408902
1.344017453
1.346373769
1.348333411
1.348527062
1.348448366
1.348143249
1.348041929
1.347277184
1.347771942
1.348765491
1.349239618
1.350660598
1.352292096
1.354424583
1.350848142
1.352655347
1.353863656
1.352664727
1.353120414
1.355638764
1.357622237
1.357913602
1.357813879
1.356825414
1.356953822
1.356348221
1.357442822
1.358175768
1.359796253
1.36189784
1.362976712
1.364024148
1.359877699
1.361967756
1.36344979
1.361928266
1.3623631
1.365113031
1.367386026
1.367884282
1.367534708
1.36667419
1.366025041
1.366280063
1.367236122
1.367541737
1.368979248
1.370995962
1.371496868
1.374216586
1.369158363
1.371183286
1.372801212
1.371178971
1.371628713
1.374336201
1.376891105
1.377545237
1.37713766
1.376946247
1.375802574
1.376615718
1.37725076
1.377784064
1.378976839
1.380665492
1.380895124
1.383518381
1.378503096
1.380325458
1.382072995
1.38032464
1.380709206
1.383177448
1.385810639
1.387251482
1.386908994
1.386330624
1.385805126
1.385966174
1.387013913
1.387404778
1.388399365
1.389614437
1.389757811
1.391700732
1.387155789
1.388856283
1.391047387
1.389070437
1.389209002
1.391345619
1.393958515
1.395665569
1.395444568
1.395292851
1.395037812
1.394779868
1.395294465
1.395559918
1.396171454
1.396777634
1.396917746
1.394480012
1.396216827
1.399128557
1.396854276
1.396627648
1.398041687
1.400478926
1.402015808
1.402353637
1.402442616
1.402562049
1.402104947
1.401712623
1.401758449
1.401881159
1.402039093
1.402074919
1.400188208
1.401756767
1.405609171
1.403202373
1.402312192
1.40309579
1.405401966
1.406656677
1.4071148
1.40736398
1.407522141
1.407000452
1.405840299
1.405935224
1.405853853
1.405761317
1.405645492
1.404338051
1.40581248
1.410604109
1.408274108
1.406126386
1.406182628
1.407906668
1.409255786
1.409743237
1.410201518
1.410207584
1.409303924
1.408197897
1.40874591
1.408989031
1.409205524
1.409391588
1.40733587
1.408757979
1.414247397
1.411539539
1.408127796
1.407976599
1.409940048
1.412113749
1.412391596
1.412057261
1.41116754
1.409713042
1.409665952
1.41060377
1.411632309
1.412208173
1.412884975
1.412992075
1.408799416
1.409622414
1.415692616
1.412037075
1.409689731
1.410349051
1.412796419
1.414423156
1.41412881
1.413083477
1.411557021
1.41075822
1.411381492
1.412713371
1.413940201
1.41452375
1.415582772
1.41558128
1.408353619
1.408699025
1.415722687
1.412634163
1.411330508
1.412239491
1.414694085
1.415145749
1.413989093
1.413180563
1.412359682
1.412374011
1.412983526
1.414151841
1.415121515
1.416164229
1.417646171
1.417588947
1.407908289
1.408038278
1.416535787
1.41466936
1.412436071
1.41278173
1.414549865
1.414135819
1.412955835
1.41278114
1.4128651
1.413108853
1.413585515
1.414209491
1.415397446
1.417372095
1.419516928
1.419439893
1.408327612
1.417687032
1.416167668
1.4128789
1.411834235
1.412898139
1.412271106
1.412245116
1.412904827
1.413052101
1.413238058
1.413406306
1.413929473
1.415654526
1.418462521
1.420847951
1.420702974
1.408628375
1.418108688
1.416531069
1.412384174
1.410980135
1.412002283
1.412397545
1.412963374
1.413265615
1.412915482
1.412903436
1.412747289
1.413872876
1.416437434
1.419036405
1.420705037
1.420110554
1.407094914
1.417261897
1.415671893
1.411122363
1.410324167
1.411615048
1.413027396
1.413621263
1.413245138
1.412580021
1.412518222
1.41241957
1.413763929
1.416536788
1.418441539
1.418920904
1.417465646
1.402981722
1.414754001
1.41360773
1.40962708
1.409658325
1.411533248
1.413220974
1.413233513
1.412615571
1.412101389
1.412060159
1.411944239
1.41297947
1.414809143
1.41594966
1.415072051
1.413486078
1.397698825
1.411254085
1.410891934
1.407786888
1.408192115
1.410327078
)
;

boundaryField
{
    inlet
    {
        type            calculated;
        value           nonuniform 0();
    }
    outlet
    {
        type            calculated;
        value           nonuniform 0();
    }
    bottom
    {
        type            calculated;
        value           nonuniform 0();
    }
    top
    {
        type            calculated;
        value           nonuniform 0();
    }
    obstacle
    {
        type            calculated;
        value           nonuniform 0();
    }
    defaultFaces
    {
        type            empty;
    }
    procBoundary22to16
    {
        type            processor;
        value           nonuniform List<scalar> 
20
(
1.255675959
1.255896706
1.255740162
1.256250533
1.257086204
1.257916283
1.258201936
1.249589454
1.244383414
1.246283701
1.251784624
1.25325051
1.253453827
1.257485007
1.259457391
1.259265461
1.257959983
1.257206679
1.256381592
1.256381592
)
;
    }
    procBoundary22to17
    {
        type            processor;
        value           uniform 1.259235671;
    }
    procBoundary22to21
    {
        type            processor;
        value           nonuniform List<scalar> 
35
(
1.258746381
1.256914603
1.253207803
1.254746954
1.259828597
1.270618995
1.287646115
1.287646115
1.296710007
1.304559335
1.311330084
1.318033054
1.325753997
1.339865224
1.339865224
1.349528388
1.357887492
1.364678743
1.372829644
1.382224821
1.39125444
1.399665598
1.399665598
1.406203494
1.41075617
1.413921477
1.415793201
1.415954552
1.415509727
1.408137063
1.408137063
1.408508528
1.408119423
1.40557457
1.401456933
)
;
    }
    procBoundary22to23
    {
        type            processor;
        value           nonuniform List<scalar> 
32
(
1.259602485
1.261871992
1.264644654
1.267080013
1.270477026
1.274927816
1.281380331
1.289452021
1.289452021
1.29920518
1.309693542
1.320894654
1.331876638
1.342199612
1.352399597
1.362802851
1.371405218
1.380558978
1.389203596
1.396292077
1.401486438
1.405673294
1.409710479
1.409710479
1.412859505
1.415081315
1.416959325
1.418705384
1.419967148
1.419499285
1.416557898
1.412820725
)
;
    }
    procBoundary22to28
    {
        type            processor;
        value           nonuniform List<scalar> 
18
(
1.411905785
1.411628975
1.411227143
1.411257476
1.411278923
1.411106472
1.411887732
1.412566854
1.412123672
1.410741122
1.41010683
1.393655356
1.408302394
1.40816968
1.404969096
1.404812379
1.411905785
1.406760154
)
;
    }
}


// ************************************************************************* //
