/*--------------------------------*- C++ -*----------------------------------*\
  =========                 |
  \\      /  F ield         | OpenFOAM: The Open Source CFD Toolbox
   \\    /   O peration     | Website:  https://openfoam.org
    \\  /    A nd           | Version:  7
     \\/     M anipulation  |
\*---------------------------------------------------------------------------*/
FoamFile
{
    version     2.0;
    format      ascii;
    class       volScalarField;
    location    "4.6";
    object      rho;
}
// * * * * * * * * * * * * * * * * * * * * * * * * * * * * * * * * * * * * * //

dimensions      [1 -3 0 0 0 0 0];

internalField   nonuniform List<scalar> 8(1.488423816 1.440894345 1.458263446 1.457094856 1.414952409 1.441478739 1.401525973 1.420713392);

boundaryField
{
    inlet
    {
        type            calculated;
        value           nonuniform 0();
    }
    outlet
    {
        type            calculated;
        value           nonuniform 0();
    }
    bottom
    {
        type            calculated;
        value           nonuniform 0();
    }
    top
    {
        type            calculated;
        value           nonuniform List<scalar> 2(1.401525973 1.420713392);
    }
    obstacle
    {
        type            calculated;
        value           nonuniform 0();
    }
    defaultFaces
    {
        type            empty;
    }
    procBoundary33to26
    {
        type            processor;
        value           uniform 1.493308045;
    }
    procBoundary33to27
    {
        type            processor;
        value           nonuniform List<scalar> 2(1.540806229 1.314656485);
    }
    procBoundary33to32
    {
        type            processor;
        value           nonuniform List<scalar> 3(1.405677097 1.400037087 1.400005159);
    }
    procBoundary33to34
    {
        type            processor;
        value           nonuniform List<scalar> 4(1.353009447 1.43184909 1.450116063 1.453489266);
    }
}


// ************************************************************************* //
