/*--------------------------------*- C++ -*----------------------------------*\
  =========                 |
  \\      /  F ield         | OpenFOAM: The Open Source CFD Toolbox
   \\    /   O peration     | Website:  https://openfoam.org
    \\  /    A nd           | Version:  7
     \\/     M anipulation  |
\*---------------------------------------------------------------------------*/
FoamFile
{
    version     2.0;
    format      ascii;
    class       volScalarField;
    location    "3.7";
    object      rho;
}
// * * * * * * * * * * * * * * * * * * * * * * * * * * * * * * * * * * * * * //

dimensions      [1 -3 0 0 0 0 0];

internalField   nonuniform List<scalar> 5(1.453498862 1.45011275 1.431862309 1.3530483 1.331206833);

boundaryField
{
    inlet
    {
        type            calculated;
        value           nonuniform 0();
    }
    outlet
    {
        type            calculated;
        value           nonuniform 0();
    }
    bottom
    {
        type            calculated;
        value           uniform 1.453498862;
    }
    top
    {
        type            calculated;
        value           nonuniform 0();
    }
    obstacle
    {
        type            calculated;
        value           nonuniform 0();
    }
    defaultFaces
    {
        type            empty;
    }
    procBoundary4to3
    {
        type            processor;
        value           nonuniform List<scalar> 2(1.42070546 1.441473709);
    }
    procBoundary4to5
    {
        type            processor;
        value           nonuniform List<scalar> 3(1.471249845 1.444436373 1.395542896);
    }
    procBoundary4to9
    {
        type            processor;
        value           nonuniform List<scalar> 2(1.457090208 1.440975625);
    }
    procBoundary4to10
    {
        type            processor;
        value           uniform 1.389982382;
    }
    procBoundary4to11
    {
        type            processor;
        value           nonuniform List<scalar> 2(1.350085845 1.354263961);
    }
    procBoundary4to15
    {
        type            processor;
        value           uniform 1.314498334;
    }
}


// ************************************************************************* //
