/*--------------------------------*- C++ -*----------------------------------*\
  =========                 |
  \\      /  F ield         | OpenFOAM: The Open Source CFD Toolbox
   \\    /   O peration     | Website:  https://openfoam.org
    \\  /    A nd           | Version:  7
     \\/     M anipulation  |
\*---------------------------------------------------------------------------*/
FoamFile
{
    version     2.0;
    format      ascii;
    class       volScalarField;
    location    "4";
    object      T;
}
// * * * * * * * * * * * * * * * * * * * * * * * * * * * * * * * * * * * * * //

dimensions      [0 0 0 1 0 0 0];

internalField   nonuniform List<scalar> 
555
(
1.112290829
1.111752551
1.111660505
1.111847625
1.111925887
1.111576205
1.115270104
1.113770187
1.111982477
1.111280717
1.111650248
1.111852329
1.111924199
1.112474249
1.112821749
1.113005351
1.113091811
1.113030622
1.112856445
1.112424039
1.111944147
1.111860881
1.111835937
1.111868304
1.111445744
1.114742338
1.113884754
1.111690789
1.110495929
1.110674345
1.110746045
1.110702954
1.111483935
1.111991729
1.112217253
1.112335513
1.112215008
1.112005582
1.111515045
1.111008677
1.110979181
1.110938044
1.110848542
1.1105586
1.112885981
1.112071065
1.109743919
1.10821169
1.108290808
1.108450655
1.108470671
1.109336915
1.110225067
1.110635598
1.110810503
1.110657114
1.110417398
1.109778407
1.109250093
1.10921161
1.109161691
1.108998074
1.108910973
1.10853311
1.107735962
1.105700993
1.104422386
1.10455355
1.104631182
1.104626691
1.105542861
1.106789552
1.10744552
1.107735492
1.107666716
1.107491842
1.106851611
1.106362633
1.106318992
1.106422391
1.106405857
1.106481797
1.101711973
1.101273844
1.099701864
1.098860982
1.099163828
1.099438983
1.099693843
1.101066173
1.102338842
1.103002372
1.103269131
1.103231038
1.103058025
1.102518449
1.102216044
1.102239748
1.102480387
1.102629717
1.102801121
1.093359761
1.093661194
1.092649503
1.092076258
1.092493763
1.092994264
1.093535629
1.094969665
1.096237002
1.097092479
1.097544292
1.09763673
1.097394609
1.097032771
1.096746705
1.096743783
1.097092196
1.097450948
1.097707072
1.085680737
1.085315954
1.084809326
1.085250724
1.08576561
1.08622656
1.087699232
1.089011446
1.089982831
1.090642505
1.090921757
1.090817567
1.090634456
1.09045666
1.090466991
1.090719922
1.091259406
1.091487569
1.078242173
1.077977666
1.077391814
1.07777848
1.078195112
1.078540782
1.079962013
1.081127188
1.082120305
1.082882163
1.083282685
1.083344217
1.083253429
1.08319828
1.083375054
1.083636851
1.084195446
1.084432075
1.071077498
1.070705622
1.07001559
1.070246335
1.070377162
1.07063267
1.07196376
1.073045845
1.074072253
1.074862688
1.075269652
1.075384609
1.07533678
1.075347418
1.075649001
1.076076096
1.076456438
1.07655627
1.076426845
1.063633959
1.06310926
1.062362294
1.062337254
1.062284328
1.062399176
1.063478003
1.064511539
1.065543704
1.066525805
1.066855873
1.066949071
1.066899789
1.066858992
1.067214121
1.067675196
1.067933253
1.067979356
1.067886922
1.05629815
1.055654231
1.054914702
1.05466738
1.054388126
1.054202546
1.054669173
1.055736369
1.056760012
1.057756439
1.058253828
1.058439488
1.058450961
1.058342309
1.058662222
1.059098359
1.059304687
1.059320417
1.05921208
1.04867177
1.048217077
1.047540309
1.047141101
1.046622085
1.046086505
1.046330747
1.047463104
1.048442516
1.049336056
1.049705947
1.049838858
1.049839492
1.049814516
1.050058755
1.050518879
1.050757934
1.050804233
1.050679919
1.0409342
1.040437619
1.039988089
1.039299138
1.038591922
1.038860595
1.039896935
1.040724131
1.041545643
1.041867083
1.041855359
1.041723551
1.041517471
1.041551661
1.041967105
1.042397927
1.042527558
1.0423658
1.033981544
1.033468661
1.033117135
1.032427947
1.031572399
1.031858393
1.032968136
1.03364758
1.034321314
1.034552107
1.034399968
1.034182155
1.033911399
1.033683635
1.033717454
1.034189957
1.034430896
1.034292584
1.027021344
1.026776225
1.026455503
1.025917917
1.025080208
1.025465651
1.026374476
1.026912237
1.027454537
1.027643151
1.027442066
1.027137184
1.026745722
1.026342558
1.026057111
1.02621279
1.026467592
1.026407119
1.019761434
1.019714542
1.020006906
1.019704607
1.018681746
1.018994484
1.019679377
1.020142369
1.020600514
1.020754
1.020572058
1.020353455
1.019927697
1.019355734
1.018922249
1.018822729
1.019015331
1.018961273
1.012599031
1.012840753
1.013272451
1.013092996
1.012117442
1.012448424
1.013045354
1.013443474
1.013791568
1.013996289
1.013933749
1.013784741
1.013412356
1.012770536
1.012303278
1.012153332
1.012218283
1.01227558
1.005831641
1.006190354
1.006758528
1.006568858
1.005541945
1.005655861
1.006093749
1.006399651
1.006798595
1.007204566
1.007331594
1.007339991
1.007075517
1.006624188
1.006291025
1.006141434
1.006199306
1.006245119
0.9997001901
1.000070503
1.000708036
1.000502421
0.999328061
0.9992882408
0.9996240295
0.999847991
1.000302601
1.000866716
1.0011259
1.001225915
1.001156845
1.001025313
1.000918171
1.000883863
1.001034372
1.00098508
0.9946543414
0.9953273334
0.9952286613
0.9940788855
0.9938688693
0.9941675781
0.9943292104
0.9947938437
0.9954045183
0.9957482912
0.9959152083
0.9960051882
0.9961425655
0.9962946956
0.99649363
0.9967210403
0.996773481
0.9901448884
0.9907995272
0.9909933987
0.9899509511
0.9896207116
0.990032292
0.9903145475
0.9907762061
0.991392114
0.9917518497
0.9919097608
0.9920230874
0.9922228379
0.9925416299
0.9929947375
0.9933134965
0.9935742598
0.9867264212
0.9874796317
0.9880917078
0.9871892826
0.9868493399
0.987372104
0.9876658832
0.9880501426
0.9886052591
0.9889299017
0.9890247043
0.9890927425
0.9893375799
0.9897572525
0.9903160703
0.9909378239
0.9913539669
0.9842028258
0.9850140263
0.9860491778
0.9853187992
0.985104988
0.9857151211
0.9859700967
0.9862949106
0.9867324039
0.9869916868
0.9871041703
0.9872453263
0.9875461953
0.9879182809
0.9885225334
0.9893221046
0.9896492488
0.989564619
0.9823112922
0.9830084787
0.9844236771
0.9838258948
0.9838485355
0.9845860974
0.9849039455
0.9852499296
0.9856307479
0.9859118296
0.9861544285
0.9864353742
0.9867425316
0.9869789891
0.9874040012
0.9878629048
0.9879335946
0.9875629907
0.9815290988
0.9821470171
0.9837391264
0.9831735831
0.9833775192
0.9841191643
0.9844884121
0.9848827898
0.9853303033
0.9857485561
0.9861606123
0.9864747245
0.9867030082
0.9867794894
0.9868706344
0.9868781348
0.9867041183
0.9863632347
0.9815492753
0.9822100551
0.9839258197
0.9833262555
0.9835057552
0.9842352664
0.9845926311
0.9848956524
0.9852959178
0.985791421
0.9863043085
0.9866433438
0.9868650985
0.9868642699
0.9867463678
0.9867243369
0.9866730207
0.986550826
0.9825660074
0.9844608514
0.9838149139
0.9839110755
0.9846736814
0.9849425896
0.9850219703
0.985269672
0.9857296079
0.9862712971
0.9866212145
0.9869541347
0.9870122923
0.9869511576
0.9871064128
0.9871296954
0.987176411
0.9829044272
0.9850037938
0.9843350254
0.9842681288
0.9850476745
0.9852493251
0.9852196349
0.9853695201
0.9856805954
0.9861918827
0.9865410718
0.9868631728
0.9871225861
0.98732271
0.9876510809
0.9878212457
0.9878082179
0.9831562241
0.9854234653
0.984808948
0.984606435
0.9853189556
0.985440971
0.98533062
0.9853743284
0.9856212262
0.9860725215
0.9864218261
0.9867501965
0.9872335698
0.9876824349
0.9880707087
0.9883439053
0.9884015227
0.9833061315
0.985811366
0.985316464
0.9849532068
0.9856473485
0.9857292271
0.9856082076
0.9856686041
0.9859608436
0.9863530638
0.9867175302
0.9871242186
0.9877761172
0.9882280182
0.9885392114
0.9888288212
0.989024382
0.9841695016
0.9869264313
0.9864580162
0.9861108292
0.9868984321
0.986987839
)
;

boundaryField
{
    inlet
    {
        type            fixedValue;
        value           nonuniform 0();
    }
    outlet
    {
        type            inletOutlet;
        inletValue      nonuniform 0();
        value           nonuniform 0();
    }
    bottom
    {
        type            slip;
    }
    top
    {
        type            slip;
    }
    obstacle
    {
        type            zeroGradient;
    }
    defaultFaces
    {
        type            empty;
    }
    procBoundary22to16
    {
        type            processor;
        value           nonuniform List<scalar> 
20
(
1.111360518
1.110804564
1.110617566
1.110864707
1.111028796
1.110856784
1.115161844
1.113556214
1.11165421
1.111124104
1.111608356
1.111833901
1.111785622
1.112472491
1.112466028
1.112703226
1.112905517
1.112931892
1.112770998
1.112770998
)
;
    }
    procBoundary22to17
    {
        type            processor;
        value           uniform 1.110915365;
    }
    procBoundary22to21
    {
        type            processor;
        value           nonuniform List<scalar> 
35
(
1.115558694
1.11406491
1.11095376
1.10652017
1.099714581
1.091282036
1.084688056
1.084688056
1.076772014
1.069519621
1.062420022
1.055337057
1.047932955
1.041146636
1.041146636
1.034243587
1.027307664
1.020290551
1.012864505
1.005782749
0.9995169953
0.9944112176
0.9944112176
0.9901049284
0.9866736178
0.9840861545
0.9823484024
0.9818745857
0.9821138957
0.9819738085
0.9819738085
0.982467594
0.9827674359
0.9832483773
0.9843212348
)
;
    }
    procBoundary22to23
    {
        type            processor;
        value           nonuniform List<scalar> 
32
(
1.110703222
1.110067086
1.108794038
1.106491802
1.10282848
1.097760537
1.0914183
1.084337926
1.084337926
1.076211591
1.067674372
1.058993488
1.05040553
1.042008767
1.033844765
1.02598233
1.018499338
1.011733775
1.005818729
1.000814196
0.9966308021
0.9936042338
0.9914657922
0.9914657922
0.988587657
0.9867077928
0.9861591538
0.9864865676
0.9872595999
0.9880274609
0.9885535044
0.9890672202
)
;
    }
    procBoundary22to28
    {
        type            processor;
        value           nonuniform List<scalar> 
18
(
0.9869410002
0.9871542057
0.9874146273
0.9876776669
0.9880507032
0.9884751902
0.9889141347
0.9890513753
0.9891652391
0.9894579466
0.9897777795
0.9864628189
0.9892906748
0.9888007729
0.988428929
0.9892599644
0.9869410002
0.9893861175
)
;
    }
}


// ************************************************************************* //
