/*--------------------------------*- C++ -*----------------------------------*\
  =========                 |
  \\      /  F ield         | OpenFOAM: The Open Source CFD Toolbox
   \\    /   O peration     | Website:  https://openfoam.org
    \\  /    A nd           | Version:  7
     \\/     M anipulation  |
\*---------------------------------------------------------------------------*/
FoamFile
{
    version     2.0;
    format      ascii;
    class       volVectorField;
    location    "3";
    object      U;
}
// * * * * * * * * * * * * * * * * * * * * * * * * * * * * * * * * * * * * * //

dimensions      [0 1 -1 0 0 0 0];

internalField   nonuniform List<vector> 
2222
(
(3.200143451 -0.0004603849515 0)
(3.200155847 -0.0006941368607 0)
(3.200009732 -0.001136881539 0)
(3.199641801 -0.001573787925 0)
(3.199248398 -0.001645057278 0)
(3.199070782 -0.001252489049 0)
(3.199148427 -0.0002001308325 0)
(3.19925472 0.001113555927 0)
(3.199397507 0.001121791928 0)
(3.199618088 0.0008015743586 0)
(3.199709362 0.0005210325642 0)
(3.19994263 0.0004591896211 0)
(3.199998342 0.0006884155898 0)
(3.199769918 0.0005040392946 0)
(3.199671275 4.219480187e-05 0)
(3.199395362 -0.0002650404492 0)
(3.198331703 0.0006109646228 0)
(3.199547318 -0.0004735133153 0)
(3.199864045 -0.001701592963 0)
(3.200204643 -0.002023382603 0)
(3.2009631 -0.001672369798 0)
(3.201677856 -0.001793356154 0)
(3.201864638 -0.001894654918 0)
(3.201624067 -0.001512155768 0)
(3.201097981 -0.0009800688355 0)
(3.201121323 -0.0008994440292 0)
(3.201565142 -0.0003582361251 0)
(3.201930028 -0.0001660843909 0)
(3.202217148 -0.0002064644872 0)
(3.202251325 -0.0004631179089 0)
(3.202043726 -0.0007698651575 0)
(3.201638052 -0.0007968871076 0)
(3.20120175 -0.0005788704974 0)
(3.201025592 -8.265603913e-05 0)
(3.20078749 0.0003036442065 0)
(3.200377262 0.000831176333 0)
(3.200161967 0.001031048645 0)
(3.200150482 0.0005664784974 0)
(3.200260271 1.564521265e-05 0)
(3.200435114 -0.0002664128631 0)
(3.200361403 -0.0004840445911 0)
(3.200154797 -0.001378902081 0)
(3.199861961 -0.002141918286 0)
(3.199591063 -0.002328541798 0)
(3.199363092 -0.001786917033 0)
(3.199209675 -0.0004479979529 0)
(3.199091489 0.001064877584 0)
(3.199113192 0.001355975025 0)
(3.19948936 0.001091585222 0)
(3.199751859 0.0007783635074 0)
(3.20003597 0.0009447728476 0)
(3.199935886 0.0005615630877 0)
(3.199801388 0.0003163640756 0)
(3.199654533 -1.371510335e-05 0)
(3.199334557 -0.0002966139789 0)
(3.198109652 -0.0005903962633 0)
(3.199349032 -0.001085140449 0)
(3.199632627 -0.001340172328 0)
(3.199950533 -0.001215312613 0)
(3.200614614 -0.001273032815 0)
(3.20135384 -0.001388155607 0)
(3.201632586 -0.001575813163 0)
(3.201455532 -0.001511461132 0)
(3.200916907 -0.001259719761 0)
(3.2009373 -0.0009630482022 0)
(3.201277756 -0.0003176065376 0)
(3.201594062 0.0004551082482 0)
(3.201836756 0.0005881194039 0)
(3.201912311 0.000323134438 0)
(3.201739097 -0.000240713318 0)
(3.201492926 -0.0006289828189 0)
(3.201117823 -0.0005788398599 0)
(3.200842625 -0.0002694641555 0)
(3.200501978 -5.609476702e-05 0)
(3.200410295 0.0002368059743 0)
(3.200240129 0.0003950223294 0)
(3.200232264 0.0002810440754 0)
(3.200284272 7.735332706e-05 0)
(3.200492951 -0.0003580909601 0)
(3.200428245 -0.0008893768829 0)
(3.200218623 -0.001831512947 0)
(3.199982808 -0.002285145196 0)
(3.199732384 -0.002049448482 0)
(3.1993691 -0.001481179081 0)
(3.198962145 -0.0003490153963 0)
(3.19861628 0.001222274651 0)
(3.198721655 0.001629702241 0)
(3.199006519 0.001425604797 0)
(3.19934159 0.001120292431 0)
(3.199575571 0.0008072475882 0)
(3.199609473 1.674429745e-05 0)
(3.199630285 -0.0001073313948 0)
(3.19947449 -0.0001697292525 0)
(3.19923375 -0.0002464961726 0)
(3.197461057 -0.0007564314427 0)
(3.198528579 -0.000825953328 0)
(3.198984415 -0.0006230702376 0)
(3.199271481 -0.0004388515582 0)
(3.199891532 -0.0007854072805 0)
(3.200563876 -0.0008273413525 0)
(3.200716389 -0.0009639283271 0)
(3.200631727 -0.001137807022 0)
(3.200345072 -0.001164708008 0)
(3.200351647 -0.0007468567511 0)
(3.20074205 -0.0001343390681 0)
(3.201261825 0.0006813085941 0)
(3.201406427 0.001018253986 0)
(3.201284092 0.0007732745563 0)
(3.200927244 0.0001639604276 0)
(3.20062465 -6.599463211e-05 0)
(3.200313984 -7.939466779e-05 0)
(3.200040748 -0.0001575246739 0)
(3.199759812 -0.0002546359336 0)
(3.199758966 -0.0003295313971 0)
(3.199694806 -0.0004462899307 0)
(3.199458006 -0.0001133706514 0)
(3.19949461 -0.0005713870765 0)
(3.199417577 -0.0008162712614 0)
(3.199552134 -0.001257563414 0)
(3.199479962 -0.001645902998 0)
(3.199382933 -0.001747000868 0)
(3.199002689 -0.001375754191 0)
(3.198699075 -0.001171568055 0)
(3.198311706 -0.0001702743462 0)
(3.198078484 0.0008544121668 0)
(3.197849415 0.001646354384 0)
(3.198056521 0.001162976289 0)
(3.198585286 0.0007595650395 0)
(3.198682877 0.0004681050346 0)
(3.198835239 -0.0002932612547 0)
(3.198912351 -0.0004525656289 0)
(3.198820088 -0.0002785745052 0)
(3.198665859 -0.0002796725752 0)
(3.195984336 -0.0005217097917 0)
(3.19699765 -0.0001330220611 0)
(3.197490829 0.000345200667 0)
(3.198021486 0.000358132267 0)
(3.198477518 -5.883861083e-05 0)
(3.199023815 -4.736603118e-05 0)
(3.199266502 -0.000189715821 0)
(3.199249453 -0.0004768179368 0)
(3.199097176 -0.0006752030847 0)
(3.199151907 -0.0002737413658 0)
(3.199519028 0.0001006550459 0)
(3.200058519 0.0004389198017 0)
(3.200163081 0.0009308052245 0)
(3.200090872 0.0008183369777 0)
(3.199633489 0.0005911412428 0)
(3.199230486 0.0003894995279 0)
(3.198952697 0.0002424254848 0)
(3.198718027 7.958910323e-05 0)
(3.19831849 -0.000109102261 0)
(3.198001739 -0.0004826580778 0)
(3.198076351 -0.0006624564249 0)
(3.198243496 -0.0003033380201 0)
(3.19828591 -0.0003447959446 0)
(3.198067654 -0.0002722756849 0)
(3.198026474 -0.0007453211738 0)
(3.197889339 -0.0009751728324 0)
(3.197726564 -0.0009649953253 0)
(3.197238857 -0.0006458269935 0)
(3.19698708 -0.0002836098657 0)
(3.196916363 -2.866894414e-05 0)
(3.196879261 0.0005063018544 0)
(3.196896591 0.001143276894 0)
(3.197042196 0.0007749752238 0)
(3.197054932 0.0004287090313 0)
(3.19741005 9.014192752e-05 0)
(3.197589976 -0.0004036989052 0)
(3.197559559 -0.0005125960319 0)
(3.197377277 -0.0002266371138 0)
(3.197109248 -0.0001729997138 0)
(3.193313414 0.0006685618577 0)
(3.194292367 0.0007816732595 0)
(3.195040876 0.0009344954885 0)
(3.195392901 0.0009054316138 0)
(3.195694712 0.0005682667031 0)
(3.196135335 0.0006195754264 0)
(3.19653372 0.0004387310362 0)
(3.196607417 0.0001596451947 0)
(3.196477001 -0.0001321273062 0)
(3.196510682 0.0001752500716 0)
(3.196724632 0.0004271679594 0)
(3.197030134 0.0004311544058 0)
(3.197223394 0.0005063753202 0)
(3.197351467 0.0005048639916 0)
(3.197113332 0.0006135981213 0)
(3.196795127 0.0006010323376 0)
(3.19649739 0.0004637961582 0)
(3.196160061 0.0001751687281 0)
(3.195581803 3.371101194e-05 0)
(3.195262976 -0.0001579801018 0)
(3.195363818 -0.0004652857931 0)
(3.195709989 -0.0003267355663 0)
(3.195865922 -0.0001252662666 0)
(3.195695165 1.890804161e-05 0)
(3.195321131 -0.0001952735201 0)
(3.195093283 -0.0002171439406 0)
(3.194941082 -1.586217341e-05 0)
(3.1945731 0.000138702259 0)
(3.194234853 0.0003798097763 0)
(3.194048325 0.0004585164823 0)
(3.194049919 0.0001993598077 0)
(3.194626364 -6.600610784e-05 0)
(3.194778818 -0.0005282323781 0)
(3.194723839 -0.0004663187546 0)
(3.194876345 -0.0006070480558 0)
(3.194755828 -0.0007796016958 0)
(3.194659028 -0.0006303404222 0)
(3.194446619 -0.0002867679957 0)
(3.194075037 -6.796074068e-05 0)
(3.188816204 0.001641357919 0)
(3.189707715 0.001233294437 0)
(3.190531548 0.0007621069318 0)
(3.19070367 0.0005062246183 0)
(3.190903514 0.0002689216668 0)
(3.191206032 0.0005777325028 0)
(3.191456274 0.0007188802745 0)
(3.19150579 0.0007102578459 0)
(3.191354913 0.0004062393883 0)
(3.191213536 0.0006227815878 0)
(3.191332634 0.0009442677242 0)
(3.191578406 0.0009542022695 0)
(3.192080954 0.0004950073565 0)
(3.192142651 0.0005581167892 0)
(3.191997187 0.0007159256005 0)
(3.191726561 0.0007862939456 0)
(3.191389582 0.0006671952888 0)
(3.190941994 0.0004303912919 0)
(3.190654929 0.000244293969 0)
(3.190421965 -3.094323535e-05 0)
(3.190402475 -0.0002251323581 0)
(3.190445347 -0.0003851797955 0)
(3.190525421 -0.0003534722258 0)
(3.190476187 -0.0005029343737 0)
(3.190270387 -0.0002337811625 0)
(3.190260353 -1.941701273e-05 0)
(3.190001096 0.001036722155 0)
(3.189820624 0.001406957329 0)
(3.18958553 0.00140506288 0)
(3.189225605 0.0008876692036 0)
(3.189176679 -0.0003127765861 0)
(3.189224274 -0.001290532364 0)
(3.189408311 -0.001428739772 0)
(3.189768183 -0.001410546594 0)
(3.189640719 -0.001240748169 0)
(3.189592302 -0.00115044276 0)
(3.189570674 -0.0008389967372 0)
(3.189424251 -0.0004812079288 0)
(3.18909564 -0.0001893473618 0)
(3.182369817 0.001686323207 0)
(3.183200809 0.0008216071402 0)
(3.1834151 8.392479306e-05 0)
(3.183554736 -0.0005961556839 0)
(3.183804283 -5.353702085e-05 0)
(3.184032466 0.0004546047221 0)
(3.18396907 0.0005464938467 0)
(3.183632962 0.0004163346918 0)
(3.183258112 0.0005060480133 0)
(3.183341268 0.0009357621805 0)
(3.183725357 0.001125565969 0)
(3.184095409 0.001205910705 0)
(3.184193936 0.0009949962933 0)
(3.184315957 0.00071027924 0)
(3.184068749 0.0003841338196 0)
(3.183617423 0.0001636762834 0)
(3.183231925 0.0002824262549 0)
(3.182997067 0.0002637106191 0)
(3.18284301 -0.0001648499417 0)
(3.182920753 -0.0004806198139 0)
(3.183056193 -0.0009648304844 0)
(3.183100388 -0.001220679659 0)
(3.183333702 -0.001392873274 0)
(3.183390239 -0.001007427121 0)
(3.183437603 6.384331603e-05 0)
(3.183150009 0.001207542739 0)
(3.182961018 0.002202327342 0)
(3.18261757 0.002004267037 0)
(3.182274816 0.0008591052969 0)
(3.18216312 -0.000671518568 0)
(3.181953055 -0.001815439069 0)
(3.181900974 -0.001894805856 0)
(3.181945629 -0.001776424993 0)
(3.182077348 -0.001720535736 0)
(3.182307727 -0.001250475591 0)
(3.182385466 -0.0009686690114 0)
(3.18225468 -0.0007309121143 0)
(3.181855712 -7.500165158e-05 0)
(3.172226854 0.001432875751 0)
(3.172945255 6.589498161e-05 0)
(3.17330709 -0.0006956251951 0)
(3.173452156 -0.001580457814 0)
(3.1736195 -0.001157835003 0)
(3.17383375 -0.000380299946 0)
(3.173761827 0.0001351620111 0)
(3.173330993 0.0002411006032 0)
(3.172926592 0.0005836997989 0)
(3.172937791 0.001212071961 0)
(3.173216862 0.001513300789 0)
(3.173619668 0.001355774806 0)
(3.173815806 0.001073426643 0)
(3.174012858 0.0006818592278 0)
(3.17385335 5.63698834e-05 0)
(3.173379419 -0.000141874214 0)
(3.173075446 -6.303237377e-05 0)
(3.172908729 4.695695987e-05 0)
(3.172950323 0.0001543091346 0)
(3.173124414 -1.493473558e-05 0)
(3.173384874 -0.0003323303862 0)
(3.17367897 -0.001069700777 0)
(3.174095531 -0.001046302623 0)
(3.174171746 -0.0002098135699 0)
(3.173946084 0.0009350880016 0)
(3.173714231 0.001810295785 0)
(3.173436154 0.002228763327 0)
(3.173071295 0.001872449373 0)
(3.17270273 0.0005583810494 0)
(3.172290837 -0.001158740398 0)
(3.171983699 -0.002150339526 0)
(3.171950497 -0.002123201237 0)
(3.172015141 -0.00162509461 0)
(3.172271945 -0.001571341974 0)
(3.172548697 -0.001284159828 0)
(3.172601511 -0.0008233209725 0)
(3.172481048 -0.0006417929163 0)
(3.172088636 -0.0001686828968 0)
(3.159716962 0.001244709499 0)
(3.160374995 -0.0001708943724 0)
(3.160786713 -0.001115067461 0)
(3.160906951 -0.002279207819 0)
(3.160944888 -0.002195073933 0)
(3.160926954 -0.001471333337 0)
(3.160842029 -0.0007801789163 0)
(3.160513921 -0.0004203162357 0)
(3.160134672 0.0003143278039 0)
(3.159904249 0.001196494608 0)
(3.160108816 0.001614485702 0)
(3.160624311 0.00158910628 0)
(3.161023959 0.001060439511 0)
(3.161068173 0.0002105665533 0)
(3.160961785 -0.0002986776644 0)
(3.160588915 -0.0001871834529 0)
(3.160486119 8.913629655e-05 0)
(3.160483443 0.0003069660267 0)
(3.160597658 0.0003473247612 0)
(3.160741797 0.000336337862 0)
(3.16106616 -0.0001435562163 0)
(3.161456989 -0.0003388071296 0)
(3.161212851 1.814545887e-06 0)
(3.161075367 0.0008700512752 0)
(3.161090272 0.001576668347 0)
(3.161099961 0.001569644342 0)
(3.161072592 0.001366881144 0)
(3.160793311 0.001050291157 0)
(3.160248351 -6.930765957e-06 0)
(3.159821405 -0.001317597416 0)
(3.159492378 -0.002019139681 0)
(3.159441289 -0.002117890407 0)
(3.159522445 -0.001638992086 0)
(3.159729585 -0.001411582402 0)
(3.159958148 -0.0009263849367 0)
(3.160044895 -0.0004761627293 0)
(3.159849142 -0.0001549444605 0)
(3.159465612 -3.273789626e-05 0)
(3.145712047 0.001319227038 0)
(3.146147737 0.0002586614489 0)
(3.146388525 -0.0008065637971 0)
(3.146190637 -0.001895558816 0)
(3.146360936 -0.002219139678 0)
(3.146218567 -0.002094755518 0)
(3.146032785 -0.001617412974 0)
(3.14570071 -0.001246640991 0)
(3.145018405 -0.0004468910698 0)
(3.144655373 0.0004257352203 0)
(3.144784978 0.001135185626 0)
(3.14543038 0.001349557208 0)
(3.145980238 0.001027373003 0)
(3.146034312 0.0004927749274 0)
(3.145911116 0.0002931955276 0)
(3.145576018 0.0005962736894 0)
(3.145529955 0.0007321506199 0)
(3.145577746 0.0008733037303 0)
(3.145837257 0.0007588297786 0)
(3.146060293 0.0005951727015 0)
(3.146346612 0.0004527434107 0)
(3.146270054 0.0006850991434 0)
(3.145923246 0.001340022942 0)
(3.146007782 0.001447673498 0)
(3.14633846 0.001357721188 0)
(3.146414818 0.0007880637651 0)
(3.146262168 0.0002397571644 0)
(3.146023935 -0.0002609819934 0)
(3.145361703 -0.0006585585569 0)
(3.144898538 -0.001415586864 0)
(3.144587239 -0.001871147451 0)
(3.144365382 -0.001496208469 0)
(3.144384399 -0.0007969717639 0)
(3.144478516 -0.0004165149923 0)
(3.144629495 -5.316417994e-05 0)
(3.144777109 0.000255590178 0)
(3.144639928 0.0003110813218 0)
(3.144330724 -8.121028137e-05 0)
(3.13021423 0.001979626116 0)
(3.130512489 0.001047230282 0)
(3.130460251 -0.0003042287059 0)
(3.130067912 -0.00143641623 0)
(3.130104697 -0.002126893872 0)
(3.130215087 -0.00217858558 0)
(3.130071921 -0.00189106441 0)
(3.129578963 -0.00180608392 0)
(3.128813453 -0.001247742416 0)
(3.12844891 -0.0003515020962 0)
(3.128398286 0.0005884761029 0)
(3.128888694 0.001087525993 0)
(3.129302779 0.001149560354 0)
(3.129361224 0.001075934854 0)
(3.129175457 0.001210680158 0)
(3.129000937 0.001240763391 0)
(3.128992206 0.001047570121 0)
(3.129052792 0.0009684350457 0)
(3.129324371 0.0007678538884 0)
(3.129600821 0.0008643026302 0)
(3.129660252 0.001293843937 0)
(3.129805719 0.001956111836 0)
(3.129993227 0.00218388003 0)
(3.130072539 0.001791647524 0)
(3.130016332 0.001139486058 0)
(3.129721084 0.0004290339644 0)
(3.129174397 -0.0002698210861 0)
(3.128793502 -0.0007601206104 0)
(3.128533594 -0.0009048586095 0)
(3.128052563 -0.00120301665 0)
(3.127461763 -0.000987178648 0)
(3.127302265 -0.0002722988169 0)
(3.127204728 0.000379884901 0)
(3.127212281 0.0006509406965 0)
(3.127360574 0.0007138351935 0)
(3.127597887 0.0005016398967 0)
(3.127625934 0.0002151791716 0)
(3.127479127 -0.0003129706722 0)
(3.113731993 0.00231149285 0)
(3.114028575 0.001646629435 0)
(3.113917234 3.78037981e-05 0)
(3.113489404 -0.0009508480054 0)
(3.113246887 -0.001980735848 0)
(3.113111728 -0.002249835297 0)
(3.112935639 -0.00223368265 0)
(3.112505618 -0.002263148722 0)
(3.11187421 -0.00186014535 0)
(3.111581029 -0.0009022346089 0)
(3.111384029 0.0001575818516 0)
(3.111698068 0.0008783024469 0)
(3.111917843 0.00125345697 0)
(3.11193481 0.001466648293 0)
(3.111665783 0.001690260881 0)
(3.111593533 0.001435117255 0)
(3.111553454 0.001171146559 0)
(3.111617096 0.0008562651297 0)
(3.111681663 0.0009309532468 0)
(3.111761253 0.001412854608 0)
(3.111998427 0.002038004939 0)
(3.112446876 0.002452530925 0)
(3.112440929 0.002550330364 0)
(3.111995377 0.001854873391 0)
(3.11145879 0.0007722971728 0)
(3.110948413 9.147275807e-05 0)
(3.110651744 -0.0003813725925 0)
(3.110481439 -0.0008142668815 0)
(3.110359054 -0.000815501038 0)
(3.109808825 -0.0007667746101 0)
(3.109184381 0.0002715110668 0)
(3.10888592 0.001049097308 0)
(3.108838676 0.001140541848 0)
(3.108958389 0.001182866673 0)
(3.109125114 0.0008409731273 0)
(3.109259579 0.000325069176 0)
(3.109252235 2.296989103e-06 0)
(3.109065798 -0.0002771367529 0)
(3.096953892 0.001964564932 0)
(3.096870066 0.0002587771596 0)
(3.096614881 -0.0008405760718 0)
(3.096109237 -0.001696212086 0)
(3.095723652 -0.001673224115 0)
(3.095276911 -0.001990804371 0)
(3.094777044 -0.002288870791 0)
(3.094255176 -0.002080293284 0)
(3.094133731 -0.001221775728 0)
(3.093938676 -5.144385312e-05 0)
(3.094095946 0.0007560909135 0)
(3.094244159 0.001194339144 0)
(3.094150614 0.001678660278 0)
(3.093797005 0.001993274134 0)
(3.093505555 0.001556077667 0)
(3.093385326 0.00112494093 0)
(3.093259952 0.000954206226 0)
(3.093187747 0.001309435698 0)
(3.093266633 0.001816739466 0)
(3.093587541 0.002113261512 0)
(3.093650545 0.002197806982 0)
(3.093358735 0.001880939739 0)
(3.092857782 0.0009573609405 0)
(3.092338695 -4.69057207e-05 0)
(3.092029443 -0.0005948645664 0)
(3.091840271 -0.0005737345298 0)
(3.091484518 -0.0007144870766 0)
(3.091151898 -0.0006365265561 0)
(3.090772513 0.00011255249 0)
(3.090195228 0.000898417651 0)
(3.089896457 0.001159849866 0)
(3.089767395 0.001144034482 0)
(3.089731316 0.00113172415 0)
(3.089758432 0.0007401383845 0)
(3.089818728 0.0002081044327 0)
(3.089707245 -9.99684448e-06 0)
(3.089533662 -0.0001160363565 0)
(3.089395834 -0.0003360148858 0)
(3.079358893 0.002829599048 0)
(3.079337117 0.0008026071401 0)
(3.079016149 -0.0005809872636 0)
(3.078426317 -0.001267645649 0)
(3.078009577 -0.001147518875 0)
(3.07747806 -0.001058373052 0)
(3.077002752 -0.001154890029 0)
(3.076544586 -0.001111928106 0)
(3.076276795 -0.0006717046505 0)
(3.076010749 6.979228917e-05 0)
(3.07606229 0.0006033927004 0)
(3.075997187 0.001177971841 0)
(3.07575336 0.001866254808 0)
(3.07549218 0.002138224929 0)
(3.07502602 0.001584690674 0)
(3.074649577 0.001216062642 0)
(3.074338432 0.0011991812 0)
(3.074252727 0.001676178918 0)
(3.074214142 0.001667311568 0)
(3.07430008 0.001583245274 0)
(3.074061461 0.001426473352 0)
(3.073740446 0.0006982742336 0)
(3.073483557 -0.0002717244059 0)
(3.073236238 -0.0008442574889 0)
(3.072768502 -0.0009041688835 0)
(3.072219655 -0.0006894061907 0)
(3.071624424 -0.0005040782607 0)
(3.071401181 -0.0001013023919 0)
(3.07110959 0.0009241459257 0)
(3.070687177 0.0008300937417 0)
(3.070306122 0.0008212269726 0)
(3.069811586 0.000917107503 0)
(3.069506352 0.0008862176104 0)
(3.069421409 0.0003392573566 0)
(3.069531631 9.269398967e-05 0)
(3.069515012 2.954594577e-05 0)
(3.069514181 -0.0001149727061 0)
(3.069379077 -0.0004755313412 0)
(3.061373891 0.003612052149 0)
(3.061326756 0.001332175751 0)
(3.0607811 -0.0002342021277 0)
(3.060365774 -0.0009013076285 0)
(3.059838793 -0.0007947690965 0)
(3.059362801 -0.0003525665344 0)
(3.058984056 -0.000190480154 0)
(3.058550475 -0.0002597832871 0)
(3.057997894 2.982965796e-05 0)
(3.057728352 0.0005612081724 0)
(3.057639701 0.001185754904 0)
(3.057432453 0.001647358842 0)
(3.057135322 0.002129063097 0)
(3.05675036 0.002234550681 0)
(3.056112457 0.0016846274 0)
(3.055406188 0.001201864767 0)
(3.055137619 0.001263162695 0)
(3.0548873 0.001533409099 0)
(3.054757631 0.001231588424 0)
(3.054427545 0.001102362551 0)
(3.054094786 0.0005587515991 0)
(3.053800543 -0.0003695663312 0)
(3.053694661 -0.001246684367 0)
(3.053215114 -0.001280620405 0)
(3.05255746 -0.001044164263 0)
(3.0519902 -0.0008565406924 0)
(3.051490922 -0.000344706879 0)
(3.051303307 0.0005340402986 0)
(3.051050388 0.000772279723 0)
(3.050785074 0.0006490274358 0)
(3.050162127 0.0003663864671 0)
(3.049576217 0.0002131679729 0)
(3.04924628 0.0001201628148 0)
(3.049093325 -0.0003656351216 0)
(3.049154228 -0.0002600072929 0)
(3.049320031 -0.0001690501923 0)
(3.049334397 -0.0002439838473 0)
(3.0492018 -0.0004032390262 0)
(3.042979968 0.00373776676 0)
(3.042878361 0.001643593008 0)
(3.042138131 0.0001555202943 0)
(3.041750381 -0.0006377532819 0)
(3.041126817 -0.0006171630914 0)
(3.04075548 -4.434230084e-05 0)
(3.040423381 0.0002788764816 0)
(3.039945029 0.0001136072247 0)
(3.039589184 0.0003651497711 0)
(3.039113083 0.001286065398 0)
(3.038935465 0.002158259846 0)
(3.038670743 0.002527281039 0)
(3.038325807 0.002757081847 0)
(3.037646789 0.002337587567 0)
(3.037074971 0.001776071801 0)
(3.036432381 0.001270520782 0)
(3.036005965 0.001256685459 0)
(3.035317566 0.00116327972 0)
(3.034957733 0.0009955475605 0)
(3.034382696 0.0004534559745 0)
(3.034007095 -0.0005090665401 0)
(3.033886589 -0.001601671214 0)
(3.033407014 -0.001631704202 0)
(3.032889648 -0.001533848288 0)
(3.032336336 -0.001150181896 0)
(3.031731496 -0.0005792032111 0)
(3.031313968 6.950810968e-05 0)
(3.031130742 0.0003957155436 0)
(3.03089505 0.000201634313 0)
(3.030503706 0.000179748306 0)
(3.02992487 -0.000435225029 0)
(3.029442198 -0.0006188329021 0)
(3.029072689 -0.0004705537979 0)
(3.028880871 -0.0004560170624 0)
(3.028924301 -0.000351982559 0)
(3.029193179 -0.0002919991369 0)
(3.029213777 -0.0002276314162 0)
(3.02917886 -0.0001782123733 0)
(3.024503361 0.003370799258 0)
(3.024210738 0.001467402296 0)
(3.023614122 0.0004998403783 0)
(3.023230986 -0.0006103925836 0)
(3.022299648 -0.0008882383062 0)
(3.021607308 -0.0003675156519 0)
(3.021071276 7.687137715e-05 0)
(3.020517475 -0.0001201132552 0)
(3.020352426 0.0002656300357 0)
(3.020110475 0.001250512503 0)
(3.019953891 0.002372881317 0)
(3.019672702 0.00305451217 0)
(3.01919958 0.003006863428 0)
(3.01855956 0.002392960836 0)
(3.01803979 0.00199343941 0)
(3.017448945 0.001720383968 0)
(3.016567891 0.00151935363 0)
(3.015713864 0.0008988100223 0)
(3.014984289 0.0004146992206 0)
(3.014430318 -0.0004656772181 0)
(3.014046165 -0.0016097472 0)
(3.013712314 -0.002068824586 0)
(3.01321957 -0.001881200514 0)
(3.012659762 -0.001731282392 0)
(3.012165139 -0.001309663831 0)
(3.011552558 -0.0006820873779 0)
(3.011370299 -0.0001277536813 0)
(3.011105838 -0.0001031934452 0)
(3.010782267 -0.0003018412716 0)
(3.010314351 -0.0004147429169 0)
(3.009796916 -0.0009015785165 0)
(3.009405532 -0.0007813592323 0)
(3.008962135 -0.0004978370195 0)
(3.008868182 -0.0001134050746 0)
(3.008957669 -9.472642957e-05 0)
(3.009223061 -0.0003040756845 0)
(3.009376301 -0.0001681487486 0)
(3.009466795 2.527430538e-05 0)
(3.005797231 0.002694588693 0)
(3.00529915 0.001230812368 0)
(3.004851223 0.0003373137333 0)
(3.004415394 -0.0007142369312 0)
(3.00311825 -0.0009565687802 0)
(3.002101153 -0.0006884830135 0)
(3.00128689 -0.0005206696526 0)
(3.000592254 -0.0007057217438 0)
(3.000318617 -0.000125835318 0)
(3.000235177 0.001062763474 0)
(3.000298954 0.002167639681 0)
(3.000184976 0.002868534028 0)
(2.999759115 0.002870801157 0)
(2.999235559 0.002567224817 0)
(2.998511907 0.002045935574 0)
(2.997752389 0.001603762287 0)
(2.996756845 0.001156380794 0)
(2.996002543 0.0003809492107 0)
(2.995264884 -0.0002624607623 0)
(2.994816098 -0.001018883691 0)
(2.994509646 -0.001657746525 0)
(2.994375242 -0.001593272698 0)
(2.994019096 -0.001639839115 0)
(2.993350831 -0.001676418605 0)
(2.992702761 -0.001515715147 0)
(2.992196817 -0.001032478898 0)
(2.991788 -0.0006315861 0)
(2.99136365 -0.0008291166027 0)
(2.991038742 -0.0007444629306 0)
(2.990659971 -0.0006978780915 0)
(2.990235777 -0.0006877241055 0)
(2.989895778 -0.0003981121687 0)
(2.989390322 -0.000237318744 0)
(2.989323035 0.0001562526123 0)
(2.989515788 5.166473205e-05 0)
(2.989861151 -0.0001021264505 0)
(2.99008911 3.53328913e-05 0)
(2.990241088 0.0002121137999 0)
(2.986579156 0.002474481949 0)
(2.986246816 0.001752822543 0)
(2.98559912 0.0003228070561 0)
(2.984986254 -0.001008878071 0)
(2.983595439 -0.001419402527 0)
(2.982341123 -0.001219655336 0)
(2.981250444 -0.001175015329 0)
(2.980412258 -0.00142121987 0)
(2.979989749 -0.000918724944 0)
(2.979870672 0.0003152020017 0)
(2.980062992 0.001562931083 0)
(2.980176379 0.002289268212 0)
(2.980014236 0.002469475324 0)
(2.979691204 0.002244442982 0)
(2.979030625 0.001622298752 0)
(2.978339423 0.000922994975 0)
(2.977428877 0.0002966589053 0)
(2.976695876 -0.0001643802036 0)
(2.976164961 -0.0005131952848 0)
(2.97590532 -0.0007750117451 0)
(2.975765304 -0.0009032761807 0)
(2.975744205 -0.0006676536097 0)
(2.975607664 -0.0008383645072 0)
(2.975199224 -0.000825025922 0)
(2.974448909 -0.001016205934 0)
(2.973742237 -0.001016923311 0)
(2.973012818 -0.001198379515 0)
(2.972549895 -0.001063964077 0)
(2.972316175 -0.0007101293561 0)
(2.972083587 -0.0005264403836 0)
(2.97174136 -0.0002383553224 0)
(2.971385174 6.213943626e-05 0)
(2.970914286 0.0001149768949 0)
(2.970835193 0.0004764291683 0)
(2.971072189 0.000301180095 0)
(2.97146679 0.0002926239779 0)
(2.971667463 0.0002783613554 0)
(2.971872238 0.0003740538783 0)
(2.967171208 0.002230550384 0)
(2.966462016 0.0006313087564 0)
(2.965635863 -0.0009716271575 0)
(2.964269453 -0.001500947283 0)
(2.962801555 -0.001440909086 0)
(2.961521601 -0.001548989697 0)
(2.960508653 -0.001872551593 0)
(2.959960633 -0.001405078685 0)
(2.959859673 -0.0003654890538 0)
(2.960162197 0.0008012365609 0)
(2.9605731 0.001561348524 0)
(2.960792857 0.001918393491 0)
(2.960843614 0.001708580069 0)
(2.960493855 0.0008942281769 0)
(2.959965864 0.0002697944032 0)
(2.959264773 -0.0001315487572 0)
(2.958575336 -0.0002939122132 0)
(2.958211251 -0.0004426628381 0)
(2.958105441 -0.000452303019 0)
(2.958040168 -0.0003258264424 0)
(2.958094099 -0.0001555010195 0)
(2.958127545 -7.655753381e-05 0)
(2.95789518 4.559841318e-05 0)
(2.95727387 -8.133321872e-05 0)
(2.956591857 -0.0002945335694 0)
(2.955967107 -0.0005717749612 0)
(2.955582485 -0.0001544580254 0)
(2.955313063 -0.0002186127127 0)
(2.955082955 -0.0001005795045 0)
(2.954803718 0.0001481607969 0)
(2.954391941 0.0004367865367 0)
(2.954018533 0.0005024480081 0)
(2.953970817 0.000667103009 0)
(2.954191024 0.0004282124667 0)
(2.954486061 0.0005543285856 0)
(2.954639411 0.0004710847736 0)
(2.954855072 0.0004646950184 0)
(2.948734859 0.003436641215 0)
(2.94790076 0.001520997116 0)
(2.947229403 -0.0006848012249 0)
(2.945951883 -0.001661936243 0)
(2.944488455 -0.001745139553 0)
(2.94304539 -0.001570428829 0)
(2.941995017 -0.001848044103 0)
(2.941340415 -0.001509153998 0)
(2.941324777 -0.0007032786879 0)
(2.941827961 0.0003795133596 0)
(2.942493783 0.001177315881 0)
(2.943117254 0.001524069722 0)
(2.943674166 0.00127599901 0)
(2.943679896 0.0007034281884 0)
(2.943349387 2.146950602e-05 0)
(2.9428374 -0.0004138125682 0)
(2.942328401 -0.0005542698433 0)
(2.942137985 -0.0004740942264 0)
(2.942219832 -0.0001896818759 0)
(2.942356718 0.0002388228147 0)
(2.942575979 0.0005685747543 0)
(2.942848401 0.0007485319887 0)
(2.942763503 0.001056686193 0)
(2.942391817 0.0012824092 0)
(2.941914521 0.001204760443 0)
(2.941438649 0.0006663737278 0)
(2.940926015 0.000492568733 0)
(2.940450338 0.0003139767153 0)
(2.940088461 0.0003783193577 0)
(2.93990206 0.000531244101 0)
(2.939514671 0.0008710941795 0)
(2.93917596 0.0009223258221 0)
(2.939135708 0.0009057543526 0)
(2.939268896 0.000533202653 0)
(2.939453363 0.0005071284816 0)
(2.939571474 0.0005569468263 0)
(2.93969489 0.0005142935786 0)
(2.931645758 0.004602262353 0)
(2.930916307 0.002609531555 0)
(2.930578956 5.310418455e-05 0)
(2.929657159 -0.001422099895 0)
(2.928606044 -0.00178410322 0)
(2.927333388 -0.001723938481 0)
(2.926450522 -0.002018113819 0)
(2.925789569 -0.001826467091 0)
(2.925735437 -0.001008317267 0)
(2.926192538 0.0003006880797 0)
(2.926955964 0.001037057649 0)
(2.927777627 0.001295349221 0)
(2.92868575 0.001314760535 0)
(2.9290842 0.0008606636622 0)
(2.929023504 0.0001019773207 0)
(2.928717883 -0.0003876631714 0)
(2.928526482 -0.0004317312792 0)
(2.928567648 -7.091657435e-05 0)
(2.928888382 0.0002064702096 0)
(2.929426103 0.0004007140144 0)
(2.929857822 0.0005958468635 0)
(2.930249999 0.001003649828 0)
(2.930304523 0.001347328538 0)
(2.930222066 0.001574067837 0)
(2.929956692 0.001290075134 0)
(2.92948627 0.001039015216 0)
(2.92878737 0.001022129854 0)
(2.927949901 0.0008733403206 0)
(2.927381874 0.0007409626854 0)
(2.927282436 0.0006514924823 0)
(2.927070919 0.000994860707 0)
(2.926846527 0.0009445929736 0)
(2.926761132 0.0005547895222 0)
(2.926824646 0.0002116503379 0)
(2.926874695 0.0002546023623 0)
(2.926914232 0.0002360469891 0)
(2.926839489 0.0001612552306 0)
(2.917254116 0.006122650717 0)
(2.917057921 0.00427243432 0)
(2.916922801 0.001416978354 0)
(2.916475934 -0.0002839550265 0)
(2.916057753 -0.0007156719942 0)
(2.915205374 -0.0009390942011 0)
(2.914526512 -0.001378278526 0)
(2.91398563 -0.001325986936 0)
(2.913805342 -0.0005937539972 0)
(2.914108602 0.0006382896583 0)
(2.914797928 0.001351912151 0)
(2.915491189 0.001676394535 0)
(2.916429422 0.001684469105 0)
(2.917144104 0.0008946535878 0)
(2.917298285 -0.0002711178922 0)
(2.917258778 -0.0005612316037 0)
(2.91731181 -0.0003991914043 0)
(2.917524806 -0.0001098635608 0)
(2.918065679 0.0001882647672 0)
(2.918922467 0.0006406236649 0)
(2.919751943 0.0009566605871 0)
(2.920137085 0.001516773347 0)
(2.920292299 0.00185461314 0)
(2.920292752 0.001961786008 0)
(2.920150575 0.001809630713 0)
(2.919625689 0.001672048301 0)
(2.918830315 0.001678986614 0)
(2.91784686 0.001478883293 0)
(2.91717232 0.001045570526 0)
(2.917032474 0.0006112971718 0)
(2.917008436 0.0006371409174 0)
(2.91699961 0.0001059701823 0)
(2.917008892 -0.0005160080112 0)
(2.917168529 -0.0006397659773 0)
(2.91694045 -0.0003781088262 0)
(2.916863784 -0.0003422404934 0)
(2.916577859 -0.0005234200324 0)
(2.906503791 0.006072600008 0)
(2.906910288 0.004782454309 0)
(2.90739387 0.002482743545 0)
(2.907231135 0.001026220034 0)
(2.907024507 0.0005224342477 0)
(2.906539392 0.0002390066211 0)
(2.906063124 -0.000281736961 0)
(2.905596901 -0.0004077992077 0)
(2.905346126 0.0002929403571 0)
(2.905502901 0.001356030311 0)
(2.906150939 0.002179434945 0)
(2.906759162 0.002421620323 0)
(2.907262588 0.002047771016 0)
(2.90773943 0.0006818411515 0)
(2.907952528 -0.0002385006479 0)
(2.908218878 -0.000221404114 0)
(2.908531188 -0.0001567833814 0)
(2.908809292 2.772556162e-05 0)
(2.909348149 0.0003497962907 0)
(2.910064641 0.0007545371659 0)
(2.91095275 0.001169822456 0)
(2.911537763 0.001536800831 0)
(2.911907889 0.001597676308 0)
(2.911882426 0.001422745141 0)
(2.911625471 0.001392905482 0)
(2.911154117 0.001569977004 0)
(2.910749609 0.001793348219 0)