/*--------------------------------*- C++ -*----------------------------------*\
  =========                 |
  \\      /  F ield         | OpenFOAM: The Open Source CFD Toolbox
   \\    /   O peration     | Website:  https://openfoam.org
    \\  /    A nd           | Version:  7
     \\/     M anipulation  |
\*---------------------------------------------------------------------------*/
FoamFile
{
    version     2.0;
    format      ascii;
    class       volVectorField;
    location    "1.4";
    object      U;
}
// * * * * * * * * * * * * * * * * * * * * * * * * * * * * * * * * * * * * * //

dimensions      [0 1 -1 0 0 0 0];

internalField   nonuniform List<vector> 8((2.965748299 0.07857929045 0) (2.979877044 0.0419780747 0) (2.993945537 0.03392947929 0) (2.993021963 0.03661311301 0) (2.998280586 0.008357467528 0) (2.995941685 0.03547034446 0) (2.999499248 0.0007724946418 0) (2.994604787 0.00767908547 0));

boundaryField
{
    inlet
    {
        type            fixedValue;
        value           nonuniform 0();
    }
    outlet
    {
        type            inletOutlet;
        inletValue      nonuniform 0();
        value           nonuniform 0();
    }
    bottom
    {
        type            slip;
    }
    top
    {
        type            slip;
    }
    obstacle
    {
        type            slip;
    }
    defaultFaces
    {
        type            empty;
    }
    procBoundary33to26
    {
        type            processor;
        value           uniform (2.966723175 0.07474704973 0);
    }
    procBoundary33to27
    {
        type            processor;
        value           nonuniform List<vector> 2((2.960614206 0.01299826795 0) (3.010316822 -0.1128915023 0));
    }
    procBoundary33to32
    {
        type            processor;
        value           nonuniform List<vector> 3((2.9982044 0.003813825762 0) (2.999988535 2.85681147e-05 0) (2.999999975 6.066541581e-08 0));
    }
    procBoundary33to34
    {
        type            processor;
        value           nonuniform List<vector> 4((2.996495299 0.004481497749 0) (2.99772686 0.01684882824 0) (2.989336846 0.02773591715 0) (2.987042254 0.01662426008 0));
    }
}


// ************************************************************************* //
