/*--------------------------------*- C++ -*----------------------------------*\
  =========                 |
  \\      /  F ield         | OpenFOAM: The Open Source CFD Toolbox
   \\    /   O peration     | Website:  https://openfoam.org
    \\  /    A nd           | Version:  7
     \\/     M anipulation  |
\*---------------------------------------------------------------------------*/
FoamFile
{
    version     2.0;
    format      ascii;
    class       volScalarField;
    location    "3.3";
    object      T;
}
// * * * * * * * * * * * * * * * * * * * * * * * * * * * * * * * * * * * * * //

dimensions      [0 0 0 1 0 0 0];

internalField   nonuniform List<scalar> 
2222
(
1.061276964
1.060291229
1.058189659
1.059015936
1.060847072
1.060690897
1.059414087
1.058529293
1.057812343
1.05841101
1.059282232
1.059386537
1.059374082
1.059574507
1.060034092
1.060667749
1.061969492
1.062722601
1.062746222
1.062411075
1.061461489
1.060885065
1.060891481
1.061208059
1.056916796
1.05777858
1.05784996
1.057318044
1.056650546
1.057527775
1.05936819
1.060872779
1.057773231
1.057953628
1.060764005
1.059634337
1.058137816
1.059281364
1.0611948
1.060991219
1.059567271
1.058833585
1.058039991
1.058501922
1.059199088
1.059230674
1.059236733
1.059452339
1.060048187
1.06080572
1.062096487
1.062638411
1.062641838
1.062315189
1.061488556
1.060827272
1.060856878
1.061212313
1.05854337
1.058049791
1.057351754
1.056709175
1.0564079
1.057600201
1.05954434
1.060911682
1.057666022
1.057682331
1.060335733
1.059003867
1.05798559
1.059421066
1.061359947
1.061138042
1.059735055
1.058981272
1.058021371
1.058368207
1.058999744
1.059093398
1.059133599
1.059439433
1.060164
1.060849725
1.061924309
1.062390419
1.062380862
1.062086661
1.061351511
1.060776754
1.060856826
1.061313363
1.059233768
1.059040771
1.057958157
1.056498381
1.056114261
1.057050469
1.059220298
1.060832648
1.057486591
1.058118928
1.06017926
1.058502447
1.057830669
1.059475417
1.061403203
1.061190154
1.059918301
1.058996154
1.057865254
1.058168724
1.058851702
1.059082115
1.059221853
1.05961037
1.060198537
1.060763399
1.061656602
1.062044322
1.062063692
1.061820738
1.061317196
1.060886549
1.060969621
1.061537458
1.058663096
1.058457941
1.058170268
1.057082589
1.056309368
1.056879489
1.05884975
1.060104021
1.057125353
1.058345858
1.060664643
1.05816094
1.057799292
1.059602978
1.061458585
1.061217336
1.060041077
1.058912192
1.057713338
1.058022907
1.058885905
1.059306323
1.059443351
1.059739642
1.06017483
1.060613501
1.061339018
1.061699796
1.061733006
1.061701581
1.061413847
1.061146456
1.061218273
1.061585201
1.055644583
1.056941948
1.057961907
1.057626655
1.057048338
1.057234249
1.059049844
1.05947458
1.056547953
1.058088249
1.061042605
1.058046812
1.057970626
1.059918641
1.061598112
1.061288708
1.060224654
1.05880987
1.057711
1.058131972
1.059097699
1.059596109
1.059596491
1.059774599
1.060164323
1.060453513
1.060940913
1.061382642
1.061542191
1.061589689
1.061476656
1.06131249
1.061260496
1.061430537
1.051823095
1.053378015
1.056610356
1.057663315
1.057858665
1.058145668
1.0593041
1.059168001
1.055775911
1.057811579
1.061039465
1.058045751
1.058221207
1.060384444
1.061799477
1.061458895
1.060320014
1.058819855
1.057957047
1.058454462
1.059188553
1.059706311
1.059672234
1.059758985
1.060068464
1.060239256
1.060570471
1.061122789
1.061421878
1.061501147
1.061516411
1.061330128
1.061186542
1.061200453
1.050976753
1.0541383
1.057487164
1.058358586
1.058799836
1.059744531
1.059158937
1.055199197
1.057341111
1.060980473
1.058068264
1.058350356
1.060936016
1.061887582
1.061521262
1.060210736
1.059013473
1.058256947
1.058614193
1.059172467
1.059682815
1.059636048
1.0596736
1.059898474
1.060081002
1.060433062
1.061040365
1.061370324
1.06149832
1.061505612
1.061254596
1.06100097
1.06092359
1.050703523
1.053517199
1.056805621
1.058558937
1.059112493
1.059922459
1.05954524
1.054756968
1.056597403
1.060775214
1.057968121
1.058307093
1.061370776
1.061971058
1.061483204
1.060011203
1.05912998
1.058384694
1.05868876
1.059139501
1.059624783
1.059590897
1.059607579
1.059768002
1.05996928
1.060328824
1.061003287
1.061408759
1.061562746
1.06146635
1.061094706
1.060662236
1.060386425
1.060227305
1.054297536
1.055058844
1.056883016
1.058041445
1.058843918
1.059661504
1.059405378
1.054458139
1.055934443
1.060498029
1.05768236
1.058267117
1.061672753
1.062050635
1.0614384
1.059841864
1.059088135
1.058302998
1.05863467
1.059077691
1.059580397
1.059652394
1.059620836
1.059692383
1.059908198
1.060339144
1.061162803
1.061554896
1.061629373
1.061375245
1.060824906
1.060025992
1.059616148
1.059567573
1.056381712
1.057943703
1.058544851
1.058239016
1.057922759
1.058138025
1.05902323
1.054132549
1.055546488
1.060407612
1.057208995
1.058182471
1.061847464
1.062027576
1.061275153
1.059787878
1.05886653
1.058175032
1.058576788
1.059019987
1.059624421
1.059892785
1.059644367
1.059636209
1.059879213
1.060499631
1.061396422
1.061645995
1.061592821
1.061272007
1.060460614
1.059414828
1.059186814
1.059310592
1.055882526
1.058294873
1.060182695
1.059344645
1.057462779
1.056913739
1.057808721
1.05372354
1.055342518
1.060437777
1.057059439
1.058143776
1.061949557
1.061964385
1.061124554
1.059655632
1.058623412
1.058136641
1.058709472
1.059188375
1.059882256
1.060057695
1.059643122
1.059597292
1.059908204
1.060701291
1.061440627
1.061631972
1.061536811
1.061061676
1.060007377
1.059199323
1.059048746
1.059188625
1.052109693
1.057315955
1.060182463
1.060066399
1.058355905
1.056848978
1.056510014
1.052945677
1.055203662
1.060887202
1.057022798
1.058163851
1.062015123
1.061911943
1.060943276
1.059389871
1.058452443
1.058285232
1.059079184
1.059605715
1.059813568
1.059983522
1.059594416
1.059585593
1.059961068
1.0607531
1.061382284
1.061569382
1.061428882
1.060806952
1.059832794
1.059145468
1.058949771
1.059058958
1.047737258
1.052784715
1.059060515
1.060041929
1.059111001
1.057956783
1.056070615
1.052353618
1.055429629
1.061804491
1.057179384
1.058389476
1.062086128
1.061875582
1.060729044
1.059164436
1.05862547
1.058639951
1.059416654
1.05986811
1.05972133
1.059824968
1.059555736
1.059618389
1.060028999
1.060817515
1.061351874
1.061493567
1.061268528
1.060694279
1.059817535
1.059163324
1.058941111
1.059016197
1.047119464
1.050728848
1.055636005
1.059515305
1.059248797
1.058451324
1.055885546
1.052095728
1.055714716
1.062331188
1.057324925
1.058659618
1.062213227
1.061931552
1.060567698
1.059089192
1.05906794
1.059078747
1.059662331
1.060014279
1.059645792
1.059748095
1.059627118
1.05975845
1.060120326
1.060894795
1.061311553
1.061443738
1.061213666
1.060668388
1.059856018
1.059255404
1.058971597
1.059042045
1.051000141
1.054171279
1.057110957
1.058323095
1.058530923
1.056514672
1.052357217
1.056069699
1.062727875
1.057402
1.058833869
1.062312624
1.062064168
1.060538526
1.059181059
1.059478968
1.059418791
1.059846586
1.060071293
1.059653235
1.059827959
1.059875365
1.059924231
1.060146312
1.060973869
1.061417996
1.061514763
1.061251557
1.060729303
1.060107101
1.059328891
1.059011817
1.059089342
1.056192477
1.055603268
1.056173017
1.056661423
1.057332899
1.057040235
1.05302747
1.056315849
1.063007555
1.057007724
1.058935715
1.062530134
1.062248896
1.060562594
1.059375185
1.059709794
1.059724235
1.060037101
1.060171444
1.059797374
1.059989874
1.059969405
1.059934635
1.060139898
1.061050365
1.06160909
1.061688466
1.061383
1.060872754
1.060095571
1.059242829
1.05897428
1.059111215
1.058052966
1.059419454
1.057644489
1.05631702
1.055572128
1.057174673
1.053368878
1.05647105
1.063151467
1.056628989
1.059016204
1.062699052
1.062386767
1.060502903
1.059541249
1.05987093
1.060135193
1.060423864
1.060560806
1.060191658
1.060134732
1.060069805
1.060015262
1.060226158
1.061030901
1.061771929
1.061883705
1.061643602
1.061082249
1.060220026
1.059280374
1.058962678
1.05907921
1.057350393
1.060349882
1.060704529
1.058010353
1.055321203
1.057203115
1.053491821
1.056312896
1.063450155
1.056761824
1.059220367
1.062723688
1.062406741
1.060217978
1.059553109
1.059956997
1.060691993
1.061083476
1.061222828
1.060741284
1.06024839
1.060183214
1.060157536
1.060397912
1.061020456
1.061763701
1.061931278
1.061789102
1.06127163
1.060399579
1.059408221
1.059072249
1.05914755
1.051516663
1.059231957
1.061219865
1.060480604
1.056460048
1.057017973
1.052704588
1.055644793
1.064793227
1.056966873
1.05943996
1.062792653
1.062327772
1.060065233
1.059503859
1.060078378
1.061212593
1.061721584
1.061820306
1.061175381
1.060430977
1.060266039
1.06023407
1.060552071
1.061098516
1.061593573
1.061803732
1.061773079
1.061387407
1.060571513
1.059622531
1.059268771
1.059315031
1.037739161
1.05190226
1.060387676
1.060585042
1.059226907
1.056493167
1.051644624
1.055462519
1.068681758
1.058142575
1.06027162
1.062870396
1.062381861
1.060104529
1.059578392
1.060263739
1.061642122
1.062172369
1.062194834
1.061516526
1.060568493
1.060428953
1.060269738
1.06059016
1.061150933
1.061298746
1.061495016
1.061539087
1.06132313
1.060697254
1.059785714
1.059456211
1.059517068
1.02940151
1.046226527
1.05521581
1.060053121
1.060487595
1.056288776
1.05164281
1.055542247
1.072506241
1.059502098
1.061397843
1.063198071
1.062550423
1.060230257
1.059777503
1.060542301
1.062055108
1.062550772
1.062514503
1.061843447
1.060857013
1.060732668
1.060449099
1.060683979
1.061074717
1.061037532
1.061172427
1.061281597
1.061175966
1.060684751
1.059797328
1.059487974
1.059582081
1.032446373
1.045754566
1.051789001
1.056578343
1.060408453
1.056141645
1.051762298
1.056076475
1.074952141
1.060311786
1.062280079
1.063514206
1.062789376
1.060382044
1.060044412
1.060839156
1.062411821
1.062891559
1.062854286
1.062231344
1.061285644
1.061042229
1.060641795
1.060811499
1.061012298
1.060930775
1.060980785
1.061178124
1.061117337
1.060652
1.059712601
1.05935607
1.059438026
1.052024828
1.052473933
1.054933687
1.056955219
1.056397183
1.053112951
1.057220213
1.07622418
1.060638159
1.062782993
1.063796703
1.062935511
1.06031389
1.060090461
1.060891163
1.062536446
1.06317063
1.063154943
1.06271216
1.061760117
1.061260798
1.060753769
1.060907474
1.061099435
1.060949433
1.06089179
1.061159213
1.061131834
1.060615712
1.059642666
1.059274584
1.059330729
1.048722222
1.05798485
1.055331502
1.054644535
1.057784422
1.054407228
1.057980502
1.077061839
1.060939297
1.063338484
1.064021113
1.062684799
1.059877999
1.059733445
1.060615879
1.062302648
1.063392344
1.06344526
1.063182986
1.062126059
1.061476521
1.060941615
1.061146348
1.061342296
1.061101132
1.060867138
1.061091144
1.061086466
1.06055971
1.059727705
1.059401997
1.05944556
1.059652766
1.033083842
1.059477794
1.060294657
1.055303574
1.058756706
1.054811607
1.058288577
1.077565016
1.061006971
1.063775976
1.064019462
1.062322997
1.059554326
1.059499041
1.060451567
1.062126677
1.063643365
1.063791943
1.063588475
1.06243544
1.061681411
1.061210938
1.061511307
1.06163299
1.061305996
1.060879274
1.060846096
1.060804083
1.060471618
1.059881082
1.059620603
1.059654011
1.05983514
0.9801857132
1.056517474
1.062129049
1.059353596
1.059160379
1.054604076
1.05805605
1.077843956
1.060291814
1.063776614
1.064068709
1.062135895
1.059571854
1.059635676
1.060618918
1.062266798
1.063950416
1.064176063
1.063922619
1.062682711
1.061839924
1.061397769
1.061833667
1.061782201
1.061394532
1.060779702
1.060534125
1.060514388
1.060384249
1.060002025
1.059815984
1.059861596
1.060033299
0.9259061127
1.037482754
1.062198014
1.061570392
1.058708324
1.05259781
1.057215019
1.077670417
1.058254124
1.062896892
1.06424356
1.062229006
1.059595782
1.059739299
1.060788321
1.062441966
1.064300601
1.06450382
1.064164237
1.062947898
1.062133418
1.061669034
1.06199466
1.061835104
1.06131653
1.060632087
1.060368095
1.060380224
1.060293893
1.060003894
1.059855748
1.059991976
1.060269966
0.8469621505
1.008891894
1.053996041
1.062575416
1.056439725
1.051117672
1.056993318
1.075275625
1.055703626
1.06168661
1.064499118
1.062324562
1.059593023
1.059892081
1.061097063
1.06273593
1.064595427
1.064753007
1.064256245
1.063223257
1.062477432
1.062019743
1.062256031
1.06192578
1.061154467
1.060598225
1.060478532
1.060498201
1.060338925
1.059959519
1.059828981
1.060019886
1.060478343
0.7441025392
0.9847813342
1.039242957
1.061080351
1.055193832
1.050759184
1.056941771
1.070685875
1.053087526
1.060836509
1.064695723
1.062288667
1.0594575
1.059985728
1.061366668
1.062920768
1.064647761
1.064738201
1.064391009
1.063601355
1.062851433
1.062371638
1.062492403
1.061990015
1.061186652
1.06072038
1.060646974
1.060642477
1.060403763
1.059958536
1.05987999
1.06006589
1.060536071
0.6949085322
0.9201550244
1.028639667
1.052797718
1.055218342
1.051869582
1.058342202
1.066624613
1.050519053
1.060539376
1.064746891
1.06194404
1.059219041
1.05988157
1.061410781
1.062816583
1.064463951
1.064780266
1.064636551
1.063987135
1.063199983
1.062638031
1.062732435
1.062229786
1.061444027
1.060913339
1.060753441
1.060699694
1.060474673
1.060133526
1.060098516
1.060292006
1.060711029
0.8175059629
1.028759371
1.048101773
1.059113927
1.054555241
1.060154029
1.06389799
1.048420234
1.060350409
1.064242264
1.061390807
1.059206393
1.059937964
1.061440557
1.062777541
1.064480236
1.065083072
1.06501456
1.064389701
1.063373427
1.062794312
1.063126734
1.062673571
1.06182805
1.061145908
1.060881127
1.060817482
1.060700492
1.060547833
1.060535111
1.060744906
1.061123338
0.736519785
0.9944027316
1.050296604
1.06167111
1.055544009
1.060562469
1.06192947
1.046714263
1.060062502
1.063674663
1.061263504
1.059501814
1.060355418
1.061833602
1.063129319
1.06490584
1.065747584
1.065499281
1.064673109
1.063595625
1.063018554
1.06351009
1.063104009
1.062251717
1.06154982
1.061185892
1.061128275
1.061117319
1.061137951
1.061183888
1.061433516
1.061848363
0.6941745947
0.8968325832
1.048981496
1.062317833
1.056014493
1.06065541
1.062064435
1.046851552
1.060286009
1.063780274
1.061558391
1.0602725
1.061429783
1.062883655
1.063994451
1.06569242
1.066464851
1.066007481
1.065262891
1.064467708
1.063950476
1.064373195
1.063956357
1.063055859
1.062389463
1.062083069
1.062025385
1.062038204
1.062077714
1.062178634
1.062442196
1.062900856
0.6893783207
0.8095056027
1.03705796
1.060432252
1.054772886
1.060669617
1.062941411
1.048011723
1.061182645
1.064862254
1.062579545
1.061424395
1.062907597
1.064275145
1.065137918
1.066550734
1.067270589
1.067146139
1.066694445
1.066068259
1.065569766
1.066030277
1.065509265
1.064600815
1.064010513
1.063707193
1.06357947
1.063541097
1.063545626
1.063676518
1.063948771
1.064427825
0.689465576
0.7394136793
0.9824459925
1.045590695
1.050753106
1.060478391
1.065164181
1.050463725
1.063739256
1.067150335
1.064595746
1.063642102
1.065129997
1.066243284
1.067295652
1.068583509
1.069499801
1.069461978
1.069016136
1.068406703
1.067834678
1.068324904
1.067828946
1.066902916
1.066224822
1.065800887
1.065585647
1.065445296
1.065468462
1.065628238
1.065923204
1.066415513
0.6897539194
0.6961211322
0.9159063444
1.032548596
1.049187356
1.061815381
1.069780505
1.054360731
1.067887434
1.070961396
1.068570723
1.067555355
1.069195406
1.070064709
1.070765162
1.071874586
1.072766865
1.072591034
1.072085197
1.071548046
1.07077674
1.071051174
1.070443361
1.069522057
1.06883253
1.068160856
1.067764402
1.067447011
1.06742328
1.067560581
1.06780962
1.068322028
0.6905260501
0.6914198555
0.8386031476
1.026726207
1.050865674
1.068969519
1.076395725
1.059387743
1.073148594
1.076339326
1.073968415
1.072087573
1.073535932
1.073866005
1.074302515
1.075168205
1.07610407
1.076058709
1.075614533
1.074922725
1.073887258
1.073745594
1.073020024
1.071939697
1.0708283
1.069740491
1.069200291
1.068845754
1.068772123
1.06888145
1.069113171
1.0695983
0.6916159864
0.6916323868
0.7513921025
1.004755596
1.057909082
1.080719142
1.084018521
1.064320825
1.07685184
1.080253832
1.07804226
1.075565458
1.076709994
1.076519553
1.076822891
1.077584561
1.078527614
1.078219645
1.077668758
1.076833396
1.075855912
1.075401954
1.074475045
1.072975192
1.071579939
1.07048789
1.069953248
1.0695963
1.069478028
1.069520689
1.069662911
1.070051738
0.6922671523
0.6920664397
0.7049239186
0.9289571382
1.063370274
1.091338328
1.088537798
1.067215643
1.078814054
1.081670904
1.079899058
1.077135777
1.077784868
1.077620064
1.077880373
1.078455752
1.079340399
1.079295333
1.078797549
1.077797834
1.076831581
1.076024243
1.074870097
1.073164486
1.071670589
1.070575131
1.070049614
1.069707215
1.069627431
1.069665996
1.069770902
1.070064961
0.6956166752
0.6957610232
0.7526122215
0.9046316377
1.024678278
1.046189525
1.054908344
1.07334534
1.075826636
1.073336318
1.074639391
1.074703717
1.073789712
1.073578827
1.073716317
1.074061868
1.074333868
1.074174021
1.073442719
1.072666305
1.071817041
1.071113845
1.07021528
1.069252845
1.06844832
1.0679124
1.067635316
1.067662856
1.067776584
1.06793861
1.068198856
0.705247951
0.7043861863
0.7043987469
0.7154165697
0.7954776329
0.9140858332
1.003503419
1.037839234
1.046449162
1.05264045
1.066547279
1.067117912
1.063955693
1.062256602
1.062217134
1.063009923
1.06454252
1.065513739
1.065417444
1.064848695
1.064643728
1.065218314
1.06623275
1.066267124
1.065781767
1.065001022
1.064757022
1.064846506
1.065150268
1.065468225
1.065547477
0.7173877493
0.7157142936
0.7157377416
0.7144899449
0.7155959829
0.73564857
0.8154016611
0.9059354698
0.9758829407
1.016424734
1.044044645
1.048411594
1.050084548
1.053375574
1.053740217
1.053709945
1.054667852
1.055494537
1.055574293
1.055532929
1.055676354
1.056232403
1.057188529
1.057349136
1.056994448
1.056354724
1.056323308
1.056523991
1.056943768
1.057302524
1.057371888
0.7283933055
0.7265403347
0.7250880876
0.7248484212
0.7235005066
0.7222270719
0.7243302174
0.7417794108
0.814480799
0.9045910916
0.9877941804
1.014716168
1.03231842
1.043261894
1.042944003
1.044359591
1.046812082
1.046849494
1.04700323
1.047258734
1.047629778
1.048051026
1.048684249
1.048602916
1.048299418
1.047601522
1.04687662
1.046404305
1.046134447
1.046200692
1.046474799
0.7397171749
0.7384100096
0.7355387915
0.735299916
0.7349274142
0.7329412597
0.7314065605
0.7318618838
0.7341310839
0.7579545698
0.8205110809
0.9174935814
0.9851119367
1.025000814
1.028978304
1.035650445
1.039815331
1.040478975
1.041964008
1.041715607
1.041223234
1.040725706
1.040906263
1.040699972
1.040029574
1.039165524
1.038282841
1.037611085
1.03699868
1.03705714
1.037525953
0.7497399293
0.7491186419
0.7464970232
0.7444474454
0.7442602732
0.7430501753
0.7401829158
0.7391010526
0.7380679357
0.7375131161
0.7398072614
0.7694897247
0.8366998646
0.9154382884
0.9743935375
1.021806873
1.029762509
1.031147631
1.034712001
1.03717281
1.036646455
1.035517129
1.033584227
1.033223294
1.033580618
1.033748244
1.033618227
1.033582595
1.033681073
1.033759736
1.034018394
0.7600344584
0.7597375769
0.7581404763
0.7545880605
0.7538611853
0.7533977971
0.7509519196
0.7490927672
0.7487620931
0.7473486569
0.7444671823
0.7448761538
0.7487749473
0.7736358215
0.8431333078
0.9240343009
0.9709331131
0.9967417269
1.023023148
1.026984027
1.027619476
1.02979555
1.029559952
1.029972743
1.031858523
1.033044455
1.032974462
1.032928868
1.033149752
1.03311137
1.032838456
0.7703421578
0.7693339848
0.7685176394
0.7653525037
0.7628215349
0.7623836489
0.7608953628
0.7575407336
0.756398496
0.7559543773
0.7534570215
0.7510319669
0.7507518899
0.7507666778
0.7547816429
0.7774012232
0.8517473783
0.9278809403
0.9960757353
1.009065264
1.022272421
1.032198798
1.030665112
1.031759572
1.034382329
1.034414206
1.033363597
1.032270665
1.032077546
1.031900254
1.03148463
0.7823768528
0.7790591703
0.7785936406
0.7767485266
0.7725847647
0.7714480072
0.7707873062
0.7679188857
0.7652791723
0.76511698
0.7641524448
0.7610737539
0.7594046881
0.7585330104
0.7561215714
0.7561181873
0.7618188388
0.7913869849
0.8565559585
0.9396927064
1.006206224
1.022532484
1.024188224
1.030115718
1.034440842
1.034191782
1.032439752
1.030779877
1.029340668
1.029372969
1.029621607
0.7943846654
0.7893517707
0.7878359566
0.7867555742
0.7830965499
0.7800026305
0.7794655758
0.777807661
0.7740311865
0.7725499337
0.7719408129
0.7695203495
0.7665563615
0.7662732693
0.765131614
0.761599055
0.761082408
0.7620666791
0.767589735
0.8067197008
0.8750036232
0.9416675881
0.9827608444
1.021681909
1.028123928
1.026147687
1.027481487
1.026412279
1.025329374
1.026117116
1.027819509
0.8058141313
0.8013941175
0.7972486066
0.7964042503
0.7942873638
0.7894981793
0.7880055105
0.7872866993
0.7842535574
0.7809590472
0.7804941808
0.7793714207
0.7759465784
0.7742710872
0.7739236653
0.7717870566
0.7684905122
0.7672329925
0.7669795314
0.767590566
0.7747563598
0.813661567
0.88547094
0.9583593861
0.9875046785
1.004864895
1.023332339
1.023349027
1.024246676
1.026275365
1.027723249
0.8156248281
0.8128681593
0.8073653731
0.8053070029
0.8040809747
0.8001537519
0.7963304396
0.7955985506
0.7938619929
0.7897325849
0.7879132417
0.7871498276
0.7845683955
0.7810823738
0.780483329
0.779762298
0.7768363332
0.7744049444
0.7736448691
0.7715418713
0.7704676724
0.7717605177
0.7836341721
0.8203554067
0.8962949897
0.9645128935
1.009950854
1.017188222
1.026459652
1.02895824
1.028067335
0.8252840405
0.8236837418
0.8191986831
0.8143676096
0.8132780044
0.8111497935
0.8059690467
0.803774425
0.8029105334
0.7997903696
0.7958597617
0.7951723282
0.7939971318
0.7902527294
0.7881428996
0.7877203114
0.7859637124
0.7823730511
0.7813226125
0.7803644324
0.7772755027
0.7746278404
0.7751409764
0.7766533464
0.791710691
0.8353115649
0.9035791007
0.9629997496
1.015220048
1.022683885
1.021840566
0.8351438518
0.8332185891
0.8304066704
0.8245095523
0.8217237244
0.8204170256
0.8165766933
0.812105841
0.8109918965
0.8091576949
0.8046541031
0.802368595
0.8016173839
0.799118734
0.7951777476
0.794067824
0.7932026634
0.790260738
0.7874287097
0.7872046341
0.786155142
0.7824483943
0.7804014866
0.7797177881
0.7793673944
0.7812522446
0.7974563315
0.8526718246
0.921708345
0.9680421478
0.9910274056
0.8468620877
0.8425945278
0.8407540213
0.8364037608
0.83068511
0.8290855215
0.8270291753
0.8218751199
0.8189084262
0.8178585835
0.8147349284
0.8100958701
0.8091089177
0.8080039741
0.8042428311
0.8014449323
0.8009104267
0.7992424493
0.7954204262
0.7937776538
0.7932945823
0.7912673331
0.7877650246
0.7864647966
0.7852817273
0.7825776835
0.7825590414
0.7867670769
0.8056005789
0.8645327364
0.9295244233
0.8589422997
0.8523970787
0.8497595703
0.8470508741
0.8412146587
0.8374291696
0.8358764403
0.8321386211
0.8270633594
0.8255891856
0.8238614195
0.8193213593
0.8162423636
0.8153624754
0.8129699827
0.8086389021
0.807076176
0.806186168
0.8033231533
0.7998596933
0.7992899894
0.7984712666
0.7954295861
0.7928170291
0.7923806931
0.7907264521
0.7867840818
0.786210869
0.787042108
0.7926610773
0.8181640553
0.8705039391
0.8643326268
0.8588649667
0.8566237416
0.8527325201
0.8467019464
0.8442623501
0.8421043521
0.8369140904
0.8331455198
0.8320433095
0.8292850476
0.8242515805
0.8224996376
0.8213148869
0.8176458853
0.8140561683
0.8134710809
0.8120512568
0.8081555114
0.8058366657
0.8052353428
0.8035092701
0.7998613895
0.7983909786
0.7979183857
0.7954846019
0.7917616062
0.7906002145
0.7906399231
0.7911148012
0.8803058552
0.875842801
0.8690812872
0.8653649847
0.862625824
0.8571220242
0.8524220648
0.8505881095
0.8471424332
0.8415948774
0.8394401758
0.8377460647
0.8334197414
0.8295726992
0.8284992812
0.826324949
0.8216960552
0.8194862854
0.8186535374
0.8160505088
0.8120123496
0.8109511184
0.8101134374
0.8073377043
0.8040466833
0.8034931585
0.8027723613
0.7999144639
0.7967428073
0.7957666034
0.7941669736
0.8900760955
0.8864229149
0.8809287104
0.8747564644
0.8717431365
0.8680382669
0.8618430419
0.8585671655
0.8564913466
0.8518009409
0.8470493618
0.8454556161
0.8428703928
0.8377201277
0.8353297206
0.834205421
0.8308941682
0.8263465213
0.8253575118
0.8242128412
0.8205592109
0.8174111283
0.8167221087
0.8152100637
0.811482417
0.8092756698
0.8087892073
0.8072738925
0.803663552
0.8019890775
0.8011133005
0.9007555983
0.8959713066
0.8916102606
0.8851030309
0.8803022508
0.877360455
0.8723268618
0.8668066926
0.8644573948
0.861355916
0.8557876403
0.8527375776
0.8509880038
0.8469578041
0.8423312397
0.8409582638
0.8390973459
0.8346257738
0.8314834194
0.8305439298
0.8282851855
0.8238736058
0.8220874088
0.8213687963
0.8189974732
0.8151067372
0.8139826012
0.8133813124
0.8111671852
0.8077103405
0.8068763553
0.9121849065
0.9057426732
0.9014148724
0.8963236028
0.8898755829
0.8860363924
0.8825731384
0.8767495938
0.8723348818
0.8699510004
0.8657176422
0.8604454007
0.858385931
0.8560549678
0.850958786
0.847499037
0.8462927817
0.8435595964
0.838726648
0.8368686026
0.8357699029
0.8324882092
0.8284247515
0.8276316931
0.8265305437
0.8230769651
0.8198980317
0.8191601259
0.8179050458
0.8146164943
0.8120000383
0.9235960989
0.9166559292
0.9109806722
0.9064556298
0.9003864678
0.8946715522
0.8912445184
0.8867336111
0.8808686944
0.8776935729
0.8747380773
0.8693883445
0.8654321935
0.8636005627
0.8600873659
0.854924643
0.8528451908
0.8511445364
0.8470475256
0.8430573997
0.8419279203
0.8400879566
0.8357447517
0.8328132919
0.8320516302
0.8301871291
0.8261352405
0.8241786302
0.8236148631
0.8218078589
0.8181445597
0.9332760654
0.9271593639
0.9205967337
0.9155782229
0.9107269721
0.9045110515
0.8997013703
0.8960891779
0.8907844681
0.885654754
0.8828882073
0.8791019283
0.8734747624
0.8705648995
0.8683958953
0.8638947263
0.8595238713
0.8579393815
0.8555218238
0.850594861
0.8478471628
0.8468796985
0.8443043677
0.8395781061
0.8379406999
0.837081212
0.8342784904
0.8303330754
0.8291573034
0.8281431157
0.8253163136
0.9435340804
0.9378208325
0.9313772872
0.9252229524
0.920344655
0.9147764464
0.90870202
0.9045183121
0.900235377
0.8944091212
0.8903716143
0.887450786
0.882600197
0.8777566253
0.8755140524
0.8724568761
0.8672382549
0.8642964836
0.8626745104
0.8591004237
0.8543287101
0.8527069853
0.8512317968
0.8474412792
0.8434635005
0.842355623
0.8408645669
0.8370317129
0.8339557732
0.8333783219
0.8320462417
0.9528089855
0.9468012392
0.9409035152
0.9345488729
0.9289948619
0.9240773407
0.9182749955
0.9128821482
0.90892003
0.9040753695
0.8985242717
0.8951033752
0.8916465706
0.8862832922
0.882435639
0.8801511199
0.8761401236
0.8710676727
0.8690331061
0.8670493919
0.8625843292
0.8585583668
0.8573097902
0.855296153
0.8507997759
0.8479812279
0.8471556203
0.8450182493
0.8406561239
0.838679827
0.8379711887
0.9625221054
0.956319008
0.9506312165
0.9446995297
0.9385865984
0.9333511512
0.9280659106
0.922090548
0.9172532798
0.9130070972
0.9075095581
0.9026589175
0.8994337079
0.8950912915
0.8898254912
0.886966683
0.8842151476
0.879241619
0.8752611384
0.8735705146
0.8706771208
0.865681353
0.8630514823
0.8616993721
0.8585903702
0.8539864517
0.8522415159
0.8510670704
0.8479129341
0.8437138077
0.8426117429
0.971318332
0.9651905675
0.9592164632
0.9534671592
0.9474271225
0.941654208
0.9365519469
0.9310920658
0.9255073085
0.9210647525
0.9164928566
0.9110192209
0.9068995763
0.9034693635
0.8984804581
0.8938495222
0.8913430851
0.8879507925
0.8826527588
0.8796186389
0.8777540474
0.8740209593
0.8692695341
0.8674526975
0.8657658034
0.8617651109
0.8576978702
0.8566824258
0.8552292251
0.8513307747
0.8479274786
0.9793207793
0.9737594638
0.9679178623
0.9622670191
0.9566455126
0.9508071022
0.9454173144
0.9402944048
0.9346599803
0.929429345
0.9249895821
0.919874075
0.9146565842
0.9109672283
0.9069434093
0.901572933
0.897905627
0.895303444
0.8909604356
0.8861166595
0.8839203088
0.881496316
0.8768072567
0.8730995557
0.8716944257
0.8692640619
0.8645675724
0.861701784
0.8606511568
0.8583019904
0.8538809424
0.9862186678
0.9813422181
0.9759816332
0.9703837986
0.9648559195
0.959177502
0.9534733408
0.9482096102
0.9429368918
0.9374570191
0.9326593931
0.9281235978
0.9228733296
0.9182378326
0.9146709157
0.9101660258
0.9050594582
0.9019729678
0.8989501199
0.8939996757
0.8899766907
0.8880144299
0.884928682
0.8798196659
0.877067667
0.8756403936
0.8725518668
0.8677584141
0.8657840969
0.8645965778
0.8615839521
0.9917648404
0.9877961466
0.9832060365
0.9781024441
0.972788606
0.9674428674
0.9619303737
0.9565480932
0.9514614434
)
;

boundaryField
{
    inlet
    {
        type            fixedValue;
        value           nonuniform 0();
    }
    outlet
    {
        type            inletOutlet;
        inletValue      nonuniform 0();
        value           nonuniform 0();
    }
    bottom
    {
        type            slip;
    }
    top
    {
        type            slip;
    }
    obstacle
    {
        type            zeroGradient;
    }
    defaultFaces
    {
        type            empty;
    }
    procBoundary28to21
    {
        type            processor;
        value           nonuniform List<scalar> 
19
(
1.055820606
1.058645032
1.059260315
1.058908227
1.054907667
1.051362839
1.049873299
1.049873299
1.050709034
1.05453269
1.055490031
1.054366185
1.047416922
1.043535232
1.046128984
1.05213424
1.05213424
1.056339911
1.055282973
)
;
    }
    procBoundary28to22
    {
        type            processor;
        value           nonuniform List<scalar> 
35
(
1.061786887
1.060529843
1.058147649
1.058663128
1.060431758
1.060318263
1.059110034
1.058375449
1.057654915
1.05812815
1.059133743
1.059419428
1.059400336
1.059665358
1.060140951
1.060696675
1.061750578
1.062553625
1.062648817
1.062256911
1.061440119
1.061345794
1.061388791
1.06149301
1.057153634
1.058418798
1.058747565
1.057671059
1.056687693
1.057206615
1.059052049
1.060538893
1.058088
1.058343561
1.058343561
)
;
    }
    procBoundary28to23
    {
        type            processor;
        value           uniform 1.061747704;
    }
    procBoundary28to27
    {
        type            processor;
        value           nonuniform List<scalar> 
55
(
1.049341251
1.022469393
0.9992858842
0.96647528
0.8699874787
1.016597964
1.016597964
0.9489302816
0.8483432532
0.7613134784
0.6984274765
0.6897648656
0.6885364417
0.6880785624
0.688547843
0.688547843
0.6882103329
0.6888777621
0.6894892167
0.6897935459
0.6899269292
0.6908641504
0.6919378516
0.6925753113
0.6959202198
0.6959202198
0.7058964451
0.7183474055
0.7288236286
0.7397789776
0.7504758234
0.7626331909
0.7747198116
0.7866672904
0.7969992317
0.8070989403
0.8169581289
0.8285955698
0.8410744463
0.8533448787
0.8637444178