/*--------------------------------*- C++ -*----------------------------------*\
  =========                 |
  \\      /  F ield         | OpenFOAM: The Open Source CFD Toolbox
   \\    /   O peration     | Website:  https://openfoam.org
    \\  /    A nd           | Version:  7
     \\/     M anipulation  |
\*---------------------------------------------------------------------------*/
FoamFile
{
    version     2.0;
    format      ascii;
    class       volScalarField;
    location    "3.1";
    object      p;
}
// * * * * * * * * * * * * * * * * * * * * * * * * * * * * * * * * * * * * * //

dimensions      [1 -1 -2 0 0 0 0];

internalField   nonuniform List<scalar> 
555
(
0.9972756971
0.9960128283
0.9949359497
0.9948162534
0.9957079369
0.997331782
0.9979354511
0.9984047893
0.9982944456
0.9981842096
0.9980273907
0.9886372909
0.9934040711
0.9923506776
0.9939415439
0.9972206588
0.9984740589
0.9979237658
0.9963792003
0.995706405
0.9954772545
0.996657155
0.9983562791
0.9990174836
0.9991765584
0.998679986
0.9981329433
0.9981663343
0.9893495983
0.9951161383
0.9936725278
0.9944000796
0.997975916
0.9985450425
0.997652794
0.9969466782
0.9966605997
0.9968002332
0.9980859289
1.000058222
1.000481727
1.000284584
0.9994673952
0.9988663808
0.9988857142
0.9900142824
0.9959540103
0.9940175474
0.9939687456
0.9972960604
0.9975549776
0.9973825406
0.9973528712
0.9974380657
0.9980283336
0.9994586654
1.001629928
1.002029229
1.001934716
1.001048921
1.000383167
1.000205521
0.9960984127
0.9936592216
0.9920826252
0.9948251109
0.9959870933
0.9975061986
0.9985859006
0.9986621642
0.9992990739
1.000489552
1.002665415
1.003410564
1.003263325
1.002880337
1.002457946
1.002279173
0.9951731668
0.9916496132
0.9901862094
0.9933565818
0.9956199255
0.9977767967
0.9984632035
0.9981594887
0.9987027692
0.999861506
1.002048086
1.003347187
1.003648049
1.003722279
1.003630109
1.003472913
0.9930693395
0.9899735303
0.9899576488
0.9934913346
0.9959141516
0.9978710029
0.9982582028
0.9977720478
0.9979229651
0.9988596007
1.00075569
1.002098819
1.002945705
1.003642714
1.003821188
1.003662995
0.9934605216
0.9902597211
0.9902654964
0.9939668966
0.9968100343
0.9976214577
0.9974024082
0.9966092196
0.9960265666
0.9962353383
0.9974834794
0.999443151
1.001204967
1.002315095
1.002762814
1.002523691
1.000686616
0.9946145021
0.991237961
0.9912493588
0.9955525908
0.9971731375
0.9971412369
0.9967119708
0.9957798908
0.9945017005
0.9937017984
0.9940488962
0.9956562912
0.997818804
0.9990508125
0.9991421465
0.9983299688
0.9969612021
0.996586506
0.9931434715
0.9931563478
0.9970602891
0.9972138649
0.9969564563
0.9967599078
0.9960706023
0.9946625891
0.9936628296
0.9938117376
0.9949252462
0.9960509731
0.996479526
0.9962302522
0.9960160226
0.9963597411
0.9977376266
0.9941682603
0.9928966882
0.9963478721
0.9968806365
0.9968391481
0.9969462544
0.9963882372
0.9952134474
0.994539389
0.9947731714
0.9957492171
0.9964170076
0.9966692881
0.9963755332
0.9963091981
0.9966380525
0.9976346426
0.9940801212
0.990992801
0.9940452531
0.9958272778
0.9965664839
0.9968034807
0.9963084871
0.9955841591
0.9951641629
0.9954545389
0.9963955737
0.9969809278
0.9974788697
0.9972603354
0.9971441644
0.9973190227
0.992549457
0.9884676028
0.9918959385
0.9949079024
0.9960286084
0.9961862435
0.9958530738
0.9956224117
0.995380202
0.9957158277
0.9968348855
0.9976729215
0.9983908536
0.9984776187
0.9984918826
0.9989602389
0.9896683073
0.9873064332
0.9914703016
0.9946852376
0.9954923114
0.9957509562
0.9955727737
0.9956400631
0.9957940683
0.9968637447
0.9983567576
0.9992364751
1.00020864
1.000930676
1.001131755
1.000880116
0.9891191102
0.9876929194
0.9922406599
0.9949469956
0.995225515
0.9957787997
0.9956024352
0.9957884824
0.9964944405
0.9983373923
1.000185434
1.000992506
1.002241526
1.003459202
1.00370779
1.002720742
0.9903663077
0.9886569232
0.9934130957
0.9954262078
0.9953747802
0.9959230243
0.995848365
0.996361134
0.9975193498
0.9993760342
1.000572261
1.001636083
1.003070179
1.004337425
1.00468559
1.003672532
0.9923406077
0.9896953744
0.9941127106
0.9953397174
0.9954546759
0.9963468196
0.9968893811
0.9976425075
0.9981647134
0.9982502081
0.9989179346
1.000046938
1.001553203
1.002960431
1.003518582
1.003272389
0.9933551286
0.9896972358
0.9936173395
0.9942460332
0.9954803756
0.9972678979
0.9982513376
0.9984768576
0.9981053595
0.9969324699
0.9961702163
0.9971474844
0.9998623532
1.001496446
1.002099675
1.002338123
0.9927729458
0.9877072152
0.9904195612
0.9929323403
0.995437844
0.997298988
0.9980417737
0.9979381304
0.9972107273
0.9947640233
0.9942715558
0.9951290013
0.9973879013
0.99912048
0.9999817332
1.000279321
0.9901985057
0.9857694455
0.9893469234
0.9926973878
0.9947417843
0.9962063615
0.9967518054
0.9962104612
0.9948627235
0.9935002497
0.9930915134
0.9939078275
0.9959329545
0.9975227971
0.9984444675
0.9990083942
0.9883013941
0.9888308928
0.9928550689
0.9927149098
0.9929080562
0.9941894441
0.9949134908
0.9951845836
0.9952398187
0.9952641827
0.9956754822
0.9966041196
0.9981457992
0.9995057829
1.000064541
1.000374978
0.9698444734
0.9945086534
1.001349283
0.993981131
0.9925806686
0.9930883789
0.9931419159
0.9931704781
0.9938822379
0.9951546269
0.9964013414
0.9976817635
0.9983324206
0.9985288887
0.9987097548
0.9988967028
0.899957629
0.9745475263
0.9842810482
0.986569216
0.9935791816
0.9940782663
0.9921841949
0.9922536024
0.9942102478
0.9957054642
0.9974275474
0.997528049
0.9965000485
0.996113811
0.9962233425
0.9966824675
0.7262303113
0.8740528627
0.9261070122
0.9656576907
0.9932539986
0.9921029222
0.9909259805
0.9938258801
0.9960162174
0.9959575349
0.9967109329
0.9958332369
0.9947557723
0.994896092
0.9955506342
0.9966368567
0.582232455
0.6555992273
0.784586026
0.8974848933
0.9779171169
0.9794190878
0.9882121865
0.9961801461
0.9970124722
0.9962947501
0.9952722186
0.9938441817
0.9943350215
0.9956292307
0.9970647029
0.9982656551
0.5564548641
0.5630504403
0.6144870385
0.7085101746
0.8296515053
0.9010087116
0.9756724605
0.9877141899
0.9828976173
0.9902662223
0.9943644721
0.9949766205
0.9960763379
0.997167594
0.9979243986
0.9986189114
0.562573788
0.5621099205
0.5660926228
0.5873349186
0.6492515373
0.7655942693
0.88345175
0.9243033034
0.9548791773
0.9940132745
0.9974093421
0.9957591335
0.9959701957
0.9966520723
0.99779145
0.9976382748
0.5990480321
0.5785840624
0.5694549719
0.5696049908
0.5749123735
0.6112217944
0.6878787922
0.8075588626
0.9138152305
0.9822010328
0.9836463367
0.9876071342
0.9906890719
0.9894424613
0.9928024776
0.995847225
0.629302479
0.6052128489
0.5778702363
0.5768187456
0.5775452994
0.5782176202
0.58898688
0.6438500186
0.7371670944
0.8558570319
0.9093680324
0.9618440041
0.9739380237
0.9801038961
0.9916856729
0.9957602331
0.6682728657
0.657416238
0.6284154758
0.6082334721
0.5992243863
0.587609581
0.5799217391
0.5838883589
0.6099703853
0.6766197577
0.7977287685
0.9202484496
0.9567094364
0.977094473
0.9986224318
0.9981450875
0.7229762705
0.7006380145
0.6720564788
0.6331510536
0.6189913016
0.6097843785
0.5908964891
0.5856285898
0.589285876
0.5996923318
0.6448390234
0.7315232591
0.8419734246
0.9320594604
0.9888880642
0.9857085677
0.7768822316
0.739768558
0.7179701985
0.6877218843
0.6596023029
0.6508301691
0.6322063261
0.6077217734
0.5995406375
0.5948993791
0.5965796315
0.6142795758
0.6854829639
0.7799629533
0.8884037686
0.9272428629
0.8404796453
0.7991891636
0.7717672562
0.7457374132
0.7075833698
0.6792415579
0.6628431819
0.6394138082
0.6164857468
0.608752135
0.6000028727
0.6003461552
0.608512396
0.6455722869
0.7233363123
0.8403622094
0.9069988356
0.8593415582
0.81682274
0.7865541283
0.7545492722
0.7200485361
0.7030303833
0.6864458968
0.6611574365
0.6417952178
0.6272988526
0.612616977
0.6052846848
0.6072495256
0.6231274809
0.6843534498
0.9738090184
0.9201290718
0.8738402484
0.8367912258
0.8075757113
0.7772133536
0.7447221503
0.7217668254
)
;

boundaryField
{
    inlet
    {
        type            fixedValue;
        value           nonuniform 0();
    }
    outlet
    {
        type            zeroGradient;
    }
    bottom
    {
        type            slip;
    }
    top
    {
        type            slip;
    }
    obstacle
    {
        type            zeroGradient;
    }
    defaultFaces
    {
        type            empty;
    }
    procBoundary28to21
    {
        type            processor;
        value           nonuniform List<scalar> 8(0.9894170214 0.990501331 0.9917499608 0.9894665943 0.9894665943 0.987516548 0.98503715 0.9845227004);
    }
    procBoundary28to22
    {
        type            processor;
        value           nonuniform List<scalar> 
18
(
0.996249611
0.9960001576
0.9956962879
0.9957593514
0.9961787812
0.9968857179
0.9973683874
0.99856677
0.9994399862
0.9994820085
0.998668299
0.9880579938
0.9921651966
0.9913399078
0.9927691988
0.9958623416
0.9977552328
0.9977552328
)
;
    }
    procBoundary28to23
    {
        type            processor;
        value           uniform 0.9977888092;
    }
    procBoundary28to27
    {
        type            processor;
        value           nonuniform List<scalar> 
28
(
0.9847923271
0.9854051819
0.9860691089
0.9844111074
0.997181321
0.997181321
0.9952563222
0.9946776858
0.9949140112
0.9964655485
0.9971683576
0.9973658717
0.9954721524
0.9970058169
0.9549361219
0.7960431669
0.6104112151
0.5550915243
0.5600926825
0.5700864055
0.6087522639
0.6460094512
0.6874256228
0.7636989645
0.8266354803
0.8885193311
0.9610107316
1.028720054
)
;
    }
    procBoundary28to29
    {
        type            processor;
        value           nonuniform List<scalar> 
34
(
0.9983166763
0.9990562055
1.000860457
1.002755938
1.003290017
1.003368434
1.003368434
0.9983152731
0.9966635802
0.996674311
0.9969035925
0.9979529447
0.9995106468
1.000982984
1.001706599
1.002247203
1.00236553
1.001644285
1.000268958
0.9992992952
1.000326688
0.9988417775
0.9973958027
0.9980050505
0.9985115406
0.9980754874
0.9965637265
0.9956897236
0.9966027057
0.996127387
0.9888150426
0.9721221754
0.9419044423
0.7765450546
)
;
    }
    procBoundary28to34
    {
        type            processor;
        value           nonuniform List<scalar> 
17
(
0.6955980397
0.6690952482
0.6537382693
0.636354921
0.619320141
0.6097961643
0.6126541376
0.6208652845
1.040475072
0.9847234408
0.9352962246
0.892410973
0.854284781
0.819888446
0.7883735139
0.6955980397
0.7596410122
)
;
    }
}


// ************************************************************************* //
