/*--------------------------------*- C++ -*----------------------------------*\
  =========                 |
  \\      /  F ield         | OpenFOAM: The Open Source CFD Toolbox
   \\    /   O peration     | Website:  https://openfoam.org
    \\  /    A nd           | Version:  7
     \\/     M anipulation  |
\*---------------------------------------------------------------------------*/
FoamFile
{
    version     2.0;
    format      ascii;
    class       volVectorField;
    location    "4.9";
    object      U;
}
// * * * * * * * * * * * * * * * * * * * * * * * * * * * * * * * * * * * * * //

dimensions      [0 1 -1 0 0 0 0];

internalField   nonuniform List<vector> 
2222
(
(3 -1.431730845e-15 0)
(3 -4.1678247e-15 0)
(3 -2.186309242e-15 0)
(3 -2.835543628e-15 0)
(3 -1.395063236e-15 0)
(3 1.047188824e-15 0)
(3 9.45643996e-16 0)
(3 1.381665491e-15 0)
(3 1.136173871e-15 0)
(3 2.025945778e-15 0)
(3 5.627442226e-16 0)
(3 1.32060722e-15 0)
(3 2.129948267e-15 0)
(3 6.580468804e-16 0)
(3 2.694149529e-15 0)
(3 2.494648325e-15 0)
(3 -7.149695379e-16 0)
(3 -4.745929636e-15 0)
(3 -8.601597149e-15 0)
(3 -7.562485892e-15 0)
(3 -7.376838652e-15 0)
(3 -7.034681227e-15 0)
(3 -8.793335752e-15 0)
(3 -9.041871526e-15 0)
(3 -8.090297549e-15 0)
(3 -6.470421492e-15 0)
(3 -6.791143706e-15 0)
(3 -5.05116662e-15 0)
(3 -3.669704113e-15 0)
(3 -3.821393478e-15 0)
(3 -4.530731119e-15 0)
(3 -4.586279195e-15 0)
(3 -7.575493074e-16 0)
(3 6.032393877e-16 0)
(3 2.535985668e-15 0)
(3 2.765229848e-15 0)
(3 3.877273595e-15 0)
(3 4.995938977e-15 0)
(3 5.139696003e-15 0)
(3 2.744610681e-15 0)
(3 5.192133954e-16 0)
(3 2.840592968e-15 0)
(3 9.418778726e-16 0)
(3 -2.734311132e-16 0)
(3 -1.241756023e-15 0)
(3 -1.573657018e-16 0)
(3 -1.206503673e-15 0)
(3 -1.727848128e-15 0)
(3 -1.876108716e-15 0)
(3 -3.723059585e-15 0)
(3 -3.207204026e-15 0)
(3 -1.132677749e-15 0)
(3 2.694491728e-15 0)
(3 3.190058725e-15 0)
(3 2.231261209e-15 0)
(3 1.328649213e-15 0)
(3 -1.257462838e-16 0)
(3 -1.305031112e-16 0)
(3 1.17342919e-15 0)
(3 8.256000241e-16 0)
(3 8.745079235e-16 0)
(3 2.950934543e-15 0)
(3 1.763845572e-15 0)
(3 1.022367716e-15 0)
(3 -7.357931483e-17 0)
(3 -4.800192053e-17 0)
(3 -9.416017403e-16 0)
(3 -3.342374128e-15 0)
(3 -3.124093472e-15 0)
(3 -1.976224633e-15 0)
(3 -1.489598152e-15 0)
(3 2.341056275e-15 0)
(3 3.029814127e-15 0)
(3 2.677384853e-15 0)
(3 6.032702879e-16 0)
(3 -2.330534492e-15 0)
(3 -1.859501138e-15 0)
(3 -9.978334757e-16 0)
(3 1.731668876e-15 0)
(3 7.807928648e-16 0)
(3 1.230696947e-15 0)
(3 -1.881109834e-15 0)
(3 -2.103895983e-15 0)
(3 -4.539483202e-15 0)
(3 -5.035966923e-15 0)
(3 -8.139799957e-15 0)
(3 -8.708521979e-15 0)
(3 -1.042350839e-14 0)
(3 -1.057436597e-14 0)
(3 -1.061166878e-14 0)
(3 -1.042482875e-14 0)
(3 -7.314086949e-15 0)
(3 -8.884050728e-15 0)
(3 -9.472315636e-15 0)
(3 -7.562386525e-15 0)
(3 -5.037912248e-15 0)
(3 -5.144036389e-15 0)
(3 -5.820669996e-15 0)
(3 1.454631109e-15 0)
(3 2.773151147e-15 0)
(3 4.514364186e-15 0)
(3 5.163293914e-15 0)
(3 4.629245231e-15 0)
(3 4.976073612e-15 0)
(3 4.486838298e-15 0)
(3 3.043521371e-15 0)
(3 -1.417180158e-15 0)
(3 -1.181434352e-15 0)
(3 -1.015388438e-15 0)
(3 -2.319943101e-15 0)
(3 -3.098870729e-15 0)
(3 -2.779597532e-15 0)
(3 -5.542818613e-15 0)
(3 -5.257044466e-15 0)
(3 -3.728464351e-15 0)
(3 -2.198857388e-15 0)
(3 -8.90383962e-17 0)
(3 -1.063017627e-15 0)
(3 1.823773646e-15 0)
(3 5.413352266e-15 0)
(3 4.893738462e-15 0)
(3 4.925058527e-15 0)
(3 1.590289075e-15 0)
(3 1.43171836e-15 0)
(3 3.613869827e-15 0)
(3 4.394805768e-15 0)
(3 2.716664285e-15 0)
(3 5.472889958e-15 0)
(3 3.147167524e-15 0)
(3 1.130678394e-15 0)
(3 -1.5797333e-15 0)
(3 -2.519750008e-15 0)
(3 -2.371158148e-16 0)
(3 9.495015826e-16 0)
(3 -4.506217154e-16 0)
(3 1.471133897e-15 0)
(3 1.034854355e-15 0)
(3 5.302729808e-16 0)
(3 -2.433116783e-16 0)
(3 -8.727880457e-16 0)
(3 -3.309154055e-15 0)
(3 -6.923301341e-15 0)
(3 -2.151358845e-15 0)
(3 -3.068467719e-15 0)
(3 -2.269147054e-15 0)
(3 -1.3893346e-15 0)
(3 -1.663627825e-15 0)
(3 -7.016669881e-15 0)
(3 -6.692508968e-15 0)
(3 -5.419057978e-15 0)
(3 -4.317870108e-15 0)
(3 -3.903839959e-15 0)
(3 -5.94545634e-15 0)
(3 -9.161451061e-15 0)
(3 -8.698041839e-15 0)
(3 -9.664391126e-15 0)
(3 -8.345337476e-15 0)
(3 -7.395396375e-15 0)
(3 -5.589307003e-15 0)
(3 -5.80929558e-15 0)
(3 -5.350121461e-15 0)
(3 -6.987977665e-15 0)
(3 -7.209281503e-15 0)
(3 -5.382823287e-15 0)
(3 -1.629285623e-15 0)
(3 3.267887974e-16 0)
(3 1.296174193e-15 0)
(3 1.938512831e-15 0)
(3 2.049785805e-15 0)
(3 -3.484722917e-16 0)
(3 -1.310309952e-15 0)
(3 -7.341998602e-16 0)
(3 -3.878473238e-15 0)
(3 -4.490922448e-15 0)
(3 -1.698507888e-15 0)
(3 2.887245724e-16 0)
(3 1.006730213e-15 0)
(3 -3.503559716e-15 0)
(3 -2.942703158e-15 0)
(3 -2.273365145e-15 0)
(3 3.126560559e-15 0)
(3 5.882740722e-15 0)
(3 8.446737095e-15 0)
(3 5.350280809e-15 0)
(3 3.965662733e-15 0)
(3 4.59492909e-15 0)
(3 7.454894821e-15 0)
(3 8.10754147e-15 0)
(3 6.782507142e-15 0)
(3 8.843733179e-15 0)
(3 1.11539195e-14 0)
(3 1.142663567e-14 0)
(3 9.853030597e-15 0)
(3 1.036571258e-14 0)
(3 8.223930332e-15 0)
(3 4.637380705e-15 0)
(3 -2.298630551e-16 0)
(3 -4.222239359e-15 0)
(3 1.187826471e-15 0)
(3 3.942782102e-15 0)
(3 3.177819439e-15 0)
(3 1.897187789e-15 0)
(3 1.52244091e-15 0)
(3 -9.516862807e-16 0)
(3 -5.49754689e-15 0)
(3 -7.574325995e-15 0)
(3 -5.609629824e-15 0)
(3 -3.50412293e-15 0)
(3 -2.79439392e-15 0)
(3 -3.486180926e-15 0)
(3 -7.657033952e-15 0)
(3 -7.652026055e-15 0)
(3 -6.843308799e-15 0)
(3 -5.767727716e-15 0)
(3 -6.672052103e-15 0)
(3 -6.498391899e-15 0)
(3 -5.128969586e-15 0)
(3 -5.179365505e-15 0)
(3 -5.980182686e-15 0)
(3 -7.699014385e-15 0)
(3 -7.859052289e-15 0)
(3 -6.985962916e-15 0)
(3 -7.364952695e-15 0)
(3 -2.351529643e-15 0)
(3 3.359178401e-15 0)
(3 1.929732143e-15 0)
(3 1.186883194e-16 0)
(3 -2.756396801e-15 0)
(3 -1.944736714e-15 0)
(3 2.721945856e-15 0)
(3 2.310142211e-15 0)
(3 4.801262441e-16 0)
(3 1.344409171e-15 0)
(3 1.940470754e-15 0)
(3 1.131076367e-15 0)
(3 1.777291887e-15 0)
(3 1.879470646e-16 0)
(3 -3.184006472e-15 0)
(3 -1.396526672e-15 0)
(3 7.431812339e-17 0)
(3 -1.391121179e-15 0)
(3 -1.402842887e-16 0)
(3 2.682309686e-15 0)
(3 3.354413866e-15 0)
(3 5.456801599e-15 0)
(3 9.272857106e-15 0)
(3 1.509794192e-14 0)
(3 1.596481392e-14 0)
(3 1.453532517e-14 0)
(3 8.766039832e-15 0)
(3 8.300248063e-15 0)
(3 8.581587569e-15 0)
(3 1.038088324e-14 0)
(3 9.043224706e-15 0)
(3 9.496374411e-15 0)
(3 7.617916941e-15 0)
(3 9.563418832e-15 0)
(3 9.138287403e-15 0)
(3 1.564991118e-14 0)
(3 1.082729012e-14 0)
(3 5.392979998e-15 0)
(3 4.030703328e-15 0)
(3 2.188637379e-15 0)
(3 -2.465764645e-15 0)
(3 1.235719889e-15 0)
(3 6.363328878e-16 0)
(3 -9.209082427e-16 0)
(3 -2.541941553e-15 0)
(3 -1.747450663e-15 0)
(3 -2.98070057e-15 0)
(3 -3.86397893e-15 0)
(3 -3.888097508e-15 0)
(3 -1.847963319e-15 0)
(3 6.29547962e-16 0)
(3 -4.984474849e-15 0)
(3 -3.782004451e-15 0)
(3 -4.979628018e-15 0)
(3 -7.765730025e-15 0)
(3 -7.668276346e-15 0)
(3 -3.962240839e-15 0)
(3 -2.475248741e-15 0)
(3 -3.33375943e-15 0)
(3 -9.972015359e-16 0)
(3 -2.332445053e-15 0)
(3 -2.308163761e-15 0)
(3 -2.224177123e-15 0)
(3 -3.683209116e-15 0)
(3 -4.713577875e-15 0)
(3 -3.643743923e-15 0)
(3 -5.141919619e-16 0)
(3 -6.443300935e-16 0)
(3 5.465547582e-17 0)
(3 2.602223389e-16 0)
(3 1.244370788e-15 0)
(3 2.523599122e-15 0)
(3 2.943916866e-15 0)
(3 1.162387804e-15 0)
(3 1.438681914e-15 0)
(3 6.398007044e-16 0)
(3 5.709953233e-16 0)
(3 2.629126726e-15 0)
(3 3.149647418e-15 0)
(3 5.217645129e-15 0)
(3 3.135743891e-15 0)
(3 1.152688625e-15 0)
(3 -4.550175582e-15 0)
(3 -7.980629448e-15 0)
(3 -5.863127034e-15 0)
(3 -2.649385848e-15 0)
(3 2.010034522e-15 0)
(3 7.607770293e-15 0)
(3 1.044702333e-14 0)
(3 9.391755317e-15 0)
(3 9.906280309e-15 0)
(3 5.228617594e-15 0)
(3 3.332782092e-15 0)
(3 7.229154783e-15 0)
(3 9.016681715e-15 0)
(3 7.540583134e-15 0)
(3 4.597053721e-15 0)
(3 6.249488731e-15 0)
(3 4.855923026e-15 0)
(3 6.304352856e-15 0)
(3 1.039501493e-14 0)
(3 1.260445063e-14 0)
(3 1.035799651e-14 0)
(3 6.271181452e-15 0)
(3 5.293839027e-15 0)
(3 2.733048612e-15 0)
(3 -2.727714916e-15 0)
(3 5.93790731e-16 0)
(3 1.51055242e-15 0)
(3 1.471691967e-15 0)
(3 1.604792086e-16 0)
(3 8.816449104e-16 0)
(3 3.687245691e-16 0)
(3 1.386754241e-15 0)
(3 5.895075809e-15 0)
(3 6.313801431e-15 0)
(3 2.914943899e-15 0)
(3 8.233438131e-16 0)
(3 7.418586314e-16 0)
(3 1.024765568e-15 0)
(3 9.380028901e-16 0)
(3 -8.08219743e-16 0)
(3 -1.550598736e-15 0)
(3 -2.765394004e-15 0)
(3 -2.755342412e-15 0)
(3 -3.954063119e-15 0)
(3 -2.126686778e-15 0)
(3 -2.49279989e-15 0)
(3 -1.794782983e-15 0)
(3 1.377996139e-15 0)
(3 1.044953417e-15 0)
(3 4.176418096e-15 0)
(3 2.320820355e-15 0)
(3 -1.268537591e-15 0)
(3 -1.489467216e-15 0)
(3 3.237147294e-15 0)
(3 4.203919682e-15 0)
(3 5.580523699e-15 0)
(3 4.380031884e-15 0)
(3 4.552330669e-15 0)
(3 7.144392793e-15 0)
(3 4.225940545e-15 0)
(3 3.515195115e-15 0)
(3 2.076153152e-15 0)
(3 -2.35132824e-16 0)
(3 1.286805212e-15 0)
(3 8.82683711e-15 0)
(3 8.37877735e-15 0)
(3 5.309870902e-15 0)
(3 -1.249380406e-15 0)
(3 6.796668822e-17 0)
(3 -3.565459983e-16 0)
(3 1.153093193e-15 0)
(3 3.525815581e-15 0)
(3 6.230855823e-15 0)
(3 3.814386996e-15 0)
(3 1.259941434e-15 0)
(3 -1.286244202e-15 0)
(3 -4.562959695e-16 0)
(3 3.88000605e-15 0)
(3 3.242678256e-15 0)
(3 1.683865992e-15 0)
(3 1.04613581e-15 0)
(3 4.635977005e-15 0)
(3 8.998611494e-15 0)
(3 1.391817211e-14 0)
(3 1.896369338e-14 0)
(3 1.684336492e-14 0)
(3 1.487272079e-14 0)
(3 1.173568068e-14 0)
(3 8.754342387e-15 0)
(3 1.64600531e-15 0)
(3 2.191558001e-16 0)
(3 -1.080018485e-15 0)
(3 -6.873933285e-16 0)
(3 2.569032238e-16 0)
(3 1.006481716e-15 0)
(3 2.12381875e-16 0)
(3 5.745114534e-16 0)
(3 3.636227997e-15 0)
(3 4.111784677e-15 0)
(3 1.669835413e-15 0)
(3 1.662415114e-16 0)
(3 4.630472969e-15 0)
(3 3.677701665e-15 0)
(3 4.054124561e-15 0)
(3 2.943984749e-15 0)
(3 1.285555657e-15 0)
(3 -1.532062382e-15 0)
(3 -2.621479379e-15 0)
(3 -1.390597718e-15 0)
(3 -3.941137602e-15 0)
(3 -3.665419318e-15 0)
(3 -5.017080197e-15 0)
(3 -4.899640855e-15 0)
(3 -2.521318236e-15 0)
(3 -1.89626014e-15 0)
(3 -1.868570996e-16 0)
(3 1.335280617e-15 0)
(3 1.424373871e-15 0)
(3 3.782991921e-15 0)
(3 4.231045393e-15 0)
(3 2.478755363e-15 0)
(3 4.589934869e-15 0)
(3 4.001336713e-15 0)
(3 3.78238902e-15 0)
(3 1.431723115e-15 0)
(3 6.951969578e-16 0)
(3 6.632611869e-16 0)
(3 -9.331389957e-16 0)
(3 -6.126267317e-16 0)
(3 6.958901084e-16 0)
(3 2.852363296e-15 0)
(3 5.52729509e-15 0)
(3 8.937923526e-15 0)
(3 7.169803418e-15 0)
(3 2.392181322e-15 0)
(3 2.456149016e-15 0)
(3 2.788701365e-15 0)
(3 1.901492121e-15 0)
(3 -2.312491225e-16 0)
(3 -3.237196288e-15 0)
(3 -5.814123509e-15 0)
(3 -6.386867841e-15 0)
(3 2.266820587e-15 0)
(3 4.529584061e-16 0)
(3 1.9013021e-15 0)
(3 3.615072679e-15 0)
(3 4.108794916e-15 0)
(3 3.322284819e-15 0)
(3 7.873191171e-15 0)
(3 1.329003498e-14 0)
(3 1.242140831e-14 0)
(3 1.17729579e-14 0)
(3 1.150816635e-14 0)
(3 1.24712039e-14 0)
(3 7.596000363e-15 0)
(3 2.91641978e-15 0)
(3 4.77476959e-15 0)
(3 -3.105307034e-15 0)
(3 -2.197202042e-15 0)
(3 -1.436717242e-15 0)
(3 -9.49988298e-16 0)
(3 -1.786660385e-15 0)
(3 -1.432062835e-15 0)
(3 -2.351721743e-15 0)
(3 -5.162013819e-15 0)
(3 -3.33680921e-15 0)
(3 -2.39892589e-15 0)
(3 -3.192831185e-15 0)
(3 -2.072191321e-15 0)
(3 -1.563915293e-15 0)
(3 -3.274353021e-15 0)
(3 -1.761388775e-15 0)
(3 -1.319832408e-15 0)
(3 -2.366656302e-15 0)
(3 -2.259317499e-15 0)
(3 -3.648694149e-16 0)
(3 -3.981048851e-15 0)
(3 -4.506521195e-15 0)
(3 -3.262510166e-15 0)
(3 -4.681292534e-15 0)
(3 -3.543850092e-15 0)
(3 -1.71736628e-16 0)
(3 1.926548786e-15 0)
(3 3.938516184e-15 0)
(3 6.718885948e-15 0)
(3 5.93990341e-15 0)
(3 3.57828075e-15 0)
(3 6.547617109e-16 0)
(3 4.206336902e-16 0)
(3 -3.596623477e-15 0)
(3 -5.510745408e-15 0)
(3 -5.710609217e-15 0)
(3 -5.721600795e-15 0)
(3 -3.076387507e-15 0)
(3 7.307610197e-16 0)
(3 8.780390349e-16 0)
(3 -2.285589488e-15 0)
(3 -8.615564226e-16 0)
(3 3.046202651e-15 0)
(3 5.042959194e-15 0)
(3 3.179328839e-18 0)
(3 1.042489914e-15 0)
(3 2.006996751e-15 0)
(3 4.001190092e-16 0)
(3 -2.840123639e-15 0)
(3 -3.09462159e-15 0)
(3 -3.686897332e-15 0)
(3 -1.351862352e-16 0)
(3 3.788071841e-15 0)
(3 3.956089706e-15 0)
(3 5.342427157e-15 0)
(3 5.765477608e-15 0)
(3 6.229486554e-15 0)
(3 6.043426613e-15 0)
(3 8.297644705e-15 0)
(3 4.066734242e-15 0)
(3 1.501913287e-15 0)
(3 1.234713765e-15 0)
(3 4.413565795e-15 0)
(3 7.700793733e-15 0)
(3 7.806446144e-15 0)
(3 8.676566146e-15 0)
(3 8.515260216e-15 0)
(3 8.126876551e-16 0)
(3 2.193792201e-15 0)
(3 4.740544415e-16 0)
(3 -2.466515202e-15 0)
(3 -3.37821261e-15 0)
(3 -2.74087476e-15 0)
(3 -7.734309985e-15 0)
(3 -7.584434836e-15 0)
(3 -4.716598364e-15 0)
(3 -1.788401116e-15 0)
(3 -3.603894687e-15 0)
(3 -5.818696272e-15 0)
(3 -7.305435367e-15 0)
(3 -5.464189292e-15 0)
(3 -3.595474997e-15 0)
(3 2.487892359e-16 0)
(3 1.741850527e-15 0)
(3 6.249159166e-16 0)
(3 1.244211304e-15 0)
(3 -3.092450421e-16 0)
(3 5.166235679e-16 0)
(3 1.060082227e-15 0)
(3 9.354524602e-16 0)
(3 3.854887717e-15 0)
(3 5.372858283e-15 0)
(3 6.781481982e-15 0)
(3 7.483770127e-15 0)
(3 5.501199751e-15 0)
(3 1.468294048e-15 0)
(3 8.715090207e-16 0)
(3 -4.028469817e-15 0)
(3 -5.049658501e-15 0)
(3 -3.626687445e-15 0)
(3 -1.423148763e-15 0)
(3 1.318666211e-15 0)
(3 3.626054171e-15 0)
(3 5.507233748e-15 0)
(3 5.486705721e-15 0)
(3 -2.078311199e-15 0)
(3 -3.928710026e-15 0)
(3 -2.247235374e-15 0)
(3 -2.895405818e-15 0)
(3 -1.666021527e-15 0)
(3 -2.071415857e-15 0)
(3 -1.519807439e-15 0)
(3 3.636375021e-16 0)
(3 7.452120657e-16 0)
(3 5.065937047e-15 0)
(3 7.091277432e-15 0)
(3 7.919851958e-15 0)
(3 8.192463505e-15 0)
(3 7.282083563e-15 0)
(3 6.745536994e-15 0)
(3 9.423473285e-15 0)
(3 5.844552397e-15 0)
(3 5.547422302e-15 0)
(3 7.679533686e-15 0)
(3 5.478026261e-15 0)
(3 2.541810759e-15 0)
(3 3.172674363e-15 0)
(3 3.319958078e-15 0)
(3 3.645163844e-15 0)
(3 3.975263665e-15 0)
(3 6.770580835e-15 0)
(3 1.092912602e-14 0)
(3 1.22270999e-14 0)
(3 -1.531412881e-17 0)
(3 -4.863215151e-15 0)
(3 -4.650440921e-15 0)
(3 -5.886341076e-15 0)
(3 -6.148086929e-15 0)
(3 -3.547887801e-15 0)
(3 -2.572453424e-15 0)
(3 -2.859476966e-15 0)
(3 -4.421737185e-15 0)
(3 -4.102948311e-15 0)
(3 -1.778839746e-15 0)
(3 -2.965336123e-15 0)
(3 -4.109315299e-15 0)
(3 -5.285161015e-15 0)
(3 -5.38225533e-15 0)
(3 -2.261997847e-15 0)
(3 -7.280897294e-16 0)
(3 -9.643140851e-16 0)
(3 -3.692454942e-15 0)
(3 -3.317010275e-15 0)
(3 3.361236322e-15 0)
(3 4.419717621e-15 0)
(3 5.57718702e-15 0)
(3 6.962858969e-15 0)
(3 5.193436327e-15 0)
(3 2.963448674e-15 0)
(3 -1.637673137e-15 0)
(3 -2.7538638e-15 0)
(3 -5.962352324e-15 0)
(3 -4.448278966e-15 0)
(3 -7.328064816e-16 0)
(3 -3.738395746e-15 0)
(3 -2.658188422e-15 0)
(3 -4.225608634e-16 0)
(3 2.587160726e-15 0)
(3 7.071947217e-15 0)
(3 8.973729831e-15 0)
(3 6.940538708e-15 0)
(3 2.117782375e-15 0)
(3 -3.023395451e-17 0)
(3 -1.261422208e-15 0)
(3 -1.163590015e-15 0)
(3 -4.488174618e-16 0)
(3 3.751308551e-15 0)
(3 2.32054034e-15 0)
(3 -6.821487392e-16 0)
(3 -1.00120214e-15 0)
(3 7.065661932e-16 0)
(3 5.892460566e-15 0)
(3 1.21904494e-14 0)
(3 1.171982275e-14 0)
(3 1.238302672e-14 0)
(3 1.304826736e-14 0)
(3 8.556496349e-15 0)
(3 9.143620544e-15 0)
(3 7.380090969e-15 0)
(3 6.189276821e-15 0)
(3 2.495458174e-15 0)
(3 2.872555445e-15 0)
(3 1.819865766e-15 0)
(3 3.466740173e-15 0)
(3 2.665406189e-15 0)
(3 9.434575325e-16 0)
(3 1.161704665e-16 0)
(3 1.080605766e-15 0)
(3 3.305700577e-15 0)
(3 -1.051626203e-15 0)
(3 -2.036201945e-15 0)
(3 -2.180460038e-15 0)
(3 -8.645811477e-16 0)
(3 3.242363825e-15 0)
(3 3.330333926e-15 0)
(3 5.260317924e-15 0)
(3 1.748530331e-15 0)
(3 -2.203447496e-15 0)
(3 -4.610699993e-15 0)
(3 -5.380797078e-15 0)
(3 -5.638656447e-15 0)
(3 -1.393205255e-15 0)
(3 2.39759132e-15 0)
(3 3.756386845e-15 0)
(3 3.168800261e-15 0)
(3 2.868843751e-15 0)
(3 3.775720465e-15 0)
(3 4.186642862e-15 0)
(3 3.63872968e-15 0)
(3 2.561620454e-15 0)
(3 1.784305545e-15 0)
(3 2.837378047e-15 0)
(3 2.402285598e-15 0)
(3 8.497723283e-16 0)
(3 -5.239610109e-16 0)
(3 -3.537292089e-15 0)
(3 -4.641932507e-15 0)
(3 -4.04121613e-15 0)
(3 -2.407439265e-15 0)
(3 2.53442325e-15 0)
(3 3.633252578e-15 0)
(3 2.234398655e-15 0)
(3 1.560785055e-15 0)
(3 6.1505398e-17 0)
(3 -2.463527699e-15 0)
(3 -3.682289348e-15 0)
(3 -2.537269154e-15 0)
(3 2.26853225e-15 0)
(3 2.745495602e-15 0)
(3 3.006919845e-16 0)
(3 2.488911708e-16 0)
(3 4.598394504e-15 0)
(3 9.229246458e-15 0)
(3 1.145464371e-14 0)
(3 7.822852316e-15 0)
(3 6.828017493e-15 0)
(3 2.719683279e-15 0)
(3 2.996855648e-15 0)
(3 8.856113602e-15 0)
(3 7.264820505e-15 0)
(3 1.946327369e-15 0)
(3 2.495973389e-15 0)
(3 1.410682214e-15 0)
(3 5.072772418e-17 0)
(3 6.445493821e-16 0)
(3 6.524216752e-16 0)
(3 7.051573572e-16 0)
(3 2.290502063e-15 0)
(3 1.584470881e-15 0)
(3 -2.85365256e-16 0)
(3 5.884157701e-16 0)
(3 2.364124625e-15 0)
(3 -6.524282831e-16 0)
(3 -4.233590023e-15 0)
(3 -2.469593119e-15 0)
(3 1.538264508e-15 0)
(3 4.587354899e-15 0)
(3 2.491245921e-15 0)
(3 3.99116337e-15 0)
(3 5.257793785e-15 0)
(3 5.500515427e-15 0)
(3 3.669274413e-15 0)
(3 4.223605297e-15 0)
(3 3.382952636e-15 0)
(3 1.422517388e-15 0)
(3 -1.874407518e-15 0)
(3 -1.53670305e-15 0)
(3 6.86693202e-17 0)
(3 7.324104318e-15 0)
(3 1.10551101e-14 0)
(3 8.530879392e-15 0)
(3 8.574568609e-15 0)
(3 7.222755247e-15 0)
(3 8.061853237e-15 0)
(3 6.569406919e-15 0)
(3 8.836948005e-16 0)
(3 -3.267428892e-15 0)
(3 -2.990375046e-15 0)
(3 -3.531437447e-15 0)
(3 -1.138212723e-15 0)
(3 -1.116643893e-16 0)
(3 1.841003483e-15 0)
(3 2.983286234e-15 0)
(3 1.738962243e-15 0)
(3 -2.123487896e-17 0)
(3 -1.664902143e-15 0)
(3 1.331963913e-15 0)
(3 3.342043055e-15 0)
(3 1.711922079e-15 0)
(3 7.486102705e-16 0)
(3 -2.181886307e-15 0)
(3 -7.644272584e-15 0)
(3 -6.395542697e-15 0)
(3 -1.623244144e-15 0)
(3 1.460133747e-15 0)
(3 2.536662671e-15 0)
(3 3.720599423e-15 0)
(3 8.730188816e-15 0)
(3 1.523792856e-14 0)
(3 1.221934029e-14 0)
(3 1.060644142e-14 0)
(3 9.119701796e-15 0)
(3 4.762249378e-15 0)
(3 6.619245098e-16 0)
(3 1.111255253e-15 0)
(3 1.756242533e-15 0)
(3 -4.96955932e-15 0)
(3 -5.180300372e-15 0)
(3 -4.637193994e-15 0)
(3 -3.942071997e-15 0)
(3 -4.943641386e-15 0)
(3 -4.351309316e-15 0)
(3 2.159763989e-15 0)
(3 2.117661701e-15 0)
(3 3.841306632e-15 0)
(3 4.049692943e-15 0)
(3 4.517538754e-15 0)
(3 5.618887245e-15 0)
(3 4.252287446e-15 0)
(3 2.472076672e-15 0)
(3 2.954759319e-15 0)
(3 -9.686067136e-17 0)
(3 -2.407297769e-16 0)
(3 2.367926662e-16 0)
(3 -8.660455533e-16 0)
(3 1.120672252e-15 0)
(3 7.500774386e-16 0)
(3 3.29543665e-16 0)
(3 6.863245709e-16 0)
(3 4.252857333e-16 0)
(3 1.513103435e-15 0)
(3 3.354361716e-15 0)
(3 8.230815988e-15 0)
(3 6.90087507e-15 0)
(3 6.363488964e-15 0)
(3 2.811052024e-15 0)
(3 1.334243326e-16 0)
(3 -3.996127975e-16 0)
(3 -2.13378907e-16 0)
(3 1.860448483e-15 0)
(3 4.55542976e-15 0)
(3 4.097124335e-15 0)
(3 2.744224322e-15 0)
(3 -6.78916422e-16 0)
(3 -5.619650933e-16 0)
(3 -9.513830778e-16 0)
(3 -1.367683504e-15 0)
(3 -1.769233831e-15 0)
(3 2.376223976e-16 0)
(3 3.434207962e-16 0)
(3 -7.546438786e-16 0)
(3 -2.442812447e-15 0)
(3 -5.312771417e-15 0)
(3 -3.646424342e-15 0)
(3 -3.17391039e-15 0)
(3 -2.291067912e-15 0)
(3 -4.933778381e-15 0)
(3 -7.395226538e-15 0)
(3 -8.876541015e-15 0)
(3 -7.77921301e-15 0)
(3 -3.681553662e-15 0)
(3 3.160388594e-15 0)
(3 9.478432344e-15 0)
(3 1.13012425e-14 0)
(3 1.096439278e-14 0)
(3 7.737294188e-15 0)
(3 5.973239093e-15 0)
(3 5.540824639e-15 0)
(3 3.588750693e-15 0)
(3 -3.449025236e-15 0)
(3 -6.47748182e-15 0)
(3 -7.77368059e-15 0)
(3 -8.108662736e-15 0)
(3 -9.518599276e-15 0)
(3 -7.117123032e-15 0)
(3 -4.279595506e-15 0)
(3 -4.327959246e-15 0)
(3 -1.133363758e-15 0)
(3 -2.906549089e-16 0)
(3 -1.801186258e-15 0)
(3 -4.95645647e-16 0)
(3 5.188089217e-15 0)
(3 5.711874008e-15 0)
(3 5.035793461e-15 0)
(3 6.688189219e-15 0)
(3 9.05430627e-15 0)
(3 7.378968873e-15 0)
(3 -1.344735345e-15 0)
(3 -3.785129432e-15 0)
(3 -8.011890635e-16 0)
(3 -8.630084308e-16 0)
(3 -3.647069117e-17 0)
(3 -6.354022032e-16 0)
(3 -1.721232567e-15 0)
(3 -5.389503971e-15 0)
(3 -3.768374044e-15 0)
(3 5.219256323e-16 0)
(3 2.536108126e-15 0)
(3 5.277158038e-15 0)
(3 4.675901287e-15 0)
(3 2.81854501e-15 0)
(3 3.773620343e-16 0)
(3 -1.131045715e-15 0)
(3 -1.798687716e-15 0)
(3 7.552209195e-16 0)
(3 2.312584553e-15 0)
(3 3.102310285e-15 0)
(3 8.470003132e-16 0)
(3 -8.687545693e-16 0)
(3 -1.593991632e-15 0)
(3 -2.619080326e-15 0)
(3 -2.218864478e-15 0)
(3 -1.805944443e-15 0)
(3 -1.466682529e-15 0)
(3 -3.375597337e-15 0)
(3 -1.486436437e-15 0)
(3 -2.335132027e-16 0)
(3 -2.423963374e-15 0)
(3 -8.182487736e-15 0)
(3 -7.625096142e-15 0)
(3 -4.359454826e-15 0)
(3 -3.437587705e-15 0)
(3 -3.554147158e-15 0)
(3 -4.97055556e-15 0)
(3 -6.584254734e-15 0)
(3 -6.303335486e-15 0)
(3 -3.800590045e-15 0)
(3 1.82251427e-15 0)
(3 9.400522247e-15 0)
(3 1.222757837e-14 0)
(3 7.940047706e-15 0)
(3 6.180372241e-15 0)
(3 5.262432741e-15 0)
(3 2.412937229e-15 0)
(3 -1.248878056e-15 0)
(3 -3.687761602e-15 0)
(3 -1.025506598e-14 0)
(3 -1.29628935e-14 0)
(3 -1.187128817e-14 0)
(3 -8.873340422e-15 0)
(3 -6.679178544e-15 0)
(3 -5.867407639e-15 0)
(3 -7.048433805e-17 0)
(3 2.951697625e-15 0)
(3 -1.495528958e-16 0)
(3 -3.381914704e-16 0)
(3 5.749374304e-15 0)
(3 5.994450063e-15 0)
(3 7.428706708e-15 0)
(3 7.184911466e-15 0)
(3 6.203437859e-15 0)
(3 5.553496574e-15 0)
(3 5.164541869e-15 0)
(3 -1.44588765e-16 0)
(3 -5.618839709e-16 0)
(3 -2.778929011e-16 0)
(3 3.598016873e-16 0)
(3 -2.917828016e-15 0)
(3 -3.015305665e-15 0)
(3 -2.622773093e-15 0)
(3 -1.425331259e-15 0)
(3 -2.167811352e-15 0)
(3 -3.350059616e-15 0)
(3 -3.939567773e-15 0)
(3 -3.280502273e-15 0)
(3 -2.803878161e-15 0)
(3 -4.016926221e-17 0)
(3 7.753514936e-16 0)
(3 3.577268253e-15 0)
(3 3.024207305e-15 0)
(3 3.748147993e-15 0)
(3 1.266887596e-15 0)
(3 -3.016754888e-16 0)
(3 -9.442848282e-16 0)
(3 -8.556193263e-16 0)
(3 -3.033966692e-15 0)
(3 -5.730326687e-15 0)
(3 -5.183035241e-15 0)
(3 -2.447919111e-15 0)
(3 5.975372119e-16 0)
(3 2.691275927e-15 0)
(3 1.674385018e-15 0)
(3 2.318975629e-15 0)
(3 -2.753881425e-15 0)
(3 -2.110399338e-15 0)
(3 -3.343936249e-15 0)
(3 -2.183427237e-15 0)
(3 -2.382849246e-15 0)
(3 4.818385346e-16 0)
(3 1.627642576e-15 0)
(3 4.247837505e-16 0)
(3 1.481386905e-15 0)
(3 1.937613201e-15 0)
(3 2.764504623e-15 0)
(3 1.956324668e-15 0)
(3 8.260260242e-15 0)
(3 9.237875888e-15 0)
(3 7.424361679e-15 0)
(3 3.18735299e-15 0)
(3 1.908791078e-16 0)
(3 6.962349982e-16 0)
(3 3.488808269e-15 0)
(3 2.960980649e-15 0)
(3 2.419500936e-15 0)
(3 1.476540324e-15 0)
(3 2.007001552e-15 0)
(3 1.478152786e-15 0)
(3 6.509837812e-16 0)
(3 2.569888062e-15 0)
(3 1.548166736e-15 0)
(3 1.923740182e-15 0)
(3 9.007933334e-15 0)
(3 8.18362273e-15 0)
(3 5.657939044e-15 0)
(3 4.903876186e-15 0)
(3 3.401429454e-15 0)
(3 2.4279928e-15 0)
(3 5.693414819e-16 0)
(3 1.430268116e-15 0)
(3 1.528112201e-15 0)
(3 1.50296386e-15 0)
(3 -7.806800607e-17 0)
(3 -6.018518017e-16 0)
(3 -1.496486964e-15 0)
(3 -3.815447327e-15 0)
(3 -3.887852489e-15 0)
(3 -5.234650185e-16 0)
(3 -8.263199662e-16 0)
(3 -2.413128111e-15 0)
(3 -4.524558107e-15 0)
(3 -4.185367763e-15 0)
(3 -2.624628752e-15 0)
(3 -6.042973829e-16 0)
(3 1.23460296e-15 0)
(3 2.124875071e-15 0)
(3 2.434996277e-15 0)
(3 1.325341984e-15 0)
(3 2.148070174e-15 0)
(3 4.091154461e-15 0)
(3 5.118452817e-15 0)
(3 5.106961469e-15 0)
(3 3.957032234e-15 0)
(3 3.708610718e-15 0)
(3 -1.352851231e-16 0)
(3 -1.69718611e-15 0)
(3 -5.323301128e-16 0)
(3 4.128897916e-16 0)
(3 2.36667938e-16 0)
(3 -1.15315098e-15 0)
(3 1.523916301e-15 0)
(3 5.969335394e-15 0)
(3 6.23212544e-15 0)
(3 5.317223072e-15 0)
(3 4.567748634e-15 0)
(3 1.677876297e-15 0)
(3 2.04531061e-16 0)
(3 3.129768973e-15 0)
(3 4.689470691e-15 0)
(3 3.663901607e-15 0)
(3 1.490500499e-15 0)
(3 -3.736511274e-15 0)
(3 -4.296923781e-15 0)
(3 -1.330140392e-15 0)
(3 1.711745182e-15 0)
(3 8.033931662e-16 0)
(3 6.323359293e-15 0)
(3 3.322945236e-15 0)
(3 4.823259134e-15 0)
(3 4.176068469e-15 0)
(3 4.380676259e-15 0)
(3 6.349774854e-15 0)
(3 7.944520224e-15 0)
(3 6.437631699e-15 0)
(3 8.177548801e-15 0)
(3 9.438919983e-15 0)
(3 7.691624309e-15 0)
(3 8.350528512e-15 0)
(3 9.32212618e-15 0)
(3 6.47405322e-15 0)
(3 5.850817377e-15 0)
(3 3.069258401e-15 0)
(3 1.486267623e-15 0)
(3 1.836048436e-15 0)
(3 3.727730021e-15 0)
(3 4.225905493e-15 0)
(3 4.121038934e-16 0)
(3 5.669409968e-16 0)
(3 4.870453096e-16 0)
(3 -6.500140102e-18 0)
(3 -1.140834812e-15 0)
(3 7.448307426e-16 0)
(3 -3.435185609e-16 0)
(3 -1.199948447e-15 0)
(3 -1.716173962e-16 0)
(3 -2.918692482e-16 0)
(3 -1.889817042e-16 0)
(3 -1.488701968e-15 0)
(3 -2.159414412e-15 0)
(3 -5.182583129e-15 0)
(3 -5.78424515e-15 0)
(3 -3.777253557e-15 0)
(3 9.866109807e-16 0)
(3 4.830727658e-16 0)
(3 1.034817941e-15 0)
(3 5.57840977e-15 0)
(3 4.972746503e-15 0)
(3 3.186537073e-15 0)
(3 4.938209854e-15 0)
(3 4.788296155e-15 0)
(3 2.708998703e-15 0)
(3 -2.003042171e-16 0)
(3 -1.827033506e-15 0)
(3 -1.810572687e-15 0)
(3 -1.44421508e-15 0)
(3 4.508952851e-16 0)
(3 6.336001276e-15 0)
(3 6.594771869e-15 0)
(3 8.283097791e-15 0)
(3 9.108549247e-15 0)
(3 7.201048858e-15 0)
(3 7.317541188e-15 0)
(3 5.774315956e-15 0)
(3 5.88608211e-15 0)
(3 3.887263483e-15 0)
(3 2.376010978e-15 0)
(3 2.196086435e-15 0)
(3 -1.876063902e-15 0)
(3 -6.881891101e-15 0)
(3 -7.146733544e-15 0)
(3 -2.161685871e-15 0)
(3 3.079828947e-15 0)
(3 2.935079264e-15 0)
(3 5.816847986e-15 0)
(3 6.413467426e-15 0)
(3 7.798821409e-15 0)
(3 7.065680334e-15 0)
(3 7.890875748e-15 0)
(3 8.922586301e-15 0)
(3 1.050028129e-14 0)
(3 1.319182217e-14 0)
(3 1.179798993e-14 0)
(3 1.067845703e-14 0)
(3 1.018528277e-14 0)
(3 8.42395915e-15 0)
(3 6.004676088e-15 0)
(3 5.211297792e-15 0)
(3 3.868388138e-15 0)
(3 3.150939131e-15 0)
(3 2.782833642e-15 0)
(3 2.143380244e-15 0)
(3 2.985817488e-16 0)
(3 1.997454328e-16 0)
(3 1.380640327e-15 0)
(3 9.256012324e-16 0)
(3 1.408506066e-15 0)
(3 5.853477561e-16 0)
(3 1.1692741e-15 0)
(3 -1.078162571e-16 0)
(3 -2.442646343e-15 0)
(3 -3.548194751e-15 0)
(3 -4.125904617e-15 0)
(3 -3.647072278e-15 0)
(3 -2.047269179e-15 0)
(3 -6.583455222e-15 0)
(3 -7.293115309e-15 0)
(3 -5.373537851e-15 0)
(3 -5.332193116e-16 0)
(3 2.439387046e-15 0)
(3 4.800776898e-15 0)
(3 3.756741696e-15 0)
(3 5.650179077e-15 0)
(3 7.130293226e-15 0)
(3 6.875461403e-15 0)
(3 6.614769836e-15 0)
(3 3.197079266e-15 0)
(3 1.655360792e-15 0)
(3 -1.300344398e-15 0)
(3 -4.63680743e-15 0)
(3 -5.045567572e-15 0)
(3 -2.603350004e-15 0)
(3 3.527229607e-15 0)
(3 2.242029884e-15 0)
(3 3.375451483e-15 0)
(3 3.335646564e-15 0)
(3 3.572998822e-15 0)
(3 3.622317108e-15 0)
(3 4.855997035e-15 0)
(3 4.772058087e-15 0)
(3 2.612217438e-15 0)
(3 6.179324287e-16 0)
(3 1.834690796e-15 0)
(3 6.108830919e-15 0)
(3 5.50519263e-16 0)
(3 -1.54588201e-15 0)
(3 -2.48878218e-15 0)
(3 -3.075283063e-15 0)
(3 -2.139107325e-15 0)
(3 -2.785155004e-15 0)
(3 1.446388526e-16 0)
(3 4.096730773e-16 0)
(3 5.008058906e-15 0)
(3 7.154781749e-15 0)
(3 6.711278593e-15 0)
(3 7.09955232e-15 0)
(3 7.561022066e-15 0)
(3 6.499262509e-15 0)
(3 6.38233488e-15 0)
(3 5.54918539e-15 0)
(3 3.31700433e-15 0)
(3 2.24001664e-15 0)
(3 2.956935196e-15 0)
(3 1.523550838e-15 0)
(3 9.141970386e-16 0)
(3 3.105284133e-15 0)
(3 3.705671768e-15 0)
(3 3.81305647e-16 0)
(3 1.383565151e-15 0)
(3 5.003706068e-16 0)
(3 -1.290645197e-15 0)
(3 -6.838120836e-16 0)
(3 -2.019724184e-15 0)
(3 -2.164163317e-15 0)
(3 -5.689979551e-15 0)
(3 -5.106669813e-15 0)
(3 -3.289718241e-15 0)
(3 -5.0481903e-15 0)
(3 -2.362602762e-15 0)
(3 -2.319377178e-16 0)
(3 1.621429115e-15 0)
(3 2.804206461e-15 0)
(3 2.828569743e-15 0)
(3 3.312934359e-15 0)
(3 3.628635497e-15 0)
(3 2.907105015e-15 0)
(3 2.096657451e-15 0)
(3 3.387179996e-15 0)
(3 4.981579986e-15 0)
(3 9.241110134e-15 0)
(3 1.027450742e-14 0)
(3 7.333392597e-15 0)
(3 5.101433691e-15 0)
(3 3.990154685e-15 0)
(3 -6.477213071e-16 0)
(3 -4.618458491e-15 0)
(3 -3.224235803e-15 0)
(3 -3.358405226e-15 0)
(3 -2.520005469e-15 0)
(3 -3.374226914e-15 0)
(3 -2.114964519e-15 0)
(3 -3.577303101e-15 0)
(3 -4.665662092e-15 0)
(3 -3.990592436e-15 0)
(3 -5.458513213e-15 0)
(3 -2.990344101e-15 0)
(3 -2.078992579e-15 0)
(3 1.890675035e-15 0)
(3 5.323438919e-15 0)
(3 4.795685242e-15 0)
(3 4.363002842e-15 0)
(3 3.055615302e-16 0)
(3 -1.48081443e-15 0)
(3 -4.708345143e-15 0)
(3 -4.808825455e-15 0)
(3 -3.090790701e-15 0)
(3 -2.946512099e-16 0)
(3 -3.388531835e-16 0)
(3 -1.873687171e-15 0)
(3 1.635185651e-15 0)
(3 3.508461196e-15 0)
(3 3.619656366e-15 0)
(3 2.965900386e-15 0)
(3 1.611834782e-15 0)
(3 -1.029464986e-15 0)
(3 -1.508506803e-15 0)
(3 -2.810068339e-15 0)
(3 8.405390641e-16 0)
(3 5.443033988e-15 0)
(3 6.764157203e-15 0)
(3 5.710167821e-15 0)
(3 2.276693815e-15 0)
(3 1.65869577e-15 0)
(3 2.791832223e-15 0)
(3 3.334075693e-15 0)
(3 -1.930176129e-15 0)
(3 -2.853405652e-15 0)
(3 -9.29315828e-16 0)
(3 -5.734613558e-16 0)
(3 -1.078254062e-15 0)
(3 -1.633847654e-16 0)
(3 1.41016533e-15 0)
(3 2.636254265e-15 0)
(3 3.24319049e-15 0)
(3 2.008426673e-15 0)
(3 8.042898454e-16 0)
(3 -6.102238563e-16 0)
(3 -5.228819117e-16 0)
(3 3.830946717e-15 0)
(3 2.566188036e-15 0)
(3 1.294359911e-15 0)
(3 -1.145847575e-15 0)
(3 1.549700219e-16 0)
(3 1.021092983e-15 0)
(3 9.679123264e-16 0)
(3 2.693194771e-15 0)
(3 6.374017248e-15 0)
(3 6.032466698e-15 0)
(3 5.373959468e-15 0)
(3 4.224864116e-15 0)
(3 9.503613781e-16 0)
(3 -4.719744465e-15 0)
(3 -4.121664506e-15 0)
(3 -5.531294771e-15 0)
(3 -7.587345067e-15 0)
(3 -6.103627195e-15 0)
(3 -7.760663715e-15 0)
(3 -8.491767754e-15 0)
(3 -1.079487026e-14 0)
(3 -7.914008694e-15 0)
(3 -5.062221665e-15 0)
(3 4.68811055e-16 0)
(3 5.095329217e-15 0)
(3 6.210640246e-15 0)
(3 3.644042293e-15 0)
(3 1.987407605e-15 0)
(3 5.139338382e-15 0)
(3 4.592387278e-15 0)
(3 1.461007883e-15 0)
(3 -1.127596531e-15 0)
(3 -4.179327447e-15 0)
(3 -2.157878201e-16 0)
(3 1.290353954e-15 0)
(3 1.500790585e-15 0)
(3 9.777802659e-16 0)
(3 3.435320233e-15 0)
(3 3.879113596e-15 0)
(3 1.881276437e-15 0)
(3 -1.91939176e-15 0)
(3 -1.638030392e-15 0)
(3 -1.111278999e-15 0)
(3 1.930752281e-15 0)
(3 2.995718159e-15 0)
(3 3.209067893e-15 0)