/*--------------------------------*- C++ -*----------------------------------*\
  =========                 |
  \\      /  F ield         | OpenFOAM: The Open Source CFD Toolbox
   \\    /   O peration     | Website:  https://openfoam.org
    \\  /    A nd           | Version:  7
     \\/     M anipulation  |
\*---------------------------------------------------------------------------*/
FoamFile
{
    version     2.0;
    format      ascii;
    class       volScalarField;
    location    "5";
    object      rho;
}
// * * * * * * * * * * * * * * * * * * * * * * * * * * * * * * * * * * * * * //

dimensions      [1 -3 0 0 0 0 0];

internalField   nonuniform List<scalar> 5(1.310991541 1.409704318 1.340785338 1.414717041 1.355215104);

boundaryField
{
    inlet
    {
        type            calculated;
        value           nonuniform 0();
    }
    outlet
    {
        type            calculated;
        value           nonuniform 0();
    }
    bottom
    {
        type            calculated;
        value           nonuniform 0();
    }
    top
    {
        type            calculated;
        value           nonuniform 0();
    }
    obstacle
    {
        type            calculated;
        value           nonuniform 0();
    }
    defaultFaces
    {
        type            empty;
    }
    procBoundary16to10
    {
        type            processor;
        value           nonuniform List<scalar> 2(1.300617261 1.411186437);
    }
    procBoundary16to21
    {
        type            processor;
        value           nonuniform List<scalar> 3(1.19920029 1.181994081 1.179514748);
    }
    procBoundary16to22
    {
        type            processor;
        value           nonuniform List<scalar> 3(1.412790423 1.412790423 1.318072467);
    }
    procBoundary16to23
    {
        type            processor;
        value           nonuniform List<scalar> 2(1.386119707 1.382621644);
    }
}


// ************************************************************************* //
