/*--------------------------------*- C++ -*----------------------------------*\
  =========                 |
  \\      /  F ield         | OpenFOAM: The Open Source CFD Toolbox
   \\    /   O peration     | Website:  https://openfoam.org
    \\  /    A nd           | Version:  7
     \\/     M anipulation  |
\*---------------------------------------------------------------------------*/
FoamFile
{
    version     2.0;
    format      ascii;
    class       volScalarField;
    location    "5";
    object      T;
}
// * * * * * * * * * * * * * * * * * * * * * * * * * * * * * * * * * * * * * //

dimensions      [0 0 0 1 0 0 0];

internalField   nonuniform List<scalar> 5(1.014923525 1.04640172 1.027442727 1.050042013 1.031858669);

boundaryField
{
    inlet
    {
        type            fixedValue;
        value           nonuniform 0();
    }
    outlet
    {
        type            inletOutlet;
        inletValue      nonuniform 0();
        value           nonuniform 0();
    }
    bottom
    {
        type            slip;
    }
    top
    {
        type            slip;
    }
    obstacle
    {
        type            zeroGradient;
    }
    defaultFaces
    {
        type            empty;
    }
    procBoundary16to10
    {
        type            processor;
        value           nonuniform List<scalar> 2(1.005384828 1.041529132);
    }
    procBoundary16to21
    {
        type            processor;
        value           nonuniform List<scalar> 3(0.9745868469 0.971452284 0.9707290792);
    }
    procBoundary16to22
    {
        type            processor;
        value           nonuniform List<scalar> 3(1.049079076 1.049079076 1.017123663);
    }
    procBoundary16to23
    {
        type            processor;
        value           nonuniform List<scalar> 2(1.038160433 1.038451677);
    }
}


// ************************************************************************* //
