/*--------------------------------*- C++ -*----------------------------------*\
  =========                 |
  \\      /  F ield         | OpenFOAM: The Open Source CFD Toolbox
   \\    /   O peration     | Website:  https://openfoam.org
    \\  /    A nd           | Version:  7
     \\/     M anipulation  |
\*---------------------------------------------------------------------------*/
FoamFile
{
    version     2.0;
    format      ascii;
    class       volVectorField;
    location    "4";
    object      U;
}
// * * * * * * * * * * * * * * * * * * * * * * * * * * * * * * * * * * * * * //

dimensions      [0 1 -1 0 0 0 0];

internalField   nonuniform List<vector> 
2223
(
(3 -8.377542439e-15 0)
(3 -3.92827475e-15 0)
(3 -2.041945724e-15 0)
(3 -1.449902606e-15 0)
(3 -2.414256105e-15 0)
(3 -4.933083895e-16 0)
(3 -2.272848605e-16 0)
(3 -1.441754479e-16 0)
(3 -3.772038449e-15 0)
(3 -2.370568507e-15 0)
(3 -1.507332726e-15 0)
(3 5.513517563e-18 0)
(3 1.109610599e-15 0)
(3 4.193432785e-16 0)
(3 1.436843022e-16 0)
(3 1.508958257e-16 0)
(3 1.444822395e-16 0)
(3 1.40460176e-17 0)
(3 5.941191928e-16 0)
(3 1.668070563e-15 0)
(3 3.102303225e-15 0)
(3 4.238772978e-15 0)
(3 5.922649265e-15 0)
(3 6.424375336e-15 0)
(3 6.091563019e-15 0)
(3 5.786681225e-15 0)
(3 5.792483816e-15 0)
(3 6.472796068e-15 0)
(3 5.810342298e-15 0)
(3 4.581289701e-15 0)
(3 4.359589849e-15 0)
(3 4.492570009e-15 0)
(3 3.791322621e-15 0)
(3 3.813191858e-15 0)
(3 3.093964593e-15 0)
(3 1.685526979e-15 0)
(3 7.325664469e-16 0)
(3 4.733555699e-16 0)
(3 -4.189021582e-17 0)
(3 -8.167442293e-16 0)
(3 -1.654535052e-15 0)
(3 -1.237945663e-15 0)
(3 -7.09928171e-16 0)
(3 -4.648116274e-16 0)
(3 -5.514952358e-16 0)
(3 -4.495956366e-15 0)
(3 -4.66332303e-15 0)
(3 -3.411775832e-15 0)
(3 -7.029879776e-16 0)
(3 -2.688327823e-16 0)
(3 1.415961043e-15 0)
(3 2.39131083e-15 0)
(3 2.550047983e-15 0)
(3 3.549109532e-15 0)
(3 4.159160407e-15 0)
(3 5.224740228e-15 0)
(3 6.122368202e-15 0)
(3 6.636009779e-15 0)
(3 6.553427573e-15 0)
(3 6.402750168e-15 0)
(3 5.546137537e-15 0)
(3 5.294237728e-15 0)
(3 4.56150278e-15 0)
(3 4.24750616e-15 0)
(3 3.771430869e-15 0)
(3 3.819670289e-15 0)
(3 3.177305069e-15 0)
(3 2.635596444e-15 0)
(3 2.204305434e-15 0)
(3 1.85230891e-15 0)
(3 1.5343346e-15 0)
(3 -3.584564363e-18 0)
(3 -1.265949029e-15 0)
(3 -1.564599399e-15 0)
(3 -1.47702086e-15 0)
(3 -1.418429816e-15 0)
(3 -1.012882379e-15 0)
(3 -9.983373628e-16 0)
(3 -7.013869078e-16 0)
(3 -3.107433361e-16 0)
(3 -1.876253174e-16 0)
(3 -2.80554462e-16 0)
(3 -2.51910922e-16 0)
(3 -5.779010859e-16 0)
(3 -7.811317608e-16 0)
(3 -7.380087814e-16 0)
(3 -9.160190179e-16 0)
(3 -1.241535951e-15 0)
(3 -1.026121433e-15 0)
(3 -1.557268904e-15 0)
(3 -2.251166668e-15 0)
(3 -2.756288555e-15 0)
(3 -2.686726064e-15 0)
(3 -2.223056887e-15 0)
(3 -1.243376639e-15 0)
(3 -5.741188677e-16 0)
(3 -4.729741141e-16 0)
(3 -1.282715791e-15 0)
(3 -2.076148609e-15 0)
(3 -2.753460991e-15 0)
(3 -3.201983096e-15 0)
(3 -3.056760346e-15 0)
(3 -1.932812749e-15 0)
(3 1.371375579e-15 0)
(3 2.275336333e-15 0)
(3 2.239057565e-15 0)
(3 1.971758712e-15 0)
(3 1.831173945e-15 0)
(3 1.965916542e-15 0)
(3 3.33855249e-15 0)
(3 3.216573235e-15 0)
(3 -2.729349673e-15 0)
(3 -2.082021881e-15 0)
(3 -7.286862258e-16 0)
(3 -1.109563711e-16 0)
(3 3.124383546e-16 0)
(3 3.394002883e-16 0)
(3 1.453790537e-15 0)
(3 2.624817625e-15 0)
(3 3.008023768e-15 0)
(3 4.17056777e-15 0)
(3 6.022181405e-15 0)
(3 6.273588874e-15 0)
(3 5.640510004e-15 0)
(3 4.837710856e-15 0)
(3 4.626268663e-15 0)
(3 4.559839885e-15 0)
(3 4.026333098e-15 0)
(3 3.23006391e-15 0)
(3 1.444310286e-15 0)
(3 2.611807165e-16 0)
(3 -2.753946589e-17 0)
(3 -5.409212442e-16 0)
(3 -1.232303055e-15 0)
(3 -1.8245913e-15 0)
(3 -1.89445809e-15 0)
(3 -1.774627011e-15 0)
(3 -1.402648067e-15 0)
(3 5.424733947e-17 0)
(3 1.263623285e-16 0)
(3 -7.469775229e-16 0)
(3 -1.308107673e-15 0)
(3 -1.905917394e-15 0)
(3 -1.65669546e-15 0)
(3 -9.917863094e-16 0)
(3 -9.249220965e-16 0)
(3 -1.1487785e-15 0)
(3 -1.556649179e-15 0)
(3 -2.103390425e-15 0)
(3 -1.776351568e-15 0)
(3 -1.881143221e-15 0)
(3 -1.496755683e-15 0)
(3 -2.01017318e-15 0)
(3 -3.319260792e-15 0)
(3 -3.339498466e-15 0)
(3 -2.572592049e-15 0)
(3 -2.016712286e-15 0)
(3 -2.048360631e-15 0)
(3 -2.471769565e-15 0)
(3 -2.197953062e-15 0)
(3 -1.635928566e-15 0)
(3 -1.650215704e-15 0)
(3 -1.894923289e-15 0)
(3 -1.766569373e-15 0)
(3 -1.781197719e-15 0)
(3 -2.086878476e-15 0)
(3 -1.883657531e-15 0)
(3 -2.372777669e-15 0)
(3 -8.990101509e-16 0)
(3 2.025396739e-15 0)
(3 3.240321899e-15 0)
(3 3.081227407e-15 0)
(3 2.891796937e-15 0)
(3 2.585998502e-15 0)
(3 2.721761431e-15 0)
(3 2.910281385e-15 0)
(3 2.263279932e-15 0)
(3 -1.171837705e-15 0)
(3 -1.799069933e-16 0)
(3 9.554593008e-16 0)
(3 -2.714938423e-16 0)
(3 -1.084228692e-15 0)
(3 -2.501508695e-15 0)
(3 -4.496746082e-15 0)
(3 -1.198410006e-15 0)
(3 2.712539097e-15 0)
(3 6.443120334e-15 0)
(3 8.005769178e-15 0)
(3 7.706336362e-15 0)
(3 6.900911694e-15 0)
(3 6.505491652e-15 0)
(3 4.237667784e-15 0)
(3 3.461519163e-15 0)
(3 2.56499737e-15 0)
(3 2.340599437e-15 0)
(3 2.094841263e-15 0)
(3 1.781394622e-15 0)
(3 1.135049692e-15 0)
(3 7.512477391e-16 0)
(3 2.881917215e-16 0)
(3 2.407308586e-16 0)
(3 -1.493340572e-16 0)
(3 -1.54665289e-16 0)
(3 -1.943838905e-16 0)
(3 4.340382067e-16 0)
(3 8.169092784e-16 0)
(3 1.141357712e-15 0)
(3 1.328115134e-15 0)
(3 1.233998931e-15 0)
(3 4.892425495e-16 0)
(3 -6.439325736e-16 0)
(3 -1.19104724e-15 0)
(3 -2.59301718e-15 0)
(3 -3.210310501e-15 0)
(3 -3.663736119e-15 0)
(3 -4.158048538e-15 0)
(3 -4.010855798e-15 0)
(3 -4.664501221e-15 0)
(3 -5.024636852e-15 0)
(3 -3.658980368e-15 0)
(3 -3.177567809e-15 0)
(3 -3.076020978e-15 0)
(3 -2.353897827e-15 0)
(3 -1.813937375e-15 0)
(3 -1.554902882e-15 0)
(3 -1.48536151e-15 0)
(3 -1.936082603e-15 0)
(3 -2.835496006e-15 0)
(3 -2.713555251e-15 0)
(3 -1.941585607e-15 0)
(3 -1.701967014e-15 0)
(3 -1.26191666e-15 0)
(3 -9.848169748e-16 0)
(3 -8.018255247e-16 0)
(3 3.830402966e-16 0)
(3 1.205817904e-15 0)
(3 2.095956061e-15 0)
(3 2.124467996e-15 0)
(3 1.601781076e-15 0)
(3 8.242875253e-16 0)
(3 6.34572544e-16 0)
(3 4.497574667e-16 0)
(3 1.023459782e-15 0)
(3 1.443966294e-16 0)
(3 2.00789485e-15 0)
(3 1.960153446e-15 0)
(3 1.773569519e-15 0)
(3 2.024926271e-15 0)
(3 1.539314804e-15 0)
(3 8.511520468e-16 0)
(3 1.503121846e-15 0)
(3 2.335337083e-15 0)
(3 4.496629455e-15 0)
(3 7.209949519e-15 0)
(3 7.074651458e-15 0)
(3 6.793763589e-15 0)
(3 6.658823534e-15 0)
(3 4.922181998e-15 0)
(3 3.133550849e-15 0)
(3 2.967838169e-15 0)
(3 2.367335815e-15 0)
(3 2.673237384e-15 0)
(3 2.992877541e-15 0)
(3 3.854062696e-15 0)
(3 3.201938751e-15 0)
(3 2.216837722e-15 0)
(3 8.716976742e-16 0)
(3 8.847996863e-16 0)
(3 1.131560194e-16 0)
(3 4.662211912e-16 0)
(3 1.197146075e-15 0)
(3 2.216978633e-15 0)
(3 2.022280107e-15 0)
(3 1.015012948e-15 0)
(3 4.866488019e-16 0)
(3 1.780653793e-16 0)
(3 -6.546282856e-16 0)
(3 -1.376556091e-15 0)
(3 -1.627971346e-15 0)
(3 -1.904647612e-15 0)
(3 -2.296533928e-15 0)
(3 -2.553073088e-15 0)
(3 -3.572805153e-15 0)
(3 -3.771104263e-15 0)
(3 -3.947417061e-15 0)
(3 -3.867919271e-15 0)
(3 -4.215377823e-15 0)
(3 -4.43204102e-15 0)
(3 -3.359626722e-15 0)
(3 -2.653124644e-15 0)
(3 -2.370106718e-15 0)
(3 -2.959095465e-15 0)
(3 -4.171155382e-15 0)
(3 -3.507438361e-15 0)
(3 -2.312124806e-15 0)
(3 -2.038089945e-15 0)
(3 -1.081891525e-15 0)
(3 -1.964059904e-16 0)
(3 -5.011765443e-16 0)
(3 -4.783555761e-16 0)
(3 -9.009076494e-16 0)
(3 -1.031195968e-15 0)
(3 -1.293422494e-15 0)
(3 7.407293228e-16 0)
(3 1.112302853e-15 0)
(3 1.202018115e-15 0)
(3 8.26880667e-16 0)
(3 1.490190543e-15 0)
(3 1.998557529e-15 0)
(3 3.881284176e-15 0)
(3 4.841352233e-15 0)
(3 6.213811706e-15 0)
(3 7.437503612e-15 0)
(3 9.353153757e-15 0)
(3 9.411767371e-15 0)
(3 8.66468393e-15 0)
(3 7.937194138e-15 0)
(3 5.923678512e-15 0)
(3 4.763071043e-15 0)
(3 4.114643987e-15 0)
(3 5.003744577e-15 0)
(3 4.404772003e-15 0)
(3 3.206649564e-15 0)
(3 2.64988063e-15 0)
(3 2.95496692e-15 0)
(3 3.153086309e-15 0)
(3 3.602395866e-15 0)
(3 5.136824922e-15 0)
(3 5.32755488e-15 0)
(3 4.421153302e-15 0)
(3 3.115372027e-15 0)
(3 1.585290507e-15 0)
(3 -4.321162813e-16 0)
(3 -1.361821352e-15 0)
(3 -9.806265298e-16 0)
(3 -1.630599025e-17 0)
(3 1.74073126e-16 0)
(3 5.424352792e-16 0)
(3 3.789181756e-16 0)
(3 -2.403975497e-16 0)
(3 -9.532822027e-16 0)
(3 -7.921833216e-16 0)
(3 -3.818892052e-16 0)
(3 -2.019718629e-16 0)
(3 5.611218414e-16 0)
(3 5.917512423e-16 0)
(3 -3.325053753e-16 0)
(3 -6.766314759e-16 0)
(3 -1.023566849e-15 0)
(3 -1.32377926e-15 0)
(3 -2.110981352e-15 0)
(3 -3.073236752e-15 0)
(3 -2.901392457e-15 0)
(3 -2.909990201e-15 0)
(3 -3.127993241e-15 0)
(3 -3.019434994e-15 0)
(3 -2.569882267e-15 0)
(3 -2.424058121e-15 0)
(3 -3.055919007e-15 0)
(3 -3.867653079e-15 0)
(3 -4.449510137e-15 0)
(3 -3.894604872e-15 0)
(3 -3.083437713e-15 0)
(3 -2.167965235e-15 0)
(3 -1.732521557e-15 0)
(3 -2.843295529e-15 0)
(3 -2.817063414e-15 0)
(3 -2.46751678e-15 0)
(3 -2.54234322e-15 0)
(3 -6.895134102e-17 0)
(3 1.28534153e-15 0)
(3 1.856808032e-15 0)
(3 3.840689832e-15 0)
(3 4.115376359e-15 0)
(3 3.615384374e-15 0)
(3 5.116298978e-15 0)
(3 5.732355999e-15 0)
(3 7.456409811e-15 0)
(3 8.760393418e-15 0)
(3 9.323053173e-15 0)
(3 8.880722283e-15 0)
(3 9.163511995e-15 0)
(3 8.854084177e-15 0)
(3 6.275187062e-15 0)
(3 5.8727078e-15 0)
(3 4.990630307e-15 0)
(3 4.148947285e-15 0)
(3 5.387373191e-15 0)
(3 6.683541375e-15 0)
(3 6.649424494e-15 0)
(3 5.690766248e-15 0)
(3 4.88771343e-15 0)
(3 4.339097176e-15 0)
(3 3.96873403e-15 0)
(3 3.972393657e-15 0)
(3 3.348904688e-15 0)
(3 2.357843669e-15 0)
(3 1.338413041e-15 0)
(3 2.811073152e-16 0)
(3 -7.074534476e-16 0)
(3 -1.144155674e-15 0)
(3 -1.892997471e-15 0)
(3 -3.235095944e-15 0)
(3 -3.77722282e-15 0)
(3 -4.345106161e-15 0)
(3 -4.721166632e-15 0)
(3 -3.32773344e-15 0)
(3 -2.966905753e-15 0)
(3 -2.313936752e-15 0)
(3 -1.644283544e-15 0)
(3 -1.09734136e-15 0)
(3 -4.798861915e-16 0)
(3 -1.715671106e-16 0)
(3 -7.076086918e-16 0)
(3 6.786941859e-16 0)
(3 7.209142622e-16 0)
(3 3.887308766e-16 0)
(3 9.376915877e-17 0)
(3 1.178159175e-16 0)
(3 -9.78170891e-16 0)
(3 -1.31196042e-15 0)
(3 -1.904489628e-15 0)
(3 -2.896039082e-15 0)
(3 -2.926919746e-15 0)
(3 -2.93565312e-15 0)
(3 -2.982694633e-15 0)
(3 -3.130819141e-15 0)
(3 -3.045977772e-15 0)
(3 -3.985039317e-15 0)
(3 -4.552098416e-15 0)
(3 -4.312633574e-15 0)
(3 -3.125828736e-15 0)
(3 -3.309747823e-15 0)
(3 -3.27247163e-15 0)
(3 -2.55051329e-15 0)
(3 -1.901498003e-15 0)
(3 1.201697286e-15 0)
(3 2.967523154e-15 0)
(3 4.376177746e-15 0)
(3 4.493003615e-15 0)
(3 3.884199597e-15 0)
(3 6.48028869e-15 0)
(3 7.972951307e-15 0)
(3 8.901254506e-15 0)
(3 9.282675381e-15 0)
(3 9.826656745e-15 0)
(3 1.058143517e-14 0)
(3 1.010470243e-14 0)
(3 9.914431608e-15 0)
(3 8.23116813e-15 0)
(3 6.384440783e-15 0)
(3 5.905926424e-15 0)
(3 5.522687754e-15 0)
(3 6.752036632e-15 0)
(3 7.12423566e-15 0)
(3 6.844048318e-15 0)
(3 6.392142759e-15 0)
(3 6.567930728e-15 0)
(3 7.342462036e-15 0)
(3 6.372795484e-15 0)
(3 6.300741207e-15 0)
(3 4.304916565e-15 0)
(3 2.564731443e-15 0)
(3 2.078704089e-15 0)
(3 1.922856345e-15 0)
(3 2.170851736e-15 0)
(3 6.437849223e-16 0)
(3 -9.610146783e-16 0)
(3 -3.43441949e-15 0)
(3 -5.512626127e-15 0)
(3 -6.867922743e-15 0)
(3 -6.410375714e-15 0)
(3 -5.78262797e-15 0)
(3 -5.259993716e-15 0)
(3 -4.883401385e-15 0)
(3 -4.24431035e-15 0)
(3 -3.308781998e-15 0)
(3 -2.961768185e-15 0)
(3 -2.819775922e-15 0)
(3 -2.598271944e-15 0)
(3 -2.18505998e-15 0)
(3 -1.358845781e-15 0)
(3 -4.664603314e-17 0)
(3 9.885127134e-16 0)
(3 6.795702097e-16 0)
(3 1.998812221e-16 0)
(3 -6.32294804e-16 0)
(3 -1.113545199e-15 0)
(3 -2.897038612e-15 0)
(3 -3.801794182e-15 0)
(3 -3.512136731e-15 0)
(3 -2.639480843e-15 0)
(3 -1.964264192e-15 0)
(3 -2.787297062e-15 0)
(3 -3.66299028e-15 0)
(3 -4.236527866e-15 0)
(3 -4.458491133e-15 0)
(3 -3.598070586e-15 0)
(3 -3.134459213e-15 0)
(3 -2.158586709e-15 0)
(3 -2.258767217e-15 0)
(3 -1.439641582e-15 0)
(3 -8.273564674e-16 0)
(3 3.691057728e-16 0)
(3 1.715358828e-15 0)
(3 2.859382404e-15 0)
(3 3.817589804e-16 0)
(3 8.028932773e-15 0)
(3 8.212582067e-15 0)
(3 8.490947779e-15 0)
(3 8.726385166e-15 0)
(3 9.260534032e-15 0)
(3 8.889695453e-15 0)
(3 8.536520535e-15 0)
(3 8.088516783e-15 0)
(3 7.691980407e-15 0)
(3 6.183303827e-15 0)
(3 5.736699556e-15 0)
(3 5.926331737e-15 0)
(3 6.044673372e-15 0)
(3 5.2308249e-15 0)
(3 5.463444779e-15 0)
(3 6.10273632e-15 0)
(3 7.555546329e-15 0)
(3 8.261888214e-15 0)
(3 8.562210228e-15 0)
(3 8.83493837e-15 0)
(3 7.496584634e-15 0)
(3 4.342136711e-15 0)
(3 3.400330714e-15 0)
(3 2.948790641e-15 0)
(3 1.158800763e-15 0)
(3 6.667804799e-16 0)
(3 -1.407337614e-15 0)
(3 -3.898320759e-15 0)
(3 -4.762008606e-15 0)
(3 -5.625734547e-15 0)
(3 -7.543980852e-15 0)
(3 -7.666485873e-15 0)
(3 -7.375973921e-15 0)
(3 -6.838575773e-15 0)
(3 -6.138415184e-15 0)
(3 -5.682575531e-15 0)
(3 -4.674909827e-15 0)
(3 -4.155354363e-15 0)
(3 -3.754872705e-15 0)
(3 -3.481469198e-15 0)
(3 -3.159828602e-15 0)
(3 -2.829391657e-15 0)
(3 -2.609363555e-15 0)
(3 -2.359551141e-15 0)
(3 -1.676833196e-15 0)
(3 -1.333346799e-15 0)
(3 -9.529865418e-16 0)
(3 -6.384942369e-16 0)
(3 -2.690653336e-16 0)
(3 -1.273921343e-15 0)
(3 -2.311247024e-15 0)
(3 -3.248090353e-15 0)
(3 -3.866846918e-15 0)
(3 -3.987575163e-15 0)
(3 -4.060289083e-15 0)
(3 -4.246202835e-15 0)
(3 -4.012511877e-15 0)
(3 -3.565973475e-15 0)
(3 -2.637556942e-15 0)
(3 -1.971619903e-15 0)
(3 -4.734718905e-16 0)
(3 6.206368567e-17 0)
(3 1.104272082e-15 0)
(3 4.632034358e-16 0)
(3 -3.326629984e-16 0)
(3 -2.53002748e-16 0)
(3 8.01914343e-15 0)
(3 8.100569641e-15 0)
(3 8.371838872e-15 0)
(3 8.480637018e-15 0)
(3 7.590998392e-15 0)
(3 7.304082184e-15 0)
(3 7.022753158e-15 0)
(3 6.919861121e-15 0)
(3 7.729036273e-15 0)
(3 7.555273095e-15 0)
(3 7.395037607e-15 0)
(3 6.06419534e-15 0)
(3 5.130616698e-15 0)
(3 5.496497601e-15 0)
(3 6.10438362e-15 0)
(3 7.281768279e-15 0)
(3 7.908511259e-15 0)
(3 8.410458568e-15 0)
(3 7.174753219e-15 0)
(3 5.958977013e-15 0)
(3 5.009882546e-15 0)
(3 2.838727652e-15 0)
(3 1.501575057e-15 0)
(3 5.399117077e-16 0)
(3 -1.26488698e-15 0)
(3 -3.316382408e-15 0)
(3 -5.036150131e-15 0)
(3 -6.167105703e-15 0)
(3 -6.15240102e-15 0)
(3 -6.654748312e-15 0)
(3 -8.040972931e-15 0)
(3 -9.746633968e-15 0)
(3 -8.545904598e-15 0)
(3 -7.397324844e-15 0)
(3 -7.141565118e-15 0)
(3 -5.764726855e-15 0)
(3 -4.408743064e-15 0)
(3 -3.242282423e-15 0)
(3 -2.56017674e-15 0)
(3 -2.403562033e-15 0)
(3 -2.617884101e-15 0)
(3 -2.755315495e-15 0)
(3 -3.060163646e-15 0)
(3 -3.051265268e-15 0)
(3 -2.518422574e-15 0)
(3 -6.539267589e-16 0)
(3 6.957989814e-16 0)
(3 1.905522567e-16 0)
(3 -3.362579573e-16 0)
(3 -1.283777853e-15 0)
(3 -1.666092096e-15 0)
(3 -1.755740545e-15 0)
(3 -1.015204036e-15 0)
(3 -4.544925721e-16 0)
(3 -2.544933555e-15 0)
(3 -3.318008301e-15 0)
(3 -3.097500714e-15 0)
(3 -2.663399486e-15 0)
(3 -2.313344117e-15 0)
(3 -4.63189295e-16 0)
(3 9.777074321e-16 0)
(3 6.789029084e-16 0)
(3 -9.679037009e-16 0)
(3 -2.302097881e-15 0)
(3 -3.58505868e-16 0)
(3 7.550080397e-16 0)
(3 8.553513606e-15 0)
(3 8.147155147e-15 0)
(3 8.114434119e-15 0)
(3 8.68499353e-15 0)
(3 9.082883375e-15 0)
(3 9.688383169e-15 0)
(3 9.7208991e-15 0)
(3 9.370958163e-15 0)
(3 9.515162186e-15 0)
(3 8.065964859e-15 0)
(3 6.66475496e-15 0)
(3 5.900354058e-15 0)
(3 5.043752638e-15 0)
(3 5.45446639e-15 0)
(3 6.384052497e-15 0)
(3 6.971606936e-15 0)
(3 8.364491524e-15 0)
(3 8.274009919e-15 0)
(3 8.862417639e-15 0)
(3 8.510655144e-15 0)
(3 5.951493165e-15 0)
(3 3.032475007e-15 0)
(3 1.795750976e-15 0)
(3 5.57033482e-16 0)
(3 -1.177139107e-15 0)
(3 -2.228744876e-15 0)
(3 -4.178171014e-15 0)
(3 -5.235468355e-15 0)
(3 -7.118645276e-15 0)
(3 -9.858032531e-15 0)
(3 -1.090276469e-14 0)
(3 -1.188810048e-14 0)
(3 -1.21111923e-14 0)
(3 -9.57742258e-15 0)
(3 -8.654765052e-15 0)
(3 -7.913067308e-15 0)
(3 -5.348869075e-15 0)
(3 -4.235721983e-15 0)
(3 -3.195335075e-15 0)
(3 -2.073661764e-15 0)
(3 -1.92334559e-15 0)
(3 -1.555818686e-15 0)
(3 -1.237176215e-15 0)
(3 -9.521059135e-16 0)
(3 -5.9394101e-16 0)
(3 -9.728247158e-16 0)
(3 -1.454470683e-15 0)
(3 -8.282291871e-16 0)
(3 -5.176244922e-16 0)
(3 -3.690863392e-17 0)
(3 2.502531697e-16 0)
(3 8.458746597e-17 0)
(3 1.212732835e-15 0)
(3 9.373755605e-16 0)
(3 2.089883093e-16 0)
(3 -4.671781138e-16 0)
(3 -1.075747751e-15 0)
(3 -1.241977922e-15 0)
(3 -7.647849529e-16 0)
(3 6.595448239e-17 0)
(3 2.563983608e-16 0)
(3 -1.192182764e-15 0)
(3 -2.456803622e-15 0)
(3 -2.722725183e-15 0)
(3 -1.110822166e-15 0)
(3 2.169019618e-15 0)
(3 9.61113792e-15 0)
(3 9.597342309e-15 0)
(3 9.391387776e-15 0)
(3 1.062649613e-14 0)
(3 1.170414738e-14 0)
(3 1.201476158e-14 0)
(3 1.113467105e-14 0)
(3 9.024442319e-15 0)
(3 7.877805545e-15 0)
(3 7.741998767e-15 0)
(3 7.134580935e-15 0)
(3 6.602012252e-15 0)
(3 5.76293113e-15 0)
(3 4.724412177e-15 0)
(3 4.011707755e-15 0)
(3 4.002529795e-15 0)
(3 4.276778396e-15 0)
(3 5.800412852e-15 0)
(3 6.551559945e-15 0)
(3 5.952627046e-15 0)
(3 4.13727552e-15 0)
(3 3.765173539e-15 0)
(3 3.112344957e-15 0)
(3 2.118944385e-15 0)
(3 -2.141107758e-16 0)
(3 -1.158036864e-15 0)
(3 -2.636942817e-15 0)
(3 -5.088582509e-15 0)
(3 -8.1321205e-15 0)
(3 -9.864945189e-15 0)
(3 -9.72159093e-15 0)
(3 -1.030115725e-14 0)
(3 -1.130026767e-14 0)
(3 -1.112410066e-14 0)
(3 -1.025932655e-14 0)
(3 -8.193834212e-15 0)
(3 -5.612604289e-15 0)
(3 -4.629812108e-15 0)
(3 -2.920294454e-15 0)
(3 -8.301293514e-16 0)
(3 -1.131771053e-16 0)
(3 -6.199361134e-17 0)
(3 -2.524285842e-16 0)
(3 -6.707415348e-16 0)
(3 -9.616577646e-16 0)
(3 -1.578651913e-15 0)
(3 -2.385230875e-15 0)
(3 -1.043187656e-15 0)
(3 1.121558553e-16 0)
(3 1.806997233e-15 0)
(3 2.393824041e-15 0)
(3 2.142499715e-15 0)
(3 2.550512099e-15 0)
(3 2.869850817e-15 0)
(3 2.213611915e-15 0)
(3 1.38475746e-15 0)
(3 4.622154811e-16 0)
(3 -1.945746778e-16 0)
(3 -7.174715327e-17 0)
(3 2.905490375e-16 0)
(3 8.499057745e-17 0)
(3 6.581779858e-16 0)
(3 1.206964786e-15 0)
(3 1.725796882e-15 0)
(3 2.305016171e-15 0)
(3 2.275539767e-15 0)
(3 5.941903353e-15 0)
(3 7.681060534e-15 0)
(3 8.752470832e-15 0)
(3 9.338622936e-15 0)
(3 9.456865024e-15 0)
(3 1.071464246e-14 0)
(3 1.143863359e-14 0)
(3 1.099543456e-14 0)
(3 1.040458907e-14 0)
(3 8.678159356e-15 0)
(3 8.096513681e-15 0)
(3 6.938358717e-15 0)
(3 4.724068643e-15 0)
(3 3.102384968e-15 0)
(3 2.1291429e-15 0)
(3 1.392769589e-15 0)
(3 3.13292518e-16 0)
(3 2.607689893e-15 0)
(3 3.371937e-15 0)
(3 1.262501194e-15 0)
(3 2.13895032e-15 0)
(3 4.33521662e-15 0)
(3 3.762428722e-15 0)
(3 1.636578769e-15 0)
(3 -1.350068127e-15 0)
(3 -1.911678147e-15 0)
(3 -2.296120547e-15 0)
(3 -3.481676135e-15 0)
(3 -6.070521953e-15 0)
(3 -6.773218816e-15 0)
(3 -6.207310532e-15 0)
(3 -6.174663673e-15 0)
(3 -1.02491516e-14 0)
(3 -1.314220823e-14 0)
(3 -1.065798349e-14 0)
(3 -8.294855661e-15 0)
(3 -6.07534209e-15 0)
(3 -5.248098193e-15 0)
(3 -3.234185154e-15 0)
(3 1.33737584e-15 0)
(3 4.196203937e-15 0)
(3 1.803656793e-15 0)
(3 -2.35350527e-15 0)
(3 -3.328844736e-15 0)
(3 -3.545097133e-15 0)
(3 -3.147005729e-15 0)
(3 -2.514999434e-15 0)
(3 -1.470503944e-15 0)
(3 -5.759804924e-16 0)
(3 6.191467319e-16 0)
(3 1.137069298e-15 0)
(3 1.843236369e-15 0)
(3 9.418267979e-16 0)
(3 5.56084193e-16 0)
(3 8.102159467e-16 0)
(3 1.420506627e-15 0)
(3 1.235498011e-15 0)
(3 9.841696017e-16 0)
(3 6.85432359e-16 0)
(3 1.097257282e-15 0)
(3 2.016362778e-15 0)
(3 3.846909253e-15 0)
(3 5.164260316e-15 0)
(3 4.656582301e-15 0)
(3 3.809618908e-15 0)
(3 2.793075462e-15 0)
(3 4.066993618e-15 0)
(3 4.696066017e-15 0)
(3 5.127715559e-15 0)
(3 5.58128941e-15 0)
(3 5.693840743e-15 0)
(3 7.045245087e-15 0)
(3 8.819061578e-15 0)
(3 1.066698793e-14 0)
(3 8.921122501e-15 0)
(3 6.976678009e-15 0)
(3 5.800546272e-15 0)
(3 5.294330012e-15 0)
(3 4.785015462e-15 0)
(3 2.95446887e-15 0)
(3 2.336572057e-15 0)
(3 1.731417132e-15 0)
(3 6.041159868e-16 0)
(3 -1.358228163e-15 0)
(3 -9.496642836e-16 0)
(3 6.597714701e-16 0)
(3 9.698261418e-16 0)
(3 3.05529138e-16 0)
(3 3.948408024e-16 0)
(3 4.053416028e-16 0)
(3 1.057112167e-16 0)
(3 -7.358245591e-16 0)
(3 -7.58219716e-16 0)
(3 -1.233273115e-15 0)
(3 -2.147080199e-15 0)
(3 -2.325289911e-15 0)
(3 -3.588228286e-15 0)
(3 -4.507336624e-15 0)
(3 -5.356015893e-15 0)
(3 -7.454395495e-15 0)
(3 -7.70606929e-15 0)
(3 -6.92982987e-15 0)
(3 -6.140506377e-15 0)
(3 -5.397368706e-15 0)
(3 -4.173185108e-15 0)
(3 -2.403758589e-15 0)
(3 -7.307335015e-16 0)
(3 -1.281099355e-15 0)
(3 -1.946338175e-15 0)
(3 -2.041126126e-15 0)
(3 -2.240778918e-15 0)
(3 -3.286795865e-15 0)
(3 -3.634996577e-15 0)
(3 -4.482762137e-15 0)
(3 -4.088497227e-15 0)
(3 -2.492547175e-15 0)
(3 -1.101893195e-15 0)
(3 -1.329748365e-15 0)
(3 -1.976418743e-15 0)
(3 -1.933835947e-15 0)
(3 -6.061909196e-16 0)
(3 1.706514573e-15 0)
(3 2.204921928e-15 0)
(3 2.741623907e-15 0)
(3 3.664179031e-15 0)
(3 3.277057593e-15 0)
(3 3.342009934e-15 0)
(3 3.730393501e-15 0)
(3 3.855981417e-15 0)
(3 2.757155656e-15 0)
(3 2.341441573e-15 0)
(3 2.730138952e-15 0)
(3 2.901584678e-15 0)
(3 3.015776162e-15 0)
(3 4.121336633e-15 0)
(3 4.526026239e-15 0)
(3 5.531483822e-15 0)
(3 7.110370976e-15 0)
(3 6.491323273e-15 0)
(3 5.724509103e-15 0)
(3 5.911625339e-15 0)
(3 5.840930986e-15 0)
(3 5.534560291e-15 0)
(3 5.462451774e-15 0)
(3 4.494561865e-15 0)
(3 3.508875045e-15 0)
(3 2.116984986e-15 0)
(3 4.394837252e-16 0)
(3 -6.934212044e-16 0)
(3 -2.169484454e-15 0)
(3 -1.832823728e-15 0)
(3 -6.485792645e-16 0)
(3 -9.446273843e-16 0)
(3 -2.146684594e-15 0)
(3 -1.262779269e-15 0)
(3 -1.361180806e-15 0)
(3 -9.439517676e-16 0)
(3 -9.96393872e-16 0)
(3 -1.381127081e-15 0)
(3 -1.227567006e-15 0)
(3 -1.408767879e-16 0)
(3 -1.32689971e-15 0)
(3 -3.404643676e-15 0)
(3 -5.482224194e-15 0)
(3 -4.804151032e-15 0)
(3 -3.820080399e-15 0)
(3 -5.322318333e-15 0)
(3 -6.15449003e-15 0)
(3 -6.074668977e-15 0)
(3 -5.72752873e-15 0)
(3 -5.569704839e-15 0)
(3 -6.289932576e-15 0)
(3 -7.716265722e-15 0)
(3 -8.800260275e-15 0)
(3 -4.253328208e-15 0)
(3 -3.176077385e-15 0)
(3 -3.852001316e-15 0)
(3 -4.180367655e-15 0)
(3 -4.141896505e-15 0)
(3 -4.785161981e-15 0)
(3 -5.202983538e-15 0)
(3 -3.427605114e-15 0)
(3 -2.852730681e-15 0)
(3 -2.471126282e-15 0)
(3 -1.57057564e-15 0)
(3 4.960402411e-16 0)
(3 1.744732192e-15 0)
(3 2.652550693e-15 0)
(3 4.462493392e-15 0)
(3 5.531555168e-15 0)
(3 5.823159493e-15 0)
(3 5.782265803e-15 0)
(3 4.90765359e-15 0)
(3 4.513637822e-15 0)
(3 3.773532266e-15 0)
(3 3.686344645e-15 0)
(3 3.683709527e-15 0)
(3 4.402540322e-15 0)
(3 1.75058021e-15 0)
(3 1.990032326e-15 0)
(3 2.984892103e-15 0)
(3 3.606086134e-15 0)
(3 4.135957783e-15 0)
(3 4.857238112e-15 0)
(3 4.708473693e-15 0)
(3 2.708534705e-15 0)
(3 2.313879154e-15 0)
(3 2.460524886e-15 0)
(3 2.369390474e-15 0)
(3 2.052146624e-15 0)
(3 1.575967087e-15 0)
(3 1.560497432e-15 0)
(3 2.011816254e-15 0)
(3 1.282365071e-15 0)
(3 1.248834453e-15 0)
(3 7.273393549e-16 0)
(3 5.019931292e-17 0)
(3 3.122795466e-16 0)
(3 -1.098202364e-15 0)
(3 -2.302008725e-15 0)
(3 -2.570086553e-15 0)
(3 -3.483951492e-15 0)
(3 -3.073289381e-15 0)
(3 -2.009523578e-15 0)
(3 -1.789412383e-15 0)
(3 -1.880976418e-15 0)
(3 -1.9029281e-15 0)
(3 -2.615775851e-15 0)
(3 -2.819937429e-15 0)
(3 -3.351133026e-15 0)
(3 -2.927602639e-15 0)
(3 -2.405690864e-15 0)
(3 -2.509136523e-15 0)
(3 -3.775395166e-15 0)
(3 -3.676939516e-15 0)
(3 -3.799146018e-15 0)
(3 -5.053425572e-15 0)
(3 -7.976629863e-15 0)
(3 -1.066515358e-14 0)
(3 -1.051456624e-14 0)
(3 -9.315881656e-15 0)
(3 -6.98204881e-15 0)
(3 -4.419546611e-15 0)
(3 -4.011293361e-15 0)
(3 -2.813051665e-15 0)
(3 -2.296090731e-15 0)
(3 -2.35011584e-15 0)
(3 -2.318414909e-15 0)
(3 -2.520379342e-15 0)
(3 -1.342817582e-15 0)
(3 5.562121974e-16 0)
(3 1.281553308e-15 0)
(3 2.879648225e-15 0)
(3 3.959454451e-15 0)
(3 4.796030964e-15 0)
(3 4.885780604e-15 0)
(3 4.187956878e-15 0)
(3 4.935495367e-15 0)
(3 5.963331157e-15 0)
(3 6.055777815e-15 0)
(3 6.21909839e-15 0)
(3 6.801096504e-15 0)
(3 7.208404643e-15 0)
(3 6.795311461e-15 0)
(3 3.183733802e-15 0)
(3 2.42850436e-15 0)
(3 1.298269233e-15 0)
(3 -1.953778019e-16 0)
(3 -1.052365955e-15 0)
(3 -1.110473496e-15 0)
(3 -2.750707676e-17 0)
(3 8.77665958e-16 0)
(3 8.186845521e-17 0)
(3 -2.735293539e-15 0)
(3 -3.100536913e-15 0)
(3 -2.894423275e-15 0)
(3 -2.199953618e-15 0)
(3 -1.4445974e-15 0)
(3 -1.037528107e-15 0)
(3 -5.565836611e-16 0)
(3 -1.255991549e-16 0)
(3 -7.274225469e-16 0)
(3 -2.60905788e-15 0)
(3 -3.071470516e-15 0)
(3 -3.404826478e-15 0)
(3 -3.436211293e-15 0)
(3 -3.726648905e-15 0)
(3 -3.700881006e-15 0)
(3 -3.526175206e-15 0)
(3 -2.957232301e-15 0)
(3 -1.752178841e-15 0)
(3 -3.292533324e-15 0)
(3 -4.191475567e-15 0)
(3 -4.235961375e-15 0)
(3 -3.463441087e-15 0)
(3 -1.021347341e-15 0)
(3 -7.139492823e-16 0)
(3 -1.707741644e-15 0)
(3 -2.829065194e-15 0)
(3 -2.443631026e-15 0)
(3 -2.154132789e-15 0)
(3 -3.223409114e-15 0)
(3 -4.293356149e-15 0)
(3 -7.476431665e-15 0)
(3 -9.47845779e-15 0)
(3 -1.002003874e-14 0)
(3 -9.306183885e-15 0)
(3 -7.122222991e-15 0)
(3 -5.9700045e-15 0)
(3 -4.686850753e-15 0)
(3 -4.358615651e-15 0)
(3 -3.543962271e-15 0)
(3 -2.731541633e-15 0)
(3 -2.297719112e-15 0)
(3 -1.537672666e-15 0)
(3 3.759167273e-16 0)
(3 1.70246705e-15 0)
(3 1.562810842e-15 0)
(3 1.284902497e-15 0)
(3 3.827961667e-15 0)
(3 6.199929008e-15 0)
(3 6.411993418e-15 0)
(3 7.198670875e-15 0)
(3 7.808673281e-15 0)
(3 7.760218606e-15 0)
(3 7.77428069e-15 0)
(3 7.992050435e-15 0)
(3 8.185703087e-15 0)
(3 8.262733563e-15 0)
(3 7.876715878e-15 0)
(3 4.894805726e-15 0)
(3 3.086606121e-15 0)
(3 1.4065378e-15 0)
(3 3.942535202e-16 0)
(3 -1.805905893e-16 0)
(3 -1.873572607e-15 0)
(3 -2.690738461e-15 0)
(3 -2.425057757e-15 0)
(3 -2.466457919e-15 0)
(3 -3.761817009e-15 0)
(3 -4.010656003e-15 0)
(3 -3.810755067e-15 0)
(3 -4.085785863e-15 0)
(3 -4.228772583e-15 0)
(3 -4.695045585e-15 0)
(3 -3.669283384e-15 0)
(3 -2.671556131e-15 0)
(3 -2.050293977e-15 0)
(3 -2.370865036e-15 0)
(3 -2.561711369e-15 0)
(3 -2.617002301e-15 0)
(3 -1.722472136e-15 0)
(3 -1.787602632e-15 0)
(3 -1.519730418e-15 0)
(3 -1.737287138e-15 0)
(3 -2.067033685e-15 0)
(3 -1.801738911e-15 0)
(3 -2.953149004e-15 0)
(3 -3.502101727e-15 0)
(3 -3.323100369e-15 0)
(3 -8.436872175e-16 0)
(3 7.323199586e-17 0)
(3 -1.007143286e-16 0)
(3 5.230854629e-17 0)
(3 4.943159568e-16 0)
(3 -3.124267034e-15 0)
(3 -4.386428754e-15 0)
(3 -5.316440721e-15 0)
(3 -6.488327926e-15 0)
(3 -9.67689931e-15 0)
(3 -9.875874458e-15 0)
(3 -9.174745978e-15 0)
(3 -8.373912186e-15 0)
(3 -7.26970188e-15 0)
(3 -6.698174618e-15 0)
(3 -5.667875074e-15 0)
(3 -5.067175851e-15 0)
(3 -4.307783137e-15 0)
(3 -3.201982285e-15 0)
(3 -2.956718456e-15 0)
(3 -2.746271666e-15 0)
(3 -4.856601585e-16 0)
(3 4.372896348e-16 0)
(3 2.043186201e-15 0)
(3 4.143302587e-15 0)
(3 7.592872739e-15 0)
(3 8.757743314e-15 0)
(3 9.801720884e-15 0)
(3 1.064527174e-14 0)
(3 9.809586795e-15 0)
(3 9.387934876e-15 0)
(3 9.152018171e-15 0)
(3 9.439271234e-15 0)
(3 9.999964178e-15 0)
(3 1.040474235e-14 0)
(3 1.085818916e-14 0)
(3 1.485078736e-15 0)
(3 -2.959196335e-16 0)
(3 -7.726175142e-16 0)
(3 -2.450538821e-15 0)
(3 -3.091133394e-15 0)
(3 -2.818413763e-15 0)
(3 -2.238621102e-15 0)
(3 -3.755301171e-15 0)
(3 -7.951175364e-15 0)
(3 -9.119111293e-15 0)
(3 -7.080117655e-15 0)
(3 -5.601687317e-15 0)
(3 -5.381605408e-15 0)
(3 -4.659510117e-15 0)
(3 -3.751455692e-15 0)
(3 -1.949759614e-15 0)
(3 3.57926663e-16 0)
(3 1.18270431e-15 0)
(3 1.339681661e-15 0)
(3 -3.115783086e-16 0)
(3 -1.687588563e-15 0)
(3 -2.506396543e-15 0)
(3 -2.490650418e-15 0)
(3 -2.734583141e-15 0)
(3 -3.23152962e-15 0)
(3 -3.783880617e-15 0)
(3 -3.237810927e-15 0)
(3 -3.010364385e-15 0)
(3 -2.479130064e-15 0)
(3 -1.001042046e-15 0)
(3 5.076380075e-16 0)
(3 4.365548019e-16 0)
(3 -2.414951969e-16 0)
(3 4.07548543e-16 0)
(3 8.522489261e-16 0)
(3 -2.723287239e-15 0)
(3 -5.841097023e-15 0)
(3 -7.384442659e-15 0)
(3 -7.707009286e-15 0)
(3 -8.456800095e-15 0)
(3 -8.244665471e-15 0)
(3 -8.141065022e-15 0)
(3 -7.724872597e-15 0)
(3 -7.123281592e-15 0)
(3 -6.185780832e-15 0)
(3 -4.809915538e-15 0)
(3 -3.680381303e-15 0)
(3 -2.050552365e-15 0)
(3 -2.098954831e-16 0)
(3 7.278631341e-16 0)
(3 9.130131159e-16 0)
(3 1.713498707e-15 0)
(3 2.81476791e-15 0)
(3 5.759038681e-15 0)
(3 7.658031076e-15 0)
(3 8.255879745e-15 0)
(3 8.706904004e-15 0)
(3 9.100631797e-15 0)
(3 9.399369948e-15 0)
(3 9.417960589e-15 0)
(3 8.695526073e-15 0)
(3 8.542210519e-15 0)
(3 9.840226373e-15 0)
(3 1.265398204e-14 0)
(3 1.337737049e-14 0)
(3 1.330727105e-14 0)
(3 -2.233005423e-15 0)
(3 -2.953376525e-15 0)
(3 -3.682977338e-15 0)
(3 -3.856244747e-15 0)
(3 -4.605497847e-15 0)
(3 -4.476750558e-15 0)
(3 -2.912928643e-15 0)
(3 -5.834241562e-15 0)
(3 -9.836913425e-15 0)
(3 -1.02306047e-14 0)
(3 -9.985631955e-15 0)
(3 -8.516591854e-15 0)
(3 -6.405732534e-15 0)
(3 -5.560519164e-15 0)
(3 -5.592709258e-15 0)
(3 -4.634590704e-15 0)
(3 -3.636479094e-15 0)
(3 -2.045355991e-15 0)
(3 -9.560209044e-16 0)
(3 -1.226159334e-15 0)
(3 -2.138440278e-15 0)
(3 -2.955975184e-15 0)
(3 -3.239045657e-15 0)
(3 -3.63582237e-15 0)
(3 -4.043147313e-15 0)
(3 -4.473781915e-15 0)
(3 -3.669950303e-15 0)
(3 -1.138208463e-15 0)
(3 5.565167281e-16 0)
(3 1.486119395e-15 0)
(3 -5.919267805e-16 0)
(3 -2.005865095e-15 0)
(3 -1.136836615e-15 0)
(3 6.485124033e-16 0)
(3 4.965908923e-17 0)
(3 -1.565454218e-15 0)
(3 -2.75630314e-15 0)
(3 -6.063949582e-15 0)
(3 -7.238987213e-15 0)
(3 -8.440426143e-15 0)
(3 -9.258320251e-15 0)
(3 -9.133169907e-15 0)
(3 -8.753899941e-15 0)
(3 -8.134701697e-15 0)
(3 -7.367495574e-15 0)
(3 -5.617924664e-15 0)
(3 -4.158788428e-15 0)
(3 -3.401964148e-15 0)
(3 -1.174066416e-15 0)
(3 3.093809378e-16 0)
(3 1.830324289e-15 0)
(3 2.397428716e-15 0)
(3 4.909289042e-15 0)
(3 6.065919517e-15 0)
(3 6.066781725e-15 0)
(3 7.168625218e-15 0)
(3 7.890877107e-15 0)
(3 8.235556372e-15 0)
(3 8.262819184e-15 0)
(3 8.599783227e-15 0)
(3 8.656386673e-15 0)
(3 8.911700776e-15 0)
(3 8.847153446e-15 0)
(3 9.38174189e-15 0)
(3 1.031563512e-14 0)
(3 8.918676288e-15 0)
(3 -4.019265053e-15 0)
(3 -4.227843777e-15 0)
(3 -3.50462109e-15 0)
(3 -2.647807061e-15 0)
(3 -3.21762441e-15 0)
(3 -4.314369773e-15 0)
(3 -3.091438579e-15 0)
(3 -4.260121881e-15 0)