/*--------------------------------*- C++ -*----------------------------------*\
  =========                 |
  \\      /  F ield         | OpenFOAM: The Open Source CFD Toolbox
   \\    /   O peration     | Website:  https://openfoam.org
    \\  /    A nd           | Version:  7
     \\/     M anipulation  |
\*---------------------------------------------------------------------------*/
FoamFile
{
    version     2.0;
    format      ascii;
    class       volVectorField;
    location    "1.4";
    object      U;
}
// * * * * * * * * * * * * * * * * * * * * * * * * * * * * * * * * * * * * * //

dimensions      [0 1 -1 0 0 0 0];

internalField   nonuniform List<vector> 
558
(
(3 -1.031359881e-14 0)
(3 -1.379352771e-14 0)
(3 -1.412639687e-14 0)
(3 -1.371984401e-14 0)
(3 -1.35703948e-14 0)
(3 -1.206337295e-14 0)
(3 -1.103711801e-14 0)
(3 -1.012452939e-14 0)
(3 -9.430762309e-15 0)
(3 -8.710212657e-15 0)
(3 -8.131574194e-15 0)
(3 -6.387666742e-15 0)
(3 -4.724672463e-15 0)
(3 -2.525091681e-15 0)
(3 1.723949685e-16 0)
(3 9.37154532e-16 0)
(3 2.158589008e-15 0)
(3 -5.23514731e-15 0)
(3 -8.08896143e-15 0)
(3 -1.013110716e-14 0)
(3 -9.416876264e-15 0)
(3 -8.48288133e-15 0)
(3 -8.833618165e-15 0)
(3 -9.183213277e-15 0)
(3 -8.651664789e-15 0)
(3 -6.743100315e-15 0)
(3 -4.658467289e-15 0)
(3 -3.103060045e-15 0)
(3 -2.395120751e-15 0)
(3 -1.207726402e-15 0)
(3 2.490586631e-16 0)
(3 9.194011555e-16 0)
(3 1.63354356e-15 0)
(3 9.917816415e-16 0)
(3 7.467915822e-15 0)
(3 6.307362118e-15 0)
(3 4.827841215e-15 0)
(3 4.724712281e-15 0)
(3 4.405989286e-15 0)
(3 2.068896923e-15 0)
(3 1.260310681e-15 0)
(3 2.735518011e-15 0)
(3 3.68011589e-15 0)
(3 5.800146495e-15 0)
(3 6.639112469e-15 0)
(3 6.610215243e-15 0)
(3 6.442288318e-15 0)
(3 5.715704164e-15 0)
(3 4.235862789e-15 0)
(3 3.545707085e-15 0)
(3 2.971188168e-15 0)
(3 2.258785242e-14 0)
(3 2.135803253e-14 0)
(3 2.019319146e-14 0)
(3 1.717120655e-14 0)
(3 1.500543559e-14 0)
(3 1.415375918e-14 0)
(3 1.302805383e-14 0)
(3 1.256569383e-14 0)
(3 1.250057858e-14 0)
(3 1.06187731e-14 0)
(3 6.845831822e-15 0)
(3 6.077654444e-15 0)
(3 5.797442122e-15 0)
(3 5.126811465e-15 0)
(3 3.854464754e-15 0)
(3 1.442471891e-15 0)
(3 1.084682723e-15 0)
(3 1.928672877e-14 0)
(3 1.958397083e-14 0)
(3 1.917464745e-14 0)
(3 1.926568886e-14 0)
(3 1.877020635e-14 0)
(3 1.775087967e-14 0)
(3 1.684716451e-14 0)
(3 1.446437573e-14 0)
(3 1.060317539e-14 0)
(3 6.459418892e-15 0)
(3 4.584328786e-15 0)
(3 3.890361318e-15 0)
(3 2.947648326e-15 0)
(3 2.72919194e-15 0)
(3 6.052943783e-16 0)
(3 3.825513422e-17 0)
(3 -2.04057546e-15 0)
(3 1.16515937e-14 0)
(3 1.155924553e-14 0)
(3 1.143249388e-14 0)
(3 1.146843888e-14 0)
(3 1.201629745e-14 0)
(3 1.106288199e-14 0)
(3 9.658800899e-15 0)
(3 8.855713364e-15 0)
(3 6.363817791e-15 0)
(3 3.755851434e-15 0)
(3 8.047502397e-16 0)
(3 -4.2858633e-16 0)
(3 -3.119919202e-15 0)
(3 -5.194369732e-15 0)
(3 -4.967190712e-15 0)
(3 -3.830236517e-15 0)
(3 -6.080581349e-15 0)
(3 7.892332149e-15 0)
(3 7.740549178e-15 0)
(3 8.014686318e-15 0)
(3 6.778769645e-15 0)
(3 5.66157981e-15 0)
(3 4.696879818e-15 0)
(3 3.284804378e-15 0)
(3 2.37180258e-15 0)
(3 1.788065181e-15 0)
(3 1.685140283e-15 0)
(3 3.776171621e-16 0)
(3 -4.040978068e-15 0)
(3 -5.868884423e-15 0)
(3 -5.8204421e-15 0)
(3 -5.463028658e-15 0)
(3 -4.338580462e-15 0)
(3 -4.080486355e-15 0)
(3 3.984291098e-16 0)
(3 8.247332015e-16 0)
(3 6.794646537e-16 0)
(3 1.102015615e-15 0)
(3 8.977293543e-16 0)
(3 5.153091754e-16 0)
(3 2.084286778e-16 0)
(3 -9.654572217e-16 0)
(3 -1.255519262e-15 0)
(3 -9.053108177e-16 0)
(3 9.259419463e-16 0)
(3 1.293255178e-15 0)
(3 9.221135797e-16 0)
(3 4.112400695e-16 0)
(3 1.671743461e-16 0)
(3 -1.086012144e-15 0)
(3 -7.714466846e-16 0)
(3 4.352619512e-15 0)
(3 4.013497848e-15 0)
(3 3.536171498e-15 0)
(3 3.827781651e-15 0)
(3 4.711376957e-15 0)
(3 4.960718866e-15 0)
(3 5.528890123e-15 0)
(3 6.002356773e-15 0)
(3 5.703726616e-15 0)
(3 5.936113366e-15 0)
(3 6.850629101e-15 0)
(3 8.825475911e-15 0)
(3 1.007355355e-14 0)
(3 9.481902374e-15 0)
(3 8.669836398e-15 0)
(3 7.060475038e-15 0)
(3 6.377321657e-15 0)
(3 5.871813758e-15 0)
(3 5.486449536e-15 0)
(3 6.431499256e-15 0)
(3 6.978145234e-15 0)
(3 7.71021378e-15 0)
(3 9.223212361e-15 0)
(3 1.111397833e-14 0)
(3 1.241140791e-14 0)
(3 1.276170728e-14 0)
(3 1.469586772e-14 0)
(3 1.660329092e-14 0)
(3 1.77326655e-14 0)
(3 1.879435829e-14 0)
(3 1.897066854e-14 0)
(3 1.866424169e-14 0)
(3 1.716540354e-14 0)
(3 1.486586004e-14 0)
(3 5.549765333e-15 0)
(3 7.038141067e-15 0)
(3 9.524501641e-15 0)
(3 1.112623052e-14 0)
(3 1.148267263e-14 0)
(3 1.225838675e-14 0)
(3 1.180841328e-14 0)
(3 1.239011355e-14 0)
(3 1.397667042e-14 0)
(3 1.506607368e-14 0)
(3 1.589553608e-14 0)
(3 1.62304769e-14 0)
(3 1.733367439e-14 0)
(3 1.534288648e-14 0)
(3 1.447783596e-14 0)
(3 1.233833533e-14 0)
(3 1.081203104e-14 0)
(3 9.53801616e-15 0)
(3 1.022654717e-14 0)
(3 1.074858168e-14 0)
(3 1.077978718e-14 0)
(3 1.063233877e-14 0)
(3 1.032651136e-14 0)
(3 1.045517685e-14 0)
(3 8.932219363e-15 0)
(3 5.266664729e-15 0)
(3 5.746847587e-15 0)
(3 5.998921084e-15 0)
(3 4.582217242e-15 0)
(3 2.764175406e-15 0)
(3 1.898892634e-15 0)
(3 6.448518092e-16 0)
(3 -2.283385827e-17 0)
(3 -3.672771642e-16 0)
(3 7.192787572e-15 0)
(3 6.266783893e-15 0)
(3 5.743547645e-15 0)
(3 3.856015804e-15 0)
(3 3.051193791e-15 0)
(3 1.862739302e-15 0)
(3 1.085242045e-15 0)
(3 -1.285453362e-15 0)
(3 -3.334633355e-15 0)
(3 -4.76273677e-15 0)
(3 -6.62591702e-15 0)
(3 -7.724366651e-15 0)
(3 -9.718139319e-15 0)
(3 -1.051242339e-14 0)
(3 -1.051787322e-14 0)
(3 -9.659531726e-15 0)
(3 -1.074839261e-14 0)
(3 -1.906659441e-16 0)
(3 -2.149283309e-15 0)
(3 -4.157553895e-15 0)
(3 -8.460090605e-15 0)
(3 -9.454321869e-15 0)
(3 -1.227729082e-14 0)
(3 -1.453219617e-14 0)
(3 -1.507761356e-14 0)
(3 -1.429910095e-14 0)
(3 -1.555687583e-14 0)
(3 -1.624140758e-14 0)
(3 -1.712004225e-14 0)
(3 -1.759451801e-14 0)
(3 -1.732469943e-14 0)
(3 -1.625931165e-14 0)
(3 -1.614337586e-14 0)
(3 -1.557920344e-14 0)
(3 -6.619570706e-15 0)
(3 -8.956732025e-15 0)
(3 -1.222501025e-14 0)
(3 -1.63201725e-14 0)
(3 -2.067697698e-14 0)
(3 -2.266337535e-14 0)
(3 -2.267082915e-14 0)
(3 -2.040272074e-14 0)
(3 -1.761533067e-14 0)
(3 -1.318696309e-14 0)
(3 -1.489874917e-14 0)
(3 -1.193710786e-14 0)
(3 -9.396516948e-15 0)
(3 -9.21934857e-15 0)
(3 -8.906248418e-15 0)
(3 -8.451019339e-15 0)
(3 -7.737321768e-15 0)
(3 -1.090563776e-14 0)
(3 -1.454124921e-14 0)
(3 -1.630419383e-14 0)
(3 -1.665847905e-14 0)
(3 -1.327924819e-14 0)
(3 -8.710074952e-15 0)
(3 -7.213825368e-15 0)
(3 -4.652652488e-15 0)
(3 -7.453318678e-16 0)
(3 -2.112065597e-16 0)
(3 1.522636795e-15 0)
(3 6.367601336e-16 0)
(3 1.659277411e-16 0)
(3 -5.155938614e-17 0)
(3 -6.072946844e-16 0)
(3 -1.004648285e-15 0)
(3 -1.413152763e-15 0)
(3 -7.434749138e-15 0)
(3 -1.002711121e-14 0)
(3 -1.206221217e-14 0)
(3 -1.192511291e-14 0)
(3 -1.137112985e-14 0)
(3 -6.820685656e-15 0)
(3 -5.009768637e-15 0)
(3 -3.705609423e-15 0)
(3 -2.787619577e-15 0)
(3 -1.55342097e-15 0)
(3 1.083722137e-16 0)
(3 -4.30345566e-16 0)
(3 -2.478876191e-15 0)
(3 -2.432310115e-15 0)
(3 -2.456170599e-15 0)
(3 -2.933523288e-15 0)
(3 -2.891547307e-15 0)
(3 6.436503071e-15 0)
(3 8.402438135e-15 0)
(3 1.026249638e-14 0)
(3 1.102198563e-14 0)
(3 1.114268217e-14 0)
(3 1.310524828e-14 0)
(3 9.99567384e-15 0)
(3 9.067491093e-15 0)
(3 8.224303982e-15 0)
(3 6.823885511e-15 0)
(3 3.781640141e-15 0)
(3 -2.628343158e-15 0)
(3 -6.411666684e-15 0)
(3 5.791265903e-15 0)
(3 3.849455088e-15 0)
(3 4.906202492e-15 0)
(3 7.099664983e-15 0)
(3 5.502825816e-15 0)
(3 7.389178993e-15 0)
(3 9.911303124e-15 0)
(3 1.012709669e-14 0)
(3 7.585612733e-15 0)
(3 6.370971785e-15 0)
(3 6.264811962e-15 0)
(3 8.707583145e-15 0)
(3 8.926409879e-15 0)
(3 5.624969822e-15 0)
(3 4.174896336e-15 0)
(3 -1.944121312e-15 0)
(3 3.723841148e-15 0)
(3 -1.050699063e-15 0)
(3 -2.203960299e-15 0)
(3 -3.416295706e-15 0)
(3 -9.653453039e-16 0)
(3 3.790537324e-15 0)
(3 5.64778314e-15 0)
(3 6.443020043e-15 0)
(3 1.146939089e-15 0)
(3 3.377438901e-15 0)
(3 7.635593494e-15 0)
(3 7.679586661e-15 0)
(3 9.894445192e-15 0)
(3 1.120179502e-14 0)
(3 1.091197382e-14 0)
(3 9.52847903e-15 0)
(3 1.178303584e-14 0)
(3 7.270505234e-15 0)
(3 4.104106791e-15 0)
(3 2.418100514e-15 0)
(3 3.639866788e-15 0)
(3 5.184945305e-15 0)
(3 5.39761779e-15 0)
(3 4.153347792e-15 0)
(3 -1.012695093e-15 0)
(3 -1.794961459e-15 0)
(3 8.13519701e-16 0)
(3 7.224192728e-16 0)
(3 8.328537964e-15 0)
(3 1.075749286e-14 0)
(3 1.627664633e-14 0)
(3 2.193159769e-14 0)
(3 1.754559942e-14 0)
(3 1.529889575e-14 0)
(3 1.371483145e-14 0)
(3 1.345849224e-14 0)
(3 1.024187764e-14 0)
(3 8.81551536e-15 0)
(3 6.502031011e-15 0)
(3 -1.64394736e-15 0)
(3 -3.689229365e-15 0)
(3 -4.243067715e-15 0)
(3 -3.664248399e-15 0)
(3 -6.086345072e-16 0)
(3 4.097200337e-15 0)
(3 1.066440439e-14 0)
(3 1.583232582e-14 0)
(3 1.771382359e-14 0)
(3 9.434215177e-15 0)
(3 1.324491526e-14 0)
(3 1.457323652e-14 0)
(3 1.48476262e-14 0)
(3 1.129025083e-14 0)
(3 7.288165571e-15 0)
(3 -1.170323922e-16 0)
(3 -3.408846801e-15 0)
(3 -2.438200701e-15 0)
(3 -1.174646156e-15 0)
(3 -1.380305605e-15 0)
(3 1.771725114e-15 0)
(3 2.559259701e-15 0)
(3 5.18664288e-15 0)
(3 9.614680479e-15 0)
(3 1.211201046e-14 0)
(3 8.616441189e-15 0)
(3 1.145941651e-14 0)
(3 1.193945683e-14 0)
(3 8.729484304e-15 0)
(3 5.330444518e-15 0)
(3 2.17568955e-17 0)
(3 -2.368054682e-15 0)
(3 -5.781162598e-16 0)
(3 1.918357824e-15 0)
(3 6.252967972e-15 0)
(3 7.672224051e-15 0)
(3 8.829941348e-15 0)
(3 8.39945311e-15 0)
(3 6.223598706e-15 0)
(3 6.141222185e-15 0)
(3 8.510250696e-15 0)
(3 9.877112315e-15 0)
(3 7.215913111e-15 0)
(3 4.215037586e-15 0)
(3 -1.396633717e-15 0)
(3 -3.625745975e-15 0)
(3 -2.009108676e-15 0)
(3 -4.448600177e-16 0)
(3 2.036201895e-15 0)
(3 4.531365448e-15 0)
(3 9.141561669e-15 0)
(3 1.316742378e-14 0)
(3 1.319804954e-14 0)
(3 1.231948193e-14 0)
(3 8.467781646e-15 0)
(3 2.721307515e-15 0)
(3 1.285952594e-15 0)
(3 2.996711962e-15 0)
(3 -3.582728002e-15 0)
(3 -6.07122728e-15 0)
(3 -1.001495882e-14 0)
(3 -8.804187755e-15 0)
(3 -4.650233706e-15 0)
(3 -1.250653641e-15 0)
(3 3.049686835e-15 0)
(3 2.96843304e-15 0)
(3 6.654924314e-15 0)
(3 8.896624852e-15 0)
(3 8.488501316e-15 0)
(3 7.530328812e-15 0)
(3 5.82067787e-15 0)
(3 7.058188917e-15 0)
(3 4.929235137e-15 0)
(3 -8.204912586e-15 0)
(3 -1.158088211e-14 0)
(3 -1.209561964e-14 0)
(3 -1.252250862e-14 0)
(3 -7.649529346e-15 0)
(3 -1.283355324e-15 0)
(3 2.756380366e-15 0)
(3 5.676291588e-15 0)
(3 5.90489679e-15 0)
(3 4.871012051e-15 0)
(3 4.388959346e-15 0)
(3 4.253955284e-15 0)
(3 4.587221719e-15 0)
(3 7.15915978e-15 0)
(3 8.135278607e-15 0)
(3 6.385993729e-15 0)
(3 -1.254643986e-14 0)
(3 -1.222540982e-14 0)
(3 -9.151678633e-15 0)
(3 -4.252082662e-15 0)
(3 -6.329622784e-16 0)
(3 1.635355727e-15 0)
(3 4.302685953e-15 0)
(3 2.59578835e-15 0)
(3 1.639476623e-15 0)
(3 -7.994706508e-16 0)
(3 -1.705152317e-15 0)
(3 -1.402938488e-15 0)
(3 1.118645854e-15 0)
(3 2.656405965e-15 0)
(3 2.110436281e-15 0)
(3 3.324448213e-15 0)
(3 -2.937509226e-15 0)
(3 -2.019576982e-15 0)
(3 -4.512364134e-16 0)
(3 1.458624692e-15 0)
(3 2.339866494e-15 0)
(3 2.132946146e-15 0)
(3 4.230721247e-15 0)
(3 3.649034033e-15 0)
(3 2.057779916e-15 0)
(3 1.589647536e-15 0)
(3 8.236388896e-16 0)
(3 8.705258151e-16 0)
(3 2.135494208e-15 0)
(3 2.596136275e-15 0)
(3 4.40483822e-15 0)
(3 6.362916178e-15 0)
(3 1.178056918e-14 0)
(3 1.312669026e-14 0)
(3 1.166801269e-14 0)
(3 1.000114983e-14 0)
(3 7.721889756e-15 0)
(3 6.045683013e-15 0)
(3 6.159667735e-15 0)
(3 7.070426952e-15 0)
(3 6.888885488e-15 0)
(3 7.45111797e-15 0)
(3 7.888351611e-15 0)
(3 7.634376479e-15 0)
(3 5.117289432e-15 0)
(3 4.783859727e-15 0)
(3 7.747547243e-15 0)
(3 9.503373444e-15 0)
(3 1.476315662e-14 0)
(3 1.563199462e-14 0)
(3 1.680225172e-14 0)
(3 1.705151985e-14 0)
(3 1.566094485e-14 0)
(3 1.348232344e-14 0)
(3 9.915416293e-15 0)
(3 9.486220808e-15 0)
(3 9.851627525e-15 0)
(3 9.272419348e-15 0)
(3 7.487786018e-15 0)
(3 4.738644965e-15 0)
(3 -9.628112633e-18 0)
(3 3.769241802e-16 0)
(3 4.381077551e-16 0)
(3 1.009922584e-15 0)
(3 1.445933053e-14 0)
(3 1.659934718e-14 0)
(3 2.236981343e-14 0)
(3 2.185459358e-14 0)
(3 1.84036743e-14 0)
(3 1.392863419e-14 0)
(3 1.016985413e-14 0)
(3 8.856397887e-15 0)
(3 7.920141096e-15 0)
(3 5.802150261e-15 0)
(3 1.299915402e-15 0)
(3 -5.012572938e-15 0)
(3 -6.015314657e-15 0)
(3 -5.230984982e-15 0)
(3 -5.87743651e-15 0)
(3 -6.198863415e-15 0)
(3 9.501810539e-15 0)
(3 1.435284631e-14 0)
(3 1.875701181e-14 0)
(3 1.877848177e-14 0)
(3 1.69510001e-14 0)
(3 1.261829868e-14 0)
(3 8.401622973e-15 0)
(3 6.797437198e-15 0)
(3 6.653927017e-15 0)
(3 6.69681278e-15 0)
(3 6.850937935e-15 0)
(3 2.84899971e-15 0)
(3 -3.125471194e-16 0)
(3 -2.982986628e-15 0)
(3 -4.075780907e-15 0)
(3 -7.827406013e-15 0)
(3 4.401501438e-15 0)
(3 6.455223666e-15 0)
(3 8.59584598e-15 0)
(3 1.344706588e-14 0)
(3 1.143894122e-14 0)
(3 9.349608677e-15 0)
(3 7.904853402e-15 0)
(3 6.309047917e-15 0)
(3 5.784242297e-15 0)
(3 5.993382176e-15 0)
(3 5.684018622e-15 0)
(3 3.423006933e-15 0)
(3 2.814877199e-15 0)
(3 8.336245182e-16 0)
(3 -1.428267599e-15 0)
(3 -4.11225826e-15 0)
)
;

boundaryField
{
    inlet
    {
        type            fixedValue;
        value           nonuniform 0();
    }
    outlet
    {
        type            inletOutlet;
        inletValue      nonuniform 0();
        value           nonuniform 0();
    }
    bottom
    {
        type            slip;
    }
    top
    {
        type            slip;
    }
    obstacle
    {
        type            slip;
    }
    defaultFaces
    {
        type            empty;
    }
    procBoundary31to25
    {
        type            processor;
        value           nonuniform List<vector> 
34
(
(3 -7.984188643e-15 0)
(3 -8.465678206e-15 0)
(3 -9.411583988e-15 0)
(3 -1.227594213e-14 0)
(3 -1.283927844e-14 0)
(3 -1.077867271e-14 0)
(3 -8.388903675e-15 0)
(3 -6.514427355e-15 0)
(3 -5.566823144e-15 0)
(3 -4.987581614e-15 0)
(3 -2.823312555e-15 0)
(3 -1.866648412e-15 0)
(3 -1.056203433e-15 0)
(3 -2.598277817e-15 0)
(3 -3.741771654e-15 0)
(3 -4.268977435e-15 0)
(3 -3.585883387e-15 0)
(3 1.241591099e-14 0)
(3 1.216907613e-14 0)
(3 1.034042903e-14 0)
(3 1.073302021e-14 0)
(3 1.229357636e-14 0)
(3 1.470454355e-14 0)
(3 1.503857891e-14 0)
(3 1.416501669e-14 0)
(3 1.046003396e-14 0)
(3 7.867859747e-16 0)
(3 -5.197815598e-15 0)
(3 -8.222125027e-15 0)
(3 -8.396671806e-15 0)
(3 -3.636493817e-15 0)
(3 -8.083263402e-16 0)
(3 4.078752278e-15 0)
(3 4.078752278e-15 0)
)
;
    }
    procBoundary31to26
    {
        type            processor;
        value           uniform (3 2.800662696e-15 0);
    }
    procBoundary31to30
    {
        type            processor;
        value           nonuniform List<vector> 
16
(
(3 5.70317805e-15 0)
(3 8.458654549e-15 0)
(3 1.379307019e-14 0)
(3 1.623265413e-14 0)
(3 8.706801732e-15 0)
(3 3.935633787e-15 0)
(3 3.96430095e-15 0)
(3 4.580383453e-15 0)
(3 -3.760896198e-15 0)
(3 -1.134893979e-14 0)
(3 -5.337403405e-15 0)
(3 6.477153803e-15 0)
(3 1.576596887e-14 0)
(3 1.373566819e-14 0)
(3 4.049101645e-15 0)
(3 1.531928694e-15 0)
)
;
    }
    procBoundary31to32
    {
        type            processor;
        value           nonuniform List<vector> 
16
(
(3 1.476256679e-15 0)
(3 2.597083961e-15 0)
(3 1.032073866e-15 0)
(3 -2.931696978e-15 0)
(3 -6.41241621e-15 0)
(3 -4.010085884e-15 0)
(3 -6.9216781e-16 0)
(3 6.359423957e-15 0)
(3 1.310503088e-14 0)
(3 9.71524516e-15 0)
(3 -6.771897506e-16 0)
(3 -1.155953653e-14 0)
(3 -1.459262341e-14 0)
(3 -6.943965906e-15 0)
(3 -2.009884879e-15 0)
(3 -2.744539287e-15 0)
)
;
    }
}


// ************************************************************************* //
