/*--------------------------------*- C++ -*----------------------------------*\
  =========                 |
  \\      /  F ield         | OpenFOAM: The Open Source CFD Toolbox
   \\    /   O peration     | Website:  https://openfoam.org
    \\  /    A nd           | Version:  7
     \\/     M anipulation  |
\*---------------------------------------------------------------------------*/
FoamFile
{
    version     2.0;
    format      ascii;
    class       volScalarField;
    location    "3";
    object      T;
}
// * * * * * * * * * * * * * * * * * * * * * * * * * * * * * * * * * * * * * //

dimensions      [0 0 0 1 0 0 0];

internalField   nonuniform List<scalar> 
2222
(
1
1
1
1
1
1
1
1
1
1
1
1
1
1
1
1
1
1
1
1.000000013
1.000023119
1.002718255
1.370666795
1.937395744
2.289376821
2.269817981
2.210233971
2.158156635
2.119054383
2.085162373
2.05482593
2.027244148
2.001521235
1.976819305
1.952458098
1.927958252
1.903123639
1
1
1
1
1
1
1
1
1
1
1
1
1
1
1
1
1
1
1.000000158
1.000164346
1.025941919
1.363389637
1.795332406
2.222490995
2.28772808
2.226597313
2.170104489
2.128568721
2.093701846
2.06239054
2.033592092
2.006836429
1.981307065
1.956212147
1.931065167
1.905709757
1
1
1
1
1
1
1
1
1
1
1
1
1
1
1
1
1
1.000000002
1.000001872
1.001079575
1.123022908
1.48686049
1.63312775
2.228515395
2.327641173
2.257636706
2.19478304
2.148541859
2.110111724
2.076958386
2.047106026
2.018927293
1.991771411
1.965218893
1.938861091
1.912594177
1
1
1
1
1
1
1
1
1
1
1
1
1
1
1
1
1
1.000000018
1.000024345
1.00826563
1.30114099
1.600874101
1.611511105
2.025407962
2.334597426
2.278257717
2.21970255
2.171013681
2.132406433
2.098211629
2.066528219
2.036132386
2.006981963
1.978986498
1.951610606
1.924508732
1
1
1
1
1
1
1
1
1
1
1
1
1
1
1
1
1
1.000000233
1.00028863
1.052501211
1.463535982
1.639753683
1.633536793
1.76162044
2.282587906
2.282701466
2.233508173
2.185215569
2.146050087
2.112336185
2.080809025
2.049701899
2.019590335
1.990869074
1.963101534
1.935905106
1
1
1
1
1
1
1
1
1
1
1
1
1
1
1
1
1.000000002
1.000004412
1.003003018
1.183981635
1.567224986
1.650851708
1.646148997
1.651181354
2.136303282
2.286608868
2.236365867
2.190164893
2.15133865
2.11838723
2.087158904
2.056218762
2.026143255
1.997456893
1.969960108
1.943240888
1
1
1
1
1
1
1
1
1
1
1
1
1
1
1
1
1.000000055
1.000071995
1.023649746
1.367440571
1.622962912
1.647313405
1.640509493
1.630912791
1.884044509
2.245470604
2.232469546
2.190828388
2.152176857
2.119060048
2.087925251
2.057497362
2.027935157
1.999474554
1.972175022
1.945752562
1
1
1
1
1
1
1
1
1
1
1
1
1
1
1
1
1.000001293
1.000845001
1.110652077
1.504949606
1.644430724
1.645482263
1.635633535
1.623079829
1.686547224
2.144797737
2.2284247
2.189262152
2.15129932
2.117116764
2.08577094
2.056101307
2.027191412
1.998899268
1.97171898
1.945676246
1
1
1
1
1
1
1
1
1
1
1
1
1
1
1
1.000000016
1.00001788
1.007515778
1.281481095
1.58355677
1.653416934
1.650357199
1.636554912
1.615408946
1.616631615
1.968551723
2.206949448
2.185266078
2.148219823
2.112649283
2.081313646
2.052601502
2.024622855
1.996842781
1.969840076
1.944135224
1
1
1
1
1
1
1
1
1
1
1
1
1
1
1
1.000000305
1.000163484
1.048264924
1.445856605
1.617690789
1.652369553
1.644259857
1.630383122
1.610781863
1.599722924
1.741744993
2.137733467
2.180453013
2.145445835
2.108854342
2.076827341
2.048269486
2.020796234
1.993235681
1.966154215
1.940673629
1
1
1
1
1
1
1
1
1
1
1
1
1
1
1.000000004
1.000003518
1.00129106
1.175415126
1.551299571
1.650916817
1.652217896
1.63987994
1.623649379
1.606809082
1.592559501
1.608035392
2.003006114
2.171762239
2.13954396
2.104356178
2.071561309
2.042970588
2.016011399
1.988887536
1.962106712
1.936557804
1
1
1
1
1
1
1
1
1
1
1
1
1
1
1.000000046
1.000030028
1.010327466
1.365235561
1.609253648
1.660368638
1.654371101
1.638184435
1.618265963
1.603904891
1.587082548
1.575407373
1.778735943
2.121444671
2.132710668
2.103543833
2.069135831
2.039308261
2.011878455
1.984497894
1.957533939
1.931705843
1
1
1
1
1
1
1
1
1
1
1
1
1
1
1.000000429
1.000235284
1.060917692
1.513139519
1.641986995
1.656695454
1.653135395
1.636920006
1.613722206
1.599647408
1.581203013
1.565799793
1.60508354
2.000924643
2.130141826
2.099787434
2.06546444
2.035239466
2.007391771
1.980147946
1.953368471
1.927571047
1
1
1
1
1
1
1
1
1
1
1
1
1
1.000000002
1.000003959
1.002009896
1.200367761
1.598647829
1.663783992
1.661927859
1.652508488
1.633307057
1.609609465
1.593235554
1.577498479
1.558389241
1.552123306
1.798397232
2.094050746
2.093027366
2.064002939
2.032539659
2.003477444
1.976161437
1.94957502
1.923842413
1
1
1
1
1
1
1
1
1
1
1
1
1
1.000000029
1.000041365
1.016327303
1.392736585
1.638100865
1.667350564
1.662384189
1.649491601
1.630028286
1.607659184
1.588268684
1.575371214
1.554208129
1.539607034
1.60732897
1.982668713
2.085404605
2.061397991
2.030504097
1.999964593
1.972151863
1.945907716
1.920783101
1
1
1
1
1
1
1
1
1
1
1
1
1
1.000000479
1.000477417
1.087565278
1.534894663
1.672085446
1.670904221
1.659520977
1.645136422
1.62631692
1.604690306
1.585827198
1.571737188
1.553010195
1.530941677
1.532598838
1.808333156
2.057945177
2.057114645
2.02933328
1.997382356
1.968827999
1.942861482
1.918457525
1
1
1
1
1
1
1
1
1
1
1
1
1.000000004
1.000008052
1.005173013
1.253117379
1.619596977
1.680873972
1.675281016
1.65778745
1.640505887
1.622354295
1.600241661
1.583103398
1.566032955
1.550844102
1.526856299
1.515337519
1.610806034
1.964507863
2.049799097
2.026924459
1.99659058
1.967474981
1.941119456
1.916632462
1
1
1
1
1
1
1
1
1
1
1
1
1.000000092
1.00011053
1.039885667
1.436373447
1.660188257
1.674703666
1.6678391
1.651029011
1.634740008
1.618381698
1.59650108
1.579517047
1.562501285
1.547747814
1.527196489
1.507284387
1.51615095
1.81096888
2.030662324
2.022994573
1.995987561
1.965741058
1.938382698
1.914183806
1
1
1
1
1
1
1
1
1
1
1
1.000000001
1.00000153
1.001231168
1.163782676
1.562866351
1.677693172
1.675989816
1.662686033
1.644181036
1.628513292
1.613574807
1.592762778
1.575870593
1.560837589
1.544775089
1.527751111
1.504569358
1.495585635
1.613234947
1.947671007
2.018742378
1.996314966
1.966909849
1.938864253
1.91429477
1
1
1
1
1
1
1
1
1
1
1
1.000000015
1.000018532
1.011363241
1.361405469
1.637078292
1.682273723
1.677204706
1.65972032
1.638582306
1.62262942
1.607421308
1.588931886
1.572010975
1.559017368
1.542930499
1.526330217
1.504878882
1.48958471
1.505329257
1.812903844
2.007496818
1.995077155
1.968113088
1.938426712
1.912816466
1
1
1
1
1
1
1
1
1
1
1
1.000000222
1.000179993
1.069824668
1.517267336
1.66361451
1.679949074
1.671027032
1.652308268
1.63134301
1.615847015
1.600777011
1.583772607
1.567249259
1.555430032
1.540902047
1.523684189
1.50685691
1.487821257
1.480289575
1.618801882
1.937276306
1.992496974
1.970126853
1.940341083
1.914338254
1
1
1
1
1
1
1
1
1
1
1.000000002
1.000002847
1.001636054
1.225971672
1.611679291
1.68442727
1.681505466
1.667619183
1.646844193
1.625269454
1.609844921
1.59531677
1.578698274
1.562937868
1.550707509
1.538785375
1.521984394
1.507610939
1.486866385
1.473932442
1.497813016
1.818831576
1.98800455
1.969395937
1.94245841
1.916283303
1
1
1
1
1
1
1
1
1
1
1.00000002
1.000030998
1.013938447
1.424601416
1.651876954
1.689376336
1.681941191
1.666142103
1.644288694
1.621519533
1.604681975
1.588922497
1.572255576
1.557915736
1.545553047
1.535728953
1.519967056
1.504380827
1.48843741
1.471550586
1.465039597
1.629158667
1.93403851
1.96491787
1.946109413
1.919774111
1
1
1
1
1
1
1
1
1
1
1.000000274
1.000303921
1.078157851
1.560515315
1.685226522
1.686525584
1.679553382
1.66401356
1.641677779
1.617740146
1.600120111
1.583901646
1.567065951
1.552463006
1.540638741
1.53052305
1.517216329
1.50043376
1.489465716
1.469897435
1.457074559
1.493137601
1.827019953
1.965288352
1.947558714
1.922477328
1
1
1
1
1
1
1
1
1
1.000000001
1.000004208
1.002897891
1.237539271
1.639612611
1.694696775
1.690762027
1.678136897
1.660497934
1.638862169
1.61528172
1.597289737
1.580741088
1.563609831
1.547854941
1.536510977
1.52511071
1.514679412
1.497670128
1.486958303
1.470283844
1.453093458
1.448785256
1.644601587
1.925259629
1.94196481
1.924464876
1
1
1
1
1
1
1
1
1
1.000000032
1.000056529
1.023050757
1.431707755
1.671366106
1.690288846
1.686482871
1.674097985
1.657734955
1.638239223
1.61525406
1.596658869
1.579418419
1.561738602
1.544575561
1.53269921
1.520721129
1.51063505
1.494741011
1.481631749
1.470281854
1.450084318
1.436288559
1.489645474
1.823218636
1.940856967
1.923692058
1
1
1
1
1
1
1
1
1
1.000000702
1.000631571
1.111183297
1.561325073
1.695155764
1.692437121
1.683339498
1.669852078
1.654917039
1.638106012
1.616282631
1.597023224
1.579045657
1.560961958
1.542276493
1.528880152
1.516709653
1.504794914
1.491188287
1.475726272
1.465953249
1.447239647
1.427996875
1.427888319
1.654409353
1.907190643
1.915529201
1
1
1
1
1
1
1
1
1.000000006
1.000010386
1.006147312
1.289526396
1.636485652
1.697333439
1.694949021
1.683979995
1.667382337
1.652108087
1.636502997
1.615914942
1.596084942
1.578695204
1.560712646
1.540902949
1.525519244
1.51275334
1.498685531
1.485444234
1.469839328
1.457878546
1.443115555
1.42213859
1.407792263
1.483506761
1.804339374
1.904371645
1
1
1
1
1
1
1
1
1.000000119
1.000110819
1.044302535
1.465372949
1.666869643
1.690120683
1.685724634
1.675177678
1.661550281
1.648155667
1.634087593
1.615263567
1.595287444
1.578320987
1.560227083
1.539707435
1.522397027
1.508656025
1.493293754
1.478296389
1.464183835
1.448689558
1.435962174
1.415155094
1.396589486
1.401473512
1.652765377
1.868365752
1
1
1
1
1
1
1
1.000000001
1.000001674
1.001009093
1.172834471
1.579391646
1.689738924
1.68968628
1.68082232
1.668768468
1.655787161
1.643511976
1.630941363
1.61449414
1.594952804
1.578339768
1.559934053
1.538404011
1.519200358
1.503961888
1.487838807
1.470742522
1.456747277
1.439843851
1.426037175
1.40834205
1.388787966
1.375082571
1.47459529
1.775046419
1
1
1
1
1
1
1
1.000000017
1.000017383
1.008710743
1.371990011
1.642730446
1.694737165
1.689737491
1.678740636
1.664949726
1.651400385
1.639304061
1.627237483
1.612335866
1.593188553
1.576828053
1.558473434
1.536261509
1.515490343
1.498138559
1.48151636
1.462956629
1.447481583
1.431687197
1.414984789
1.399858122
1.379054315
1.362990335
1.376096076
1.638810612
1
1
1
1
1
1
1
1.000000221
1.000152041
1.055615267
1.526509346
1.664662184
1.690059751
1.687039032
1.675509353
1.661556397
1.647192033
1.634769034
1.622562984
1.60838974
1.589452525
1.573230861
1.554917414
1.532597759
1.510132695
1.491199497
1.473905058
1.454633858
1.437112208
1.422868926
1.404283562
1.389341195
1.370777569
1.354001713
1.343168975
1.464399044
1
1
1
1
1
1
1.000000002
1.000002386
1.001340573
1.194093964
1.615164295
1.694595556
1.694588065
1.686966918
1.673673851
1.659608363
1.644345098
1.631219624
1.618427214
1.604048986
1.584763122
1.568052968
1.549399761
1.527055626
1.502819483
1.483251197
1.464508911
1.445578481
1.426580879
1.412212442
1.394409797
1.377808156
1.362812062
1.343802342
1.33031809
1.353602564
1
1
1
1
1
1
1.000000019
1.000023488
1.011707748
1.393226382
1.657540741
1.701779974
1.699545752
1.688628672
1.673752468
1.659546161
1.643397014
1.629037671
1.615149302
1.599646001
1.57943471
1.56148798
1.54201063
1.519404272
1.494001166
1.474076872
1.453922359
1.435564854
1.416243799
1.400970388
1.385539706
1.366853933
1.353605766
1.33607341
1.320853836
1.315371934
1
1
1
1
1
1
1.000000191
1.000242326
1.070574504
1.543553055
1.694611977
1.704700704
1.702665796
1.693068631
1.678077301
1.662107742
1.643068351
1.626616018
1.611365306
1.594282126
1.572907514
1.553314102
1.532885025
1.50992375
1.484178436
1.46333299
1.443127211
1.424826493
1.406438815
1.389904763
1.375999693
1.357705738
1.343721361
1.330072754
1.312056565
1.301651519
1
1
1
1
1
1.000000001
1.000002745
1.002716748
1.227712807
1.63467528
1.714098312
1.711236529
1.706739534
1.696159435
1.680436098
1.663414387
1.642440567
1.623762934
1.607082552
1.588055426
1.565158661
1.543650217
1.522519656
1.499298707
1.4739945
1.451935548
1.432734321
1.413663273
1.396980091
1.380246561
1.366386924
1.350605251
1.334039824
1.32317534
1.306031297
1.29187255
1
1
1
1
1
1.000000014
1.000043596
1.024539093
1.424044095
1.679573713
1.711353304
1.711368648
1.708262619
1.697677784
1.681482064
1.664289295
1.642452345
1.621247059
1.602547336
1.581111378
1.556436301
1.532970447
1.511364436
1.48819892
1.46386842
1.440943426
1.422902052
1.403483462
1.387595872
1.371837836
1.357041643
1.343424441
1.32635567
1.315450537
1.301693909
1.284088996
1
1
1
1
1
1.000000355
1.000591995
1.12119988
1.558113978
1.695854163
1.712092077
1.711019312
1.707858566
1.697154243
1.681084959
1.664235881
1.641590212
1.617345383
1.596373707
1.572704731
1.54671109
1.521493772
1.499593605
1.476708697
1.453807139
1.430945088
1.412863246
1.394546418
1.378377742
1.364386129
1.34902743
1.335610302
1.320441278
1.307200723
1.296339886
1.278494454
1
1
1
1
1.000000002
1.000007768
1.006209729
1.307723901
1.629179419
1.710953263
1.71892406
1.715585392
1.708467728
1.696610907
1.680093043
1.661707105
1.637311658
1.61010431
1.58738679
1.56242279
1.535870273
1.509569008
1.487841504
1.465337728
1.443626771
1.421433545
1.40318056
1.386587432
1.369872612
1.357072803
1.341761731
1.327421392
1.314541415
1.299958785
1.289680996
1.274220224
1
1
1
1
1.000000082
1.000108276
1.044427261
1.476925665
1.657423153
1.712473194
1.717080126
1.713964966
1.707931991
1.695510268
1.676913153
1.656061352
1.629934384
1.600308782
1.575998293
1.550727493
1.52462299
1.498023888
1.475872254
1.454610876
1.43445943
1.413375256
1.394703225
1.378803182
1.362289074
1.349283607
1.33524784
1.319793806
1.30790744
1.293948822
1.282008682
1.269827623
1
1
1
1.000000001
1.000001646
1.001089709
1.170072116
1.586667171
1.68856299
1.715440508
1.715562795
1.712378521
1.705627288
1.691898104
1.671333345
1.648238016
1.620739792
1.589784444
1.563933216
1.53851345
1.513379134
1.487494333
1.465168056
1.445130145
1.425238733
1.405446659
1.386805642
1.371225376
1.355918826
1.341715015
1.328882644
1.312832099
1.300594998
1.288304947
1.274810925
1.263594551
1
1
1
1.000000017
1.000018896
1.009072943
1.364917177
1.648568332
1.71150389
1.721915633
1.718912371
1.713625246
1.704724737
1.68815039
1.664489181
1.638915406
1.610457878
1.579027217
1.551810603
1.526769293
1.502843202
1.478043652
1.455625919
1.436680851
1.417216846
1.398300213
1.379710128
1.363633882
1.34909401
1.334574093
1.321679195
1.306660917
1.292940792
1.282222741
1.268490004
1.255621263
1
1
1
1.000000241
1.000152402
1.053705518
1.521756424
1.672760394
1.724104287
1.726927632
1.723838864
1.716217258
1.703352882
1.682588803
1.655633241
1.627777692
1.599031916
1.56794291
1.539888504
1.515806022
1.493114766
1.469434139
1.44692832
1.42853719
1.409907246
1.390928107
1.372931277
1.356304334
1.342184106
1.328052946
1.31402235
1.300267924
1.285364554
1.27534251
1.26240162
1.247657816
1
1
1.000000001
1.000002289
1.001119077
1.182847045
1.619322079
1.713256817
1.733902787
1.731821629
1.726585349
1.716253077
1.699031285
1.67436691
1.644894457
1.61535286
1.586672502
1.556890287
1.528741303
1.505812441
1.484223071
1.461580835
1.438821079
1.420424704
1.40250701
1.383606404
1.365863454
1.348902734
1.334682982
1.321137333
1.306563059
1.292875545
1.278568846
1.26744424
1.256145751
1.240549902
1
1
1.000000012
1.000017545
1.008594353
1.373922404
1.678021304
1.732407637
1.738006932
1.735094468
1.728424652
1.714618568
1.692482253
1.66423853
1.632580064
1.602844914
1.574960491
1.546557009
1.518658747
1.49658996
1.475952724
1.454203808
1.431218815
1.412689456
1.395059204
1.376311574
1.357955547
1.341569607
1.326784533
1.31387704
1.299307631
1.28461706
1.271856194
1.259432436
1.24954451
1.234133598
1
1
1.000000129
1.000141651
1.052239588
1.527233163
1.712013416
1.740890466
1.739818577
1.73526021
1.727046016
1.709393695
1.682896824
1.653115674
1.619917578
1.589034206
1.563230234
1.537465196
1.509926514
1.488181524
1.468177331
1.446824467
1.423486415
1.40478827
1.387372537
1.369211777
1.350033219
1.334131229
1.318961096
1.306444269
1.292060131
1.276518452
1.264595614
1.251999013
1.241829367
1.227930202
1
1.000000001
1.000001723
1.001451424
1.185744619
1.623577952
1.740078473
1.745053718
1.741749222
1.735120501
1.722768291
1.700729327
1.671354395
1.640931683
1.607650162
1.578190181
1.553649968
1.528963946
1.501447662
1.479929124
1.460368964
1.4394938
1.415906554
1.396967756
1.379402636
1.361561642
1.342031307
1.326012421
1.311323929
1.298537912
1.28464362
1.268666169
1.25677428
1.245111137
1.233994878
1.221640952
1
1.000000011
1.000026324
1.014630256
1.38085553
1.684671401
1.745527114
1.745075451
1.74176245
1.732431044
1.716228728
1.690639955
1.65967242
1.629717401
1.59684212
1.567554357
1.544433846
1.52113557
1.493808444
1.472018379
1.452494045
1.431661555
1.407538045
1.388463399
1.371010274
1.353656174
1.334345727
1.317704171
1.303817514
1.290579185
1.277298181
1.261077869
1.248837766
1.237971227
1.226365542
1.21395353
1
1.000000252
1.000380221
1.088705487
1.531368676
1.719524721
1.746387115
1.744643482
1.738940374
1.727297207
1.708941352
1.6804757
1.648534252
1.619569533
1.587393792
1.558734346
1.536399251
1.513555104
1.485879667
1.463589747
1.44403639
1.42348465
1.399173562
1.379709046
1.362376918
1.345415458
1.326579985
1.309400245
1.296058359
1.282553257
1.269351228
1.253380012
1.24077808
1.230447327
1.219093225
1.205863755
1
1.000004145
1.004352611
1.266875672
1.630167005
1.742400469
1.749339711
1.745392747
1.737361642
1.72123889
1.699588725
1.66931899
1.637875275
1.610327277
1.579109912
1.550267312
1.527997585
1.505395209
1.47789132
1.455004319
1.435390997
1.414906815
1.390571783
1.370524467
1.353555234
1.336805198
1.318571967
1.301102966
1.287877601
1.274640517
1.261310982
1.245933482
1.232847665
1.222744546
1.211731099
1.197899204
1
1.000048405
1.033844045
1.465613761
1.692739643
1.746378733
1.745986244
1.74131866
1.730285721
1.712632761
1.689319947
1.658328934
1.628394242
1.602007517
1.571069872
1.541693943
1.51961373
1.497181983
1.469571889
1.445849994
1.426253193
1.405944403
1.382091543
1.361350463
1.344824253
1.328272248
1.310664831
1.292892214
1.27954812
1.266592541
1.253092938
1.237887774
1.224886324
1.214621939
1.204020181
1.190517789
1
1.000463594
1.14536393
1.604363397
1.734447031
1.744128339
1.740940801
1.733051847
1.722003981
1.702982652
1.67951336
1.64949927
1.62087546
1.594879187
1.563786958
1.533302104
1.510761278
1.48822717
1.461055193
1.436562256
1.41696491
1.396698533
1.373364342
1.351939165
1.335790681
1.319416007
1.302237404
1.284382514
1.270998887
1.258337422
1.245038971
1.229813726
1.217216478
1.206478558
1.196472927
1.183062589
1
1.004238728
1.348488647
1.690658194
1.749625802
1.744897467
1.736178987
1.725800616
1.713921751
1.694508913
1.670946056
1.642076295
1.613766237
1.587356677
1.556110158
1.524738968
1.501914192
1.479287451
1.452373306
1.426918689
1.40728307
1.387031369
1.364306836
1.342398923
1.326458077
1.310456503
1.293712928
1.2758257
1.262365615
1.249974763
1.236921112
1.22139371
1.209046555
1.198194577
1.188432403
1.175675568
1.000000062
1.032638597
1.539671086
1.729842637
1.744504887
1.739016433
1.727711192
1.719154403
1.706624819
1.686665218
1.663828035
1.634744843
1.605731047
1.578991777
1.548019044
1.515872123
1.4926734
1.469908529
1.443550531
1.417333324
1.397544585
1.377337223
1.355174782
1.332744763
1.31680687
1.301207992
1.28477967
1.267002962
1.253582939
1.24139676
1.22857089
1.213239497
1.200778947
1.19030654
1.180317704
1.168315457
1.000009804
1.147563337
1.662766791
1.751042292
1.743901948
1.730623637
1.717814228
1.712611502
1.7004786
1.68093604
1.657765684
1.627512038
1.59736706
1.57016452
1.539704146
1.507112381
1.483526328
1.460661833
1.434780892
1.407786878
1.387661016
1.367436219
1.345658299
1.322921139
1.30688696
1.291659315
1.275721889
1.258141433
1.244796467
1.232771705
1.220206989
1.204842085
1.192087924
1.182113756
1.172007658
1.160736774
1.000710698
1.372702402
1.734010074
1.744942021
1.734535595
1.720495622
1.712335907
1.708711808
1.696199016
1.676216628
1.652098307
1.620247319
1.588760348
1.561122549
1.531063463
1.497897769
1.473810895
1.450911651
1.425547808
1.398124187
1.377616011
1.357461521
1.336119905
1.313114662
1.296865834
1.282026702
1.266522666
1.249111349
1.235836004
1.22388519
1.211508544
1.196543638
1.183565667
1.173926108
1.163983128
1.152681963
1.019861717
1.580107304
1.750528327
1.742122329
1.728957488
1.7143975
1.710029535
1.705756491
1.691858206
1.670724562
1.645162847
1.611840545
1.579204765
1.551254445
1.521742331
1.488455179
1.463815294
1.440913972
1.416007293
1.388223496
1.367175016
1.347154464
1.326135846
1.303096987
1.28658227
1.271982135
1.256912104
1.239840362
1.226589943
1.214866941
1.202682948
1.187969854
1.17480188
1.165516062
1.155896556
1.144880747
1.139895061
1.701994588
1.755692069
1.737497897
1.719899153
1.70892153
1.706446068
1.701787237
1.686599872
1.663753971
1.636925015
1.602845511
1.569402656
1.541363871
1.512437574
1.479078373
1.453596897
1.430607839
1.405937908
1.377980607
1.356404041
1.336584121
1.316052955
1.293249798
1.276425966
1.262081062
1.247303195
1.23048959
1.2170989
1.205569415
1.19346373
1.179343166
1.166085113
1.156913311
1.147632732
1.136806934
1.417182259
1.763235722
1.747406793
1.726407962
1.713113643
1.707933979
1.705595562
1.698929651
1.681540905
1.656743617
1.62865283
1.593811094
1.559281549
1.531091062
1.502660894
1.46952171
1.443283981
1.42017739
1.395658501
1.367620706
1.345354073
1.325812261
1.305745172
1.283287817
1.266107518
1.251874208
1.237368755
1.221010013
1.207461966
1.196231373
1.18433977
1.170611303
1.157371203
1.148348175
1.139334508
1.129065997
1.117854009
1.636328132
1.726568555
1.713559885
1.708871674
1.707286684
1.707679032
1.706250849
1.696995367
1.677347218
1.650500998
1.621070843
1.585228052
1.549289973
1.520598033
1.492254824
1.459329234
1.432189073
1.409082204
1.384688588
1.356755558
1.33391871
1.314684108
1.295163736
1.273329745
1.255967331
1.241945216
1.22757131
1.211468601
1.19771014
1.186674797
1.174891285
1.161686358
1.148587193
1.13954816
1.1308809
1.12092461
1.109570047
1.726741565
1.72134692
1.704386501
1.700992607
1.702679341
1.705385523
1.703612329
1.694020572
1.672504232
1.643552041
1.612627571
1.575942447
1.538733406
1.509388107
1.480778888
1.448005393
1.419891427
1.396985183
1.372995664
1.345561603
1.322145661
1.303232921
1.284184037
1.262995174
1.245422771
1.231612662
1.217503836
1.201930713
1.188001851
1.17712571
1.16567973
1.152803919
1.139812023
1.130808226
1.12233047
1.112887369
1.101797173
1.733559996
1.730378162
1.722394538
1.712090868
1.707892573
1.706352277
1.70165916
1.688057787
1.663660122
1.632919911
1.601435966
1.564986764
1.527315952
1.497740752
1.469041156
1.436562947
1.407211148
1.384353707
1.360881476
1.334219861
1.310399131
1.291702746
)
;

boundaryField
{
    inlet
    {
        type            fixedValue;
        value           nonuniform 0();
    }
    outlet
    {
        type            inletOutlet;
        inletValue      nonuniform 0();
        value           nonuniform 0();
    }
    bottom
    {
        type            slip;
    }
    top
    {
        type            slip;
    }
    obstacle
    {
        type            zeroGradient;
    }
    defaultFaces
    {
        type            empty;
    }
    procBoundary3to2
    {
        type            processor;
        value           nonuniform List<scalar> 
38
(
1
1
1
1
1
1
1
1
1
1
1
1
1
1
1
1
1
1
1
1
1
1
1
1
1
1
1
1
1
1
1
1
1
1
1
1
1
1
)
;
    }
    procBoundary3to4
    {
        type            processor;
        value           nonuniform List<scalar> 
62
(
1.878129372
1.880349528
1.886580662
1.897682886
1.909022324
1.916890291
1.919996492
1.920399327
1.91932353
1.916627027
1.912534074
1.907507001
1.903269787
1.899549516
1.896968453
1.895374118
1.894082487
1.892457132
1.89271079
1.890918229
1.89182793
1.892606954
1.894415888
1.896052748
1.897858178
1.89835256
1.897453427
1.893433826
1.884871855
1.868322452
1.832213483
1.74737594
1.62310057
1.459308716
1.338218851
1.292753938
1.277105544
1.267473536
1.260088592
1.253058462
1.247849829
1.243722031
1.237944206
1.230227783
1.221919653
1.213977264
1.207039638
1.200987714
1.194749752
1.187446289
1.179322297
1.171103419
1.163122795
1.155358658
1.148209578
1.141053364
1.133796087
1.125750985
1.125750985
1.11120591
1.103158409
1.095403749
)
;
    }
    procBoundary3to8
    {
        type            processor;
        value           nonuniform List<scalar> 
25
(
1
1
1
1
1
1
1
1
1
1
1
1
1
1
1
1
1
1
1
0.9999999928
0.9999913882
0.9987611606
0.9862313058
1.217031887
1.61579661
)
;
    }
    procBoundary3to9
    {
        type            processor;
        value           nonuniform List<scalar> 
38
(
1.273123758
1.252717457
1.235050615
1.221422127
1.207404003
1.192063373
1.177984717
1.167287816
1.156041587
1.143641458
1.130792988
1.121977802
1.113740504
1.104663564
1.0935469
1.714618599
1.724985361
1.724736295
1.722770114
1.718737777
1.712445591
1.701082829
1.682940805
1.654684155
1.621339408
1.589338785
1.553472191
1.515518793
1.485847751
1.457301896
1.425355792
1.394957725
1.371873955
1.348679321
1.322767244
1.298568011
1.273123758
1.280216879
)
;
    }
}


// ************************************************************************* //
