/*--------------------------------*- C++ -*----------------------------------*\
  =========                 |
  \\      /  F ield         | OpenFOAM: The Open Source CFD Toolbox
   \\    /   O peration     | Website:  https://openfoam.org
    \\  /    A nd           | Version:  7
     \\/     M anipulation  |
\*---------------------------------------------------------------------------*/
FoamFile
{
    version     2.0;
    format      ascii;
    class       volVectorField;
    location    "4.9";
    object      U;
}
// * * * * * * * * * * * * * * * * * * * * * * * * * * * * * * * * * * * * * //

dimensions      [0 1 -1 0 0 0 0];

internalField   nonuniform List<vector> 
143
(
(3 5.266904286e-15 0)
(3 5.45772588e-15 0)
(3 5.802454756e-15 0)
(3 4.44136149e-15 0)
(3 4.277428092e-15 0)
(3 3.064339524e-15 0)
(3 2.51520344e-15 0)
(3 -1.95442323e-17 0)
(3 -1.044560735e-17 0)
(3 8.430721406e-16 0)
(3 1.966006375e-15 0)
(3 2.291397353e-15 0)
(3 2.808584111e-15 0)
(3 2.831516992e-15 0)
(3 2.674753114e-15 0)
(3 2.472686285e-15 0)
(3 -8.505549404e-15 0)
(3 -8.227378928e-15 0)
(3 -7.077374965e-15 0)
(3 -6.402222674e-15 0)
(3 -5.347959166e-15 0)
(3 -3.521073278e-15 0)
(3 -1.871782362e-15 0)
(3 -9.449898208e-16 0)
(3 1.369519603e-16 0)
(3 -1.203010858e-14 0)
(3 -1.039059806e-14 0)
(3 -9.228245727e-15 0)
(3 -7.441034122e-15 0)
(3 -5.880860826e-15 0)
(3 -3.845100817e-15 0)
(3 -1.685332273e-15 0)
(3 8.969518742e-16 0)
(3 1.474652317e-15 0)
(3 1.959236627e-15 0)
(3 1.21004349e-15 0)
(3 8.64268361e-17 0)
(3 -1.564552321e-15 0)
(3 -3.354561397e-15 0)
(3 -4.801158982e-15 0)
(3 -5.035132611e-15 0)
(3 -5.069561863e-15 0)
(3 -4.383902668e-15 0)
(3 1.25988232e-14 0)
(3 9.658984308e-15 0)
(3 6.122792401e-15 0)
(3 1.601710137e-15 0)
(3 -3.143463909e-15 0)
(3 -6.915516861e-15 0)
(3 -7.685624526e-15 0)
(3 -8.550637719e-15 0)
(3 -8.845710257e-15 0)
(3 1.231175046e-14 0)
(3 9.550209516e-15 0)
(3 9.038297051e-15 0)
(3 8.304409394e-15 0)
(3 8.051181322e-15 0)
(3 5.192907172e-15 0)
(3 6.702877012e-16 0)
(3 -1.394545314e-15 0)
(3 -3.798710054e-15 0)
(3 7.7768222e-15 0)
(3 9.693482963e-15 0)
(3 1.126365158e-14 0)
(3 1.237912618e-14 0)
(3 1.18703464e-14 0)
(3 9.277435061e-15 0)
(3 5.742186923e-15 0)
(3 1.711267811e-15 0)
(3 -3.567461413e-15 0)
(3 2.21413697e-15 0)
(3 6.380282934e-15 0)
(3 9.457915689e-15 0)
(3 1.090350498e-14 0)
(3 9.130811088e-15 0)
(3 7.112725967e-15 0)
(3 5.286180066e-15 0)
(3 3.882087827e-15 0)
(3 2.385137593e-15 0)
(3 3.019256819e-15 0)
(3 7.87761696e-17 0)
(3 -9.633855336e-16 0)
(3 -2.630141489e-15 0)
(3 -4.185859937e-15 0)
(3 -2.654706646e-15 0)
(3 -3.293753037e-15 0)
(3 -1.682771027e-15 0)
(3 -5.788655263e-15 0)
(3 -8.298903309e-15 0)
(3 -9.348165308e-15 0)
(3 -1.04655568e-14 0)
(3 -1.420177198e-14 0)
(3 -1.392153322e-14 0)
(3 -1.255535413e-14 0)
(3 -1.044983481e-14 0)
(3 -2.906139053e-15 0)
(3 -2.584959234e-15 0)
(3 -4.115178533e-15 0)
(3 -2.95961471e-15 0)
(3 -3.35699918e-15 0)
(3 -6.701945971e-15 0)
(3 -1.050150306e-14 0)
(3 -1.203190488e-14 0)
(3 9.729472221e-16 0)
(3 4.00710828e-15 0)
(3 3.677061367e-15 0)
(3 5.142853705e-15 0)
(3 7.387825622e-15 0)
(3 7.045951003e-15 0)
(3 4.625046405e-15 0)
(3 3.084294781e-15 0)
(3 7.280716661e-16 0)
(3 2.609444444e-15 0)
(3 3.727439069e-15 0)
(3 7.53701974e-15 0)
(3 1.39192545e-14 0)
(3 1.516098885e-14 0)
(3 1.443638911e-14 0)
(3 1.255124415e-14 0)
(3 -6.753655175e-15 0)
(3 -7.625273202e-15 0)
(3 -5.812302264e-15 0)
(3 -3.038432985e-15 0)
(3 8.601009477e-16 0)
(3 6.406338516e-15 0)
(3 1.340529432e-14 0)
(3 1.36779712e-14 0)
(3 -1.063452522e-14 0)
(3 -1.027826527e-14 0)
(3 -9.355613066e-15 0)
(3 -8.981215621e-15 0)
(3 -6.255958072e-15 0)
(3 -3.824738906e-15 0)
(3 7.001995554e-16 0)
(3 5.059054488e-15 0)
(3 -2.66162332e-15 0)
(3 -2.729519831e-15 0)
(3 -3.472733769e-15 0)
(3 -3.515752796e-15 0)
(3 -3.779326046e-15 0)
(3 -3.900322114e-15 0)
(3 -2.242452288e-15 0)
(3 -9.168212242e-16 0)
)
;

boundaryField
{
    inlet
    {
        type            fixedValue;
        value           nonuniform 0();
    }
    outlet
    {
        type            inletOutlet;
        inletValue      nonuniform 0();
        value           nonuniform 0();
    }
    bottom
    {
        type            slip;
    }
    top
    {
        type            slip;
    }
    obstacle
    {
        type            slip;
    }
    defaultFaces
    {
        type            empty;
    }
    procBoundary31to25
    {
        type            processor;
        value           nonuniform List<vector> 
18
(
(3 1.627054624e-15 0)
(3 4.971633151e-16 0)
(3 2.282277956e-16 0)
(3 -9.242777258e-16 0)
(3 -1.058294591e-15 0)
(3 -1.565136619e-15 0)
(3 -1.536996116e-15 0)
(3 6.357297559e-15 0)
(3 5.847505045e-15 0)
(3 5.847505045e-15 0)
(3 4.16628044e-15 0)
(3 2.059120549e-15 0)
(3 8.034568682e-16 0)
(3 1.274664247e-16 0)
(3 3.799296216e-15 0)
(3 7.429799153e-15 0)
(3 6.763465396e-15 0)
(3 6.366545375e-15 0)
)
;
    }
    procBoundary31to26
    {
        type            processor;
        value           uniform (3 2.077053115e-15 0);
    }
    procBoundary31to30
    {
        type            processor;
        value           nonuniform List<vector> 8((3 3.932995609e-15 0) (3 -4.292976514e-15 0) (3 -4.246716431e-15 0) (3 -4.890150186e-16 0) (3 -1.837357457e-15 0) (3 -7.348491968e-15 0) (3 -7.814425895e-15 0) (3 -1.435996556e-15 0));
    }
    procBoundary31to32
    {
        type            processor;
        value           nonuniform List<vector> 8((3 1.067304847e-15 0) (3 1.162379018e-15 0) (3 2.920017225e-15 0) (3 -5.405418639e-15 0) (3 -9.763722171e-15 0) (3 -6.234645578e-15 0) (3 -5.407266688e-15 0) (3 -7.283371078e-17 0));
    }
}


// ************************************************************************* //
