/*--------------------------------*- C++ -*----------------------------------*\
  =========                 |
  \\      /  F ield         | OpenFOAM: The Open Source CFD Toolbox
   \\    /   O peration     | Website:  https://openfoam.org
    \\  /    A nd           | Version:  7
     \\/     M anipulation  |
\*---------------------------------------------------------------------------*/
FoamFile
{
    version     2.0;
    format      ascii;
    class       volScalarField;
    location    "1.6";
    object      T;
}
// * * * * * * * * * * * * * * * * * * * * * * * * * * * * * * * * * * * * * //

dimensions      [0 0 0 1 0 0 0];

internalField   nonuniform List<scalar> 
555
(
1
1
1
1
1
1
1
1
1
1
1
1
1.000000001
1.000000022
1.000000713
1.000011911
1
1
1
1
1
1
1
1
1
1
1
1.000000001
1.000000028
1.000000622
1.000012892
1.000140452
1
1
1
1
1
1
1
1
1
1
1.000000001
1.000000021
1.000000739
1.000011454
1.000150197
1.001125697
1
1
1
1
1
1
1
1
1
1.000000001
1.000000027
1.00000058
1.000013275
1.000140462
1.001229261
1.006192181
1
1
1
1
1
1
1
1
1.000000001
1.000000021
1.000000741
1.000011185
1.000154865
1.0011948
1.006397834
1.023438209
1
1
1
1
1
1
1
1.000000001
1.000000026
1.000000579
1.000013614
1.000141868
1.001247068
1.006445066
1.022988637
1.053005092
1
1
1
1
1
1
1.000000001
1.000000021
1.000000754
1.000010973
1.000163483
1.001192016
1.006577936
1.023444296
1.052431397
1.079783953
1
1
1
1
1
1.000000001
1.000000027
1.000000581
1.000013903
1.000138784
1.001308901
1.00645852
1.023616093
1.052740174
1.083843435
1.093514453
1
1
1
1
1.000000001
1.000000021
1.000000763
1.000010851
1.000168649
1.001162514
1.006919767
1.023500426
1.053048036
1.081373406
1.100203384
1.10313124
1
1
1
1.000000001
1.000000027
1.000000583
1.000013867
1.000136054
1.001351392
1.006407837
1.024292818
1.053619426
1.085195954
1.094248449
1.100444269
1.104059944
1
1
1.000000001
1.000000021
1.000000748
1.000010673
1.000167124
1.001140868
1.007113419
1.02359773
1.053148964
1.084072309
1.101548738
1.103636658
1.102910471
1.103181662
1
1.000000001
1.000000026
1.000000567
1.00001334
1.000132671
1.001342634
1.006346021
1.024509651
1.054533581
1.084962738
1.095228813
1.102154057
1.104837375
1.104118466
1.101629307
1.000000001
1.00000002
1.0000007
1.000010309
1.000159943
1.001125778
1.007040325
1.023695517
1.052778035
1.085335529
1.102269769
1.104206264
1.104483719
1.1044707
1.102303329
1.097164171
1.000000024
1.000000532
1.000012555
1.000128597
1.001305716
1.006299655
1.024322554
1.054743868
1.08471348
1.096353731
1.103957166
1.105697029
1.105320992
1.102956341
1.097690878
1.09014422
1.000000643
1.000009935
1.000150886
1.001120595
1.006835165
1.023875711
1.052528747
1.085005435
1.102868451
1.104970743
1.105781963
1.105660056
1.103409222
1.098224781
1.090532957
1.081504216
1.0000118
1.000125326
1.001258815
1.006283488
1.024039148
1.054556554
1.085226566
1.097465227
1.105430397
1.106618658
1.106243418
1.10381613
1.098540308
1.091004031
1.081900328
1.072684935
1.000141484
1.001119097
1.006595654
1.023982326
1.052907236
1.083860974
1.104156817
1.106337776
1.107176911
1.10672443
1.104173248
1.09862379
1.091372519
1.082114509
1.072907703
1.064102598
1.001193441
1.00634038
1.023459744
1.054980487
1.085578149
1.098728085
1.106458825
1.108066893
1.107399331
1.104662681
1.099100087
1.091460173
1.082560255
1.072910163
1.063734086
1.054598021
1.006392324
1.023999027
1.053602638
1.083124053
1.104871861
1.107974244
1.10854298
1.108244981
1.10534047
1.099544086
1.091583783
1.08271297
1.072991279
1.063646309
1.054380279
1.044314785
1.022801636
1.055734857
1.08652301
1.099498142
1.106822984
1.109657623
1.109146636
1.106208278
1.100332726
1.092023172
1.082941072
1.073195362
1.063435217
1.054015863
1.043914571
1.034571672
1.054039333
1.083221191
1.104745781
1.109270327
1.109269299
1.109422346
1.107059459
1.101051052
1.092588705
1.083195686
1.073168845
1.063493116
1.053220217
1.043708903
1.033886035
1.024945795
1.088255445
1.100198036
1.106619356
1.110409668
1.110317528
1.107820823
1.101949591
1.093480312
1.083351257
1.073596829
1.062996206
1.052990016
1.043149203
1.033136642
1.024021769
1.014500636
1.104821213
1.10993367
1.109670741
1.110137546
1.108312249
1.102915557
1.094345903
1.083971765
1.073592545
1.063099907
1.052507339
1.042278115
1.032693017
1.022296187
1.013138163
1.004158584
1.106676175
1.110758441
1.11077383
1.108882609
1.10359476
1.095240401
1.084704491
1.073890383
1.063100854
1.05204797
1.041239439
1.031526606
1.021537116
1.011102604
1.002581223
0.9930855583
1.110203015
1.110558504
1.109029524
1.104164095
1.095921775
1.085785736
1.074131492
1.063202445
1.051550881
1.040198915
1.030450375
1.020250826
1.009889637
0.9998885219
0.9916676819
0.9822102671
1.111203053
1.109500197
1.104503966
1.096699006
1.086273569
1.074873672
1.063090218
1.050894487
1.039916144
1.028664745
1.019036903
1.007899749
0.9978360976
0.9893002946
0.9796589814
0.971480099
1.109818733
1.105113372
1.097092828
1.086910852
1.075327094
1.063117074
1.050779994
1.038750021
1.027915983
1.016633305
1.006138075
0.9958406316
0.9867538241
0.9775049464
0.9681595502
0.9609218831
1.105680582
1.097627825
1.087366504
1.075628047
1.063380852
1.050554763
1.037667719
1.026433566
1.015061414
1.003394098
0.9936770636
0.9842036565
0.9744979458
0.9648735276
0.9575726831
0.9507925802
1.09827812
1.087818214
1.076098875
1.063385401
1.050541483
1.036249885
1.024838601
1.013457642
1.001348289
0.9905672607
0.981890581
0.9726208369
0.9610489553
0.9537416634
0.9467706393
0.9381614449
1.088234386
1.076392892
1.06364785
1.049600623
1.035995182
1.022528779
1.011929977
0.9995758322
0.9867987325
0.9783783328
0.9695447031
0.9584477057
0.9487439703
0.9433878592
0.9359057315
0.9261122008
1.076456202
1.063613241
1.049285093
1.035237139
1.021206599
1.009418381
0.9974878399
0.9840405652
0.9740328924
0.9662014163
0.9558102272
0.9439492675
0.9378067019
0.9322897544
0.9229663007
0.9158760922
1.063415197
1.049151135
1.034227468
1.019548482
1.006506492
0.9944237764
0.9811534555
0.9696695368
0.9617665252
0.9535090506
0.9415898913
0.9334721666
0.9275700207
0.9193733028
0.9093483679
0.9033175765
1.048904994
1.032714488
1.017832034
1.003363285
0.9919888948
0.9789661664
0.9658812548
0.9575011032
0.9484492417
0.9378441366
0.9268414423
0.9213732976
0.9156638037
0.9059972643
0.8984482275
0.8933245754
1.031735008
1.015856096
1.000314984
0.9882221844
0.9757248989
0.961258351
0.9519075537
0.9442582576
0.9343268481
0.9228090445
0.9154993753
0.908855617
0.8998966475
0.8914934378
0.8853665683
0.8805587032
1.014228996
0.9978895373
0.9835117013
0.9725755753
0.9575463724
0.9449011936
0.9375684774
0.9285035501
0.917233828
0.9104892505
0.9056602438
)
;

boundaryField
{
    inlet
    {
        type            fixedValue;
        value           nonuniform 0();
    }
    outlet
    {
        type            inletOutlet;
        inletValue      nonuniform 0();
        value           nonuniform 0();
    }
    bottom
    {
        type            slip;
    }
    top
    {
        type            slip;
    }
    obstacle
    {
        type            zeroGradient;
    }
    defaultFaces
    {
        type            empty;
    }
    procBoundary4to3
    {
        type            processor;
        value           nonuniform List<scalar> 
30
(
1
1
1
1
1
1
1
1
1
1
1
1
1
1
1.000000018
1.000000495
1.000009669
1.000124143
1.001121072
1.006503831
1.024166748
1.055737757
1.083016013
1.101204039
1.110664341
1.111240729
1.111248395
1.110347064
1.106381555
1.099107627
)
;
    }
    procBoundary4to5
    {
        type            processor;
        value           nonuniform List<scalar> 
34
(
1.000148046
1.001219985
1.006456691
1.022728851
1.051091631
1.081874631
1.098096936
1.100146779
1.102531242
1.103361638
1.101408902
1.096716308
1.089643098
1.081216259
1.072750035
1.064077008
1.054181873
1.044270652
1.035420581
1.026336937
1.016567527
1.005726515
0.9948294125
0.9845119697
0.9743984239
0.9639683369
0.953172346
0.9420172588
0.930727384
0.9203276695
0.9109132474
0.8981745939
0.886145022
0.8752798988
)
;
    }
    procBoundary4to9
    {
        type            processor;
        value           nonuniform List<scalar> 5(1.088870694 1.076454426 1.062796464 1.047282945 1.029468911);
    }
    procBoundary4to10
    {
        type            processor;
        value           nonuniform List<scalar> 
17
(
0.8973802696
0.8871796434
0.8805390356
0.8773079445
0.8742951818
0.9953229834
0.9777693615
0.9661265136
0.9546290132
0.9393072946
0.9323542853
0.9251044625
0.9137946578
0.9021742758
0.8964643832
0.8973802696
0.8899223558
)
;
    }
}


// ************************************************************************* //
