/*--------------------------------*- C++ -*----------------------------------*\
  =========                 |
  \\      /  F ield         | OpenFOAM: The Open Source CFD Toolbox
   \\    /   O peration     | Website:  https://openfoam.org
    \\  /    A nd           | Version:  7
     \\/     M anipulation  |
\*---------------------------------------------------------------------------*/
FoamFile
{
    version     2.0;
    format      ascii;
    class       volScalarField;
    location    "4.7";
    object      T;
}
// * * * * * * * * * * * * * * * * * * * * * * * * * * * * * * * * * * * * * //

dimensions      [0 0 0 1 0 0 0];

internalField   nonuniform List<scalar> 
2222
(
1.011234379
1.011119287
1.009151368
1.008481461
1.009521772
1.011014817
1.011345825
1.011808874
0.9049256247
0.8966265546
0.8720823062
0.8491468204
0.8344780689
0.8293693163
0.8297648542
0.8324600945
0.8368315414
0.8399796089
0.8412370117
0.8424185589
0.8438524019
0.8445824447
0.8451234719
0.8455158412
0.8459251173
0.847813567
0.8556345117
0.8859615716
0.945820587
0.992723083
1.007685659
1.008593384
1.010277476
1.011676967
1.011447259
1.009326272
1.008817154
1.010001433
1.011208646
1.011147078
1.011447057
0.905744482
0.9064947169
0.8982181329
0.8734700623
0.8499211259
0.83461941
0.8293199274
0.8297652593
0.8321751322
0.8363952437
0.8397025015
0.8411391273
0.8423652591
0.8435742577
0.844283981
0.8449771607
0.8454886884
0.8460666757
0.8484526533
0.8601251386
0.9009185573
0.9611619645
1.003448471
1.01040199
1.010526631
1.010869551
1.012014359
1.011830688
1.009613726
1.009383539
1.010701521
1.011696571
1.011380519
1.011353529
0.9072557883
0.9082165145
0.8998972263
0.8745458062
0.850448682
0.8350153644
0.8292098984
0.8295260115
0.8319818585
0.8358593316
0.8392549336
0.8409986267
0.842400113
0.8435308685
0.8441975484
0.8448609781
0.8454297391
0.8463537742
0.8499606552
0.8670646388
0.912420833
0.9766950552
1.005738218
1.010942041
1.011325959
1.011282809
1.012260254
1.012088209
1.009954955
1.009806639
1.011154845
1.012096006
1.011785695
0.9090560597
0.9102335771
0.901400548
0.8754236747
0.850681312
0.8348839713
0.8291712428
0.8292117327
0.8316413976
0.8353679906
0.8386549322
0.8406788666
0.8424203604
0.8435514515
0.8441833229
0.8448321732
0.845478725
0.8469820977
0.852783788
0.8745580885
0.9288767488
0.9863627218
1.006115722
1.010866246
1.011404689
1.01141684
1.012420289
1.012229754
1.010312251
1.010185055
1.011529086
1.012347229
1.011888057
0.9113576044
0.9126777984
0.9028110664
0.8761687641
0.8505632597
0.8345257477
0.8291037841
0.8289338729
0.8312481438
0.8349545594
0.8383283152
0.8403871071
0.8423257985
0.843551608
0.8442164304
0.8448264049
0.8455711931
0.8476395659
0.855552497
0.8849524074
0.9491816239
0.9910851501
1.005663561
1.009659936
1.010931919
1.011559129
1.012369976
1.012216101
1.010524766
1.01039938
1.011734708
1.012596919
1.01220203
0.9132817745
0.9150523785
0.9041212582
0.8767133048
0.8503193479
0.8339308345
0.8288061244
0.8288640549
0.8308432692
0.8345794921
0.8381572305
0.8403218208
0.8420367139
0.8434020604
0.8441771597
0.8448501933
0.8457004898
0.848313876
0.8598233711
0.9012143696
0.9613067951
0.9973057627
1.007603572
1.009253894
1.010493941
1.0117228
1.012280917
1.011620537
1.01038111
1.010249269
1.011526705
1.012661726
1.012444215
0.914762226
0.9172702311
0.905078491
0.8770219675
0.850280791
0.8336198642
0.8285059066
0.82872491
0.8305318756
0.8342271691
0.8379836066
0.8403200987
0.8419663714
0.8431405607
0.8440451949
0.8449077934
0.8460265898
0.849874955
0.8676342731
0.914971758
0.97208083
1.005460645
1.010642404
1.009573098
1.010678944
1.011997099
1.012387333
1.011211269
1.010167405
1.010080295
1.011274295
1.012146252
1.012321085
0.9160871326
0.91923205
0.9053710304
0.8771693451
0.8503870065
0.8335423285
0.8283801969
0.8285065393
0.8303025988
0.8337923337
0.8376912236
0.840255893
0.8420064873
0.8430977113
0.8439790332
0.8449303309
0.8467400769
0.8530312135
0.8760079434
0.9265174537
0.9863674228
1.009409744
1.011683903
1.011193282
1.011010553
1.012258685
1.012597428
1.011297458
1.010165658
1.010125504
1.011287827
1.011737977
1.011756122
0.9173737303
0.92073318
0.9053795167
0.8771714225
0.8500645354
0.8334398419
0.8283741884
0.8283896943
0.8300759063
0.8332178376
0.837154413
0.8400216399
0.8420127693
0.8431071578
0.8439588618
0.8449600686
0.8473250716
0.8558190367
0.8840445051
0.9448999576
0.9942580055
1.010129037
1.011704955
1.011778161
1.01160728
1.012180303
1.012951038
1.011669603
1.010427557
1.010407959
1.011486747
1.011803895
1.011619678
0.9187530821
0.9216098167
0.9053571532
0.8766084092
0.8490862924
0.8331054718
0.8284546853
0.8283562766
0.8297904938
0.8328275479
0.8367960781
0.839701395
0.8418909313
0.84311596
0.8439618276
0.8450829251
0.8480927239
0.859528457
0.8984850687
0.9617205687
0.9976010773
1.009364655
1.011218588
1.011759304
1.011939623
1.012449737
1.013220993
1.012005568
1.010936268
1.01094054
1.012034617
1.011999527
1.011764327
0.9201878504
0.9223799355
0.9049493682
0.8754709104
0.8483494923
0.8328795475
0.8285942976
0.8284481775
0.8295756034
0.8326624183
0.8366442849
0.8395531839
0.8416749248
0.8430400458
0.8440240125
0.845367445
0.8496947873
0.8673528487
0.9163436967
0.9717763608
1.000867706
1.008812219
1.009959319
1.011017608
1.011807298
1.01259532
1.013294742
1.01223056
1.011293449
1.011331626
1.012445575
1.012380686
0.9206012403
0.922324349
0.9042150512
0.8745400154
0.8480116365
0.8328703395
0.8287462313
0.8286457581
0.8295740108
0.8325832589
0.8365190398
0.839433865
0.8415651127
0.8429278191
0.8441138963
0.8461077482
0.852684357
0.8768279992
0.9299758159
0.9825640821
1.005248741
1.009459788
1.009895352
1.010435618
1.01150832
1.012459278
1.013104764
1.012103934
1.011537772
1.011659678
1.012756893
1.012683718
0.9200270422
0.9217918042
0.9034099264
0.8736215058
0.8478743497
0.8330393233
0.8288009943
0.8287948774
0.8296292931
0.8324813163
0.8363709571
0.8393337247
0.8414876137
0.8429039738
0.8441738883
0.8468132863
0.8559158169
0.8853261902
0.9436240163
0.9954085666
1.009995656
1.011059009
1.010192473
1.010646004
1.01133411
1.012330069
1.012718774
1.011589787
1.011436649
1.01170251
1.012850186
1.012907173
0.9188129602
0.9208998648
0.9026189653
0.8727742016
0.8479930733
0.8334317984
0.8290165209
0.8287561079
0.8295848768
0.8322399353
0.8361122182
0.8391933141
0.8414227516
0.8429014557
0.8443374505
0.8475836353
0.8594199072
0.898253074
0.9617181054
1.000986542
1.010805204
1.011893664
1.01125793
1.0109956
1.011551314
1.012360637
1.012499579
1.011246066
1.011111078
1.011375528
1.012479445
1.012709771
0.9176018781
0.9196702928
0.9016123729
0.872012437
0.8483521207
0.8339422695
0.8293629077
0.8287852388
0.8290776394
0.8317326976
0.8357015394
0.838986308
0.8413656549
0.8429379234
0.8446808092
0.8495098086
0.8673800968
0.9163381667
0.9744855618
1.003180174
1.010945017
1.011975465
1.011834117
1.011751886
1.011914531
1.012602708
1.01249587
1.011125552
1.01086226
1.011104943
1.012037745
1.012218403
0.9165145219
0.9181732931
0.9003754742
0.8719941312
0.8485764225
0.8346656727
0.829895523
0.829053151
0.8287269472
0.831366185
0.8352939587
0.8387605908
0.8413022486
0.8429944605
0.8451951784
0.8524427953
0.8774765626
0.929736511
0.9810932689
1.003572478
1.0101099
1.011484589
1.011853985
1.012129481
1.012364276
1.012916016
1.012685031
1.011257162
1.010788738
1.011168772
1.01191131
1.011952061
0.9162313048
0.9164584845
0.8989784817
0.8720844524
0.8490931607
0.8352988178
0.8305262033
0.8293986159
0.8287633902
0.8312183265
0.8350074412
0.8386134922
0.8412227032
0.8430801686
0.845951974
0.8553503106
0.8850130325
0.9428958397
0.9896233047
1.005761042
1.009526444
1.010569753
1.011211071
1.012026343
1.012694978
1.013240723
1.012896155
1.011456884
1.010948984
1.01139929
1.012135245
1.012167468
0.9170325393
0.9147724982
0.8977377164
0.8722907465
0.8498175662
0.8359731854
0.8309716968
0.8296847736
0.8289316259
0.8310968567
0.8347656083
0.8384263264
0.8411556915
0.843333778
0.8471386646
0.8597625175
0.8987740797
0.9607588449
0.9998967928
1.008877075
1.009673156
1.010332737
1.010617565
1.011445859
1.012703123
1.013301142
1.012713157
1.011464559
1.011166416
1.01168106
1.012412069
0.9160919656
0.9130974101
0.896711055
0.8726696327
0.8507475001
0.8366519574
0.8313881321
0.8297635289
0.8289960579
0.8309728766
0.8345728026
0.8382482216
0.8411456947
0.843712498
0.8490868227
0.8673830396
0.9196395834
0.9802208216
1.00603699
1.010298355
1.010687828
1.010278163
1.010307366
1.010880313
1.012204419
1.012971846
1.012286945
1.011261961
1.011147796
1.011776693
1.012473267
0.914270715
0.9112491711
0.8957410243
0.8732835015
0.8520141721
0.8375911292
0.8316540001
0.8295296714
0.8289815231
0.8308749283
0.8343792831
0.8381389105
0.8411410884
0.844051066
0.8517470296
0.879175237
0.9333791448
0.9873407659
1.007191154
1.010586742
1.010993694
1.010670219
1.010274817
1.010653821
1.011657637
1.012614955
1.011910433
1.010971887
1.01089698
1.011513872
1.012247274
0.9125034856
0.9093860597
0.8950326667
0.8742231
0.8535677094
0.8386138237
0.8319656632
0.8292723549
0.8286920512
0.8307734865
0.8341298883
0.8380171253
0.8411414809
0.8447848801
0.8553422645
0.8871880576
0.9414112326
0.9868946099
1.006574644
1.010074314
1.010753765
1.010836978
1.010658562
1.010946209
1.011554118
1.012542807
1.011853158
1.011014051
1.010851432
1.011218911
1.011693417
0.9117020101
0.9077594021
0.8945689506
0.875460306
0.85518537
0.8396343541
0.8322952978
0.8293191863
0.8284362872
0.8305810568
0.8338708291
0.8378924685
0.8412976769
0.8461957138
0.8603535449
0.8968448497
0.9553666663
0.9927082332
1.005726396
1.009091803
1.010111836
1.010648231
1.011009199
1.01130527
1.011938085
1.012644235
1.01191936
1.011123486
1.010919162
1.011186537
1.011468815
0.91130345
0.9064921644
0.8941539136
0.8764841527
0.8565601336
0.8406231705
0.8325691245
0.8294133835
0.8284535927
0.8302900045
0.8337091226
0.8378423999
0.8416786658
0.8481487942
0.8669013042
0.9178625838
0.9759336866
1.002330166
1.006942773
1.008809104
1.00960735
1.010157524
1.010728279
1.01160501
1.012374387
1.012808833
1.011962533
1.011180158
1.010992983
1.011340254
1.011507645
0.91116739
0.9054277734
0.8937400395
0.8771576756
0.857632151
0.8412874838
0.8328815302
0.8294310182
0.8284706858
0.8301452201
0.8336096631
0.8378274932
0.84203148
0.8507468822
0.8781190252
0.9384647263
0.9912972924
1.008015077
1.009433598
1.008981744
1.009653205
1.009819969
1.010277708
1.011449813
1.012529413
1.012837842
1.011824353
1.011066713
1.010990144
1.011487377
1.011666676
0.9119116078
0.9046042545
0.8933082125
0.8776487196
0.8584340657
0.8417460375
0.8329846058
0.8294029799
0.8284313393
0.8300126987
0.8335434886
0.8378312215
0.8427369864
0.8546112445
0.8918047437
0.9469113404
0.9950312553
1.008773445
1.010214308
1.00997043
1.009869001
1.00982105
1.010039852
1.010976311
1.012273419
1.012333526
1.011265748
1.010607183
1.010589604
1.011291933
1.011769632
0.9120456503
0.9042614565
0.8932807602
0.8779944987
0.8589217816
0.8420017847
0.8329829444
0.8292928788
0.8283144993
0.8299438154
0.8335229773
0.837945617
0.8443347159
0.8609514142
0.9003950644
0.9575360926
0.9944590069
1.007681222
1.010106063
1.010422627
1.01026252
1.010010463
1.010042736
1.010680817
1.011620269
1.011445679
1.010397184
1.009978814
1.010096913
1.010915322
0.9119276959
0.9043690381
0.8934435996
0.8784189885
0.8592383647
0.8421455961
0.8327992734
0.8290768129
0.8281515595
0.8299040365
0.8335613514
0.838352091
0.8465989303
0.8677456107
0.9127977323
0.9712125485
0.9974695763
1.00648258
1.009140989
1.009972023
1.010290292
1.010167414
1.010143782
1.010603461
1.011189877
1.010825821
1.009810169
1.009606287
1.009811971
1.010548983
0.9111221293
0.9045616188
0.8938433917
0.8789175328
0.8595537887
0.8422318924
0.8324178892
0.8286617964
0.8279660701
0.8298365998
0.8336407371
0.8388472839
0.8490391981
0.8760475404
0.9356445018
0.983510767
1.00319324
1.006536895
1.007784657
1.008957845
1.009711297
1.01003975
1.010247123
1.010641075
1.01097154
1.010599627
1.009592855
1.009464977
1.009691109
1.010281456
0.9102403376
0.9048195378
0.8948012092
0.8798379357
0.8598423974
0.8423130905
0.8321468791
0.828127106
0.8277590546
0.8297723076
0.8337429053
0.8397339656
0.8527293171
0.8911930163
0.9544281143
0.9947467039
1.00713574
1.007598696
1.007604585
1.008257483
1.008806054
1.009416209
1.010148005
1.010657393
1.011069607
1.010644967
1.009600048
1.00945509
1.009597075
1.010331537
0.9102212994
0.9048510721
0.8955392313
0.8803754085
0.8605304172
0.8424956223
0.8319305898
0.8277943568
0.8276686265
0.8297204023
0.8340031782
0.8415374293
0.8599598841
0.9067340455
0.964718915
1.001213516
1.007615064
1.008348409
1.007505102
1.007984079
1.008296354
1.008644401
1.009529663
1.010502525
1.011040463
1.010561
1.009519194
1.009377659
1.009569047
1.010167998
0.9107430249
0.9051838866
0.896191779
0.8807922515
0.8608546095
0.8426029859
0.8317193408
0.8276223098
0.8276412979
0.829769465
0.834450468
0.8440608341
0.869081848
0.9171153662
0.9746640187
1.002293849
1.007120464
1.008095974
1.007947687
1.007824664
1.007993289
1.008147959
1.008779086
1.009951655
1.010553891
1.010203196
1.009243844
1.009119482
1.009331356
1.009884996
0.9114455615
0.9056773844
0.8966375086
0.8808629522
0.8609457824
0.8427040797
0.8314617744
0.827476244
0.8276710507
0.8298433029
0.8349387659
0.8468649814
0.8762260546
0.9316194366
0.9827210278
1.000787369
1.00508771
1.00694056
1.007702324
1.007713637
1.007819561
1.007706736
1.00821554
1.009138688
1.009629717
1.009410713
1.008579922
1.008449978
1.008722983
1.009304635
0.9120691237
0.906490661
0.8970948382
0.8809237923
0.8605252232
0.8427031091
0.8311989372
0.8273944373
0.8276993083
0.8300284027
0.8359107134
0.8503320942
0.8869691269
0.949873725
0.9885806291
1.000979717
1.003773354
1.005141693
1.006662486
1.0071187
1.007272402
1.007310535
1.007632317
1.008359795
1.008681546
1.008149906
1.007491845
1.007371714
1.007786077
0.912553907
0.9072733555
0.8979284307
0.8814596318
0.8600944211
0.8423198252
0.8309533012
0.8274311371
0.8278251998
0.8306262951
0.8380414605
0.8572627886
0.9062339848
0.9638325841
0.994487295
1.002503851
1.003112723
1.003926254
1.005065676
1.005919049
1.006355757
1.0065516
1.007075129
1.0075605
1.007875437
1.007054515
1.006486149
1.006493529
1.006815587
0.9124171791
0.9079829371
0.8987271964
0.882103681
0.8601822524
0.8414531453
0.8304364389
0.8273938307
0.8280697659
0.8313688474
0.8409941062
0.8685237443
0.9239242524
0.9764955928
0.9996050379
1.003467239
1.003378888
1.003149263
1.003777908
1.004338093
1.004900103
1.005512186
1.006230829
1.006823776
1.00700958
1.006166219
1.005637103
1.005647629
1.005889226
0.9116232002
0.9082581332
0.8992388682
0.882744079
0.8603796375
0.8411150223
0.8299537653
0.82766431
0.8284032649
0.8320472827
0.8445761586
0.8785348904
0.9359263968
0.9876055683
1.000519721
1.002653962
1.003337472
1.002781192
1.002737148
1.0030607
1.003669878
1.004719277
1.005427438
1.005963359
1.006198916
1.005260858
1.004838477
1.004925069
1.005112261
0.9114858412
0.9083560324
0.8993968094
0.882841098
0.8607049909
0.8410567508
0.8300167167
0.8280030075
0.8288865651
0.8334275724
0.8485537666
0.8872496414
0.9495971495
0.9894992041
0.9996058978
1.001191913
1.002051335
1.002363355
1.001905003
1.002003983
1.002459527
1.003308323
1.004233626
1.004777891
1.005074933
1.004365692
1.003917493
1.003939221
1.004070936
0.9114123343
0.9081824149
0.8994807754
0.8828195218
0.8607550912
0.8410012924
0.8302721141
0.8284925889
0.829763437
0.8357000815
0.8545651318
0.902267089
0.9602920789
0.9884589362
0.99727645
0.9990597866
1.000192343
1.000897747
1.001111972
1.001179541
1.00142341
1.0019195
1.002672641
1.003340961
1.003616196
1.002984245
1.002483111
1.002474136
1.00257978
0.9106565247
0.9075710463
0.8992505876
0.8825205549
0.8606122207
0.8410686465
0.8308731175
0.8293081484
0.8310473976
0.8393398101
0.8664315873
0.9207773464
0.967880753
0.9894721368
0.9951911503
0.9967266065
0.9977709784
0.9990176343
0.9995276386
0.9998236898
1.000107676
1.000537281
1.001033809
1.001362903
1.001763299
1.001329972
1.000790621
1.00074224
1.000841564
0.9102983877
0.907179879
0.8987810795
0.8818952782
0.8601361542
0.8411134587
0.8314264913
0.8299551644
0.8320972581
0.8448083008
0.8795114503
0.9342004096
0.9773649311
0.9913887368
0.9940468749
0.9951500293
0.9958417517
0.9965313045
0.9975046873
0.9980308156
0.9983269903
0.9987725234
0.9993419446
0.9996724045
0.9996258134
0.9992396712
0.9989287206
0.9989536374
0.9100787048
0.9067412077
0.8981602665
0.8812529019
0.8592436934
0.8411337929
0.831874404
0.8304090264
0.83361628
0.8497219254
0.8896427497
0.9480389325
0.9854456682
0.9933192676
0.9940218349
0.9940556008
0.9942292336
0.9947473598
0.9952154346
0.995809903
0.9963591039
0.997149815
0.9978563529
0.9981929524
0.9981167101
0.997688364
0.9974209721
0.9974072478
0.9097483917
0.9060133397
0.8973170582
0.8805091642
0.8585734961
0.8407914272
0.8325416202
0.8313438538
0.8359806953
0.8546226397
0.902455604
0.9642489608
0.9887541907
0.9928513061
0.9937204817
0.993818237
0.9934267542
0.9932395816
0.9936353834
0.9940698842
0.9947106604
0.9957098448
0.996623916
0.9970188578
0.9969311477
0.9964668343
0.9963748015
0.9964557479
0.9089077375
0.9050974857
0.8963541822
0.8797076684
0.8582678435
0.8410430665
0.833688651
0.8332306324
0.8391250531
0.8646762615
0.9219368743
0.9722148325
0.988625744
0.9914010752
0.9923209425
0.9927271155
0.9928068493
0.9926888358
0.9927025962
0.9929561271
0.993520933
0.9946905787
0.9955252415
0.9959824904
0.99608013
0.9953956809
0.9954290417
0.9955740127
0.907389374
0.9040680665
0.8953636841
0.878996816
0.8582405549
0.8418821247
0.8353046178
0.8352583686
0.8453018967
0.8823011104
0.9376053827
0.9728311636
0.98674341
0.9897942693
0.9911221697
0.9916036992
0.9920301961
0.9923506076
0.9925746007
0.9928446828
0.9933009376
0.9941971815
0.9948103973
0.9949550404
0.9951888154
0.9944386772
0.994431726
0.994597336
0.9056155493
0.9030465419
0.8943904942
0.8783416033
0.8583355945
0.8427885362
0.8366765607
0.837781768
0.8543681605
0.8967021328
0.9473234135
0.9768953455
0.9859832217
0.9880324267
0.9894361487
0.9904551578
0.9912412992
0.9918359764
0.9922582034
0.9926526897
0.9931426777
0.9937212947
0.9943374234
0.9945563988
0.9944615147
0.9937843688
0.9936245456
0.9937529744
0.9045575428
0.902054207
0.8935385156
0.8779358779
0.858768381
0.8438852322
0.8382800437
0.8419178372
0.861673119
0.9082513665
0.9602346663
0.9834387551
0.986526781
0.9868731683
0.9882177533
0.9892285247
0.9901101811
0.9909350592
0.9915664137
0.9921219296
0.9927471062
0.9932053308
0.993797004
0.9945086874
0.9943757882
0.9937374857
0.993393044
0.903743436
0.9011786308
0.8929308834
0.877649991
0.8592947388
0.8455061806
0.8410948869
0.8465674282
0.8706633843
0.9257098003
0.9744143095
0.9872495421
0.9876405963
0.987105519
0.9877429168
0.9884122854
0.9892291358
0.9901098225
0.9908519612
0.9914048476
0.9920605117
0.9926599702
0.9932876185
0.994076017
0.9942351258
0.9938751062
0.9936060762
0.9033602978
0.9004717851
0.8926647917
0.8774230551
0.8598943369
0.8472227004
0.8442451857
0.8523278193
0.8887203742
0.9439301029
0.9778111095
0.9869043736
0.9877435725
0.9881348256
0.9882722037
0.9887724908
0.9893829637
0.9900412257
0.9905604652
0.9909487326
0.991556229
0.992272928
0.9929451558
0.9937106312
0.9939931115
0.993798049
0.9937667035
0.9036379919
0.8999955245
0.8924005606
0.8775217304
0.860588103
0.8489524027
0.847337412
0.8623479281
0.9063370504
0.9538141316
0.9774190576
0.985614125
0.98753938
0.9887159742
0.9889905636
0.989420467
0.9899141215
0.9905035803
0.9911893577
0.9914366149
0.991639165
0.9922193574
0.9928414654
0.9935291168
0.9936045127
0.9935399444
0.9937090966
0.903581961
0.8997742347
0.8921833265
0.8775914648
0.8611594952
0.8510823706
0.8524492738
0.8728442824
0.9165044251
0.9603327959
0.9796390391
0.9854278038
0.9873585315
0.988487539
0.9892726023
0.9897795377
0.9903085574
0.9909791097
0.9918369609
0.9922007454
0.9920722288
0.992359258
0.9928526427
0.9934805903
0.9933524648
0.9932662465
0.993414099
0.9030062568
0.8997508493
0.8922457388
0.8779406662
0.8622625228
0.8543310801
0.8589452018
0.8819639079
0.9304386653
0.9704586732
0.9833652764
0.9857379373
0.9867655929
0.9882443585
0.9891515621
0.989811202
0.9903428508
0.9909661252
0.9917601451
0.9925424119
0.9929067246
0.9928862864
0.9931057285
0.9936469321
0.9935207461
0.9932880787
0.993246844
0.9020962878
0.8998647042
0.8924406208
0.8788261621
0.8643251172
0.8584316586
0.8654197995
0.8979032656
0.9531746342
0.9831609581
0.9879983418
0.9870817953
0.9871182007
0.9883569787
0.9893483267
0.9900474465
0.9906189712
0.9911773017
0.9918404677
0.9927298473
0.9934674072
0.9937380703
0.9938762535
0.9942888001
0.9942044531
0.9940705742
0.9938442114
0.9015511508
0.9000006346
0.8927639807
0.8797965796
0.8666322423
0.8628620544
0.8757471899
0.9209456932
0.9667718459
0.9875887302
0.9904567565
0.9902344631
0.9889957948
0.9893171563
0.9902064378
0.9909286015
0.9916339113
0.9922026705
0.9926246542
0.9932335326
0.9941081054
0.9947656914
0.9951781487
0.9955089496
0.9953431413
0.995318681
0.9016537665
0.9001862187
0.8931994196
0.8804585485
0.8693366751
0.8690264667
0.8909186339
0.9345435185
0.9707653342
0.9883202123
0.992433885
0.9935452198
0.9926621192
0.9919025461
0.9922494975
0.992964488
0.9938508902
0.9945419098
0.994732655
0.9947079205
0.9953026193
0.9961019281
0.9967760314
0.9970568733
0.9967570152
0.9966209395
0.9022957859
0.9005245427
0.8936349326
0.8813525623
0.8728112257
0.8773524337
0.9018172651
0.9433833515
0.9771584251
0.9913439923
0.9945287146
0.9958538188
0.9964595895
0.9958285497
0.9956273466
0.9962150755
0.9970049775
0.9976907436
0.9979054664
0.9977242799
0.9976482332
0.9981674132
0.9988615865
0.9992114559
0.9988395946
0.998512752
0.9035334969
0.901093002
0.8941383723
0.8833643364
0.8777052397
0.8848699437
0.914125582
0.9607160413
0.9890053738
0.996070224
0.9968522205
0.99839684
0.9992612094
0.9996518831
0.9995541855
0.9997807384
1.000291637
1.00097099
1.001410871
1.001394
1.001255636
1.001450464
1.001928258
1.002226492
1.001879995
1.001511501
0.9041358184
0.9020453189
0.8954304555
0.8860757477
0.8830053296
0.8945752566
0.9385512537
0.984201063
1.000664977
1.00200998
1.000468038
1.001115185
1.002290045
1.003014877
1.003327
1.00360552
1.004004938
1.004621344
1.00515632
1.005434749
1.005531636
1.005633257
1.00600323
1.005944566
1.005576399
1.005088793
0.9046197252
0.9029985543
0.8969948755
0.8892735214
0.8894287101
0.9130783463
0.9626566056
0.9960651105
1.00621276
1.007929436
1.005479081
1.004913002
1.005578805
1.006613308
1.007324151
1.007924522
1.008398867
1.008862673
1.009280905
1.009719706
1.010099381
1.010259454
1.010562927
1.010357716
1.009974724
1.00940285
0.9052482826
0.9041030458
0.8988544034
0.893674005
0.8997046197
0.9325916922
0.9732159939
0.9992715967
1.010576628
1.012511193
1.01182512
1.010057321
1.009993285
1.011027552
1.011994174
1.012986397
1.013672558
1.013907475
1.013998086
1.0142992
1.0148063
1.015170604
1.015471019
1.015384329
1.015032889
0.9059203052
0.9048717685
0.9008277141
0.8991069701
0.9125770714
0.944620762
0.9836655608
1.006818691
1.014487017
1.017224794
1.017732042
1.016699186
1.015778552
1.016417194
1.017501808
1.018761481
1.019716489
1.019823054
1.019478661
1.019474679
1.019869467
1.020370057
1.020733227
1.020928319
1.020614352
0.9069734637
0.9062293351
0.9043265049
0.9056639022
0.9240590741
0.9628836656
1.003572744
1.017995492
1.019777223
1.02161718
1.023018261
1.023711176
1.023091558
1.023027409
1.023863599
1.025011367
1.025961928
1.026230169
1.02587471
1.02542211
1.025503225
1.025975132
1.02641445
1.02676846
1.026502127
0.9084590709
0.9090273988
0.9085970058
0.9148021701
0.9405586339
0.9938305016
1.023659512
1.0285461
1.027288775
1.027357588
1.028286286
1.029471296
1.029987545
1.030212087
1.030640942
1.0311413
1.031854107
1.032312065
1.032377473
1.032118091
1.031835425
1.032139919
1.032556352
1.032786977
1.032401829
0.9101726576
0.9115247225
0.9127243296
0.9254999127
0.9674053948
1.014211508
1.031986253
1.036142664
1.03633452
1.034054914
1.033645205
1.035038955
1.035747208
1.036166955
1.036861343
1.037109423
1.037481206
1.038019151
1.038206015
1.038468728
1.038575475
1.038751235
1.0389864
1.038976139
1.038295222
0.911470597
0.9133654102
0.9185772504
0.9405417362
0.9859096645
1.020233402
1.037585058
1.042238362
1.043311347
1.041666555
1.039735352
1.0400234
1.041162454
1.041861574
1.042633108
1.043105523
1.04328566
1.043378972
1.043742467
1.044114555
1.044480477
1.044924847
1.044981261
1.044555611
1.043618336
0.913140237
0.9162389517
0.9271620179
0.9543708672
0.9969419079
1.03007018
1.043439234
1.047061291
1.048945189
1.048455173
1.046391622
1.045578774
1.046357261
1.047315775
1.048315583
1.049190194
1.049053577
1.048799066
1.048721013
1.049288246
1.050023193
1.050583898
1.050557421
1.050220484
1.049332587
0.9146576206
0.920622827
0.9352995378
0.9680975802
1.0138706
1.045828343
1.050266561
1.050644072
1.053284335
1.053682448
1.052951861
1.051618293
1.051909352
1.052919523
1.053914853
1.054990001
1.054997913
1.054195814
1.053864565
1.054090086
1.055100459
1.055969802
1.056102215
1.055960182
0.9158239402
0.924688963
0.9443826479
0.9921567914
1.040276629
1.057686466
1.057261644
1.055657413
1.056360158
1.057893006
1.057963516
1.057728035
1.057835898
1.058657078
1.059410251
1.060039011
1.06024468
1.059948088
1.059405189
1.059562889
1.060259668
1.06126006
1.06156677
1.061590631
0.9180672927
0.9305441601
0.9622155537
1.020373883
1.056690311
1.064097704
1.064535423
1.061497788
1.060569802
1.060686319
1.061919231
1.062446083
1.062909816
1.063732595
1.064439196
1.065013355
1.065579461
1.065681526
1.065618888
1.065567096
1.066138103
1.067287775
1.067660512
1.067464957
0.921390816
0.9389366441
0.9844399276
1.034336452
1.061918218
1.068670623
1.069535493
1.068504532
1.065044274
1.063944392
1.06509576
1.066818503
1.067874553
1.068833761
1.069654961
1.070258171
1.070979121
1.071491206
1.071655152
1.072024474
1.072400119
1.073366554
1.07370066
1.073395616
0.924367946
0.9480426014
0.9957927267
1.040773721
1.066237604
1.071111976
1.073202493
1.072871995
1.070930359
1.068800339
1.069092854
1.070949627
1.072829008
1.07417799
1.075064339
1.07546026
1.075913043
1.076607274
1.077318234
1.077923166
1.078574431
1.079321369
1.079224949
1.078700711
0.9251913635
0.9579946928
1.009390727
1.053498584
1.073766453
1.073471862
1.074625779
1.076372606
1.076025907
1.074851239
1.074581904
1.075592217
1.077557666
1.079313223
1.080275713
1.080493159
1.080480358
1.080704744
1.081649178
1.082773839
1.083603807
1.08405004
1.083867692
1.083141508
0.9276402355
0.9711659445
1.034324688
1.070553308
1.079197902
1.076865681
1.076741002
1.078992134
1.081155683
1.080939928
1.080645651
1.081497737
1.082792526
1.084211101
1.084982095
1.084992253
1.084775432
1.084755755
1.085412773
1.086862441
1.088013944
1.088285161
1.088010724
0.9331482559
0.9901002954
1.053301662
1.080155378
1.086340837
1.084491071
1.082921355
1.082599239
1.084703699
1.086253401
1.086770776
1.087496211
1.0881223
1.088504583
1.088797174
1.08904236
1.08899754
1.088967784
1.089133681
1.089925521
1.091364634
1.091753557
1.09156411
0.9414839524
1.016857807
1.069168529
1.090222153
1.095766065
1.093801545
1.090519513
1.087468416
1.087018102
1.089684828
1.091458181
1.092242504
1.092249544
1.092208688
1.092425621
1.092675714
1.092666663
1.092421301
1.092413195
1.09272192
1.093357198
1.093848407
1.094024799
0.9610323854
1.056776944
1.089281125
1.100843662
1.102477203
1.099799894
1.095327653
1.092031552
1.090964287
1.091363092
1.093606296
1.094732067
1.094713142
1.094728575
1.094887701
1.095066033
1.094970282
1.094873768
1.094895233
1.094774985
1.095136645
1.095388593
1.095172649
0.9807180681
1.101277235
1.107798762
1.107582287
1.104804681
1.10078635
1.09816782
1.096151876
1.094522928
1.094119975
1.094059372
1.094740114
1.095572504
1.095632132
1.095685325
1.095552908
1.095447198
1.095917855
1.096144064
1.096513766
1.096990913
1.097080184
1.096353316
1.0064657
1.135477915
1.117522539
1.112212881
1.105530807
1.098943804
1.097649284
1.098624881
1.097454565
1.095571839
1.095068004
1.095391145
1.096029602
1.096617065
1.09618384
1.095681487
1.095443252
1.09559933
1.096539883
1.097595441
1.097960143
1.097704082
1.096757305
1.006407724
1.130659287
1.116784945
1.112088795
1.105599926
1.098915758
1.096837576
1.097675603
1.097621041
1.096357766
1.095827555
1.097156471
1.096745866
1.096251443
1.095658979
1.095360256
1.095300961
1.095414483
1.096081955
1.097520711
1.097807476
1.097565078
1.096397014
0.9803047712
1.096580391
1.107877979
1.107994676
1.105193429
)
;

boundaryField
{
    inlet
    {
        type            fixedValue;
        value           nonuniform 0();
    }
    outlet
    {
        type            inletOutlet;
        inletValue      nonuniform 0();
        value           nonuniform 0();
    }
    bottom
    {
        type            slip;
    }
    top
    {
        type            slip;
    }
    obstacle
    {
        type            zeroGradient;
    }
    defaultFaces
    {
        type            empty;
    }
    procBoundary15to9
    {
        type            processor;
        value           nonuniform List<scalar> 
36
(
1.01090351
1.011208014
1.009129263
1.008310782
1.009204885
1.011202357
1.011624336
1.011768173
0.9033554848
0.8954392038
0.8703406715
0.848157672
0.8342335274
0.829299194
0.829598593
0.8327746797
0.8372643003
0.840256359
0.841422455
0.8426571954
0.8440462348
0.8447451325
0.84516956
0.8454972098
0.8458394206
0.8471137317
0.852648755
0.8741471333
0.9299345472
0.9811539039
1.003066144
1.007795672
1.009984251
1.009984251
0.9042295116
0.9042295116
)
;
    }
    procBoundary15to10
    {
        type            processor;
        value           nonuniform List<scalar> 
20
(
1.012528654
1.012307432
1.011934899
1.011554278
1.011554278
1.011872201
1.012260098
1.012571353
1.012643102
1.012226517
1.011901786
1.011993485
1.011995377
1.011995377
1.012369452
1.012607463
1.01246854
1.012278954
1.012220332
1.012409469
)
;
    }
    procBoundary15to16
    {
        type            processor;
        value           nonuniform List<scalar> 
69
(
1.01244661
1.01244661
1.012449156
1.012177294
1.011492308
1.011184196
1.011242808
1.011445237
1.011654597
1.011435134