/*--------------------------------*- C++ -*----------------------------------*\
  =========                 |
  \\      /  F ield         | OpenFOAM: The Open Source CFD Toolbox
   \\    /   O peration     | Website:  https://openfoam.org
    \\  /    A nd           | Version:  7
     \\/     M anipulation  |
\*---------------------------------------------------------------------------*/
FoamFile
{
    version     2.0;
    format      ascii;
    class       volScalarField;
    location    "2";
    object      T;
}
// * * * * * * * * * * * * * * * * * * * * * * * * * * * * * * * * * * * * * //

dimensions      [0 0 0 1 0 0 0];

internalField   nonuniform List<scalar> 
2222
(
0.8336195542
0.8316741273
0.8286191292
0.8272277214
0.8271505318
0.827957996
0.8352784725
0.8638873211
0.9252589541
0.9829381094
0.999805752
1.0138111
1.022995181
1.021199608
1.020358694
1.020397993
1.019892296
1.019853781
0.8557832833
0.8532534937
0.8513497214
0.8495424701
0.8475408083
0.8452619867
0.8433669518
0.8414311555
0.8395096302
0.8375428645
0.836030289
0.8342101598
0.8323126746
0.8305884792
0.8286337473
0.8262482865
0.8238672362
0.8245995028
0.8282056982
0.8510529849
0.896440948
0.9517361865
0.9826520785
1.007295108
1.011314122
1.015720335
1.020305038
1.020756007
1.021391294
1.02147205
1.021885928
1.021883452
0.8505071885
0.8479857796
0.8459764156
0.8442431131
0.8421824455
0.8401620023
0.8383189908
0.8365901159
0.8347669395
0.8330344505
0.8314701671
0.8296002823
0.8273796473
0.825322482
0.8240115843
0.8231055646
0.8238667473
0.8356275456
0.8706059457
0.9330179254
0.9865871949
1.015690557
1.016255164
1.018803187
1.020320113
1.02043854
1.021098349
1.021517392
1.021233187
1.021617931
1.022191896
1.022448841
0.8444379304
0.8420259901
0.8403428037
0.8388548899
0.836947888
0.8349071484
0.8331683503
0.831788961
0.829965259
0.8285286383
0.82660883
0.8245086523
0.821550029
0.8215388075
0.8220163544
0.8266011827
0.8483069645
0.9064188202
0.9687540916
0.9936594381
1.007334496
1.022767285
1.021527937
1.021505586
1.022361462
1.023539165
1.023467277
1.022861939
1.021944304
1.021074169
1.021152673
1.021563467
0.8388950663
0.8363947855
0.8347829542
0.8332600362
0.8316081903
0.8297026155
0.8284367753
0.826856814
0.8251361522
0.8226925585
0.8210242492
0.8190309751
0.8189908053
0.8207062909
0.8362055033
0.8810136467
0.9374090039
0.9745490373
1.008788603
1.016243659
1.016793854
1.020250405
1.020741807
1.021359048
1.022198002
1.022893176
1.02326895
1.02339984
1.022772331
1.021741198
1.021149228
1.021300329
0.8329042173
0.8307673918
0.8292737035
0.8280187139
0.8262537861
0.8243686058
0.8229824469
0.8213610835
0.8191516173
0.8169349333
0.8171878326
0.8175012349
0.8250974765
0.8536809987
0.9148970087
0.9774237261
1.012692587
1.016635945
1.021256354
1.024067618
1.02403116
1.022986812
1.022077696
1.020942239
1.020954949
1.021342297
1.022069986
1.02303067
1.023016841
1.022627751
1.022108421
1.021925295
0.8273551404
0.8251137
0.8238469704
0.8226945669
0.8208407406
0.8192213872
0.8174442837
0.8158267955
0.8135390102
0.8138016704
0.8167563626
0.8342239267
0.8883463427
0.9530367034
0.9889433098
1.0024024
1.021118988
1.021388611
1.022781437
1.023882058
1.024368014
1.024339491
1.023605514
1.021790525
1.020772316
1.020791156
1.021228444
1.022179385
1.022958748
1.023089874
1.022991505
1.02281914
0.8218486066
0.8197539583
0.8186466167
0.8172045991
0.8151285569
0.8129320846
0.8116181384
0.8113274222
0.812078633
0.8235147239
0.8630031454
0.9215095483
0.9674786747
1.011955245
1.020993455
1.017180229
1.01977009
1.020380025
1.020801695
1.021559955
1.022710106
1.023613167
1.023428663
1.022733175
1.021629269
1.021342883
1.021535416
1.022134631
1.022759374
1.023136248
1.023193386
1.023172526
0.8163874437
0.814688262
0.8132528924
0.8115686586
0.8086366827
0.8082786488
0.8088365855
0.8143087619
0.8381511671
0.8990772167
0.9652922228
1.008020389
1.015750195
1.021726177
1.025110696
1.024367254
1.022512722
1.021532452
1.020377002
1.020282047
1.020809458
1.021972332
1.02303208
1.023006727
1.022789376
1.022596208
1.022607757
1.022744677
1.022940352
1.023077251
1.023193222
1.023262415
0.8111320408
0.8086860471
0.8072779282
0.8054600294
0.8054728501
0.807552428
0.8222452587
0.8734628859
0.9398899219
0.9829207794
0.9987700499
1.017754876
1.019784866
1.021511048
1.023207126
1.02408915
1.023343269
1.022778473
1.02169293
1.021064732
1.021333407
1.021990299
1.022561541
1.023072182
1.02314607
1.023163431
1.02317791
1.023220616
1.023279117
1.023182452
1.023154306
1.023326603
0.8050647511
0.8026321606
0.8030636477
0.8037413228
0.8125350075
0.8501167694
0.9106617867
0.962775587
1.011616505
1.021995725
1.0181919
1.020005658
1.019991645
1.019436467
1.019962673
1.021493331
1.022661572
1.023296081
1.023228142
1.023049484
1.023021534
1.023079426
1.023096652
1.023188752
1.023306879
1.023338298
1.023407352
1.023501221
1.023527274
1.023652967
1.023764947
1.024132388
0.7991184686
0.799443579
0.8038655438
0.825628211
0.8876104328
0.9580772423
1.006788244
1.015764588
1.022866939
1.026230046
1.025237264
1.023579032
1.022281511
1.020755606
1.020564197
1.021221744
1.022358113
1.023473816
1.02378007
1.024008118
1.024207673
1.024189775
1.024024972
1.023766207
1.023522044
1.023308377
1.023344139
1.02351087
1.02387055
1.024344228
1.024731458
1.025235353
0.7984121316
0.8106281287
0.8609331968
0.9301432532
0.9799475325
0.9981084317
1.018140471
1.02057289
1.022302676
1.024451228
1.025193109
1.024654299
1.024425717
1.024123016
1.023758572
1.023562516
1.023639614
1.023738852
1.024090871
1.024399937
1.024721922
1.024846923
1.024758166
1.024559703
1.024296598
1.024079208
1.02411437
1.024266586
1.024691186
1.025184201
1.025728858
1.026145832
0.8375678742
0.9000569706
0.962221951
1.015045803
1.02410699
1.020287505
1.022189999
1.022025749
1.021592144
1.022431817
1.023799322
1.024629974
1.025323171
1.025939041
1.026126838
1.025927207
1.025448155
1.024643664
1.02425596
1.024339214
1.024513849
1.024723149
1.02492088
1.025136804
1.025303039
1.025425821
1.025531666
1.025629929
1.025851696
1.026185277
1.026680561
1.02695267
0.9513414337
1.004224467
1.014217151
1.024735099
1.028855272
1.027350748
1.026320176
1.025373261
1.024197756
1.023863263
1.024463691
1.02496823
1.025546186
1.02625393
1.026676774
1.026582665
1.026217468
1.025661226
1.025123934
1.02491189
1.025004363
1.025158798
1.025410025
1.025852878
1.026250884
1.026502909
1.026711497
1.02685309
1.026997113
1.027129751
1.027354818
1.02747502
0.9977979926
1.01812235
1.019190502
1.022297518
1.0256187
1.027393512
1.027864315
1.027986806
1.028064643
1.027818538
1.02752596
1.026701321
1.025886325
1.026005397
1.026337819
1.026527647
1.026586357
1.026484131
1.026255235
1.02624954
1.026442279
1.026610825
1.026820068
1.027113101
1.027341554
1.027549811
1.027778597
1.027948349
1.028015046
1.028045988
1.028109919
1.028167612
1.022855931
1.025256191
1.024915957
1.02478054
1.026213379
1.027118263
1.028010691
1.029105512
1.029799825
1.029705083
1.029360488
1.02834806
1.027079633
1.026761637
1.026830657
1.026954432
1.027091676
1.027259802
1.027418188
1.027693253
1.028032519
1.028303173
1.028548606
1.02871713
1.028809136
1.028921249
1.029098745
1.029306339
1.02939315
1.029433682
1.02946289
1.029525417
1.029843495
1.029717904
1.030637782
1.030164337
1.029151613
1.028775345
1.028603658
1.029018301
1.029737322
1.029974159
1.029827868
1.029227415
1.028478305
1.028387044
1.028519491
1.028626943
1.028622748
1.028604377
1.028744261
1.029076234
1.029521334
1.029961404
1.030312876
1.030523719
1.030585881
1.03066111
1.030795557
1.030941438
1.031034706
1.031126143
1.031256588
1.031355981
1.030313901
1.031249607
1.032402777
1.032271464
1.032083731
1.031237366
1.03024095
1.02984543
1.029841148
1.029877053
1.029721779
1.029661057
1.02968777
1.029987888
1.030411942
1.030632894
1.030607032
1.030421734
1.030387135
1.030536655
1.030927593
1.031453366
1.031983987
1.032338872
1.032500032
1.03267484
1.032813899
1.032869953
1.032943858
1.033009041
1.033133414
1.033191206
1.030711344
1.031680191
1.032969675
1.033556721
1.033303603
1.032390427
1.031880353
1.031696412
1.031535428
1.031371113
1.031168274
1.030923602
1.031031711
1.031456837
1.03198866
1.032351501
1.032366514
1.032233496
1.03212408
1.032232145
1.032553654
1.033005755
1.033592869
1.034113727
1.034423475
1.034683575
1.034735077
1.034715358
1.034722414
1.034732044
1.034775553
1.034755536
1.032776963
1.032587147
1.032740912
1.033117696
1.033229811
1.033121429
1.033192296
1.033547604
1.033656801
1.033613578
1.033489641
1.033123171
1.03274882
1.03284204
1.033082606
1.033341773
1.033529459
1.03364221
1.033792939
1.03408831
1.034422196
1.034774533
1.035255464
1.035731256
1.036108854
1.036322778
1.036314348
1.036214231
1.035985304
1.035867552
1.03586754
1.0358201
1.035103629
1.034525084
1.034279991
1.034182695
1.03409647
1.034124313
1.034345616
1.034903052
1.035393404
1.035488409
1.035472328
1.035264626
1.034850713
1.034498425
1.034500364
1.034653394
1.034910459
1.035204729
1.03558937
1.036031922
1.036334338
1.036654839
1.037012769
1.037256019
1.037444972
1.037417
1.037285711
1.03709068
1.036781067
1.03661893
1.036597514
1.036654286
1.0364112
1.036371393
1.036470826
1.036424243
1.036293093
1.036115421
1.03580932
1.036011796
1.036488762
1.036789604
1.036908954
1.036869458
1.036711083
1.036520828
1.036554823
1.036754654
1.037023303
1.037364886
1.037749577
1.038074938
1.038248644
1.038521908
1.038709907
1.038675167
1.038537616
1.038307178
1.03805793
1.037838693
1.037640109
1.037616497
1.037649254
1.037885274
1.036991284
1.037749682
1.038365658
1.038370061
1.038285093
1.038031183
1.037450652
1.037198166
1.037294529
1.037450933
1.037640015
1.037893265
1.038129842
1.038346791
1.03859341
1.038895423
1.039227008
1.03963335
1.039961897
1.039979792
1.039906825
1.03988175
1.039815924
1.039678879
1.039600942
1.039590949
1.039557375
1.039491509
1.039432795
1.039454653
1.039522155
1.039737152
1.038204437
1.039004735
1.039905027
1.040011366
1.039963671
1.039793999
1.039357601
1.038966725
1.038769007
1.038763171
1.038918025
1.039241963
1.039681673
1.0401362
1.040547119
1.040940591
1.041299417
1.041612458
1.041708583
1.041672803
1.041497428
1.041290569
1.041171941
1.041178768
1.041322941
1.041619103
1.041936681
1.042160401
1.042290495
1.042312998
1.04233649
1.042309183
1.041312208
1.041503419
1.041981443
1.042057843
1.041968606
1.041890921
1.041728064
1.041592596
1.041578139
1.041679544
1.041882205
1.042165133
1.042561754
1.043012006
1.04342343
1.043781056
1.044046592
1.044192377
1.044182675
1.044114086
1.044057686
1.044036135
1.044070271
1.044205966
1.044465352
1.044830741
1.045236999
1.045589885
1.045828332
1.04584459
1.045819653
1.045646902
1.045780786
1.045765776
1.04573568
1.045598451
1.045351408
1.045353345
1.045449547
1.04564648
1.045920404
1.046137801
1.046358562
1.046638821
1.046950372
1.047179957
1.047384225
1.047601403
1.047784258
1.0479488
1.048166248
1.048371313
1.048617891
1.048809346
1.04888234
1.048976851
1.049140083
1.049284704
1.049381805
1.049491661
1.049548302
1.049617635
1.049717298
1.049836102
1.051455096
1.051627854
1.051597972
1.051431892
1.051256046
1.051225374
1.051315727
1.051559477
1.051841317
1.051992256
1.052154235
1.052338481
1.052579409
1.052704188
1.052873445
1.053113209
1.053355039
1.053681793
1.054077838
1.054480503
1.054832394
1.055012787
1.055016817
1.055000146
1.054987038
1.054921756
1.054792551
1.054747779
1.054800149
1.05489585
1.055033662
1.055322193
1.058153977
1.058699127
1.059190415
1.059210216
1.059169112
1.059133394
1.059123188
1.059191088
1.059274915
1.059322179
1.059445532
1.059684373
1.059978962
1.060245815
1.060525788
1.06083301
1.061095621
1.061296591
1.061468295
1.06165358
1.061794374
1.061784194
1.061773333
1.061762173
1.061761668
1.061792149
1.061830061
1.061852788
1.061879405
1.06187292
1.061853207
1.061891089
1.066005382
1.066626266
1.067376578
1.067732037
1.067762394
1.067723
1.067628714
1.067520145
1.06733331
1.067316228
1.067440904
1.067714547
1.068105445
1.06868429
1.069251742
1.069634704
1.069757127
1.069689188
1.06946729
1.069153611
1.068905971
1.068685086
1.068602327
1.068639505
1.068787015
1.069026946
1.069307561
1.069514519
1.069585408
1.069551233
1.069421975
1.069144575
1.073636064
1.074018332
1.074593437
1.075022363
1.075276246
1.075432503
1.075478636
1.075411991
1.075235994
1.075196431
1.075293132
1.075584521
1.075971715
1.076337807
1.076775182
1.07690628
1.076911447
1.076792671
1.076422966
1.075844891
1.075417744
1.075308377
1.075352953
1.075556646
1.075815419
1.075927013
1.076059414
1.076165566
1.07620504
1.076239478
1.076274009
1.07612016
1.077815828
1.07829873
1.078665013
1.078753116
1.078688535
1.078709404
1.078729745
1.078879449
1.079219959
1.079329457
1.079414628
1.079355763
1.079623876
1.080010691
1.080312506
1.08054855
1.08059433
1.080385983
1.079858852
1.07922661
1.078667552
1.078443151
1.078371808
1.078562045
1.078861627
1.079581416
1.080059219
1.080106747
1.079888644
1.07959127
1.079399641
1.079164617
1.078078324
1.078774074
1.079176949
1.07887057
1.078710595
1.078477306
1.078470255
1.078895278
1.079486018
1.079828431
1.079769241
1.079689307
1.079836228
1.080102908
1.080418115
1.080703335
1.080763044
1.080565618
1.080136143
1.079634443
1.078963324
1.078702619
1.078530333
1.078572099
1.078692022
1.07971037
1.080563741
1.080707551
1.080588787
1.07984484
1.079418968
1.079058316
1.077561412
1.078386609
1.078869745
1.078835759
1.078333538
1.078138796
1.078279584
1.078807255
1.079354255
1.079772804
1.080036781
1.079971868
1.079840767
1.080004453
1.080223068
1.080468723
1.080583889
1.080618106
1.080477217
1.080364444
1.079841441
1.078832627
1.078357936
1.078325238
1.078572953
1.079397381
1.080339335
1.080767648
1.080641856
1.080234941
1.079427555
1.079086725
1.076734724
1.077430244
1.077921267
1.078055267
1.078043333
1.078028524
1.078058243
1.078417713
1.078960227
1.079426755
1.079749111
1.079856028
1.079704115
1.079666769
1.079809417
1.079941125
1.08007379
1.080304787
1.08040113
1.080567918
1.080372067
1.079741749
1.07871105
1.077986148
1.078321665
1.0790998
1.079737328
1.080181931
1.080369818
1.080212678
1.07974415
1.07916782
1.075362407
1.075930701
1.076391394
1.076620337
1.07693813
1.077256635
1.077616521
1.077942403
1.078376688
1.078796299
1.079161872
1.079380464
1.079318938
1.079065951
1.079047514
1.079079349
1.079169079
1.079419338
1.079803207
1.0801311
1.080160065
1.079871691
1.079113195
1.078097367
1.077832852
1.078507981
1.078935402
1.079243986
1.079564877
1.079749803
1.079582319
1.079284335
1.073721151
1.074122398
1.074572133
1.074948747
1.075375868
1.075855415
1.076376189
1.076787574
1.077244651
1.077772496
1.078223376
1.078448005
1.078423294
1.078253563
1.078081737
1.077916819
1.077893539
1.078152406
1.078634534
1.079207667
1.0795171
1.079383692
1.078984786
1.078179316
1.077471114
1.077575914
1.077903931
1.078109324
1.078428503
1.078748509
1.078960431
1.078926076
1.071840847
1.072165074
1.072658331
1.073173802
1.073689036
1.074188374
1.07464349
1.075066175
1.075689412
1.076323284
1.076784228
1.077079711
1.077130068
1.076993092
1.076828507
1.076654745
1.07663502
1.076826268
1.077185036
1.077755241
1.078205924
1.078226704
1.078152122
1.077724621
1.077147935
1.076694429
1.076628139
1.076772547
1.077100734
1.077528294
1.077952032
1.078147837
1.07049717
1.070641958
1.070990143
1.071490808
1.072023948
1.072410317
1.072752022
1.073203019
1.073970572
1.074742913
1.075156623
1.075476945
1.075613181
1.075606416
1.075466589
1.075220799
1.075172914
1.075309167
1.075582347
1.076043823
1.076574469
1.076758695
1.076861095
1.076814419
1.076499394
1.075897153
1.075514581
1.075434018
1.075650325
1.07614419
1.07674313
1.077011568
1.069688511
1.069750553
1.06988513
1.070228883
1.070534091
1.070723689
1.071040996
1.071599409
1.072482303
1.0733333
1.073673024
1.073917795
1.074037931
1.074226153
1.074276644
1.074088978
1.073947644
1.073924935
1.074045364
1.074333836
1.074852648
1.075153963
1.075322088
1.075457244
1.075481818
1.074991221
1.07443967
1.074320531
1.07441493
1.074772996
1.075276485
1.075585841
1.069177155
1.069255167
1.069243854
1.069295007
1.069309053
1.069358699
1.06970393
1.070345513
1.07129868
1.072180695
1.072503832
1.072702339
1.072821235
1.073024726
1.073118802
1.073067521
1.072995267
1.072814081
1.072688378
1.072819825
1.073317378
1.073677718
1.073937486
1.074233934
1.074415663
1.07416017
1.073616462
1.073379515
1.073416025
1.07356893
1.073812641
1.074091207
1.068842697
1.069047738
1.068976626
1.068688631
1.068504237
1.068474299
1.068793094
1.069514124
1.070517275
1.071435339
1.07173753
1.071845193
1.071934474
1.072065473
1.07210604
1.072165431
1.07226051
1.072029086
1.071613624
1.071709046
1.072165146
1.072488785
1.072782401
1.07305433
1.073208909
1.07316016
1.072923584
1.072725744
1.072668265
1.072649133
1.072670753
1.072817774
1.068613702
1.068689191
1.068487205
1.068146486
1.067955922
1.067981492
1.06832447
1.069145604
1.070141688
1.071011808
1.071249126
1.07132584
1.071406511
1.071501722
1.071550707
1.071653589
1.071708938
1.071455191
1.070987392
1.071008636
1.071340803
1.071574176
1.071799586
1.072020784
1.072332528
1.072502015
1.072282603
1.072071611
1.072006389
1.07199693
1.071968148
1.072038826
1.068213972
1.068205564
1.067960736
1.067679379
1.067572972
1.067693306
1.068159399
1.069048675
1.070001997
1.070771847
1.07101673
1.071164159
1.071159903
1.071113025
1.070995531
1.070967702
1.070956496
1.070831298
1.070730881
1.070627777
1.070720329
1.070888613
1.071135669
1.071523325
1.071749243
1.071674768
1.071446038
1.071390629
1.071459677
1.071462067
1.071459508
1.07167702
1.067800992
1.067718343
1.06744251
1.067256035
1.067235777
1.067452187
1.068097729
1.069020148
1.069963826
1.070684013
1.071020801
1.071131239
1.070927308
1.070447253
1.070285268
1.070249718
1.070246106
1.070262904
1.070551311
1.070544995
1.070490876
1.070556901
1.070789953
1.070944269
1.070999259
1.070939826
1.070877907
1.07090251
1.070850726
1.070758821
1.070906716
1.071443421
1.067428788
1.067240928
1.066924764
1.066854272
1.06694915
1.067266933
1.068029835
1.068973184
1.069974977
1.070709729
1.0709757
1.070935942
1.070540038
1.069873503
1.069502944
1.069378628
1.06940305
1.069726381
1.070237582
1.070621958
1.070702734
1.070642703
1.070671685
1.070557448
1.070475568
1.070514719
1.070601365
1.070459079
1.070279666
1.07025926
1.070561308
1.071364887
1.067221244
1.067003052
1.066754399
1.066683826
1.066836073
1.067262381
1.068072358
1.069026154
1.070080229
1.070655846
1.070710739
1.070624693
1.070241106
1.069419396
1.068880479
1.068685264
1.068677337
1.069181235
1.06997592
1.070677027
1.070868466
1.070910285
1.070789839
1.070370941
1.070167508
1.070201819
1.070150189
1.069983042
1.069882153
1.070143709
1.070580588
1.071329552
1.067893326
1.06742015
1.067045924
1.066834389
1.066907897
1.067194374
1.067588436
1.068108618
1.068928321
1.069917745
1.07038536
1.070427834
1.070341833
1.069882456
1.068848495
1.068178626
1.068041032
1.068194094
1.06877341
1.069841664
1.070563605
1.070790365
1.071006081
1.070969005
1.070625954
1.070146042
1.06992276
1.069775502
1.06966139
1.069648169
1.069814888
1.070145083
1.070875799
1.068170494
1.067763284
1.067330627
1.067150651
1.067353349
1.067676707
1.068044309
1.06820181
1.068718475
1.069613993
1.070050215
1.070062739
1.069920178
1.069318363
1.068251076
1.067741044
1.067798828
1.068017907
1.06854946
1.069390618
1.070184297
1.070602701
1.070915309
1.071016991
1.070885437
1.070344785
1.069788106
1.069475924
1.069376623
1.069463423
1.06956792
1.06971345
1.070179247
1.068126112
1.067918678
1.067656787
1.067485746
1.067533911
1.067770246
1.068220771
1.068418535
1.068612208
1.06928919
1.06964032
1.069605875
1.069370072
1.068772707
1.068052652
1.067620658
1.067674959
1.067941455
1.068381274
1.069006484
1.069859088
1.070473323
1.0709933
1.071218584
1.071074854
1.070581448
1.069896602
1.069382326
1.069193913
1.069208239
1.069269462
1.069339681
1.069637489
1.068176597
1.068016716
1.067744535
1.067502136
1.067465507
1.067647044
1.06810551
1.068499988
1.068713326
1.068935582
1.069171415
1.069144685
1.068943769
1.068509153
1.068012597
1.067697843
1.067716463
1.06789431
1.068154543
1.068764478
1.069690655
1.070698349
1.07115272
1.071199959
1.070976296
1.07056669
1.070031114
1.069497858
1.069241217
1.069104011
1.069048641
1.068989479
1.069159664
1.068053304
1.067874594
1.067608133
1.067365219
1.067276589
1.067415021
1.067881725
1.068310512
1.068559863
1.0687911
1.068911594
1.068867192
1.068684245
1.068292904
1.067868685
1.067734615
1.067800081
1.067892166
1.068037483
1.068663395
1.069706178
1.070535414
1.070839986
1.070847251
1.070748336
1.070445888
1.069950024
1.069658395
1.069547827
1.069327673
1.068921848
1.068649804
1.068823826
1.067498894
1.067431073
1.067240486
1.067061542
1.066967477
1.067048383
1.067521708
1.067983148
1.068355657
1.068689925
1.06873684
1.068674748
1.068488314
1.068131887
1.06788688
1.067779676
1.067820163
1.067869738
1.068096625
1.068729462
1.069701762
1.070356894
1.070491599
1.070466948
1.070372016
1.070170838
1.069715791
1.069422542
1.069451321
1.069474818
1.069390196
1.068965265
1.06881082
1.066848135
1.066856568
1.066761822
1.066659786
1.066589563
1.066878172
1.067235395
1.067729465
1.068218991
1.068609837
1.068695579
1.068584729
1.0684134
1.068137269
1.067984146
1.067816566
1.067683842
1.067714326
1.068015383
1.068757073
1.069644095
1.070041908
1.070110343
1.070064763
1.069938077
1.069679875
1.06928806
1.069154329
1.069283049
1.069375005
1.069432269
1.069274271
1.069196895
1.066419135
1.06639476
1.066302474
1.066254016
1.066380843
1.06673427
1.067176725
1.067736715
1.06830957
1.06869707
1.068669064
1.068504793
1.068307894
1.068065444
1.067844974
1.067637353
1.067522789
1.067554513
1.067938333
1.068774723
1.069442327
1.06970408
1.069757245
1.0697207
1.069563667
1.069228979
1.068910284
1.068885902
1.069067597
1.069138668
1.069199346
1.069247444
1.06936428
1.066038604
1.065978268
1.065924688
1.065960877
1.066249189
1.066694689
1.067153868
1.067879399
1.068436662
1.068576057
1.068384435
1.068108187
1.06781874
1.067664173
1.067505527
1.067364266
1.067339607
1.067436785
1.067911301
1.068607527
1.069200742
1.069592179
1.069666078
1.069566276
1.069342553
1.068962815
1.068643768
1.068552897
1.068554693
1.068717546
1.06906584
1.069160496
1.069452786
1.065927256
1.065765795
1.06572577
1.065793101
1.066202754
1.066773177
1.067322424
1.067918602
1.06826484
1.068241551
1.067997849
1.067644285
1.06726642
1.067125574
1.067091662
1.067021941
1.067102022
1.067294463
1.067682181
1.068226359
1.068889278
1.069470671
1.069731609
1.069723355
1.0694215
1.068873317
1.068536788
1.06829003
1.068060183
1.06814221
1.068674438
1.069213434
1.069587816
1.065931916
1.065812648
1.065752183
1.065811413
1.066298232
1.067002811
1.06750424
1.067766096
1.067982458
1.067901675
1.067532348
1.067102944
1.066774818
1.066656472
1.066633392
1.066647008
1.066811015
1.067077461
1.067391609
1.067771108
1.06837569
1.069225152
1.069622664
1.069752933
1.069644584
1.069200024
1.068617781
1.068034704
1.067656317
1.067648619
1.067950608
1.06870996
1.069453065
1.065810549
1.065757691
1.065833781
1.065982942
1.066412839
1.067089321
1.067500559
1.06762558
1.067743062
1.067479979
1.067063109
1.066736653
1.066463794
1.066284344
1.066228008
1.066303895
1.066507283
1.066800939
1.067053484
1.067344796
1.067856008
1.06862764
1.069374458
1.069618932
1.069631693
1.069453562
1.068902675
1.067935104
1.067323683
1.067292603
1.067444829
1.067981297
1.068769609
1.065667886
1.065704903
1.065859728
1.066065949
1.066402733
1.066955488
1.067303972
1.067438888
1.067447785
1.067132529
1.066852563
1.066531598
1.066240693
1.065996884
1.065905789
1.065980181
1.06624031
1.066549778
1.066717917
1.066982459
1.067446601
1.06810573
1.069024849
1.069432377
1.069575319
1.069533547
1.06912725
1.068170705
1.067187081
1.066981883
1.067120181
1.0675015
1.068050597
1.065425585
1.065505908
1.065737854
1.065950202
1.066220378
1.066676959
1.067018212
1.067177464
1.067095711
1.066956523
1.066740428
1.066449845
1.066145313
1.065854244
1.065737442
1.065777698
1.066051594
1.066412524
1.066583627
1.066811197
1.06724706
1.067853971
1.06836744
1.069116604
1.069557195
1.069484615
1.069049328
1.068375199
1.067527589
1.066817559
1.06682617
1.067045936
1.067467038
1.06500472
1.065199852
1.065504052
1.065733681
1.065990268
1.066391546
1.066649161
1.066816836
1.06684164
1.066740313
1.066605857
1.066378072
1.066055754
1.065787604
1.065724049
1.06577547
1.066013605
1.066351618
1.066643592
1.066883867
1.067255286
1.067742698
1.068085548
1.068404665
1.068950745
1.069221014
1.06885684
1.068202804
1.067846657
1.067266763
1.066754009
1.066820263
1.067110843
1.064449527
1.064800199
1.065203651
1.065478343
1.065854012
1.066201014
1.066405333
1.066531803
1.066747397
1.066734268
1.066558856
1.066240849
1.065905601
1.06569722
1.065724164
1.06584342
1.066052517
1.066330616
1.066657555
1.067023345
1.067479456
1.067790713
1.067902226
1.068057417
1.068224508
1.068379135
1.068277096
1.067962807
1.067827236
1.06761261
1.067215358
1.066774801
1.066984006
1.063760717
1.063990614
1.064447246
1.064937258
1.065352778
1.065833701
1.066120753
1.066327605
1.066522204
1.06654678
1.066461784
1.066323744
1.066008835
1.065694873
1.065520649
1.065594772
1.06575363
1.066003599
1.066350739
1.066742302
1.067263294
1.067801868
1.067976128
1.067908846
1.067809807
1.067749882
1.067553926
1.067452138
1.067549705
1.067602716
1.067622769
1.067588471
1.067111164
1.067081472
1.063320988
1.06367204
1.064235127
1.064840124
1.065355595
1.06602161
1.066347984
1.066455576
1.066492824
1.066358009
1.066253077
1.066072492
1.065802671
1.065465441
1.065342389
1.065416497
1.065612068
1.065909719
1.066398852
1.066961688
1.067589141
1.068051811
1.068170055
1.068079097
1.067768455
1.067344459
1.066909804
1.066749511
1.066991723
1.067310376
1.06764406
1.067749567
1.067475876
1.067272787
1.062915742
1.063384138
1.064173861
1.064832642
1.065598125
1.066355704
1.066515638
1.066494468
1.066433464
1.066214955
1.066051527
1.06588851
1.0658567
1.0656004
1.065353352
1.065350607
1.065558629
1.065986026
1.066635459
1.067279427
1.067796149
1.068129087
1.068243778
1.068120383
1.067725754
1.066999634
1.066318847
1.066262558
1.066641496
1.067386474
1.067794883
1.067888276
1.067733245
1.067548561
1.062623453
1.063345357
1.064228887
1.065014873
1.065915245
1.066467633
1.066469272
1.066431629
1.066320187
1.066044945
1.065744038
1.065836415
1.066141737
1.066218844
1.065955954
1.065697629
1.065758348
1.066242886
1.066746751
1.067240107
1.067706275
1.068028232
1.068157514
1.068084664
1.067511543
1.066537503
1.066064558
1.066157892
1.06657311
1.06714379
1.067819441
1.067923225
1.067833391
1.067691395
1.06278297
1.063402365
1.064294723
1.065215562
1.066007655
1.066379685
1.066337947
1.066286396
1.066127147
1.065713614
1.065495519
1.065681389
1.066157638
1.06676793
1.06691534
1.066721056
1.066363288
1.066297017
1.066349869
1.066650715
1.06718912
1.067627274
1.067831835
1.067715243
1.067347313
1.067034954
1.066616006
1.066362635
1.066602541
1.067077572
1.067385275
1.067665299
1.067756065
1.067659762
1.062789835
1.063414224
1.064317826
1.065262905
1.065939086
1.066248774
1.066122777
1.065913001
1.065621702
1.065293194
1.065279777
1.065519783
1.066084044
1.066926949
1.067501288
1.067578298
1.067324859
1.066557509
1.066073266
1.065996563
1.066225575
1.066604056
1.066945696
1.067024813
1.067013001
1.066973546
1.067049566
1.067013715
1.066923804
1.067017558
1.067090488
1.067239873
1.067543508
1.067555814
)
;

boundaryField
{
    inlet
    {
        type            fixedValue;
        value           nonuniform 0();
    }
    outlet
    {
        type            inletOutlet;
        inletValue      uniform 1;
        value           nonuniform List<scalar> 
69
(
1.079152816
1.079049926
1.079088293
1.07912583
1.079255809
1.078935628
1.078173388
1.077027366
1.075593308
1.074091815
1.072791628
1.071971984
1.07162603
1.071455971
1.071416421
1.07136276
1.070953371
1.070239227
1.069658462
1.069155067
1.068821685
1.068758868
1.06915167
1.069375494
1.069499819
1.069627738
1.069488477
1.068855509
1.068098989
1.067485325
1.067133947
1.067006122
1.067087163
1.067265892
1.06752946
1.067664406
1.067636103
1.067537442
1.019921493
1.021898613
1.022436344
1.021542125
1.021298194
1.021932119
1.022819896
1.023170488
1.023246719
1.023323094
1.024136678
1.025241221
1.026148511
1.026954151
1.027475867
1.028165363
1.0295219
1.031350151
1.033182669
1.034748534
1.035821392
1.03666229
1.037893964
1.039739858
1.042303553
1.045638884
1.049836159
1.055326399
1.061888357
1.06913151
1.076120545
)
;
    }
    bottom
    {
        type            slip;
    }
    top
    {
        type            slip;
    }
    obstacle
    {
        type            zeroGradient;
    }
    defaultFaces
    {
        type            empty;
    }
    procBoundary11to5
    {
        type            processor;
        value           nonuniform List<scalar> 
33
(
0.8379869864
0.8363549602
0.8340028931
0.831558878
0.8303620598
0.8285937148
0.8284750624
0.8304737694
0.8482865109
0.8889452683
0.9465914965
0.9946149345
1.016861733
1.015522402
1.016632834
1.015543071
1.015891275
1.018151127
0.8616160387
0.8590087937
0.8568657754
0.8548696763
0.8525915962
0.8503799243
0.8482168775
0.8462055323
0.8439534148
0.8422203033
0.8403297061
0.8387482631
0.8365158126
0.8350712997
0.8350712997
)
;
    }
    procBoundary11to10
    {
        type            processor;
        value           nonuniform List<scalar> 
70
(
0.8581828694
0.8528689789
0.8467880826
0.8411179791
0.8352444523
0.8295021392
0.8239013918
0.8185215526
0.8131298171
0.8075748268
0.8016318841
0.7970823979
0.8023543617
0.8800530894
0.9780679686
1.025306993
1.03156019
1.028853678
1.030116783
1.033737163
1.036035637
1.037047132
1.036674911
1.037877004
1.04135045
1.046044643
1.05145542
1.057861063
1.065726465
1.073519617
1.07764537
1.077805974
1.077302462
1.076486943
1.075145197
1.073575757
1.071771644
1.07048189
1.069562044
1.068909962
1.068410335
1.068044543
1.06769827
1.067407889
1.067188712
1.067324418
1.067324418
1.068203924
1.068381449
1.0682276
1.068143001
1.067979589
1.067298435
1.066755372
1.066382906
1.066122281
1.066063136
1.06601401
1.065904765
1.065732044