/*--------------------------------*- C++ -*----------------------------------*\
  =========                 |
  \\      /  F ield         | OpenFOAM: The Open Source CFD Toolbox
   \\    /   O peration     | Website:  https://openfoam.org
    \\  /    A nd           | Version:  7
     \\/     M anipulation  |
\*---------------------------------------------------------------------------*/
FoamFile
{
    version     2.0;
    format      ascii;
    class       volScalarField;
    location    "3.7";
    object      T;
}
// * * * * * * * * * * * * * * * * * * * * * * * * * * * * * * * * * * * * * //

dimensions      [0 0 0 1 0 0 0];

internalField   nonuniform List<scalar> 
2222
(
1.677722654
1.66906118
1.655123341
1.648671764
1.642599933
1.630868344
1.623933467
1.615182967
1.60684639
1.600549676
1.593148174
1.584913123
1.576317797
1.567582719
1.558754544
1.550018106
1.541511653
1.920834011
1.920001258
1.915090145
1.90065727
1.872440332
1.836944594
1.79495823
1.739042744
1.712673951
1.780039138
1.869641097
1.871513617
1.841453617
1.803817831
1.764071859
1.744174943
1.726816159
1.702680361
1.686028704
1.6738423
1.665633526
1.652626753
1.640666525
1.638032661
1.629304816
1.618020788
1.613073202
1.604044847
1.596860749
1.591037993
1.583688609
1.575453571
1.567185753
1.55889799
1.550485484
1.542213389
1.534169507
1.920713515
1.919700364
1.914095081
1.897815882
1.868436797
1.82840259
1.788076228
1.736285687
1.679807416
1.683056513
1.773179763
1.843277509
1.825075747
1.790302072
1.751343883
1.730955662
1.712462365
1.687128215
1.668734944
1.660335944
1.651395684
1.634994086
1.627672816
1.626454332
1.614227596
1.60568957
1.601800357
1.59248613
1.586472901
1.580967967
1.573660149
1.565748995
1.558001708
1.550209187
1.54228488
1.53447272
1.526732829
1.920568211
1.91943328
1.912947506
1.894791647
1.863425705
1.821312622
1.776254826
1.735089797
1.67293908
1.63423241
1.668609807
1.780589378
1.803813874
1.774988623
1.73816248
1.716343947
1.697085953
1.669970973
1.652481452
1.646721331
1.634881355
1.618100007
1.615329463
1.613029644
1.598785224
1.593977442
1.590121904
1.580853782
1.575838229
1.570672385
1.563788564
1.556370807
1.549026395
1.541503681
1.533864144
1.526311572
1.518803001
1.920535348
1.919184633
1.911623784
1.891733025
1.857216711
1.815466053
1.764548284
1.722478456
1.670891936
1.614617843
1.597322105
1.671367126
1.765039123
1.753956343
1.72487889
1.701922159
1.681647
1.652550406
1.637242323
1.632088559
1.616739816
1.602188981
1.602540385
1.597581374
1.583868272
1.582018586
1.577256683
1.568228005
1.564730823
1.56033443
1.553784609
1.546727079
1.53981936
1.532648026
1.525318297
1.518042955
1.510836024
1.920551347
1.9189094
1.910199207
1.888224692
1.851096933
1.80709281
1.755962494
1.706918662
1.66484738
1.606233854
1.560578888
1.575667952
1.676585633
1.72734535
1.709721875
1.688318306
1.665524706
1.635085339
1.622205463
1.616340934
1.59807794
1.587017935
1.588837082
1.580992866
1.569788481
1.569975511
1.56361756
1.555701393
1.554122197
1.549908923
1.543072915
1.537065939
1.530717104
1.523652202
1.5165874
1.509635568
1.502774939
1.920522144
1.918595916
1.908659228
1.884171478
1.845205486
1.797120102
1.747877686
1.693004087
1.64847319
1.603061143
1.545483553
1.519442405
1.57077934
1.669803979
1.691448723
1.675460242
1.649890272
1.618571883
1.607395921
1.59985802
1.579663235
1.572358082
1.574107472
1.56371908
1.555771399
1.556825783
1.548710584
1.543320678
1.543209084
1.538060175
1.532217952
1.527618448
1.521222535
1.514423781
1.507928596
1.501292247
1.494698406
1.92050211
1.918228746
1.90683776
1.879822284
1.838286777
1.787772867
1.736033371
1.683040062
1.630439789
1.591593442
1.537298235
1.489996132
1.492059878
1.571559786
1.663520491
1.65712864
1.633656252
1.603570568
1.593239374
1.583066766
1.562259607
1.557902773
1.558570779
1.54638361
1.54216171
1.542979022
1.534162876
1.532043635
1.531529009
1.525218112
1.521895812
1.517941869
1.511349336
1.505254208
1.499174727
1.492799102
1.486573921
1.920517821
1.917760648
1.904640466
1.875008445
1.830267543
1.778701527
1.722526224
1.672094215
1.615731146
1.573431998
1.532757811
1.475901927
1.44899948
1.48267288
1.596308767
1.63271325
1.614906494
1.589185092
1.579077765
1.565975693
1.545820695
1.543699757
1.541789382
1.529135591
1.528140508
1.527375064
1.519601587
1.520232219
1.518121004
1.51277774
1.511610024
1.507591728
1.501206858
1.495824025
1.490291026
1.484314806
1.47851107
1.920581367
1.917160873
1.901986721
1.869449802
1.821670959
1.768079774
1.710079403
1.657481825
1.604844335
1.553608382
1.519021589
1.46791914
1.42351093
1.423087785
1.499758764
1.598879
1.594499922
1.574903754
1.563866955
1.548172119
1.53026997
1.529326115
1.524220577
1.513262366
1.514731988
1.511377727
1.506211881
1.507978543
1.504083925
1.50077413
1.500875338
1.49661972
1.490837335
1.486387996
1.481236932
1.475726089
1.470466586
1.920662803
1.916400334
1.89885797
1.862967691
1.812492249
1.755866118
1.698372083
1.641074173
1.593087936
1.53824353
1.500643202
1.461932974
1.410248798
1.38749504
1.416821233
1.519990023
1.570633264
1.560563756
1.549084529
1.531415263
1.515010738
1.513014138
1.505379362
1.498509937
1.50049656
1.494869324
1.492481303
1.49431008
1.489945385
1.488978159
1.489432808
1.484935192
1.480180629
1.476614938
1.472003754
1.467126312
1.462435371
1.920730548
1.915447796
1.895219867
1.855461546
1.802795656
1.742489074
1.685815107
1.625975882
1.577757708
1.526585391
1.480567401
1.449286272
1.402233798
1.363709727
1.362514272
1.428941078
1.528879637
1.544702395
1.533622504
1.515323574
1.500044719
1.495790834
1.487875043
1.485424523
1.485286588
1.47923286
1.479002561
1.480170145
1.476425494
1.477174166
1.477373112
1.472670856
1.469597665
1.467036843
1.462715438
1.458490539
1.45429897
1.920784074
1.914257183
1.890977425
1.847145189
1.791927681
1.729141891
1.6716329
1.612442663
1.560270488
1.515450434
1.464502313
1.431737414
1.395820094
1.349957654
1.32902136
1.35162257
1.445928482
1.524053966
1.517826891
1.501860005
1.486141821
1.478560422
1.472387046
1.471202573
1.467872591
1.463517756
1.465306951
1.466054401
1.463377594
1.465251417
1.464665645
1.460314517
1.459184055
1.457290491
1.453112603
1.449648526
1.445811528
1.920818245
1.912786319
1.885949697
1.83828564
1.779815667
1.716299196
1.655902396
1.599768003
1.543502576
1.50108224
1.451816367
1.412124317
1.384348573
1.341217251
1.30578859
1.306009318
1.363050606
1.484043592
1.498429379
1.487101436
1.472732521
1.46438747
1.459604825
1.456053897
1.450837033
1.448845166
1.452402574
1.452357489
1.450294451
1.453125924
1.451749386
1.448686193
1.448920829
1.446951232
1.443369787
1.440691735
1.43703943
1.920682394
1.910854326
1.880104873
1.828991761
1.766544796
1.703815687
1.640085264
1.585816804
1.528482823
1.484137147
1.44092514
1.394777877
1.368243783
1.333871993
1.291915251
1.276974746
1.297644824
1.403838178
1.473079927
1.467737567
1.455922954
1.449343028
1.445810935
1.439416636
1.434226188
1.434332951
1.439327175
1.438106247
1.437294012
1.44038857
1.438217731
1.436930506
1.438220061
1.435749506
1.43333528
1.431348007
1.427842574
1.920236925
1.908253607
1.873374973
1.819112278
1.753293765
1.690409765
1.624894794
1.570191442
1.515619996
1.466173758
1.427567625
1.380734799
1.349277889
1.323066287
1.281753173
1.255223538
1.256637434
1.321691628
1.436411863
1.452520238
1.440940598
1.434450369
1.43036914
1.422744301
1.41868917
1.420810271
1.425303106
1.423017184
1.424243089
1.427184736
1.424951068
1.425754905
1.426650385
1.424139724
1.42349755
1.42175861
1.418417599
1.919362964
1.904836849
1.866005115
1.808535878
1.74027505
1.675993546
1.611271519
1.553112823
1.50218953
1.449307781
1.411297723
1.369302756
1.330638571
1.307751365
1.273518701
1.238620786
1.229668755
1.254999687
1.361520012
1.430917928
1.424819308
1.423085296
1.417406331
1.408297978
1.404411949
1.407792624
1.410277017
1.408297474
1.411638268
1.413285441
1.412541001
1.414781655
1.414249652
1.412957144
1.413195157
1.411379223
1.409035558
1.918084066
1.900730155
1.85819205
1.797227923
1.728109845
1.66059558
1.597529491
1.535846199
1.487533291
1.434168545
1.392464396
1.356204198
1.314342836
1.289145946
1.263273891
1.226583632
1.207064824
1.212414955
1.282764263
1.384142369
1.414637404
1.41275996
1.404323121
1.394517239
1.391589192
1.394382614
1.394973204
1.394015892
1.398327433
1.400367937
1.401470399
1.403177717
1.401848256
1.402109386
1.402779384
1.401127768
1.399629989
1.916491693
1.896103728
1.850338897
1.785382139
1.715999372
1.644874234
1.583306183
1.519259953
1.470027523
1.419143813
1.373196656
1.34044475
1.300210611
1.269551854
1.248676873
1.216216161
1.188575472
1.183875594
1.212872495
1.315324468
1.397192543
1.397168774
1.390423513
1.380694226
1.378162462
1.379732104
1.380194544
1.380337173
1.384408839
1.38761521
1.389427824
1.390251328
1.390183964
1.391909477
1.392016536
1.390797743
1.3901247
1.914622164
1.891322469
1.842347974
1.7733927
1.703702999
1.629560144
1.566629598
1.503135328
1.450521834
1.403399793
1.353898814
1.321527937
1.285910914
1.250111772
1.230990536
1.206220817
1.175147019
1.160429869
1.168073325
1.241884919
1.356451019
1.381860931
1.373678504
1.365110162
1.364423345
1.365337833
1.365266524
1.366167314
1.370415372
1.37530085
1.376589417
1.377204164
1.379144141
1.381750351
1.381272213
1.380873723
1.380826738
1.913151115
1.886749832
1.834383326
1.761550502
1.690231611
1.613856558
1.548481332
1.486351121
1.429193603
1.384755909
1.334972379
1.300426829
1.270226971
1.232826497
1.210480962
1.19160172
1.162205127
1.140381533
1.140505942
1.17488826
1.293666606
1.364206106
1.359713945
1.351605022
1.350787552
1.3517072
1.352159689
1.353620462
1.357328618
1.362637573
1.36310427
1.363992235
1.368378426
1.371001773
1.37070888
1.371206593
1.371322163
1.912224915
1.882525021
1.825966707
1.749964804
1.675201449
1.597599994
1.527759089
1.467156181
1.407274905
1.363317571
1.316639351
1.277595345
1.251159864
1.216697904
1.189961484
1.174385927
1.15029348
1.125105404
1.11876929
1.130794613
1.221493737
1.326286468
1.344362146
1.340630102
1.337970859
1.337681351
1.338705903
1.341442097
1.345617223
1.350841979
1.350736516
1.351119725
1.35684715
1.359876788
1.360568738
1.361731516
1.361504814
1.911701167
1.878474209
1.817292699
1.738141493
1.657422096
1.579589359
1.504724197
1.445479314
1.384321862
1.338073394
1.29689832
1.255221166
1.228961402
1.199101286
1.169840336
1.15517725
1.136785272
1.110579364
1.097392587
1.099683368
1.151612278
1.26772244
1.325975773
1.327437869
1.324332383
1.322875727
1.32527269
1.329007208
1.333975538
1.338968128
1.338838925
1.339078739
1.345185499
1.34911769
1.350222918
1.351449216
1.351364637
1.911467268
1.874881738
1.807660636
1.724780076
1.637188841
1.558739209
1.47910035
1.419707212
1.360718412
1.311684975
1.273613633
1.233516673
1.206262135
1.180891056
1.14998599
1.134326001
1.1208536
1.097434075
1.079762304
1.078682481
1.100184327
1.197657409
1.300866021
1.316651004
1.313420284
1.307882361
1.310603469
1.315358002
1.321831703
1.327439486
1.327115877
1.327694512
1.333492938
1.338067092
1.340156355
1.341129797
1.340954468
1.912150291
1.871700891
1.796697452
1.708793121
1.613670497
1.532755705
1.452368719
1.390773466
1.335088924
1.284095074
1.247991889
1.210043056
1.181013015
1.160269896
1.132313562
1.112632486
1.101686501
1.083462058
1.063984656
1.058056609
1.064779757
1.131647064
1.251780704
1.301381246
1.300266619
1.294953675
1.297226166
1.302087891
1.30952346
1.31601995
1.315667074
1.316910906
1.32239272
1.327376035
1.329827861
1.330931596
1.331163769
1.914217064
1.868117093
1.783014159
1.688181579
1.586916366
1.502972583
1.422845635
1.358928764
1.305992962
1.255126637
1.222052727
1.188561319
1.15586355
1.136231341
1.114116786
1.093075214
1.082406207
1.068792085
1.048991103
1.039439094
1.041604285
1.076989992
1.18926185
1.285280567
1.285778005
1.279839872
1.282532108
1.288505691
1.298558953
1.305599286
1.304586678
1.305719393
1.310737427
1.315836127
1.320001239
1.320948806
1.321289128
1.917574491
1.862071708
1.765422015
1.662311898
1.556788611
1.468581398
1.390179652
1.325076576
1.276621226
1.22577371
1.191224664
1.163500465
1.132932328
1.112512475
1.09409705
1.072541954
1.061639791
1.052173788
1.035271931
1.022596102
1.022802737
1.037465182
1.121316833
1.248816226
1.276498392
1.270023871
1.269099875
1.273043753
1.284714043
1.294447619
1.294119316
1.295669085
1.29986642
1.304406443
1.309068102
1.312302764
1.313489379
1.920222806
1.85200863
1.742831847
1.631023211
1.522091377
1.431090227
1.355466931
1.288169964
1.244057565
1.198544262
1.161499142
1.135426881
1.107575971
1.088230868
1.074242053
1.054957357
1.041323526
1.034022735
1.021808296
1.008509227
1.00548545
1.010565176
1.062426344
1.185823976
1.261050164
1.256733083
1.257458072
1.261654433
1.272789151
1.283072172
1.282924399
1.284135496
1.287870251
1.293368367
1.299026046
1.301452642
1.30307998
1.921083308
1.837251892
1.714374767
1.595142116
1.483168212
1.388661685
1.318431299
1.251927025
1.206216005
1.166019176
1.132156538
1.110169462
1.083637991
1.062103391
1.05074585
1.036222788
1.021951842
1.015642684
1.007820776
0.9954422336
0.9893747022
0.9905263703
1.016667503
1.112662311
1.234269402
1.250609315
1.244581939
1.245922574
1.257124208
1.271151802
1.275874338
1.276812846
1.277894757
1.282014905
1.289460093
1.295392502
1.296696933
1.917781202
1.816066922
1.681692562
1.551574386
1.44096671
1.343517126
1.276369187
1.216058506
1.171196803
1.133704779
1.098543605
1.080706503
1.061520868
1.040458503
1.029696969
1.01833225
1.004671863
0.9984510389
0.9930919746
0.9823474558
0.9742125752
0.9744823088
0.9856030661
1.050587459
1.179869442
1.24068144
1.237050099
1.234862962
1.2411845
1.253528005
1.263707835
1.268730932
1.270141685
1.271596482
1.276050641
1.284403174
1.289112718
1.910111811
1.788987547
1.642561366
1.502968336
1.393147484
1.297609085
1.229429731
1.173388805
1.132790427
1.103569424
1.070324043
1.050621413
1.034486609
1.015613593
1.007351791
1.000292625
0.9879335348
0.9797132737
0.9770761765
0.970217741
0.9625210921
0.9603340156
0.9642327673
1.002284424
1.115235236
1.222411661
1.229525396
1.226601385
1.229541235
1.238165118
1.249436786
1.258700585
1.264188872
1.265597387
1.267455828
1.272326334
1.278681083
1.898429384
1.754554312
1.59637787
1.449304122
1.339053847
1.248487263
1.187015055
1.134149699
1.092454462
1.067075381
1.04162807
1.025226847
1.012855658
0.9959013554
0.9864343745
0.9815432579
0.9720931498
0.9628240999
0.9605976422
0.955950186
0.9471513626
0.9437382021
0.9457430827
0.9659666798
1.054474866
1.191533367
1.218076881
1.215091834
1.217981644
1.226248068
1.237623606
1.248753302
1.257028203
1.258188065
1.258404158
1.261114062
1.267355128
1.880975293
1.712073524
1.542223139
1.390486465
1.282957162
1.193136088
1.13538569
1.096466745
1.057789568
1.033116681
1.010952284
0.9947557278
0.9882273757
0.977173987
0.9676036385
0.9637639539
0.957277059
0.9466333506
0.9464097256
0.9445753996
0.9384148249
0.9346915106
0.9356866544
0.9451416576
1.006280246
1.13977331
1.208877649
1.208269471
1.20845294
1.214956937
1.225166474
1.237325849
1.248348465
1.250607232
1.250294582
1.251986032
1.257222486
1.856970568
1.66141513
1.47939736
1.327185175
1.226922059
1.144383265
1.085207305
1.048520947
1.019660905
1.002166666
0.9880019311
0.973197599
0.9664681405
0.9578796978
0.9483189737
0.9457784808
0.9413456913
0.9348534324
0.9308920737
0.9312087958
0.9283056464
0.924284163
0.9244198219
0.9287172788
0.9668455426
1.079750517
1.189282207
1.206621517
1.204442981
1.207107792
1.213134825
1.224964982
1.239635435
1.243992612
1.244926094
1.246422395
1.249970661
1.820978927
1.603075098
1.411263203
1.255965316
1.159482431
1.092092466
1.043762546
1.012715876
0.9860620632
0.9729998552
0.9643633032
0.9530978717
0.9469335839
0.9410033561
0.9329175201
0.9290113832
0.9271445455
0.9240326965
0.9190729396
0.9198585033
0.9185072815
0.9160268861
0.9163328697
0.9187955377
0.937779741
1.029387707
1.152336055
1.203976379
1.204551519
1.200827115
1.203628737
1.212943118
1.230246907
1.239124363
1.239529044
1.240551984
1.242793143
1.781588514
1.532420856
1.342536117
1.189934656
1.096729647
1.036135532
0.9942696289
0.9800215774
0.9619936487
0.9464281565
0.9420833553
0.9339582895
0.9259991141
0.9245710027
0.9207636984
0.9163899187
0.916806927
0.9154007146
0.9131539656
0.9133117762
0.9136584724
0.9121570649
0.912890753
0.9145905445
0.9232027966
0.9860254938
1.104094073
1.191647929
1.204081686
1.201769297
1.201353361
1.207201294
1.221384937
1.23472935
1.237497418
1.237082564
1.237582508
1.744604892
1.447404529
1.240511547
1.119252589
1.042585036
1.00328015
0.9680286961
0.9532881816
0.940839044
0.9256477648
0.9256073123
0.9223699755
0.9144796673
0.9146505742
0.9136111602
0.9107937508
0.9110983868
0.9110661767
0.9101121462
0.9103216423
0.911591544
0.9110185874
0.9111893581
0.911859834
0.9158513707
0.9503164723
1.057345241
1.166309189
1.201934508
1.20194524
1.199939742
1.203695807
1.214074939
1.227619015
1.235853158
1.235828124
1.235250778
1.688944199
1.361461008
1.134583665
1.040688812
0.9844590415
0.9774575242
0.9590129888
0.9446203675
0.9316507874
0.9191355195
0.9151891917
0.9132013582
0.9099584312
0.9090197203
0.908432402
0.9062541439
0.906416328
0.9074400788
0.9067413379
0.9070697584
0.908554683
0.9086354698
0.9083351898
0.9087890686
0.9107083923
0.9271302643
1.012954719
1.131692473
1.195808397
1.20116559
1.198537145
1.200707337
1.210361937
1.223804806
1.234526002
1.235955327
1.23461595
1.628216496
1.099436047
0.9930375083
0.9752580081
0.9631312694
0.9607403996
0.9546875842
0.9475047554
0.9378919171
0.9266098439
0.9196905232
0.9162811813
0.9125626229
0.9095319068
0.9084246255
0.9065920166
0.9054321886
0.9057351657
0.9055538384
0.9056309871
0.9061572518
0.9063843443
0.9062706132
0.9064322665
0.9070032542
0.912358447
0.9610669507
1.069523661
1.175202863
1.197524931
1.195259257
1.19709767
1.207194826
1.220162868
1.232641303
1.235879581
1.234441987
1.288019738
1.137586133
1.005184217
0.9586787193
0.9605895821
0.9632060236
0.9576117908
0.9492399406
0.9410563562
0.9316102449
0.9218196826
0.9162449684
0.912237979
0.9094429402
0.9076432294
0.9057339445
0.9039468266
0.9042665718
0.9042925535
0.9041722974
0.9046822118
0.904988494
0.9049378886
0.9047914049
0.905960433
0.9124785553
0.9666163335
1.079501086
1.177846869
1.196153663
1.193844412
1.197533419
1.208187273
1.22123907
1.233073921
1.235989223
1.260366114
1.146939165
1.017098778
0.961287407
0.9589011378
0.9617818307
0.9564935197
0.948052812
0.9405535629
0.9309813171
0.9212549272
0.9158464733
0.9117651045
0.909116373
0.9073702021
0.9054763208
0.9039655553
0.9041297829
0.904083862
0.9039141747
0.9043519766
0.9046305519
0.9045462577
0.9043742711
0.9054158287
0.9132375687
0.9725353036
1.086803506
1.179153545
1.195347431
1.19362235
1.198081293
1.209131834
1.222203166
1.233363416
1.23608458
1.260441786
1.152875924
1.021991024
0.9626131271
0.9570509345
0.9605198208
0.955858836
0.9476314073
0.9406801198
0.9306879378
0.9213219642
0.9154906629
0.9112128406
0.9088842137
0.9071538111
0.9052854901
0.90393092
0.9039893682
0.9038261722
0.9036036028
0.9039483396
0.9041870282
0.9040337419
0.9037904143
0.9049759221
0.9146604304
0.9803023341
1.094936227
1.179706893
1.193628705
1.192710482
1.199007974
1.210415473
1.223314112
1.233702553
1.236140471
1.262551333
1.157931598
1.027700041
0.9648483652
0.9554534069
0.9591873888
0.9550384611
0.9473075376
0.9405506313
0.929597732
0.9212545644
0.915169093
0.9109942313
0.9087591161
0.9069738107
0.9050901746
0.9038009903
0.9037565032
0.9034455769
0.9031903232
0.9034491331
0.9035429126
0.9033884471
0.9031381673
0.9048281026
0.9165610148
0.9888358034
1.102488086
1.180304847
1.193106774
1.192487397
1.200062048
1.211754931
1.22430699
1.233983153
1.236136774
1.270678183
1.162402605
1.033694697
0.9667747797
0.954045855
0.9578223648
0.9542373842
0.9473667884
0.9407251709
0.9293698932
0.9213698357
0.9152306729
0.9109525812
0.9085783618
0.9067467368
0.9048117143
0.9035722447
0.9034164155
0.9031246146
0.90288057
0.9030891499
0.903055061
0.9030558203
0.9027903133
0.9043135879
0.9189861519
0.9977513868
1.109615244
1.180952291
1.192707094
1.192734907
1.201167369
1.213076629
1.225220552
1.234215133
1.236081277
1.279260946
1.162920374
1.038432741
0.9682418077
0.952682768
0.9563385577
0.9534432613
0.9473687099
0.9409340705
0.9296136249
0.9216052989
0.9153230776
0.9107816994
0.9082469539
0.9064270646
0.9044809677
0.9033817398
0.9031602937
0.9029149099
0.9026387302
0.9028143278
0.9027381434
0.9027727652
0.9025178605
0.9041075569
0.9219712988
1.006859881
1.116280356
1.181646465
1.192952504
1.193140738
1.202475974
1.21442797
1.226123915
1.234385998
1.235993752
1.278405546
1.1627807
1.041526129
0.9694438468
0.9514075686
0.954860161
0.9525362463
0.9471862662
0.9409888189
0.929952142
0.9217995089
0.9153405104
0.9105392251
0.9080501308
0.906131894
0.9042545417
0.9031901845
0.9028801523
0.9025898739
0.9022184757
0.9023530287
0.9022566829
0.9022053759
0.9019790646
0.903935882
0.9255611639
1.016076987
1.122639733
1.182305344
1.192979357
1.193842547
1.203996893
1.215891422
1.226975798
1.234505138
1.235794625
1.274438397
1.162729804
1.043903112
0.9706265335
0.9501301641
0.953303225
0.9513708292
0.9461845165
0.9401746677
0.9299800137
0.9218210556
0.915291012
0.9105331959
0.9080012109
0.9059005352
0.9039698531
0.9028173603
0.9023684718
0.9019238982
0.9014406476
0.9015139843
0.9013920636
0.9013167096
0.9011377583
0.9039403462
0.9297881636
1.02530113
1.128674968
1.182952829
1.193122901
1.194829725
1.205445164
1.217083518
1.227598302
1.234449838
1.235681001
1.266792666
1.162728035
1.046250708
0.9718435546
0.9488260272
0.9515794829
0.950311868
0.9451697955
0.9388282471
0.9299468528
0.9217572945
0.9153516201
0.9105766838
0.9079510216
0.9056095166
0.9035351765
0.9023279582
0.9017835977
0.901289851
0.9008981426
0.9009672285
0.9008086658
0.9008891355
0.9007287929
0.9040331965
0.934680577
1.034418479
1.134229883
1.183703664
1.193731261
1.196001937
1.206720391
1.217729095
1.22772357
1.234465866
1.235404676
1.256855685
1.161453673
1.048836737
0.9730457978
0.9478769858
0.9502977642
0.9496411287
0.9450903958
0.9387406804
0.9301066739
0.9218559797
0.9155565057
0.9106265998
0.9078717865
0.9053834815
0.903314376
0.9021063268
0.901507131
0.9010077512
0.9006607434
0.9007455967
0.9005808747
0.900710772
0.9005710968
0.9042248586
0.9402456865
1.043317658
1.13934432
1.184544804
1.194572455
1.197202677
1.207610161
1.217991217
1.227689348
1.234190131
1.245721958
1.156508575
1.051439302
0.9741437029
0.9471175031
0.9493568659
0.9490940101
0.9450966386
0.93887299
0.9304660743
0.9221799283
0.9158200749
0.910673771
0.9077523513
0.9052452363
0.9031853457
0.9019571724
0.9012784829
0.9006853666
0.9003490929
0.9004347853
0.9002659331
0.9003939073
0.9002914007
0.9045913497
0.9465171667
1.051979433
1.144117963
1.185526101
1.195669675
1.198361587
1.208288816
1.218168026
1.227536768
1.233943743
1.231819899
1.153834294
1.054099135
0.974971413
0.946419279
0.9483044441
0.9483449919
0.9447856719
0.9388656775
0.930844084
0.9224857483
0.9160306275
0.9106913443
0.9075915594
0.9049926379
0.9028623069
0.901575997
0.9007745767
0.9000115749
0.8996611336
0.8997376132
0.8995689165
0.8996773772
0.8996572631
0.9052306498
0.9534469311
1.060324517
1.148584037
1.186594206
1.196818563
1.199398261
1.20855038
1.21808423
1.227285383
1.23348572
1.216739128
1.154014
1.056467733
0.9754797992
0.9460747769
0.9471817512
0.9473429549
0.9439433317
0.9386227015
0.9309304265
0.922638096
0.9160682041
0.9105167849
0.9072026156
0.9043725395
0.9021040578
0.9007485848
0.8998746119
0.899129808
0.8987860489
0.8989258403
0.8987833614
0.8989713358
0.8990627843
0.9062013586
0.9609683745
1.068417697
1.152829587
1.187644321
1.198010342
1.200487179
1.20880512
1.217709127
1.227003567
1.233177271
1.208507668
1.153906299
1.058258002
0.9758997929
0.9462071236
0.9463371266
0.9463228691
0.9430955336
0.9381069133
0.930887235
0.9225852905
0.9159226616
0.9100544013
0.9065702054
0.9037295371
0.9015954732
0.9002221014
0.8993889091
0.8987517136
0.8984241157
0.8986013859
0.8984907515
0.8987223017
0.8988214365
0.9075170155
0.9689776904
1.07614113
1.156947007
1.188832078
1.198986406
1.201183085
1.208928773
1.217445496
1.226728488
1.232950764
1.206447249
1.154687431
1.059934355
0.9765255036
0.9466003047
0.945570914
0.9455458158
0.942609575
0.9376887865
0.9305658398
0.9224142006
0.9159014897
0.9099968073
0.9063982599
0.9035867279
0.9014432216
0.9000396962
0.8991851848
0.8985513047
0.8982806511
0.8984690483
0.8983619796
0.8986165536
0.8987374212
0.9091819474
0.977427072
1.083622243
1.16067464
1.190031587
1.19988995
1.201697891
1.209096902
1.217244578
1.226689407
1.232728799
1.205681875
1.156685282
1.061819514
0.9773319819
0.946794025
0.9450063727
0.9450839758
0.9424825316
0.9376725407
0.9304376335
0.9224271726
0.9159645287
0.9100630317
0.9063788227
0.903448987
0.9012031557
0.8997506834
0.8988404342
0.8981728868
0.8979696233
0.8981609819
0.8980553079
0.8982616445
0.8982435138
0.9112518821
0.9862278672
1.09068351
1.164132732
1.191164328
1.200707986
1.202426513
1.208892618
1.217058426
1.226609033
1.232675281
1.2047773
1.159151224
1.06395407
0.9781623635
0.9469174986
0.9443156173
0.9447802381
0.9424304158
0.9377394852
0.9304034041
0.922409831
0.9159443168
0.9100341498
0.906193157
0.9029881377
0.9005210602
0.8990266512
0.8980668091
0.8973691824
0.897247087
0.8974509637
0.8973633699
0.8975420529
0.8977912433
0.9138507877
0.9954016124
1.097415156
1.167351332
1.19237087
1.201493614
1.202477552
1.20872773
1.216900147
1.226677083
1.23223368
1.202351032
1.16127181
1.065826174
0.9788310151
0.9471639387
0.9440012799
0.9444855878
0.9423088266
0.937732798
0.9302758545
0.9222844485
0.9157097625
0.909607707
0.9055486635
0.9021943815
0.8997798303
0.8982759091
0.8973054258
0.8965697803
0.8964380085
0.8966339277
0.8966550449
0.8967436308
0.897479759
0.9171207163
1.004770509
1.103973416
1.170155778
1.19360474
1.202190235
1.202374215
1.208643639
1.216750697
1.227112591
1.19828667
1.161886475
1.066113591
0.9795896182
0.9478046647
0.9441114593
0.9440181406
0.9419355099
0.9374607738
0.9299039555
0.9219378657
0.9152653432
0.9090481256
0.9050012167
0.9018983361
0.8995491137
0.8980257924
0.8970328124
0.8962663905
0.8961029245
0.8962861209
0.8963867178
0.8962388263
0.8973375647
0.9210731781
1.014327932
1.110314236
1.172916536
1.194757514
1.203235724
1.202369045
1.208609431
1.216690419
1.22704232
1.197408024
1.161724421
1.065827814
0.9806588674
0.9486972504
0.9442491204
0.9434063966
0.9412231602
0.9367256879
0.9293494105
0.9213808179
0.9148277697
0.9087777929
0.9047209438
0.9016949063
0.8994060958
0.8978795886
0.896888537
0.8961490246
0.895986498
0.8961496565
0.8962193219
0.8960730017
0.8973703511
0.9257747043
1.02388733
1.116332248
1.175428356
1.195858578
1.20310758
1.202246299
1.208542474
1.217509968
1.224868717
1.195086977
1.160280222
1.064988925
0.9821959022
0.9496990282
0.9442283845
0.9428753662
0.9405127577
0.9361527149
0.9289236558
0.9206745846
0.9142205294
0.9083296229
0.9042451323
0.9012517255
0.8989885633
0.897477934
0.8965114453
0.8958347356
0.8957019084
0.8958667034
0.8958713749
0.8956424909
0.8974648546
0.9312093303
1.033426992
1.122290071
1.177732377
1.196339577
1.203099915
1.202191652
1.208426391
1.217511942
1.227219873
1.191262993
1.15747867
1.064399173
0.9838812953
0.9505244058
0.9440329985
0.9421721035
0.939757518
0.9359984323
0.9287614853
0.9202467779
0.9135826845
0.9076181909
0.9034448731
0.900440764
0.8981607553
0.8966332353
0.8956798215
0.8950856006
0.895010377
0.8952067755
0.8951174929
0.8947587662
0.8977595635
0.9374088424
1.042929818
1.127809121
1.179731659
1.196888728
1.203128825
1.202082476
1.208728866
1.21585023
1.296894848
1.186698126
1.154899574
1.064435332
0.9856043039
0.9509430619
0.9433209562
0.9408149447
0.9386956076
0.9359410176
0.9287375142
0.9201360325
0.9133243613
0.9072528497
0.9030314623
0.8999665011
0.8976237404
0.8959777445
0.8948985578
0.8941713783
0.8941015656
0.8942733175
0.8943013992
0.8940804037
0.8982973117
0.9443215258
)
;

boundaryField
{
    inlet
    {
        type            fixedValue;
        value           nonuniform 0();
    }
    outlet
    {
        type            inletOutlet;
        inletValue      nonuniform 0();
        value           nonuniform 0();
    }
    bottom
    {
        type            slip;
    }
    top
    {
        type            slip;
    }
    obstacle
    {
        type            zeroGradient;
    }
    defaultFaces
    {
        type            empty;
    }
    procBoundary9to3
    {
        type            processor;
        value           nonuniform List<scalar> 
38
(
1.689657983
1.682444568
1.671072246
1.659799419
1.653957695
1.643967803
1.635225734
1.626146317
1.617061643
1.609846088
1.602315305
1.594088669
1.585392246
1.576319011
1.566996012
1.557710453
1.548691246
1.92080405
1.920254566
1.91603176
1.902926581
1.877309604
1.845361053
1.793864003
1.750822183
1.780277882
1.89063074
1.915383664
1.883973306
1.851477183
1.817230035
1.778014246
1.757767518
1.741968718
1.717456079
1.703003687
1.688628581
1.688628581
)
;
    }
    procBoundary9to4
    {
        type            processor;
        value           nonuniform List<scalar> 9(1.533008109 1.526003309 1.518709836 1.511087941 1.503522706 1.495883085 1.488131142 1.480408291 1.47270332);
    }
    procBoundary9to8
    {
        type            processor;
        value           nonuniform List<scalar> 
14
(
1.920803154
1.920939669
1.920767198
1.920636371
1.920637899
1.920671016
1.920627883
1.920605931
1.920697054
1.920850394
1.920987086
1.921142889
1.921248095
1.921246406
)
;
    }
    procBoundary9to10
    {
        type            processor;
        value           nonuniform List<scalar> 
55
(
1.465006284
1.457302155
1.449377128
1.441129631
1.432578969
1.423821742
1.415213756
1.406660034
1.397835243
1.388945599
1.379622011
1.370357495
1.360475198
1.351587171
1.342142135
1.332835233
1.323017544
1.314081682
1.305606142
1.297275179
1.289157127
1.280567814
1.272796676
1.264493892
1.255841811
1.247181606
1.239968627
1.236143817
1.234207036
1.232917517
1.234584786
1.234584786
1.234652142
1.23476204
1.234698846
1.234683354
1.234617902
1.234541026
1.234555139
1.23446133
1.235096797
1.235096797