/*--------------------------------*- C++ -*----------------------------------*\
  =========                 |
  \\      /  F ield         | OpenFOAM: The Open Source CFD Toolbox
   \\    /   O peration     | Website:  https://openfoam.org
    \\  /    A nd           | Version:  7
     \\/     M anipulation  |
\*---------------------------------------------------------------------------*/
FoamFile
{
    version     2.0;
    format      ascii;
    class       volVectorField;
    location    "0.9";
    object      U;
}
// * * * * * * * * * * * * * * * * * * * * * * * * * * * * * * * * * * * * * //

dimensions      [0 1 -1 0 0 0 0];

internalField   nonuniform List<vector> 
2222
(
(3 -1.491008608e-14 0)
(3 -1.818105546e-14 0)
(3 -2.356021102e-14 0)
(3 -2.663114527e-14 0)
(3 -2.814419607e-14 0)
(3 -2.8580191e-14 0)
(3 -2.891985541e-14 0)
(3 -2.961662383e-14 0)
(3 -2.936683614e-14 0)
(3 -2.695139019e-14 0)
(3 -2.485326518e-14 0)
(3 -2.167258582e-14 0)
(3 -2.105283347e-14 0)
(3 -2.069956854e-14 0)
(3 -2.008326962e-14 0)
(3 -1.975424477e-14 0)
(3 -1.961731897e-14 0)
(3 -1.840675495e-14 0)
(3 -1.748669714e-14 0)
(3 -1.289058632e-14 0)
(3 -1.104094365e-14 0)
(3 -9.151368492e-15 0)
(3 -8.535124767e-15 0)
(3 -8.866175714e-15 0)
(3 -6.176394673e-15 0)
(3 -5.781232129e-15 0)
(3 -7.394200235e-15 0)
(3 -9.375111692e-15 0)
(3 -8.12912805e-15 0)
(3 -6.512990559e-15 0)
(3 -5.410019561e-15 0)
(3 -5.261704155e-15 0)
(3 -5.816478967e-15 0)
(3 -6.666123065e-15 0)
(3 -5.518719757e-15 0)
(3 -5.281497415e-15 0)
(3 -3.711434201e-15 0)
(3 -2.04073332e-15 0)
(3 1.446978974e-15 0)
(3 1.902552654e-15 0)
(3 2.28620222e-15 0)
(3 2.504443318e-15 0)
(3 4.385037889e-15 0)
(3 7.034087959e-15 0)
(3 1.305015372e-14 0)
(3 1.687473067e-14 0)
(3 1.849574057e-14 0)
(3 1.994693022e-14 0)
(3 1.977716769e-14 0)
(3 2.035418935e-14 0)
(3 2.280448485e-14 0)
(3 2.248459072e-14 0)
(3 2.28619939e-14 0)
(3 2.586997051e-14 0)
(3 2.648185548e-14 0)
(3 -1.067544223e-14 0)
(3 -1.558740187e-14 0)
(3 -1.853944324e-14 0)
(3 -2.182440887e-14 0)
(3 -2.418201082e-14 0)
(3 -2.539958249e-14 0)
(3 -2.446369885e-14 0)
(3 -2.395071787e-14 0)
(3 -2.407869944e-14 0)
(3 -2.559325146e-14 0)
(3 -2.500077371e-14 0)
(3 -2.343405932e-14 0)
(3 -2.227491823e-14 0)
(3 -2.117260052e-14 0)
(3 -2.079227699e-14 0)
(3 -2.066556429e-14 0)
(3 -2.025851334e-14 0)
(3 -1.993275734e-14 0)
(3 -1.850871949e-14 0)
(3 -1.52618575e-14 0)
(3 -1.207107778e-14 0)
(3 -1.152686938e-14 0)
(3 -1.226707404e-14 0)
(3 -1.180347356e-14 0)
(3 -1.096529482e-14 0)
(3 -9.666625771e-15 0)
(3 -9.767777077e-15 0)
(3 -9.709444003e-15 0)
(3 -9.75042405e-15 0)
(3 -8.403410461e-15 0)
(3 -6.783246877e-15 0)
(3 -6.218077426e-15 0)
(3 -3.545140996e-15 0)
(3 -5.823712627e-16 0)
(3 1.198253915e-15 0)
(3 3.841250055e-15 0)
(3 5.141323786e-15 0)
(3 6.690784884e-15 0)
(3 5.810531853e-15 0)
(3 6.225258123e-15 0)
(3 6.011288182e-15 0)
(3 5.473618137e-15 0)
(3 6.99953342e-15 0)
(3 1.342333409e-14 0)
(3 1.568951838e-14 0)
(3 1.73283521e-14 0)
(3 1.708946195e-14 0)
(3 1.703091976e-14 0)
(3 1.807861524e-14 0)
(3 2.038203902e-14 0)
(3 2.244705394e-14 0)
(3 2.311387729e-14 0)
(3 2.315497284e-14 0)
(3 2.195928475e-14 0)
(3 2.13338421e-14 0)
(3 2.081608807e-14 0)
(3 2.060421314e-14 0)
(3 2.057230055e-14 0)
(3 2.242430505e-14 0)
(3 2.512981869e-14 0)
(3 2.404626913e-14 0)
(3 2.28750393e-14 0)
(3 2.028561074e-14 0)
(3 1.758189091e-14 0)
(3 1.541512538e-14 0)
(3 1.416213196e-14 0)
(3 1.280300511e-14 0)
(3 -9.747973177e-15 0)
(3 -1.085777785e-14 0)
(3 -1.077614766e-14 0)
(3 -1.201646281e-14 0)
(3 -1.624967991e-14 0)
(3 -1.865571106e-14 0)
(3 -1.956909999e-14 0)
(3 -1.71783598e-14 0)
(3 -1.53960297e-14 0)
(3 -1.57583925e-14 0)
(3 -1.632323919e-14 0)
(3 -1.537291935e-14 0)
(3 -1.44806516e-14 0)
(3 -1.333214343e-14 0)
(3 -1.341534283e-14 0)
(3 -1.427156445e-14 0)
(3 -1.503763992e-14 0)
(3 -1.461303259e-14 0)
(3 -1.355825324e-14 0)
(3 -1.308909907e-14 0)
(3 -1.225386146e-14 0)
(3 -1.116967922e-14 0)
(3 -9.483434612e-15 0)
(3 -9.439719837e-15 0)
(3 -1.000627389e-14 0)
(3 -1.051652883e-14 0)
(3 -1.019638533e-14 0)
(3 -1.10422355e-14 0)
(3 -1.254109825e-14 0)
(3 -1.373983023e-14 0)
(3 -1.409452898e-14 0)
(3 -1.18241475e-14 0)
(3 -9.678578181e-15 0)
(3 -5.499155341e-15 0)
(3 -2.796084843e-15 0)
(3 -1.767646271e-15 0)
(3 -1.88503355e-15 0)
(3 -2.227003035e-15 0)
(3 -1.67186477e-15 0)
(3 -5.843549611e-16 0)
(3 1.938827926e-15 0)
(3 4.11184492e-15 0)
(3 4.464224189e-15 0)
(3 5.950107962e-15 0)
(3 6.615028355e-15 0)
(3 7.788916893e-15 0)
(3 8.953956041e-15 0)
(3 1.027148075e-14 0)
(3 1.170894597e-14 0)
(3 1.486551822e-14 0)
(3 1.60300885e-14 0)
(3 1.961465404e-14 0)
(3 2.064856616e-14 0)
(3 1.832323693e-14 0)
(3 1.601283938e-14 0)
(3 1.670127913e-14 0)
(3 1.785166372e-14 0)
(3 1.865599548e-14 0)
(3 1.881289028e-14 0)
(3 1.877765988e-14 0)
(3 1.820171454e-14 0)
(3 1.72773326e-14 0)
(3 1.682125157e-14 0)
(3 1.525398732e-14 0)
(3 1.30374585e-14 0)
(3 1.120193069e-14 0)
(3 9.463964508e-15 0)
(3 -4.686339283e-15 0)
(3 -6.45146435e-15 0)
(3 -7.729012618e-15 0)
(3 -9.221831292e-15 0)
(3 -1.090913909e-14 0)
(3 -1.001033822e-14 0)
(3 -1.192679411e-14 0)
(3 -1.162484233e-14 0)
(3 -1.133781994e-14 0)
(3 -1.052389428e-14 0)
(3 -9.245667095e-15 0)
(3 -9.04044753e-15 0)
(3 -7.983391184e-15 0)
(3 -5.38812808e-15 0)
(3 -3.641054988e-15 0)
(3 -3.487217017e-15 0)
(3 -2.797514371e-15 0)
(3 -2.304356676e-15 0)
(3 -4.302512986e-15 0)
(3 -5.690952119e-15 0)
(3 -5.617663271e-15 0)
(3 -4.931895222e-15 0)
(3 -3.77992384e-15 0)
(3 -3.339770563e-15 0)
(3 -2.937374396e-15 0)
(3 -2.644095105e-15 0)
(3 -1.99654695e-15 0)
(3 -3.439083101e-15 0)
(3 -5.738442616e-15 0)
(3 -6.691959567e-15 0)
(3 -6.735706771e-15 0)
(3 -5.856734621e-15 0)
(3 -5.194933618e-15 0)
(3 -4.364536589e-15 0)
(3 -3.385517148e-15 0)
(3 -3.110343467e-15 0)
(3 -3.278685608e-15 0)
(3 -3.225152904e-15 0)
(3 -1.379906614e-15 0)
(3 5.352688393e-16 0)
(3 1.389800672e-15 0)
(3 1.380287113e-15 0)
(3 1.35778792e-15 0)
(3 1.441296621e-15 0)
(3 -4.373576211e-17 0)
(3 -1.48308823e-15 0)
(3 -1.96175148e-15 0)
(3 -1.123169531e-15 0)
(3 4.036479769e-15 0)
(3 6.440233584e-15 0)
(3 9.298866256e-15 0)
(3 1.133745152e-14 0)
(3 1.416756797e-14 0)
(3 1.496399183e-14 0)
(3 1.380811374e-14 0)
(3 1.217077748e-14 0)
(3 1.14620592e-14 0)
(3 1.164941459e-14 0)
(3 1.196150609e-14 0)
(3 8.497527171e-15 0)
(3 6.253547819e-15 0)
(3 5.327626812e-15 0)
(3 4.636936672e-15 0)
(3 4.266465153e-15 0)
(3 1.335009576e-15 0)
(3 -4.806472913e-16 0)
(3 -5.500718664e-16 0)
(3 -1.35235959e-15 0)
(3 -9.269736288e-16 0)
(3 -1.07278787e-15 0)
(3 -1.20580663e-15 0)
(3 -2.025419619e-15 0)
(3 -1.65253118e-15 0)
(3 -1.970536888e-15 0)
(3 -2.237807099e-15 0)
(3 -1.647962208e-16 0)
(3 1.126528685e-15 0)
(3 5.096542865e-16 0)
(3 -1.339200413e-15 0)
(3 -2.246957074e-15 0)
(3 8.20253365e-16 0)
(3 2.176842746e-15 0)
(3 4.942315936e-15 0)
(3 6.607771859e-15 0)
(3 6.505395815e-15 0)
(3 5.073485681e-15 0)
(3 4.561748045e-15 0)
(3 3.465549065e-15 0)
(3 3.028694281e-15 0)
(3 2.223597981e-15 0)
(3 3.172241746e-15 0)
(3 3.32166954e-15 0)
(3 3.330287576e-15 0)
(3 2.960142094e-15 0)
(3 1.779798539e-15 0)
(3 -5.26035714e-17 0)
(3 -1.232678519e-15 0)
(3 -2.975033053e-15 0)
(3 -3.441617149e-15 0)
(3 -4.249602992e-15 0)
(3 -6.103769712e-15 0)
(3 -6.831207844e-15 0)
(3 -5.91146428e-15 0)
(3 -3.486895196e-15 0)
(3 -1.888326666e-15 0)
(3 3.258824887e-16 0)
(3 1.188922642e-15 0)
(3 -7.558619223e-17 0)
(3 -2.891484227e-15 0)
(3 -5.101414654e-15 0)
(3 -7.175642434e-15 0)
(3 -7.377596282e-15 0)
(3 -7.194125316e-15 0)
(3 -8.421372844e-15 0)
(3 -8.039567648e-15 0)
(3 -7.004658933e-15 0)
(3 -6.705003603e-15 0)
(3 -5.798609713e-15 0)
(3 -6.313982954e-15 0)
(3 -3.668582306e-15 0)
(3 -2.580287675e-16 0)
(3 1.152499429e-15 0)
(3 7.556928427e-16 0)
(3 1.772154203e-16 0)
(3 -2.041889384e-17 0)
(3 -7.509142439e-16 0)
(3 -1.132705834e-15 0)
(3 -1.408002017e-16 0)
(3 8.736097622e-16 0)
(3 9.879436319e-16 0)
(3 4.668963376e-16 0)
(3 -2.436803266e-16 0)
(3 -8.8012967e-16 0)
(3 -3.727938962e-15 0)
(3 5.631080666e-16 0)
(3 3.140290407e-15 0)
(3 5.536113964e-15 0)
(3 6.712885509e-15 0)
(3 5.575596708e-15 0)
(3 4.82051034e-15 0)
(3 5.827219623e-15 0)
(3 6.042008835e-15 0)
(3 8.618961012e-15 0)
(3 9.64512022e-15 0)
(3 9.459777536e-15 0)
(3 9.346189535e-15 0)
(3 9.413236185e-15 0)
(3 9.568743136e-15 0)
(3 1.007508861e-14 0)
(3 1.004237672e-14 0)
(3 1.005639855e-14 0)
(3 9.569842107e-15 0)
(3 1.027037282e-14 0)
(3 1.190591284e-14 0)
(3 9.890732367e-15 0)
(3 9.134980738e-15 0)
(3 7.987403018e-15 0)
(3 7.839813777e-15 0)
(3 7.213469824e-15 0)
(3 6.607958246e-15 0)
(3 5.901507643e-15 0)
(3 5.647320508e-15 0)
(3 5.116332592e-15 0)
(3 4.170258796e-15 0)
(3 3.528208893e-15 0)
(3 1.098263134e-15 0)
(3 -1.46400788e-16 0)
(3 -1.262540201e-15 0)
(3 -1.105113404e-15 0)
(3 -1.805718655e-16 0)
(3 3.160305488e-15 0)
(3 5.025188168e-15 0)
(3 8.078964789e-15 0)
(3 8.70925763e-15 0)
(3 8.135820509e-15 0)
(3 4.850218848e-15 0)
(3 1.452619907e-15 0)
(3 -1.442893209e-15 0)
(3 -4.22148936e-15 0)
(3 -5.085286446e-15 0)
(3 -4.819015576e-15 0)
(3 -7.954035749e-15 0)
(3 -1.036252738e-14 0)
(3 -1.054808948e-14 0)
(3 -1.3211838e-14 0)
(3 -1.236246547e-14 0)
(3 -1.183323162e-14 0)
(3 -9.963423411e-15 0)
(3 -7.452752317e-15 0)
(3 -5.56112565e-15 0)
(3 -3.889703468e-15 0)
(3 -4.62653726e-15 0)
(3 -5.606497172e-15 0)
(3 -6.150963728e-15 0)
(3 -6.547591075e-15 0)
(3 -5.444939903e-15 0)
(3 -5.532815657e-15 0)
(3 -6.065137094e-15 0)
(3 -5.510760291e-15 0)
(3 -5.386120437e-15 0)
(3 -7.232086056e-15 0)
(3 7.855144012e-15 0)
(3 1.082985423e-14 0)
(3 1.490611795e-14 0)
(3 1.629990083e-14 0)
(3 1.755748584e-14 0)
(3 1.686062193e-14 0)
(3 1.589758824e-14 0)
(3 1.444488711e-14 0)
(3 1.298981023e-14 0)
(3 1.305920438e-14 0)
(3 1.351245267e-14 0)
(3 1.481998537e-14 0)
(3 1.593643288e-14 0)
(3 1.374245347e-14 0)
(3 1.361107385e-14 0)
(3 1.384341133e-14 0)
(3 1.282121417e-14 0)
(3 1.196499829e-14 0)
(3 1.330410859e-14 0)
(3 1.343186856e-14 0)
(3 1.334948146e-14 0)
(3 1.248760842e-14 0)
(3 1.217215871e-14 0)
(3 1.207657975e-14 0)
(3 1.143014074e-14 0)
(3 1.106819079e-14 0)
(3 1.115517061e-14 0)
(3 1.164769956e-14 0)
(3 1.2798074e-14 0)
(3 1.359604543e-14 0)
(3 1.327938733e-14 0)
(3 1.29574966e-14 0)
(3 1.268922184e-14 0)
(3 1.164565929e-14 0)
(3 1.066018016e-14 0)
(3 1.004723639e-14 0)
(3 1.226201261e-14 0)
(3 1.307135411e-14 0)
(3 1.292341589e-14 0)
(3 1.305497724e-14 0)
(3 1.361225929e-14 0)
(3 8.24726754e-15 0)
(3 -1.457091544e-15 0)
(3 -4.005409546e-15 0)
(3 -7.732140641e-15 0)
(3 -8.78665804e-15 0)
(3 -8.805912906e-15 0)
(3 -9.061899515e-15 0)
(3 -1.081998791e-14 0)
(3 -1.350135494e-14 0)
(3 -1.430932223e-14 0)
(3 -1.316988138e-14 0)
(3 -1.142513219e-14 0)
(3 -1.294879202e-14 0)
(3 -1.266832177e-14 0)
(3 -1.10431029e-14 0)
(3 -9.631116898e-15 0)
(3 -8.967394616e-15 0)
(3 -7.680904926e-15 0)
(3 -6.469392634e-15 0)
(3 -6.110828976e-15 0)
(3 -6.434773316e-15 0)
(3 -6.966383298e-15 0)
(3 -6.662347692e-15 0)
(3 -7.74049548e-15 0)
(3 -8.231646623e-15 0)
(3 -8.027360255e-15 0)
(3 -3.067062305e-16 0)
(3 2.322027052e-15 0)
(3 4.936268458e-15 0)
(3 8.500370543e-15 0)
(3 1.493049891e-14 0)
(3 2.418879094e-14 0)
(3 2.587278009e-14 0)
(3 2.511572912e-14 0)
(3 2.095835333e-14 0)
(3 1.836286233e-14 0)
(3 1.809581445e-14 0)
(3 1.789046268e-14 0)
(3 1.761929338e-14 0)
(3 1.758639459e-14 0)
(3 1.692029722e-14 0)
(3 1.699568298e-14 0)
(3 1.702345108e-14 0)
(3 1.740137165e-14 0)
(3 1.69039871e-14 0)
(3 1.579299255e-14 0)
(3 1.50012894e-14 0)
(3 1.403686964e-14 0)
(3 1.473546986e-14 0)
(3 1.398716577e-14 0)
(3 1.275931606e-14 0)
(3 1.15064725e-14 0)
(3 1.078391906e-14 0)
(3 9.168836352e-15 0)
(3 7.564050606e-15 0)
(3 7.422036817e-15 0)
(3 6.971946488e-15 0)
(3 6.919878686e-15 0)
(3 5.860280888e-15 0)
(3 5.524553718e-15 0)
(3 4.026285637e-15 0)
(3 4.368653688e-15 0)
(3 5.238805391e-15 0)
(3 5.999635324e-15 0)
(3 5.6900367e-15 0)
(3 6.649121585e-15 0)
(3 6.602924784e-15 0)
(3 7.751280087e-15 0)
(3 5.713029257e-15 0)
(3 4.690994086e-15 0)
(3 2.143453871e-15 0)
(3 -1.239345719e-15 0)
(3 -2.377767503e-15 0)
(3 -4.362078564e-15 0)
(3 -1.192590668e-14 0)
(3 -1.395911671e-14 0)
(3 -1.497009723e-14 0)
(3 -1.635135926e-14 0)
(3 -1.697850295e-14 0)
(3 -1.721526126e-14 0)
(3 -1.711515385e-14 0)
(3 -1.544519293e-14 0)
(3 -1.369295704e-14 0)
(3 -1.290206823e-14 0)
(3 -1.204400471e-14 0)
(3 -1.067755279e-14 0)
(3 -9.806763643e-15 0)
(3 -9.608635698e-15 0)
(3 -7.85950518e-15 0)
(3 -7.371423958e-15 0)
(3 -7.737471036e-15 0)
(3 -5.873586666e-15 0)
(3 -4.08604658e-15 0)
(3 3.31410114e-15 0)
(3 5.520328738e-15 0)
(3 8.703026115e-15 0)
(3 1.116073099e-14 0)
(3 1.563010912e-14 0)
(3 1.883011213e-14 0)
(3 2.226729856e-14 0)
(3 2.208409458e-14 0)
(3 2.056690959e-14 0)
(3 2.021126238e-14 0)
(3 1.971045843e-14 0)
(3 1.88661408e-14 0)
(3 1.907104991e-14 0)
(3 1.792596269e-14 0)
(3 1.720149487e-14 0)
(3 1.660259621e-14 0)
(3 1.692274043e-14 0)
(3 1.737166471e-14 0)
(3 1.737512149e-14 0)
(3 1.632453653e-14 0)
(3 1.352326954e-14 0)
(3 1.105573695e-14 0)
(3 5.119032454e-15 0)
(3 3.152569376e-15 0)
(3 2.525953511e-15 0)
(3 8.084402708e-16 0)
(3 6.512962605e-16 0)
(3 2.733309374e-16 0)
(3 -1.317457253e-16 0)
(3 -9.93137869e-17 0)
(3 -1.311413611e-15 0)
(3 -2.623536208e-16 0)
(3 -5.679561765e-16 0)
(3 -6.606206125e-16 0)
(3 1.014250544e-15 0)
(3 8.224787634e-16 0)
(3 6.778000777e-16 0)
(3 1.186246732e-16 0)
(3 1.226187998e-15 0)
(3 4.288159353e-16 0)
(3 -1.634049478e-15 0)
(3 -1.956924661e-15 0)
(3 -1.125787554e-15 0)
(3 -5.242850985e-16 0)
(3 -1.415038302e-15 0)
(3 -3.219890651e-15 0)
(3 -5.400578315e-15 0)
(3 -9.697995469e-15 0)
(3 -1.294881118e-14 0)
(3 -1.619095546e-14 0)
(3 -1.620799672e-14 0)
(3 -1.737660446e-14 0)
(3 -1.973206109e-14 0)
(3 -2.013570308e-14 0)
(3 -1.966288723e-14 0)
(3 -1.834230377e-14 0)
(3 -1.673431714e-14 0)
(3 -1.6225495e-14 0)
(3 -1.599931236e-14 0)
(3 -1.54060942e-14 0)
(3 -1.403658541e-14 0)
(3 -1.189752049e-14 0)
(3 -1.051966246e-14 0)
(3 -8.246509962e-15 0)
(3 -6.252459436e-15 0)
(3 -1.372924913e-15 0)
(3 1.180672858e-16 0)
(3 1.071675405e-14 0)
(3 1.419383868e-14 0)
(3 1.493456678e-14 0)
(3 1.543874286e-14 0)
(3 1.578163517e-14 0)
(3 1.571341783e-14 0)
(3 1.619954657e-14 0)
(3 1.618011472e-14 0)
(3 1.737274767e-14 0)
(3 1.723141676e-14 0)
(3 1.703538357e-14 0)
(3 1.712468375e-14 0)
(3 1.722712919e-14 0)
(3 1.73513317e-14 0)
(3 1.656358507e-14 0)
(3 1.453913199e-14 0)
(3 1.314573008e-14 0)
(3 1.239334239e-14 0)
(3 8.303822856e-15 0)
(3 8.17047077e-15 0)
(3 6.271982947e-15 0)
(3 3.404176822e-15 0)
(3 1.202754045e-15 0)
(3 -1.549918197e-15 0)
(3 -3.903880385e-15 0)
(3 -4.895681284e-15 0)
(3 -4.913695359e-15 0)
(3 -3.171077492e-15 0)
(3 -1.788108767e-15 0)
(3 -2.141418621e-15 0)
(3 -2.876661849e-15 0)
(3 -4.195467323e-15 0)
(3 -5.386004826e-15 0)
(3 -6.779090892e-15 0)
(3 -7.270813651e-15 0)
(3 -6.181709329e-15 0)
(3 -6.406132328e-15 0)
(3 -7.154617943e-15 0)
(3 -6.518393305e-15 0)
(3 -7.086657584e-15 0)
(3 -7.389301336e-15 0)
(3 -7.539339497e-15 0)
(3 -6.5094481e-15 0)
(3 -6.689034596e-15 0)
(3 -8.330791083e-15 0)
(3 -9.593646215e-15 0)
(3 -1.276630979e-14 0)
(3 -1.554859621e-14 0)
(3 -1.767128139e-14 0)
(3 -1.989087988e-14 0)
(3 -2.159131825e-14 0)
(3 -2.166329373e-14 0)
(3 -2.093398142e-14 0)
(3 -1.926972692e-14 0)
(3 -1.786821667e-14 0)
(3 -1.589682117e-14 0)
(3 -1.477828139e-14 0)
(3 -1.410643319e-14 0)
(3 -1.339560791e-14 0)
(3 -1.231423337e-14 0)
(3 -1.127616572e-14 0)
(3 -1.019165582e-14 0)
(3 -8.56700881e-15 0)
(3 -6.450695646e-15 0)
(3 -3.514555785e-15 0)
(3 -3.001576329e-16 0)
(3 5.359610847e-16 0)
(3 8.464652509e-15 0)
(3 1.050462316e-14 0)
(3 1.058634841e-14 0)
(3 1.025686784e-14 0)
(3 9.109624005e-15 0)
(3 7.85347824e-15 0)
(3 8.943694516e-15 0)
(3 1.311459039e-14 0)
(3 1.713492222e-14 0)
(3 1.805460103e-14 0)
(3 1.841310297e-14 0)
(3 1.999036812e-14 0)
(3 1.851495482e-14 0)
(3 1.913160805e-14 0)
(3 1.80593818e-14 0)
(3 1.442370729e-14 0)
(3 7.248342296e-15 0)
(3 3.919880234e-15 0)
(3 -1.169681947e-15 0)
(3 -2.73830732e-15 0)
(3 -4.320590742e-15 0)
(3 -4.979862068e-15 0)
(3 -5.724682695e-15 0)
(3 -6.167546832e-15 0)
(3 -8.49841905e-15 0)
(3 -1.015577703e-14 0)
(3 -1.01608579e-14 0)
(3 -9.191564892e-15 0)
(3 -9.214519512e-15 0)
(3 -9.448461485e-15 0)
(3 -1.014021113e-14 0)
(3 -1.257343397e-14 0)
(3 -1.349674598e-14 0)
(3 -1.527765165e-14 0)
(3 -1.775043388e-14 0)
(3 -1.795962764e-14 0)
(3 -1.83831992e-14 0)
(3 -1.812256214e-14 0)
(3 -1.693958259e-14 0)
(3 -1.532477257e-14 0)
(3 -1.283330707e-14 0)
(3 -1.219052256e-14 0)
(3 -1.10598737e-14 0)
(3 -1.153086767e-14 0)
(3 -1.26407817e-14 0)
(3 -1.325455694e-14 0)
(3 -1.597977479e-14 0)
(3 -1.744252377e-14 0)
(3 -1.864963968e-14 0)
(3 -1.988099479e-14 0)
(3 -2.220932705e-14 0)
(3 -2.183709905e-14 0)
(3 -1.967877011e-14 0)
(3 -1.589855705e-14 0)
(3 -1.474100657e-14 0)
(3 -1.339181033e-14 0)
(3 -1.311551338e-14 0)
(3 -1.282864932e-14 0)
(3 -1.224725479e-14 0)
(3 -1.190311532e-14 0)
(3 -1.088997845e-14 0)
(3 -9.789867577e-15 0)
(3 -9.712326058e-15 0)
(3 -8.133345122e-15 0)
(3 -4.051790985e-15 0)
(3 -1.461631796e-15 0)
(3 2.886611612e-15 0)
(3 1.733182733e-14 0)
(3 1.895228023e-14 0)
(3 2.045269971e-14 0)
(3 1.768370789e-14 0)
(3 1.414824288e-14 0)
(3 1.201483045e-14 0)
(3 1.335203343e-14 0)
(3 1.431152817e-14 0)
(3 1.747203729e-14 0)
(3 1.89883649e-14 0)
(3 1.912139941e-14 0)
(3 1.916553758e-14 0)
(3 1.873967843e-14 0)
(3 1.688536877e-14 0)
(3 1.697593068e-14 0)
(3 1.374471471e-14 0)
(3 8.57079777e-15 0)
(3 5.995160938e-15 0)
(3 7.583489281e-16 0)
(3 -4.313324367e-15 0)
(3 -6.912876608e-15 0)
(3 -9.224317559e-15 0)
(3 -9.343328347e-15 0)
(3 -9.491518581e-15 0)
(3 -9.962415845e-15 0)
(3 -1.112231439e-14 0)
(3 -1.231501653e-14 0)
(3 -1.26002563e-14 0)
(3 -1.259156445e-14 0)
(3 -1.266535014e-14 0)
(3 -1.292688038e-14 0)
(3 -1.290392587e-14 0)
(3 -1.31000848e-14 0)
(3 -1.460278522e-14 0)
(3 -1.685818552e-14 0)
(3 -1.748632472e-14 0)
(3 -1.63337283e-14 0)
(3 -1.481408668e-14 0)
(3 -1.546059444e-14 0)
(3 -1.563362245e-14 0)
(3 -1.683321006e-14 0)
(3 -1.724835419e-14 0)
(3 -1.792053699e-14 0)
(3 -1.60905568e-14 0)
(3 -1.451698158e-14 0)
(3 -1.375958191e-14 0)
(3 -1.15682765e-14 0)
(3 -1.336844858e-14 0)
(3 -1.61181923e-14 0)
(3 -1.907971901e-14 0)
(3 -1.904421388e-14 0)
(3 -2.00541643e-14 0)
(3 -2.001432569e-14 0)
(3 -1.962236414e-14 0)
(3 -1.828006759e-14 0)
(3 -1.769105329e-14 0)
(3 -1.627067901e-14 0)
(3 -1.538428161e-14 0)
(3 -1.199025347e-14 0)
(3 -1.074239313e-14 0)
(3 -1.044732027e-14 0)
(3 -1.001520219e-14 0)
(3 -8.919242421e-15 0)
(3 -8.1471991e-15 0)
(3 -5.104237534e-15 0)
(3 -6.689064121e-16 0)
(3 2.266083481e-15 0)
(3 2.224714809e-14 0)
(3 2.449368388e-14 0)
(3 2.609247775e-14 0)
(3 2.571598771e-14 0)
(3 2.606477476e-14 0)
(3 2.509864424e-14 0)
(3 2.38023472e-14 0)
(3 1.977496093e-14 0)
(3 1.566506875e-14 0)
(3 1.405834056e-14 0)
(3 1.402589067e-14 0)
(3 1.303925278e-14 0)
(3 1.178960539e-14 0)
(3 1.15043895e-14 0)
(3 1.1170914e-14 0)
(3 9.362113818e-15 0)
(3 6.072108861e-15 0)
(3 3.809304127e-15 0)
(3 2.422204947e-15 0)
(3 1.606907578e-15 0)
(3 1.094001873e-15 0)
(3 -3.574026327e-15 0)
(3 -6.316613612e-15 0)
(3 -8.831259934e-15 0)
(3 -9.522975396e-15 0)
(3 -1.055506248e-14 0)
(3 -1.381218935e-14 0)
(3 -1.608135292e-14 0)
(3 -1.613183406e-14 0)
(3 -1.561791057e-14 0)
(3 -1.56422967e-14 0)
(3 -1.604900304e-14 0)
(3 -1.855410898e-14 0)
(3 -1.99062133e-14 0)
(3 -1.948393923e-14 0)
(3 -1.977961905e-14 0)
(3 -2.08977167e-14 0)
(3 -2.252743573e-14 0)
(3 -2.494658403e-14 0)
(3 -2.601648145e-14 0)
(3 -2.469774257e-14 0)
(3 -2.422959891e-14 0)
(3 -2.281045826e-14 0)
(3 -2.141720567e-14 0)
(3 -1.627037407e-14 0)
(3 -1.313383779e-14 0)
(3 -8.285782408e-15 0)
(3 -8.119572077e-15 0)
(3 -9.151157801e-15 0)
(3 -1.048961934e-14 0)
(3 -1.208788515e-14 0)
(3 -1.469558413e-14 0)
(3 -1.822375338e-14 0)
(3 -1.895173583e-14 0)
(3 -1.883219509e-14 0)
(3 -1.75402928e-14 0)
(3 -1.396859523e-14 0)
(3 -1.120864878e-14 0)
(3 -8.64177999e-15 0)
(3 -7.50033193e-15 0)
(3 -6.085459669e-15 0)
(3 -4.154697947e-15 0)
(3 -2.462939016e-15 0)
(3 -1.341058938e-15 0)
(3 -1.030784233e-15 0)
(3 -1.41211265e-15 0)
(3 -6.806563504e-16 0)
(3 2.728888929e-14 0)
(3 3.075824275e-14 0)
(3 3.251816299e-14 0)
(3 3.415618728e-14 0)
(3 3.464848559e-14 0)
(3 3.196473554e-14 0)
(3 2.494743955e-14 0)
(3 1.758479146e-14 0)
(3 1.605766853e-14 0)
(3 1.569819433e-14 0)
(3 1.33706215e-14 0)
(3 9.936131813e-15 0)
(3 6.775791967e-15 0)
(3 5.489229224e-15 0)
(3 4.509657502e-15 0)
(3 5.413009025e-15 0)
(3 6.262627157e-15 0)
(3 6.908467315e-15 0)
(3 6.445278254e-15 0)
(3 4.470148561e-15 0)
(3 1.4174974e-15 0)
(3 -6.261290323e-17 0)
(3 -2.636932406e-15 0)
(3 -6.866099397e-15 0)
(3 -1.182948439e-14 0)
(3 -1.45997943e-14 0)
(3 -1.480956224e-14 0)
(3 -1.688630986e-14 0)
(3 -1.750151114e-14 0)
(3 -1.811011679e-14 0)
(3 -1.861031606e-14 0)
(3 -2.051441226e-14 0)
(3 -1.88058786e-14 0)
(3 -1.864184667e-14 0)
(3 -1.873642048e-14 0)
(3 -1.894104142e-14 0)
(3 -1.986177332e-14 0)
(3 -1.92623274e-14 0)
(3 -1.882688473e-14 0)
(3 -1.884539053e-14 0)
(3 -1.860349307e-14 0)
(3 -1.81462039e-14 0)
(3 -1.628948237e-14 0)
(3 -1.418208381e-14 0)
(3 -1.227784002e-14 0)
(3 -8.641824067e-15 0)
(3 -7.860614176e-15 0)
(3 -5.863599833e-15 0)
(3 -3.50829191e-15 0)
(3 -3.770928705e-15 0)
(3 -4.838625947e-15 0)
(3 -6.719244813e-15 0)
(3 -9.316620664e-15 0)
(3 -1.058070911e-14 0)
(3 -1.14521649e-14 0)
(3 -1.179114836e-14 0)
(3 -1.081597565e-14 0)
(3 -9.358877002e-15 0)
(3 -7.962253849e-15 0)
(3 -6.479550617e-15 0)
(3 -5.083681063e-15 0)
(3 -2.707875972e-15 0)
(3 -6.487304311e-16 0)
(3 5.039180096e-16 0)
(3 -6.308735789e-16 0)
(3 -3.497228869e-15 0)
(3 -4.561476856e-15 0)
(3 2.309600268e-14 0)
(3 2.096447352e-14 0)
(3 2.09511973e-14 0)
(3 2.30081501e-14 0)
(3 2.397121673e-14 0)
(3 2.272151649e-14 0)
(3 1.901068969e-14 0)
(3 1.648695536e-14 0)
(3 1.586599888e-14 0)
(3 1.090762981e-14 0)
(3 5.834080992e-15 0)
(3 2.927084135e-15 0)
(3 3.048406636e-15 0)
(3 4.262767844e-15 0)
(3 6.08785227e-15 0)
(3 7.498241274e-15 0)
(3 7.683307002e-15 0)
(3 8.285219407e-15 0)
(3 8.314410369e-15 0)
(3 7.716219797e-15 0)
(3 5.907932046e-15 0)
(3 2.23735938e-15 0)
(3 -1.029680511e-17 0)
(3 -4.527715799e-15 0)
(3 -1.023194383e-14 0)
(3 -1.331867049e-14 0)
(3 -1.190867525e-14 0)
(3 -1.323060594e-14 0)
(3 -1.575043744e-14 0)
(3 -1.80455103e-14 0)
(3 -1.714462387e-14 0)
(3 -1.475181528e-14 0)
(3 -1.104635516e-14 0)
(3 -9.734595262e-15 0)
(3 -9.889692732e-15 0)
(3 -1.013126164e-14 0)
(3 -1.044264254e-14 0)
(3 -1.024520092e-14 0)
(3 -1.068304989e-14 0)
(3 -1.13930397e-14 0)
(3 -1.248137393e-14 0)
(3 -1.339169902e-14 0)
(3 -1.329342064e-14 0)
(3 -1.243920191e-14 0)
(3 -1.161912996e-14 0)
(3 -1.148647634e-14 0)
(3 -1.211066716e-14 0)
(3 -9.095276684e-15 0)
(3 -4.757606391e-15 0)
(3 -2.716363256e-15 0)
(3 -1.448464904e-15 0)
(3 -1.033298912e-15 0)
(3 -1.485267799e-15 0)
(3 -3.556360065e-15 0)
(3 -5.726225031e-15 0)
(3 -6.742261257e-15 0)
(3 -9.119694964e-15 0)
(3 -1.030236479e-14 0)
(3 -1.00779172e-14 0)
(3 -8.155864493e-15 0)
(3 -5.94035027e-15 0)
(3 -5.59741262e-15 0)
(3 -5.34033275e-15 0)
(3 -4.255161184e-15 0)
(3 -4.961829754e-15 0)
(3 -6.077232776e-15 0)
(3 -8.171447202e-15 0)
(3 1.678794226e-14 0)
(3 1.767481235e-14 0)
(3 1.634268974e-14 0)
(3 1.432637823e-14 0)
(3 1.326030349e-14 0)
(3 1.39319522e-14 0)
(3 1.501130693e-14 0)
(3 1.497115819e-14 0)
(3 1.440211628e-14 0)
(3 1.292953145e-14 0)
(3 1.107026199e-14 0)
(3 1.082753363e-14 0)
(3 1.023193401e-14 0)
(3 8.681578842e-15 0)
(3 8.93177102e-15 0)
(3 9.233557565e-15 0)
(3 9.357860116e-15 0)
(3 8.601703341e-15 0)
(3 8.008537869e-15 0)
(3 7.699851603e-15 0)
(3 7.766128953e-15 0)
(3 5.898530299e-15 0)
(3 4.70838969e-15 0)
(3 2.396184501e-15 0)
(3 -2.619433136e-15 0)
(3 -5.748020028e-15 0)
(3 -8.94405747e-15 0)
(3 -9.348580396e-15 0)
(3 -9.93945394e-15 0)
(3 -9.166948648e-15 0)
(3 -8.243733878e-15 0)
(3 -5.527366988e-15 0)
(3 -2.961056691e-15 0)
(3 -2.053026331e-15 0)
(3 -3.167689596e-15 0)
(3 -4.993298308e-15 0)
(3 -8.017937682e-15 0)
(3 -1.056489499e-14 0)
(3 -1.16876853e-14 0)
(3 -1.25204572e-14 0)
(3 -1.444984754e-14 0)
(3 -1.391795098e-14 0)
(3 -1.411859431e-14 0)
(3 -1.423915501e-14 0)
(3 -1.234299561e-14 0)
(3 -1.211971301e-14 0)
(3 -1.227025184e-14 0)
(3 -8.806712257e-15 0)
(3 -4.433012919e-15 0)
(3 -2.556309428e-15 0)
(3 -2.506752197e-15 0)
(3 -2.595892593e-15 0)
(3 -4.036587697e-15 0)
(3 -5.287269807e-15 0)
(3 -7.195438619e-15 0)
(3 -8.794991113e-15 0)
(3 -8.297395759e-15 0)
(3 -8.566676863e-15 0)
(3 -8.81060901e-15 0)
(3 -9.21399048e-15 0)
(3 -9.776384669e-15 0)
(3 -9.106958732e-15 0)
(3 -9.399962419e-15 0)
(3 -9.45496311e-15 0)
(3 -9.375128254e-15 0)
(3 -7.062478761e-15 0)
(3 -7.390859773e-15 0)
(3 8.092902744e-15 0)
(3 9.324905784e-15 0)
(3 8.566982703e-15 0)
(3 7.824342742e-15 0)
(3 8.01842563e-15 0)
(3 8.563496385e-15 0)
(3 9.445669987e-15 0)
(3 1.092717535e-14 0)
(3 1.375701985e-14 0)
(3 1.43976038e-14 0)
(3 1.404403382e-14 0)
(3 1.48029014e-14 0)
(3 1.424500808e-14 0)
(3 1.26064684e-14 0)
(3 9.775554707e-15 0)
(3 8.17412295e-15 0)
(3 7.442746423e-15 0)
(3 5.892531011e-15 0)
(3 6.115229903e-15 0)
(3 6.571710647e-15 0)
(3 7.705165314e-15 0)
(3 8.368365963e-15 0)
(3 7.898525238e-15 0)
(3 6.95899522e-15 0)
(3 4.917699886e-15 0)
(3 4.309626146e-15 0)
(3 1.846637259e-15 0)
(3 -4.73102213e-16 0)
(3 -1.010065739e-15 0)
(3 8.62396479e-16 0)
(3 1.146998087e-15 0)
(3 1.262680979e-15 0)
(3 1.839194078e-15 0)
(3 2.386458125e-15 0)
(3 1.753080426e-15 0)
(3 7.653236052e-16 0)
(3 7.731199408e-16 0)
(3 7.580107701e-16 0)
(3 1.058107214e-15 0)
(3 6.722531692e-16 0)
(3 7.159987277e-16 0)
(3 -8.787294477e-16 0)
(3 -4.142280174e-15 0)
(3 -7.803379244e-15 0)
(3 -8.370682797e-15 0)
(3 -6.016866669e-15 0)
(3 -5.396462204e-15 0)
(3 -4.388429445e-15 0)
(3 -2.984742694e-15 0)
(3 -3.016347091e-15 0)
(3 -2.324728198e-15 0)
(3 -2.223649171e-15 0)
(3 -3.100355569e-15 0)
(3 -4.140971548e-15 0)
(3 -5.697427026e-15 0)
(3 -9.901721741e-15 0)
(3 -1.210545574e-14 0)
(3 -1.457395272e-14 0)
(3 -1.479388719e-14 0)
(3 -1.406382271e-14 0)
(3 -1.32273752e-14 0)
(3 -1.19514082e-14 0)
(3 -1.052076228e-14 0)
(3 -9.572798317e-15 0)
(3 -9.099845722e-15 0)
(3 -1.010655148e-14 0)
(3 -9.452213716e-15 0)
(3 -1.550105217e-15 0)
(3 3.072337117e-15 0)
(3 5.944857926e-15 0)
(3 6.752910916e-15 0)
(3 5.704179327e-15 0)
(3 5.955441459e-15 0)
(3 6.719618209e-15 0)
(3 9.591560106e-15 0)
(3 1.188026184e-14 0)
(3 1.42593937e-14 0)
(3 1.568536855e-14 0)
(3 1.628293413e-14 0)
(3 1.634719894e-14 0)
(3 1.556991514e-14 0)
(3 1.259737288e-14 0)
(3 1.077294361e-14 0)
(3 1.015096718e-14 0)
(3 1.029939088e-14 0)
(3 1.022622373e-14 0)
(3 1.078899725e-14 0)
(3 1.140935862e-14 0)
(3 1.140463116e-14 0)
(3 1.184984701e-14 0)
(3 1.338629231e-14 0)
(3 1.502289545e-14 0)
(3 1.550713203e-14 0)
(3 1.417892695e-14 0)
(3 1.442047096e-14 0)
(3 1.155311184e-14 0)
(3 9.338586324e-15 0)
(3 8.211725604e-15 0)
(3 7.507405122e-15 0)
(3 5.586396074e-15 0)
(3 5.570437208e-15 0)
(3 6.789711552e-15 0)
(3 8.02790474e-15 0)
(3 8.642837101e-15 0)
(3 1.077780431e-14 0)
(3 1.138950523e-14 0)
(3 1.053065807e-14 0)
(3 8.738392912e-15 0)
(3 7.567303369e-15 0)
(3 6.026843909e-15 0)
(3 5.525162087e-15 0)
(3 4.183369435e-15 0)
(3 9.713423566e-16 0)
(3 7.58110229e-17 0)
(3 -1.729826827e-16 0)
(3 -5.267290916e-17 0)
(3 -1.21941197e-15 0)
(3 -3.021225321e-16 0)
(3 -4.958891926e-16 0)
(3 -1.366625636e-15 0)
(3 -2.861599864e-15 0)
(3 -3.158570429e-15 0)
(3 -4.940225156e-15 0)
(3 -8.026251407e-15 0)
(3 -1.012872164e-14 0)
(3 -1.113940456e-14 0)
(3 -1.184968299e-14 0)
(3 -1.169028425e-14 0)
(3 -1.170775008e-14 0)
(3 -1.179747023e-14 0)
(3 -1.132319535e-14 0)
(3 -9.380852929e-15 0)
(3 -8.636631134e-15 0)
(3 -5.556193757e-15 0)
(3 -3.949370304e-15 0)
(3 1.661538059e-15 0)
(3 8.162423213e-15 0)
(3 1.101844979e-14 0)
(3 1.18503739e-14 0)
(3 1.183970419e-14 0)
(3 1.345948289e-14 0)
(3 1.408328735e-14 0)
(3 1.433167125e-14 0)
(3 1.464557908e-14 0)
(3 1.446339144e-14 0)
(3 1.37620172e-14 0)
(3 1.33140409e-14 0)
(3 1.319970187e-14 0)
(3 1.254947135e-14 0)
(3 1.145939205e-14 0)
(3 1.12712508e-14 0)
(3 1.179372039e-14 0)
(3 1.177225373e-14 0)
(3 1.172797442e-14 0)
(3 1.12992395e-14 0)
(3 1.157816444e-14 0)
(3 1.289754807e-14 0)
(3 1.381717191e-14 0)
(3 1.885133565e-14 0)
(3 2.097989588e-14 0)
(3 2.348042595e-14 0)
(3 2.324035012e-14 0)
(3 2.217214878e-14 0)
(3 2.066259317e-14 0)
(3 1.63714284e-14 0)
(3 1.559883229e-14 0)
(3 1.451229001e-14 0)
(3 1.28025985e-14 0)
(3 1.355756785e-14 0)
(3 1.519875836e-14 0)
(3 1.780746168e-14 0)
(3 2.074345735e-14 0)
(3 2.143619125e-14 0)
(3 2.026758431e-14 0)
(3 1.801463285e-14 0)
(3 1.697746353e-14 0)
(3 1.683746907e-14 0)
(3 1.748404718e-14 0)
(3 1.686231913e-14 0)
(3 1.411901145e-14 0)
(3 9.505284188e-15 0)
(3 4.307904649e-15 0)
(3 3.581082635e-15 0)
(3 3.096741127e-15 0)
(3 1.52474812e-15 0)
(3 -1.010875155e-15 0)
(3 -2.121281947e-15 0)
(3 -1.152631487e-15 0)
(3 8.011665993e-16 0)
(3 1.119661071e-15 0)
(3 -2.452938802e-15 0)
(3 -5.084207068e-15 0)
(3 -5.99599481e-15 0)
(3 -7.809319739e-15 0)
(3 -9.46694299e-15 0)
(3 -1.006248382e-14 0)
(3 -1.004572595e-14 0)
(3 -1.014523793e-14 0)
(3 -9.994223551e-15 0)
(3 -7.833057289e-15 0)
(3 -3.28444843e-15 0)
(3 -1.649188937e-15 0)
(3 -7.32534697e-16 0)
(3 1.817438179e-15 0)
(3 5.00522264e-15 0)
(3 1.074282137e-14 0)
(3 1.623657307e-14 0)
(3 1.745993037e-14 0)
(3 1.918923705e-14 0)
(3 2.077746101e-14 0)
(3 2.091769554e-14 0)
(3 1.982860402e-14 0)
(3 1.649924889e-14 0)
(3 1.341822936e-14 0)
(3 1.170265604e-14 0)
(3 1.258352426e-14 0)
(3 1.335087776e-14 0)
(3 1.327745749e-14 0)
(3 1.217742767e-14 0)
(3 1.22902978e-14 0)
(3 1.202677015e-14 0)
(3 1.12012512e-14 0)
(3 1.128475509e-14 0)
(3 1.240052347e-14 0)
(3 1.349541621e-14 0)
(3 1.650405258e-14 0)
(3 2.077316482e-14 0)
(3 2.197627857e-14 0)
(3 2.267391292e-14 0)
(3 2.278814803e-14 0)
(3 2.239504287e-14 0)
(3 2.202447747e-14 0)
(3 2.034730833e-14 0)
(3 1.994291802e-14 0)
(3 2.125783052e-14 0)
(3 2.126158579e-14 0)
(3 2.132082674e-14 0)
(3 2.180639027e-14 0)
(3 2.166877283e-14 0)
(3 2.324211303e-14 0)
(3 2.437059848e-14 0)
(3 2.272664505e-14 0)
(3 2.177888074e-14 0)
(3 2.111933258e-14 0)
(3 2.087818048e-14 0)
(3 1.992526086e-14 0)
(3 1.761183887e-14 0)
(3 1.586480558e-14 0)