/*--------------------------------*- C++ -*----------------------------------*\
  =========                 |
  \\      /  F ield         | OpenFOAM: The Open Source CFD Toolbox
   \\    /   O peration     | Website:  https://openfoam.org
    \\  /    A nd           | Version:  7
     \\/     M anipulation  |
\*---------------------------------------------------------------------------*/
FoamFile
{
    version     2.0;
    format      ascii;
    class       volScalarField;
    location    "3.3";
    object      rho;
}
// * * * * * * * * * * * * * * * * * * * * * * * * * * * * * * * * * * * * * //

dimensions      [1 -3 0 0 0 0 0];

internalField   nonuniform List<scalar> 
555
(
1.812852951
1.794565535
1.762460489
1.719623069
1.40000504
1.400005143
1.400009313
1.400209258
1.402052242
1.419063014
1.473601535
1.587457914
1.729416904
1.8088823
1.814668567
1.820389186
1.821542023
1.815904647
1.797803592
1.765624299
1.721748418
1.671785409
1.40000504
1.400008718
1.400096887
1.402196383
1.414807342
1.475082397
1.596845609
1.712577101
1.773214217
1.819753523
1.826259339
1.824532425
1.818404674
1.801019257
1.768511839
1.723947076
1.673296686
1.615475532
1.400005056
1.40008542
1.401288715
1.415365058
1.468588218
1.5835633
1.731304051
1.805854575
1.81533762
1.822420189
1.826308716
1.82134654
1.804341727
1.772847576
1.727096682
1.67410842
1.616948542
1.551762648
1.400007195
1.401114243
1.411349948
1.468051365
1.591147447
1.718294682
1.777933765
1.822762709
1.825198016
1.824587096
1.820100202
1.804897718
1.775424744
1.729297837
1.674218275
1.617209958
1.54954375
1.487180957
1.400143135
1.409713528
1.462034115
1.580656384
1.730676457
1.807464237
1.819630334
1.828668513
1.826528128
1.820759236
1.805805405
1.77771517
1.732973989
1.674936831
1.616765443
1.54888168
1.476751441
1.424753662
1.403730222
1.454487903
1.58584008
1.72795854
1.782917175
1.822065014
1.826833486
1.827745199
1.824116008
1.809274098
1.780444752
1.736581599
1.675905602
1.61359283
1.547416017
1.46773355
1.409359011
1.364135191
1.440994494
1.573164154
1.735046413
1.816415596
1.825272731
1.832753455
1.830913532
1.825075641
1.810895864
1.783292098
1.740682435
1.678242563
1.609904469
1.542333548
1.462268161
1.392421242
1.34417688
1.288293283
1.574368785
1.732111113
1.78632056
1.825298129
1.83179105
1.832171966
1.828652424
1.815415376
1.787828816
1.744718386
1.682372618
1.605463713
1.536417835
1.457293309
1.376195303
1.323120308
1.274260236
1.209973919
1.741494388
1.824226215
1.826517246
1.833201806
1.832989988
1.828871735
1.81716444
1.791932711
1.749265365
1.687088446
1.603351745
1.52770099
1.447890158
1.35857175
1.29477358
1.248111687
1.19466173
1.142969671
1.810789702
1.833824906
1.832546457
1.831502525
1.828922379
1.819664661
1.79652349
1.753278856
1.690414036
1.602189909
1.51435268
1.437008085
1.343722305
1.274235591
1.227759838
1.173810483
1.110054055
1.070131537
1.841746351
1.841425925
1.836305012
1.82776789
1.818614611
1.799576702
1.758657764
1.693449387
1.60172196
1.498242241
1.418684363
1.322243227
1.236841089
1.19329984
1.148547086
1.098878297
1.055262815
1.030148139
1.841546543
1.839651011
1.832592071
1.821643913
1.802948819
1.76340398
1.69729992
1.600518649
1.484736688
1.397768337
1.306233395
1.211279852
1.158324959
1.109161992
1.055056239
1.009073509
1.000477788
0.9901999859
1.831201846
1.827938604
1.821875185
1.807423386
1.770634698
1.700622442
1.59555494
1.469761417
1.365538616
1.274399874
1.161722306
1.113307843
1.088445155
1.045244772
1.003266903
0.9703184187
0.9479042636
0.9283445749
1.825651163
1.820621721
1.811751002
1.780495442
1.707687317
1.591867883
1.446935972
1.335680992
1.246523361
1.143861931
1.069388366
1.031950841
0.9852904472
0.9617788441
0.9535201768
0.9455544475
0.9291949862
0.9144298813
1.820156354
1.814273423
1.789147625
1.713424718
1.58642943
1.418817202
1.284667897
1.18769755
1.074939112
1.031332737
1.01450042
0.9845013438
0.9422583835
0.9160103749
0.9064960645
0.9089753177
0.9117646496
0.9156038331
1.818722639
1.80016112
1.724128282
1.570794804
1.389767552
1.250648307
1.143479949
1.041326816
0.9665076204
0.9335359851
0.9319529675
0.9255990862
0.9169530934
0.9069087267
0.8997696627
0.9013827886
0.91680935
0.9877463316
1.814546356
1.739507928
1.564960645
1.34147347
1.154598755
1.057123708
0.9848291756
0.9505151731
0.9381234953
0.9172025175
0.8983015565
0.8860072959
0.8893659546
0.8928514016
0.8990150043
0.9390527668
1.033246994
1.179254393
1.757313324
1.545825404
1.316126726
1.146083219
1.025118311
0.9314801119
0.9030333531
0.8929258221
0.9026567135
0.905298783
0.8964208911
0.8868300319
0.8870743999
0.9092732655
0.9781828788
1.117957503
1.271734614
1.326870339
1.455777788
1.027207693
0.9623894925
0.9776201949
0.9663743395
0.9354027276
0.9083901131
0.9023241438
0.8980463936
0.8971641513
0.8954809275
0.8976465517
0.9305754395
1.048911173
1.235399741
1.296210607
1.349648618
1.367331195
0.8971756353
0.7974583426
0.8061566503
0.9009455958
0.9507410826
0.9262519915
0.9100115473
0.9096442476
0.9034455136
0.9050061311
0.9098008592
0.935316629
1.017466296
1.192537816
1.33944045
1.383705074
1.360195671
1.36556615
0.8569014343
0.7890871707
0.8089356552
0.9001140748
0.9454201551
0.9216018954
0.9102231017
0.9112958791
0.9059957193
0.9077158018
0.9155703933
0.9533765687
1.067264962
1.249341384
1.361079385
1.387043812
1.362280542
1.36678804
0.845873353
0.7868825101
0.8039527802
0.8910843902
0.939793883
0.9178581652
0.9112119034
0.9123160847
0.9079466199
0.9103390901
0.9214743416
0.9699611793
1.118402541
1.287600974
1.375269213
1.387954033
1.364186434
1.36859862
0.8352740561
0.7842759873
0.8080660289
0.8879820861
0.9350171416
0.9164305019
0.9128402758
0.913074264
0.9099691597
0.9142244295
0.9290704253
0.9953918866
1.173715194
1.326088242
1.392934956
1.390123386
1.366839698
1.371908068
0.8265058537
0.7823036292
0.8108205758
0.8854843975
0.931440092
0.915714
0.9144833823
0.9146024941
0.9130627511
0.9167239322
0.9391084027
1.033776844
1.194484359
1.341096399
1.395126924
1.391302377
1.368976059
1.374301598
0.8193651022
0.7824414227
0.8147045559
0.8855311232
0.9281876014
0.915898109
0.9163973792
0.9165582236
0.915110486
0.9201776194
0.9529260845
1.064311372
1.214684456
1.342791197
1.396051423
1.391592087
1.371022346
1.375922477
0.8136074355
0.7829169208
0.8175093976
0.8858808652
0.9249126743
0.9148585445
0.9170972535
0.917611192
0.9171969404
0.9272670486
0.9735170461
1.090941883
1.261086509
1.353656307
1.39227465
1.391266944
1.371970918
1.377067446
0.8089550953
0.7826662574
0.8205130886
0.8866072586
0.9215710375
0.9138349472
0.9173365848
0.9190212163
0.921533192
0.9364312062
0.9936760184
1.144185145
1.307290663
1.366850135
1.39002249
1.390106919
1.372780645
1.37801899
0.8052761042
0.783614434
0.8241841869
0.8876003619
0.9184032503
0.9140160488
0.9182470299
0.921882628
0.9255381032
0.9453269995
1.022103229
1.194178139
1.326239543
1.374222571
1.390808705
1.389579092
1.374112397
0.8025429692
0.7854515792
0.8275270545
0.8881385954
0.9154132271
0.9144004529
0.9203060976
0.9251461847
0.9296301366
0.9583763844
1.062482509
1.216010352
1.331212268
1.377084749
1.392499719
1.389202749
1.375567558
0.8007258693
0.7876748637
0.8304807124
0.8886878121
0.9124911513
0.9143987889
0.9215433374
0.9275228492
0.9373342122
0.9813165155
1.093183277
1.241727802
1.345701813
1.379652491
1.394467477
1.38876574
1.376475132
0.799693076
0.7902329032
0.8332406702
0.8888809952
0.9096376374
0.9143470884
0.9227228459
0.9316329952
0.9484373475
1.002108503
1.126614255
1.290228678
1.366022149
1.38350707
)
;

boundaryField
{
    inlet
    {
        type            calculated;
        value           nonuniform 0();
    }
    outlet
    {
        type            calculated;
        value           nonuniform 0();
    }
    bottom
    {
        type            calculated;
        value           nonuniform 0();
    }
    top
    {
        type            calculated;
        value           nonuniform 0();
    }
    obstacle
    {
        type            calculated;
        value           nonuniform List<scalar> 
12
(
0.8971756353
0.8569014343
0.845873353
0.8352740561
0.8265058537
0.8193651022
0.8136074355
0.8089550953
0.8052761042
0.8025429692
0.8007258693
0.799693076
)
;
    }
    defaultFaces
    {
        type            empty;
    }
    procBoundary9to3
    {
        type            processor;
        value           nonuniform List<scalar> 
19
(
1.817758584
1.811728142
1.792802932
1.760887906
1.40000504
1.400005042
1.400005176
1.400017142
1.400191144
1.403053451
1.41747041
1.478953869
1.598736518
1.716478574
1.771524937
1.816513409
1.822059034
1.819705778
1.819705778
)
;
    }
    procBoundary9to4
    {
        type            processor;
        value           nonuniform List<scalar> 5(1.6699647 1.615562668 1.557365601 1.497766523 1.43844548);
    }
    procBoundary9to8
    {
        type            processor;
        value           nonuniform List<scalar> 2(1.40000504 1.40000504);
    }
    procBoundary9to10
    {
        type            processor;
        value           nonuniform List<scalar> 
27
(
1.373391857
1.301126553
1.223194254
1.161963413
1.117566084
1.058002616
1.003489466
0.9633721008
0.9195641302
0.9148711896
0.9476014992
1.108131419
1.293645161
1.349008607
1.36550932
1.369196525
1.369882826
1.371014914
1.373148538
1.375489066
1.377802955
1.380536766
1.382918033
1.379429462
1.379429462
1.381577312
1.383491258
)
;
    }
    procBoundary9to14
    {
        type            processor;
        value           nonuniform List<scalar> 
17
(
1.40000504
1.400005035
1.400005005
1.40002701
1.404722057
1.466090267
1.634995405
1.77771949
1.836999879
1.837444824
1.831682575
1.833733036
1.822940218
1.819229777
1.818814439
1.821154657
1.826498165
)
;
    }
    procBoundary9to15
    {
        type            processor;
        value           nonuniform List<scalar> 
18
(
1.395632578
1.388912564
1.37729155
0.7987730926
0.7931163235
0.8358326622
0.8889008673
0.9075031506
0.9155307961
0.9249494834
0.9361705345
0.9551152117
1.024609412
1.184739432
1.326727234
1.373857523
1.395632578
1.388028126
)
;
    }
}


// ************************************************************************* //
