/*--------------------------------*- C++ -*----------------------------------*\
  =========                 |
  \\      /  F ield         | OpenFOAM: The Open Source CFD Toolbox
   \\    /   O peration     | Website:  https://openfoam.org
    \\  /    A nd           | Version:  7
     \\/     M anipulation  |
\*---------------------------------------------------------------------------*/
FoamFile
{
    version     2.0;
    format      ascii;
    class       volScalarField;
    location    "3.1";
    object      T;
}
// * * * * * * * * * * * * * * * * * * * * * * * * * * * * * * * * * * * * * //

dimensions      [0 0 0 1 0 0 0];

internalField   nonuniform List<scalar> 
555
(
0.9913273575
0.992019661
0.9924110486
0.9923628989
0.9912850656
0.9909506658
0.9910677424
0.9915284237
0.9922182888
0.9926551548
0.9926643376
0.9923309232
0.9917637753
0.9912369082
0.9911345932
0.9912743415
0.9916424107
0.9921522496
0.9925268721
0.9925840425
0.9920250889
0.9914179671
0.9930319053
0.9932801881
0.993590081
0.993895606
0.9942584382
0.9942958422
0.9938190192
0.9927484673
0.9920252336
0.9919401801
0.9921554181
0.9925873497
0.992927342
0.9930207389
0.9928708645
0.9927240901
0.9929666433
0.9957684974
0.995971266
0.9960924823
0.9962737084
0.9962902718
0.9959526785
0.9948402467
0.993808406
0.9935597857
0.99352513
0.9935588577
0.9936379584
0.9935990141
0.9936647671
0.9938319959
0.9942293194
0.9948980916
0.9987567379
0.9987605104
0.9987182989
0.9986291387
0.9982432359
0.997060808
0.9960537157
0.9960282896
0.9960002669
0.9959617525
0.9959301435
0.995813478
0.9955669039
0.9954247419
0.9955767815
0.9959780435
0.9968497105
1.001299619
1.001221668
1.001062869
1.000539456
0.9994515136
0.9984635604
0.9983875037
0.9984654388
0.9985620092
0.9985954281
0.9985883047
0.9984016715
0.9979998632
0.9977355913
0.9978076128
0.9981877634
0.9988788626
1.003389354
1.002975867
1.002270358
1.001464234
1.000879093
1.000778443
1.000779541
1.000840403
1.001014177
1.001086686
1.001192966
1.00109103
1.000800765
1.000475661
1.000523521
1.000807262
1.001164603
1.003680404
1.00319386
1.003122879
1.003127458
1.003145744
1.003149689
1.003328694
1.003452252
1.003511267
1.003674382
1.003657613
1.00358762
1.003543258
1.003529671
1.003576321
1.003398953
1.004780228
1.004808564
1.004933398
1.005149244
1.005417788
1.005719838
1.005940984
1.005971305
1.005901
1.00596657
1.005968804
1.006175231
1.006337207
1.006211257
1.005725437
1.005233681
1.006173573
1.006219728
1.006475516
1.006969649
1.00753626
1.00804296
1.008186441
1.008023655
1.007784642
1.007605491
1.007731247
1.00801537
1.008170683
1.007941948
1.007348648
1.005824893
1.007422715
1.007708779
1.00804077
1.008767205
1.009269818
1.009521627
1.009479518
1.009308644
1.009125806
1.008969752
1.009009017
1.009119719
1.009187276
1.009001769
1.008170424
1.007362988
1.008767957
1.009091967
1.009508366
1.009937321
1.010110095
1.010230123
1.01025587
1.010000123
1.009778789
1.009724039
1.009842479
1.009758508
1.009547687
1.008990237
1.008673284
1.008683867
1.010205963
1.010357269
1.010624202
1.010926917
1.010872668
1.010557594
1.010015779
1.00953122
1.009394911
1.009322303
1.009479351
1.009579183
1.009267521
1.009219533
1.009496446
1.009888491
1.011574564
1.011600046
1.011444101
1.011005909
1.010906769
1.010192028
1.009658426
1.009650868
1.009874564
1.010101737
1.010142181
1.00981945
1.009736937
1.009969477
1.010357887
1.010971648
1.012650193
1.0126433
1.012542105
1.011976361
1.011092194
1.010633811
1.010281836
1.01038569
1.010696115
1.010941548
1.010942695
1.010815201
1.010764956
1.010991122
1.011435724
1.011728301
1.013625479
1.013536112
1.013347798
1.012864845
1.012333058
1.011938028
1.011550163
1.011447594
1.011634182
1.01163314
1.011685188
1.011760416
1.012089741
1.012426697
1.012526599
1.012347978
1.014392378
1.014272726
1.013958018
1.013536234
1.013284087
1.013118585
1.012944753
1.012815135
1.012772991
1.012636672
1.012806985
1.01319688
1.013722271
1.013725908
1.013190886
1.012684262
1.014724773
1.01468247
1.014500205
1.01436711
1.014460057
1.014624523
1.014676562
1.014470698
1.014103386
1.013673069
1.013946304
1.01455701
1.014918956
1.014382335
1.013476634
1.012802067
1.014633838
1.014732597
1.014999406
1.015275412
1.015480331
1.01551682
1.015341188
1.014978939
1.014786296
1.014554066
1.014923568
1.015165247
1.014982484
1.014331961
1.013605376
1.013055353
1.014467279
1.014714209
1.015165158
1.015258084
1.015291001
1.01524741
1.015071831
1.014779606
1.014638569
1.014599525
1.014783233
1.014813835
1.014662421
1.014049614
1.013788017
1.013653852
1.014796786
1.014789721
1.014764986
1.014699031
1.0146352
1.014539568
1.014393819
1.014209511
1.014052474
1.014026713
1.014020746
1.013986973
1.013949201
1.014007842
1.014081693
1.014121103
1.013952593
1.014032585
1.014157074
1.01425413
1.014236704
1.014195003
1.014075525
1.013862733
1.013602207
1.013473034
1.013465896
1.013475124
1.013476861
1.013478442
1.013447865
1.013474021
1.012668759
1.01297525
1.013141739
1.01325313
1.013247784
1.01322149
1.013148724
1.012990742
1.012764715
1.012616559
1.012624209
1.01263049
1.012614487
1.0125995
1.012624688
1.012744657
1.011692657
1.011797043
1.011730227
1.011519208
1.01137261
1.011425635
1.011498266
1.011531219
1.011490137
1.011407004
1.011387078
1.011379526
1.011381017
1.011421387
1.011553935
1.011686771
1.010450309
1.010255504
1.009903595
1.009799407
1.009767196
1.009832318
1.009969025
1.010096203
1.01014903
1.010112676
1.010093133
1.010129277
1.010225859
1.010349301
1.010454598
1.010529649
1.009177563
1.008648731
1.008234584
1.008226284
1.0083245
1.008713557
1.009016833
1.009158906
1.009151606
1.009073691
1.009004503
1.009034088
1.00912253
1.009206096
1.00928979
1.00933971
1.007869201
1.007355729
1.007341802
1.007455479
1.007834472
1.008297692
1.008608317
1.008662609
1.008603387
1.00847789
1.008347776
1.008293623
1.008295003
1.008316654
1.008372283
1.008407073
1.007045405
1.007092721
1.007304807
1.00755663
1.007801061
1.008139654
1.008309935
1.008260783
1.008207097
1.008138736
1.008078352
1.008022355
1.00796089
1.007820855
1.007781315
1.007771593
1.007105449
1.006938787
1.006802959
1.006845625
1.006990063
1.007494623
1.007802067
1.007886401
1.008010099
1.00813751
1.008109727
1.008051605
1.007933543
1.007637151
1.007453932
1.0074253
1.006843643
1.006322137
1.005252472
1.005114465
1.005667735
1.00672385
1.00736875
1.007727148
1.007835636
1.007935581
1.007931944
1.007919419
1.007839891
1.007583934
1.007414233
1.007428577
1.004557945
1.003973057
1.003521695
1.003998386
1.00549762
1.006836043
1.007487794
1.007554559
1.007468358
1.007326223
1.00736172
1.007478217
1.007554595
1.007550621
1.007497759
1.0074778
0.9992245913
1.001839177
1.004013975
1.005826433
1.007027523
1.007417044
1.007388037
1.007047846
1.006356357
1.006146832
1.006420774
1.006845115
1.007189627
1.007390981
1.007385126
1.007319726
0.9903194668
0.9973613105
1.002373729
1.006481078
1.006984346
1.006793424
1.006349252
1.005958498
1.005424327
1.005502135
1.00599947
1.006507668
1.006878841
1.007012728
1.00700127
1.006940053
0.9354394801
0.965192278
0.9877086147
1.003574347
1.002016148
1.003416989
1.00455297
1.004714146
1.005356274
1.006043925
1.006673293
1.006727374
1.006523764
1.006411541
1.006445689
1.0065438
0.8863802696
0.9191765233
0.9521521822
0.981983979
0.9902562669
1.001024495
1.003605273
1.004609803
1.005560883
1.006399422
1.006550474
1.006350837
1.005816547
1.005768307
1.006075093
1.006526747
)
;

boundaryField
{
    inlet
    {
        type            fixedValue;
        value           nonuniform 0();
    }
    outlet
    {
        type            inletOutlet;
        inletValue      uniform 1;
        value           nonuniform List<scalar> 
35
(
1.014124457
1.013472322
1.012747611
1.011688979
1.010530011
1.009339238
1.008406979
1.007772189
1.007425141
1.007426087
1.007475677
1.007318967
1.006939756
1.006539602
1.006523835
0.9907117909
0.9913124399
0.9930730434
0.9950017595
0.9972642754
0.9990529923
1.00140043
1.003384167
1.005006705
1.005479343
1.007138826
1.008674216
1.010054231
1.011137863
1.011813686
1.012382713
1.012673641
1.012739229
1.012967174
1.01365609
)
;
    }
    bottom
    {
        type            slip;
    }
    top
    {
        type            slip;
    }
    obstacle
    {
        type            zeroGradient;
    }
    defaultFaces
    {
        type            empty;
    }
    procBoundary29to23
    {
        type            processor;
        value           nonuniform List<scalar> 
18
(
0.9906899341
0.9912485129
0.9916675713
0.9917115021
0.9915470918
0.9892476922
0.9893822295
0.9896238557
0.9901878533
0.9907188207
0.9908302551
0.9908619417
0.9904839651
0.9901866467
0.9901379054
0.9902256601
0.9905870644
0.9905870644
)
;
    }
    procBoundary29to28
    {
        type            processor;
        value           nonuniform List<scalar> 
34
(
0.9907927641
0.9929319212
0.9955886129
0.9986492224
1.001388276
1.003519446
1.004393978
1.004393978
1.00487011
1.006033735
1.007275465
1.008490083
1.009945222
1.011444771
1.012849711
1.013888568
1.014471296
1.014811045
1.014588641
1.014344131
1.014764718
1.013935837
1.012420764
1.01118612
1.010372707
1.009327013
1.008177363
1.007125794
1.00681882
1.007379086
1.003780226
0.9854523697
0.957666811
0.9013312807
)
;
    }
    procBoundary29to34
    {
        type            processor;
        value           uniform 0.8750766353;
    }
    procBoundary29to35
    {
        type            processor;
        value           nonuniform List<scalar> 
16
(
0.8744201471
0.880139529
0.8984576684
0.9310468663
0.9686191693
0.9949257768
0.9982651493
1.001430507
1.00382671
1.004781034
1.004856926
1.005242422
1.005194606
1.005474426
1.00600941
1.006493109
)
;
    }
}


// ************************************************************************* //
