/*--------------------------------*- C++ -*----------------------------------*\
  =========                 |
  \\      /  F ield         | OpenFOAM: The Open Source CFD Toolbox
   \\    /   O peration     | Website:  https://openfoam.org
    \\  /    A nd           | Version:  7
     \\/     M anipulation  |
\*---------------------------------------------------------------------------*/
FoamFile
{
    version     2.0;
    format      ascii;
    class       volScalarField;
    location    "4.5";
    object      p;
}
// * * * * * * * * * * * * * * * * * * * * * * * * * * * * * * * * * * * * * //

dimensions      [1 -1 -2 0 0 0 0];

internalField   nonuniform List<scalar> 
138
(
1.000000048
1.000000251
1.000001288
1.00000529
1.000022104
1.000068306
1.000396466
1.000379308
1
1
1
1
1
1
1
1
1
1
0.9999999999
1
1.000000002
1.000000026
1.000000113
1.000003756
0.9999991225
1
1
1
1
1
1
1
1
1
1
1
1
1
0.9999999999
1.000000009
0.9999998208
1
1
1
1
1
1
1
1
1
1
1
1
1
1
1
0.9999999923
1
1
1
1
1
1
1
1
1
1
1
1
1
1
1
0.9999999999
1
1
1
1
1
1
1
1
1
1
1
1
1
1
1
1
1
1
1
1
1
1
1
1
1
1
1
1
1
1
1
1
1
1
1
1
1
1
1
1
1
1
1
1
1
1
1
1
1
1
1
1
1
1
1
1
1
1
1
1
1
1
1
1
1
)
;

boundaryField
{
    inlet
    {
        type            fixedValue;
        value           nonuniform 0();
    }
    outlet
    {
        type            zeroGradient;
    }
    bottom
    {
        type            slip;
    }
    top
    {
        type            slip;
    }
    obstacle
    {
        type            zeroGradient;
    }
    defaultFaces
    {
        type            empty;
    }
    procBoundary26to20
    {
        type            processor;
        value           nonuniform List<scalar> 
18
(
1.000033114
1.000106694
1.00031189
1.000863327
1.002125935
1.004874728
1.010549457
1.017134703
1
1
1
1
1
0.9999999999
1
1.000000001
1.000000007
1.000000007
)
;
    }
    procBoundary26to25
    {
        type            processor;
        value           nonuniform List<scalar> 9(1 1 1 1 1 1 1 1 1);
    }
    procBoundary26to27
    {
        type            processor;
        value           nonuniform List<scalar> 3(1.013493717 1.000918593 1.000027177);
    }
    procBoundary26to31
    {
        type            processor;
        value           uniform 1;
    }
    procBoundary26to32
    {
        type            processor;
        value           nonuniform List<scalar> 
17
(
1
1
1
1
1
1
1
1
1
1
1
1
1
1
1
1
1
)
;
    }
    procBoundary26to33
    {
        type            processor;
        value           nonuniform List<scalar> 6(1.000000339 1.000000002 1 1 1 1);
    }
}


// ************************************************************************* //
