/*--------------------------------*- C++ -*----------------------------------*\
  =========                 |
  \\      /  F ield         | OpenFOAM: The Open Source CFD Toolbox
   \\    /   O peration     | Website:  https://openfoam.org
    \\  /    A nd           | Version:  7
     \\/     M anipulation  |
\*---------------------------------------------------------------------------*/
FoamFile
{
    version     2.0;
    format      ascii;
    class       volScalarField;
    location    "3.6";
    object      T;
}
// * * * * * * * * * * * * * * * * * * * * * * * * * * * * * * * * * * * * * //

dimensions      [0 0 0 1 0 0 0];

internalField   nonuniform List<scalar> 
800
(
1
1
1
1
1
1
1
1
1
1
1
1
1
1
1
1
1
1
1
1
1
1
1
1
1
1
1
1
1
1
1
1
1
1
1
1
1
1
1
1
1
1
1
1
1
1
1
1
1
1
1
1
1
1
1
1
1
1
1
1
1
1
1
1
1
1
1
1
1
1
1
1
1
1
1
1
1
1
1
1
1
1
1
1
1
1
1
1
1
1
1
1
1
1
1
1
1
1
1
1
1
1
1
1
1
1
1
1
1
1
1
1
1
1
1
1
1
1
1
0.9999999999
1
1
1
1
1
1
0.9999999999
0.9999999999
0.9999999998
0.9999999997
1
1
1
0.9999999999
0.9999999998
0.9999999997
0.9999999997
0.9999999993
0.9999999995
0.9999999996
0.9999999999
0.9999999997
0.9999999996
0.9999999994
0.9999999994
0.9999999993
1
0.9999999983
1.000000178
1.000000046
0.9999999988
0.9999999988
0.999999999
0.9999999986
1.000000005
1.00000011
1.000000741
1.000003533
1.000029279
1.000024358
0.9999999971
1.000000024
1.000000409
1.000003332
1.000016101
1.00006204
1.00018794
1.000496044
1.001256055
1.001913243
1.000005881
1.000045274
1.000193703
1.000612636
1.001513158
1.00322927
1.006017339
1.010320696
1.016217236
1.023100083
1.000939017
1.003451334
1.0075416
1.013917662
1.021274755
1.030363994
1.039483801
1.049726856
1.058455257
1.07218999
1.015858209
1.033480532
1.052301172
1.069438191
1.085604091
1.0995302
1.112316816
1.123050092
1.131570468
1.14191098
1
1.000000181
1.000010365
1.000272872
1.002455282
1.012212236
1.029603001
1.048065725
1.061090767
1.05711393
1
1.000005597
1.000158912
1.002161521
1.00984762
1.023663783
1.034036379
1.043074615
1.048071815
1.039079106
1.000000086
1.000102234
1.001522329
1.009741355
1.025905198
1.032758424
1.035190878
1.03235534
1.027017608
1.016660563
1.000006801
1.001155521
1.008857335
1.02526821
1.039201118
1.038244114
1.032597944
1.018171097
0.9965259853
0.9966366402
1.000252459
1.007637111
1.028609655
1.040392356
1.040364968
1.033858327
1.015567083
0.9945185823
0.9774446698
0.9821080901
1.004122489
1.027603266
1.048710923
1.047420107
1.034932609
1.011471122
0.9874957914
0.9802092883
0.9774349821
0.9835090986
1.02731762
1.052230768
1.051197466
1.038797921
1.006774582
0.9793335166
0.9708965922
0.9741371298
0.9829495034
0.9967770738
1.066520256
1.064182166
1.040256992
0.9993347823
0.9774889717
0.97438529
0.9769644132
0.9875125607
0.9989906525
1.006982275
1.074142837
1.044092335
0.9900254176
0.960355392
0.9654354678
0.9793778576
1.002149344
1.01343876
1.014990681
1.01684568
1.070403186
0.9710957688
0.9517092127
0.9690182616
0.9980255161
1.016769967
1.022560657
1.025235913
1.024835394
1.024624969
0.9316722289
0.9280939382
0.9586309245
1.016237906
1.035091026
1.035704294
1.028369301
1.024910773
1.025616928
1.028173774
0.922214903
0.9346229057
0.981465176
1.027683928
1.038054795
1.038401662
1.030225174
1.028173107
1.027988521
1.028914976
0.9275538062
0.9444340386
0.9987877338
1.034504863
1.040901096
1.042055924
1.033255547
1.033017959
1.032804897
1.032689039
0.9303191371
0.9541789451
1.01439243
1.040883197
1.044773674
1.046378502
1.03693221
1.037602117
1.038778679
1.038734842
0.9326140729
0.9660493145
1.028779976
1.047188149
1.048057998
1.048993451
1.039695928
1.041802986
1.043195527
1.044012498
0.9348657143
0.981991431
1.043132509
1.052169586
1.052744064
1.053873371
1.044285213
1.046402484
1.048295033
1.049406329
0.9400482175
1.00352093
1.058073113
1.05941783
1.059189859
1.059900139
1.048836488
1.050130751
1.052603776
1.053712705
0.9534783391
1.029940085
1.071649
1.066187859
1.063387576
1.063048861
1.051171303
1.054300824
1.055459193
1.056385418
0.9733850435
1.056020772
1.081462615
1.072178385
1.067969776
1.066582948
1.05344384
1.056731087
1.058089783
1.057041879
0.9821535549
1.084043932
1.085746468
1.073826407
1.070500622
1.068630517
1.054008786
1.057355118
1.059672744
1.057747157
0.9822309865
1.091624575
1.084926374
1.073741848
1.069672574
1.068207926
1.053944734
1.058217537
1.059116189
1.058337078
0.9735181482
1.060861766
1.080679425
1.072259882
1.068331495
1.067021485
1.053222395
1.05659393
1.058151504
1.058042737
0.9536977427
1.028822787
1.070315429
1.066149553
1.063736425
1.06325648
1.0510159
1.053576189
1.055235865
1.056415606
0.9400642223
0.9998548903
1.05807633
1.059532548
1.058892934
1.059696024
1.048708033
1.050987392
1.052811133
1.053645148
0.9347995553
0.9807771587
1.04370368
1.052321274
1.052352723
1.053580868
1.044073732
1.046809406
1.049008876
1.04885375
0.9324978368
0.9676622815
1.02996801
1.046980703
1.047797126
1.048746713
1.039521812
1.041560471
1.043117281
1.042394989
0.9303211746
0.9551147192
1.015049036
1.04067736
1.045247083
1.046450471
1.03700189
1.037340488
1.038079489
1.037533481
0.9275927619
0.9438546162
0.9977722259
1.034381418
1.041131756
1.042191429
1.033401419
1.033254622
1.033192361
1.034163098
0.9222152444
0.9342014931
0.9807167675
1.027801938
1.037958217
1.038474263
1.030334987
1.028535706
1.028591045
1.030654856
0.9316617674
0.9282109569
0.9591875409
1.016688675
1.034899852
1.03572644
1.028344721
1.025152273
1.025791991
1.028485737
1.070403371
0.9711125137
0.9517167604
0.9689967979
0.9980210118
1.01678847
1.022575319
1.025275613
1.024811369
1.024632619
1.074142653
1.044088425
0.9900222765
0.9603462041
0.9654400801
0.9793951201
1.002176448
1.013378262
1.014964143
1.016863596
1.066520201
1.064181993
1.040256857
0.9993374777
0.9774893978
0.9743897022
0.976971839
0.9875032464
0.9989771879
1.006973435
1.027317658
1.052230582
1.051197352
1.038797999
1.006775214
0.9793338142
0.9709023581
0.9741444255
0.9829545744
0.9967732449
1.004122498
1.027603187
1.048710801
1.047420056
1.034932224
1.011471456
0.9874970212
0.980214561
0.9774399571
0.9835100546
1.00025246
1.007637103
1.028609574
1.040392261
1.040364825
1.033857919
1.01556671
0.9945201744
0.9774488866
0.9821100021
1.000006801
1.00115552
1.008857301
1.025268124
1.039200965
1.03824397
1.032597552
1.018170985
0.9965271439
0.9966376142
1.000000086
1.000102234
1.001522323
1.009741309
1.025905066
1.032758332
1.035190716
1.032354821
1.027017716
1.01666124
1
1.000005597
1.000158912
1.00216151
1.009847592
1.023663708
1.034036234
1.043074379
1.048071618
1.039079428
1
1.000000181
1.000010365
1.000272871
1.002455271
1.012212199
1.029602892
1.048065463
1.061090468
1.057113925
1.015858209
1.033480532
1.052301172
1.069438191
1.085604091
1.0995302
1.112316816
1.123050092
1.131570466
1.141910987
1.000939017
1.003451334
1.0075416
1.013917662
1.021274755
1.030363994
1.039483801
1.049726857
1.05845525
1.072190062
1.000005881
1.000045274
1.000193703
1.000612636
1.001513158
1.00322927
1.006017339
1.010320697
1.016217234
1.023100087
0.9999999971
1.000000024
1.000000409
1.000003332
1.000016101
1.00006204
1.00018794
1.000496044
1.001256055
1.001913243
0.9999999988
0.9999999988
0.999999999
0.9999999986
1.000000005
1.00000011
1.000000741
1.000003533
1.000029279
1.000024358
0.9999999999
0.9999999997
0.9999999996
0.9999999994
0.9999999994
0.9999999993
1
0.9999999983
1.000000178
1.000000046
1
1
1
0.9999999999
0.9999999998
0.9999999997
0.9999999997
0.9999999993
0.9999999995
0.9999999996
1
1
1
1
1
1
0.9999999999
0.9999999999
0.9999999998
0.9999999997
1
1
1
1
1
1
1
1
1
0.9999999999
1
1
1
1
1
1
1
1
1
1
1
1
1
1
1
1
1
1
1
1
1
1
1
1
1
1
1
1
1
1
1
1
1
1
1
1
1
1
1
1
1
1
1
1
1
1
1
1
1
1
1
1
1
1
1
1
1
1
1
1
1
1
1
1
1
1
1
1
1
1
1
1
1
1
1
1
1
1
1
1
1
1
1
1
1
1
1
1
1
1
1
1
1
1
1
1
1
1
1
1
1
1
1
1
1
1
1
1
1
1
)
;

boundaryField
{
    inlet
    {
        type            fixedValue;
        value           uniform 1;
    }
    outlet
    {
        type            inletOutlet;
        inletValue      uniform 1;
        value           nonuniform List<scalar> 
40
(
1.024651334
1.016861888
1.006972954
0.9967733655
0.9835100242
0.9821099565
0.9966375972
1.016661242
1.039079432
1.057113925
1.058364843
1.0581785
1.056480303
1.05354211
1.048815993
1.042392751
1.037808529
1.033976909
1.030461684
1.028335413
1.0283648
1.028811251
1.032404538
1.038556418
1.044147255
1.049541643
1.053888458
1.05633875
1.056818619
1.057693061
1.05711393
1.039079105
1.016660562
0.9966366454
0.9821081073
0.9835091089
0.996777126
1.006982356
1.016842838
1.024632427
)
;
    }
    bottom
    {
        type            slip;
    }
    top
    {
        type            slip;
    }
    obstacle
    {
        type            zeroGradient;
    }
    defaultFaces
    {
        type            empty;
    }
}


// ************************************************************************* //
