/*--------------------------------*- C++ -*----------------------------------*\
  =========                 |
  \\      /  F ield         | OpenFOAM: The Open Source CFD Toolbox
   \\    /   O peration     | Website:  https://openfoam.org
    \\  /    A nd           | Version:  7
     \\/     M anipulation  |
\*---------------------------------------------------------------------------*/
FoamFile
{
    version     2.0;
    format      ascii;
    class       volScalarField;
    location    "1";
    object      T;
}
// * * * * * * * * * * * * * * * * * * * * * * * * * * * * * * * * * * * * * //

dimensions      [0 0 0 1 0 0 0];

internalField   nonuniform List<scalar> 
2222
(
0.8869295215
0.890566621
0.9085312818
0.9502940764
0.9807836974
0.9762046999
0.9708704873
0.961553425
0.9559858531
0.9528725112
0.9487766004
0.9407997828
0.9349894437
0.9320033447
0.9286154768
0.9219779671
0.9166359964
0.9145301528
0.9123893035
0.9077800261
0.9034525136
0.9015286718
0.8989600008
0.8932641889
0.8912971731
0.8910939615
0.8897466053
0.8856618486
0.8845942551
0.8853742406
0.8867873845
0.8941220301
0.9227179842
0.9624449554
1.000440265
0.9729342221
0.9684699607
0.9630643056
0.9538330017
0.9483695747
0.945127229
0.9409336916
0.9330504921
0.927481694
0.9245496506
0.9210422441
0.9141401738
0.9090146223
0.9070711736
0.9049219899
0.8999199526
0.896413431
0.8950008266
0.8924453072
0.887451801
0.8857347319
0.8858959628
0.8848430333
0.8837656233
0.8840906747
0.8868185921
0.9016836683
0.9356580949
0.9832615961
1.019010403
1.031218968
0.9635377156
0.9591079801
0.9536508624
0.9443933985
0.9393471566
0.9363136976
0.9321969081
0.924337931
0.9193890429
0.9169200107
0.9135843722
0.9065740709
0.9025945469
0.9015902715
0.8999480435
0.8955666886
0.8931612668
0.8920280039
0.8895607602
0.8853496108
0.8840748204
0.8843434822
0.8841002255
0.8840967979
0.8891155849
0.9104905189
0.9521051814
0.9995726125
1.013855524
1.028371489
1.035596465
0.9547748172
0.9505452867
0.9452543727
0.9366457603
0.9322581923
0.9294828564
0.9255429194
0.9182540325
0.9139689946
0.9117304672
0.908284257
0.9011281307
0.8984084626
0.8974953497
0.8956466455
0.8911220664
0.8895534426
0.8885672054
0.8860322166
0.8825074692
0.8820597016
0.8825701266
0.8837854258
0.8935368114
0.9227150117
0.9685355875
1.009539955
1.033397371
1.032724837
1.034356656
1.035671633
0.9467222528
0.9425527478
0.9372378037
0.9287923541
0.9244855432
0.9216847516
0.917569531
0.9100985618
0.9062288049
0.9042188773
0.9005124524
0.8933687511
0.8915395872
0.8909120748
0.8889367217
0.8848220691
0.8843464284
0.883890693
0.8820638788
0.8810282692
0.8812561422
0.8846581454
0.8981359079
0.9402026338
0.9852551073
1.017992656
1.026663263
1.034799224
1.036903041
1.037225056
1.03688833
0.9366974638
0.9327424797
0.9275190429
0.9191728208
0.9154667269
0.9130853863
0.9090016277
0.901441788
0.8990430457
0.8977817125
0.8946753762
0.889158111
0.8875236319
0.887060614
0.885047178
0.8823184745
0.8825918045
0.88277094
0.8817207478
0.8819472248
0.8869364844
0.9125509474
0.9514992742
0.9913508639
1.016113307
1.032907094
1.032716054
1.034553901
1.036695093
1.037649744
1.03737424
0.9287638638
0.9252992062
0.9202914387
0.9126549325
0.9096347159
0.9076048414
0.903426041
0.8966887233
0.8954569108
0.8944311173
0.8916307019
0.8869608495
0.8857341758
0.8850336119
0.8825837096
0.8809398592
0.881462281
0.8821148062
0.8834030903
0.893788181
0.9230986428
0.9736943813
1.016397526
1.027095376
1.033014384
1.037913055
1.03827374
1.037171806
1.037141395
1.037324911
1.037232043
0.9211770182
0.9176346051
0.9122250701
0.9043239835
0.9020360511
0.9002542578
0.8958151862
0.8899375321
0.8896617234
0.8889674217
0.8863650426
0.8824706022
0.8820871985
0.8813522956
0.8795607133
0.8794636183
0.880181996
0.8844092189
0.9014530386
0.9399528455
0.9898190607
1.008965255
1.028769799
1.032071011
1.035404539
1.038407998
1.039137973
1.038782107
1.038032368
1.037448503
1.037142876
0.9109563219
0.9080993213
0.9025287988
0.8956366309
0.8949381406
0.8937300657
0.8895709841
0.8853640414
0.8854750292
0.885133321
0.88256236
0.8797363192
0.8800946156
0.8799915039
0.8792980892
0.8796101233
0.8871288914
0.9120199067
0.9561888225
1.000510054
1.03044435
1.032146034
1.035298056
1.034811057
1.035171352
1.036485319
1.038016027
1.038506524
1.038168402
1.03782611
1.037397391
0.9049366739
0.9027558067
0.8973778395
0.8922685269
0.8920460623
0.8909982163
0.8872982316
0.8841732655
0.884295198
0.8839192041
0.8815565035
0.8798290797
0.8801416867
0.8801712304
0.8815277241
0.891774171
0.9291785904
0.9719876405
1.00773882
1.02016567
1.032892975
1.037088309
1.0380737
1.037688688
1.036687508
1.036591577
1.036999023
1.037820902
1.038174292
1.038026872
1.037683978
0.898614517
0.8963310325
0.8906670418
0.8867581794
0.8870291317
0.8862500124
0.8833428691
0.8812611428
0.881601858
0.8814032209
0.8798339864
0.8793599952
0.8798287967
0.8836716433
0.9033218854
0.9426129536
0.9911031328
1.022333479
1.034153031
1.032043106
1.034042863
1.036960485
1.038603953
1.038506162
1.038090742
1.037438325
1.037494855
1.037984202
1.038352068
1.038274056
1.037965949
0.8905606669
0.8889805622
0.8848171597
0.8829112285
0.8833619165
0.8827930563
0.8805659456
0.8788823337
0.8790325342
0.8791133441
0.8788585163
0.8796977412
0.8877492656
0.9146648157
0.9596594958
1.006793529
1.018319059
1.029751431
1.037193692
1.036766882
1.036563497
1.037469389
1.038569607
1.038792863
1.038648995
1.038640328
1.038623404
1.038672056
1.038645467
1.038434445
1.038127833
0.8880217052
0.8869058332
0.8839114681
0.882861044
0.8831611169
0.8826417242
0.8806242195
0.8791334613
0.879290697
0.8793514237
0.881198797
0.8951188943
0.9301656397
0.9788938042
1.013991133
1.035734515
1.036337557
1.035607219
1.036568547
1.037898967
1.038434941
1.038538624
1.038739513
1.038826346
1.038903793
1.039078503
1.039115434
1.039053524
1.038903667
1.03861791
1.038351942
0.8850956418
0.8841943624
0.8819741581
0.8817702151
0.8821130281
0.8817745645
0.8804273867
0.8793906933
0.8797248766
0.884827618
0.9054491946
0.9507186531
0.9911368937
1.019498692
1.027336882
1.036972996
1.039716992
1.039354752
1.038334694
1.038645355
1.039281571
1.039492574
1.039412843
1.039257161
1.039148557
1.039290988
1.039390186
1.03934997
1.039151032
1.038882727
1.038724346
0.8813230177
0.8807560008
0.8797830526
0.8798648036
0.8803880035
0.8805177749
0.879972855
0.8810049259
0.888939969
0.9211429597
0.9673650476
1.009080867
1.029704335
1.037437045
1.035545317
1.036845122
1.039580879
1.040183089
1.039730767
1.039501284
1.039697505
1.040107595
1.040267675
1.040120714
1.039887864
1.039624854
1.039449833
1.039434327
1.03940153
1.039428366
1.039466916
0.8809296937
0.8804854884
0.8797535193
0.8798240778
0.8805310121
0.8807666797
0.8833971804
0.8991152895
0.935427542
0.9855243013
1.023225275
1.028609373
1.035504293
1.04026423
1.040051104
1.039339904
1.039750169
1.040450624
1.04041864
1.040295533
1.040307731
1.0404956
1.040944004
1.040924648
1.040750557
1.040456667
1.040119057
1.040048215
1.040095418
1.0402118
1.040344838
0.8811332498
0.8808354173
0.8804189869
0.8805177682
0.8814652158
0.8874431374
0.9123057243
0.9547060328
0.9967406153
1.015968725
1.033400292
1.036130129
1.037921563
1.039913934
1.041285308
1.041200996
1.040854957
1.04093158
1.040994604
1.040965035
1.040889932
1.040895459
1.041156507
1.04149474
1.041460265
1.041350252
1.041117456
1.040965777
1.040994261
1.041050016
1.041148659
0.8807566701
0.8807500623
0.880746554
0.8823371732
0.8941006306
0.9244379306
0.9765538644
1.017787489
1.035918579
1.037004783
1.039713933
1.041598669
1.041388878
1.041402832
1.041836782
1.042156673
1.04204052
1.04186127
1.04176192
1.041658502
1.041511174
1.041427593
1.041525053
1.041855301
1.042109754
1.042109031
1.041990506
1.041845052
1.041845834
1.041861001
1.041903795
0.880523954
0.8808027555
0.8843518708
0.901512885
0.944784238
0.9933450752
1.017607179
1.03046918
1.042513303
1.041600474
1.042031017
1.042635818
1.042988131
1.042653175
1.042720995
1.04288043
1.042868716
1.042789685
1.042685969
1.042519786
1.042298241
1.042176669
1.042200366
1.04238077
1.042653364
1.042740022
1.042676279
1.042564518
1.042541082
1.042530832
1.042551974
0.8816401151
0.8880054507
0.9138418195
0.9582759259
1.001996008
1.036788613
1.041324923
1.039074788
1.041188632
1.041588735
1.042089941
1.042619771
1.043446328
1.043533918
1.04348198
1.04353356
1.043588157
1.043579444
1.043501754
1.043376304
1.043206258
1.043119283
1.043146834
1.043273903
1.043427946
1.043459398
1.043402492
1.04328322
1.043195891
1.04318842
1.0432359
0.8952994753
0.9279625139
0.9809404084
1.023103756
1.035359285
1.043440528
1.045146427
1.044315311
1.043640927
1.043178572
1.042490059
1.042626034
1.043342387
1.044134725
1.044261453
1.044229387
1.044255303
1.044222503
1.044152331
1.044193935
1.044160243
1.044104063
1.044132835
1.044239997
1.044363138
1.044393824
1.044353423
1.044254731
1.044144861
1.044111821
1.044153116
0.946528478
0.9929478838
1.016851309
1.036263366
1.038659371
1.041433636
1.044080329
1.045247822
1.045159443
1.044769722
1.044108158
1.044027311
1.044382483
1.044984503
1.045129704
1.045019623
1.044888947
1.044739236
1.044708279
1.04480585
1.044905982
1.044934154
1.044983221
1.045081144
1.04520793
1.045316921
1.045310795
1.045257779
1.045161073
1.045057409
1.045057038
1.014669989
1.039930618
1.040328575
1.042791701
1.041926561
1.042418425
1.043690589
1.045228253
1.045689484
1.045761173
1.045735519
1.045715356
1.045840319
1.045987615
1.045910976
1.045695799
1.045362082
1.04505668
1.045062729
1.045166729
1.045329946
1.045460692
1.045534011
1.045688941
1.045829177
1.045957186
1.045993742
1.045960449
1.0458825
1.045772709
1.045730945
1.032088115
1.046905745
1.046077704
1.045470006
1.045473958
1.045106892
1.044838107
1.045550291
1.046011858
1.046273267
1.04644507
1.046538045
1.04657706
1.046515066
1.046336616
1.046010927
1.045607783
1.045378621
1.045374274
1.045446706
1.045731798
1.045966346
1.046090782
1.046111447
1.046177081
1.046263944
1.046308827
1.046294686
1.046239827
1.046167893
1.046156765
1.042954802
1.045902665
1.046122748
1.046183528
1.046117067
1.046046723
1.045962812
1.045972047
1.046191676
1.046473588
1.046605033
1.04664543
1.046687155
1.046606607
1.046384439
1.046050926
1.045743098
1.045662223
1.04572987
1.045898033
1.046154742
1.04637427
1.046487114
1.046493076
1.046434586
1.046373054
1.046366005
1.04637575
1.046354753
1.046327333
1.046355644
1.047048725
1.046953013
1.046681403
1.045811002
1.045799987
1.045911487
1.046023047
1.046049372
1.046346149
1.046562008
1.046550551
1.04655268
1.046563419
1.046496994
1.04626956
1.046031609
1.045922991
1.045947264
1.046086014
1.046315267
1.046569317
1.046768714
1.046808051
1.046777493
1.046647804
1.046476936
1.046412154
1.046427451
1.046437899
1.046446011
1.046501749
1.046809238
1.046861
1.0466612
1.045764417
1.044917897
1.04498909
1.045351077
1.045839756
1.046284961
1.046639728
1.046653966
1.046627636
1.046442512
1.046266867
1.046121539
1.046028962
1.045983092
1.046094457
1.046371421
1.04666472
1.046960201
1.047112887
1.047090698
1.046973901
1.04678117
1.046591916
1.046512821
1.046531507
1.046562406
1.046596687
1.046672965
1.046550171
1.046628748
1.046506398
1.045822524
1.045170324
1.045182034
1.045439477
1.045976737
1.046569569
1.046705849
1.046677474
1.046582358
1.046397049
1.046236539
1.04611035
1.046030322
1.046077249
1.046270408
1.046556507
1.046869028
1.047143668
1.047221065
1.047194218
1.047088275
1.04692034
1.046746589
1.046677648
1.046693256
1.046729514
1.046778554
1.046860776
1.046272428
1.04640986
1.046453381
1.0461211
1.045695461
1.045788224
1.046033415
1.046477007
1.047014505
1.047098134
1.04703889
1.046902634
1.046693188
1.046511545
1.046382242
1.046372753
1.046444499
1.046617131
1.046772043
1.046999444
1.047254951
1.047302533
1.047302821
1.047254767
1.047127851
1.046982508
1.046932373
1.046925688
1.046939053
1.046982011
1.04705295
1.046659798
1.046651612
1.046660206
1.04654714
1.04648461
1.046707471
1.047013259
1.047314039
1.047545022
1.047510778
1.047377114
1.04724165
1.047121589
1.046982407
1.046967706
1.047013199
1.047118676
1.047239922
1.0473079
1.047455721
1.047640718
1.047651411
1.047628233
1.04755154
1.047392658
1.047262235
1.047202936
1.047181523
1.047209485
1.047287275
1.047361431
1.04675788
1.046788648
1.046791348
1.046831318
1.046910926
1.0470636
1.047441712
1.047788161
1.04791044
1.047891814
1.04774123
1.047598384
1.047515407
1.047393797
1.047277511
1.047291259
1.047351824
1.047504235
1.047636248
1.047673537
1.047779411
1.047907657
1.047871907
1.047772871
1.047660145
1.047514227
1.04745577
1.047391593
1.047322733
1.047339374
1.047447196
1.047525196
1.046820156
1.046877218
1.046864953
1.046906951
1.046998233
1.047182715
1.04761862
1.048008654
1.048143699
1.048083677
1.04789701
1.047664339
1.047589298
1.047490594
1.047415004
1.047454833
1.04748932
1.047583915
1.047689912
1.047758107
1.04789062
1.047993255
1.04794525
1.047840926
1.047676423
1.047486803
1.04744922
1.047467028
1.047414358
1.047402874
1.047472891
1.047554218
1.047088741
1.047112953
1.047079644
1.047091974
1.047149646
1.047318062
1.047733139
1.048127716
1.048319446
1.048351178
1.048179311
1.047829536
1.047695791
1.047633644
1.047626593
1.047710225
1.047790956
1.047780678
1.047798998
1.047824535
1.048004893
1.048105694
1.048078194
1.047985743
1.04780335
1.04755268
1.047427682
1.047449217
1.047508767
1.047519469
1.047560228
1.047636279
1.047558275
1.04753446
1.047473856
1.047436878
1.047433604
1.047532219
1.047926653
1.048281732
1.048421548
1.048436997
1.048337558
1.048062213
1.047811181
1.047748167
1.047757096
1.047860602
1.04800718
1.04809288
1.047961787
1.047989609
1.048156937
1.048212538
1.048185916
1.048124593
1.047961616
1.04770743
1.04753024
1.047449658
1.047511611
1.047645219
1.047728528
1.047779527
1.04776307
1.047813749
1.04778949
1.047728481
1.047734425
1.047919699
1.048220393
1.04843446
1.048504873
1.04847344
1.0483324
1.04820208
1.047970238
1.047846992
1.047850206
1.047950079
1.048110468
1.048303413
1.048285695
1.048225125
1.048336509
1.048378054
1.048301052
1.048211813
1.048104673
1.047873896
1.047715602
1.047583518
1.047557448
1.047721304
1.047929568
1.047984923
1.047738803
1.047899
1.047927615
1.047886266
1.047899605
1.048176343
1.048597782
1.048771404
1.048734612
1.048546055
1.048296484
1.048189872
1.048110573
1.04799927
1.047973959
1.048019672
1.048155386
1.048400719
1.048511504
1.048520521
1.04860041
1.048582774
1.048472903
1.048322539
1.048185049
1.048042485
1.047923862
1.047811245
1.047736573
1.047830387
1.04807069
1.048214129
1.047668294
1.047935001
1.048016694
1.047978065
1.047974569
1.048270468
1.048722628
1.048945812
1.048960387
1.048785433
1.048362968
1.048153041
1.048125175
1.048109451
1.048123346
1.04819078
1.048250979
1.048412583
1.048597932
1.048722555
1.048863177
1.048855391
1.048733789
1.048501386
1.048301993
1.048138798
1.048123208
1.048044825
1.047961724
1.048038438
1.048204983
1.048404781
1.047601816
1.047932558
1.048087474
1.048076357
1.048078409
1.048352756
1.048730237
1.048961558
1.049038014
1.048942185
1.04854912
1.048172381
1.048107105
1.048156709
1.048215794
1.048339128
1.048455224
1.048532613
1.048624456
1.048805225
1.049014385
1.049052201
1.048983
1.048782897
1.048498209
1.048284057
1.048226823
1.048216627
1.048221134
1.048290804
1.048423827
1.048558267
1.047577076
1.047902436
1.048100207
1.048156889
1.048193877
1.048447973
1.048785656
1.048981395
1.049030804
1.048976449
1.048743086
1.048309405
1.048162203
1.048202061
1.048258025
1.048412191
1.048611124
1.048728051
1.048718277
1.048852317
1.049102588
1.049165603
1.049143321
1.048996097
1.048772858
1.048498906
1.048377327
1.048338042
1.048446284
1.048560625
1.048652754
1.048732653
1.047563916
1.047774589
1.048012963
1.048195217
1.048307158
1.048332384
1.048625099
1.048867944
1.048988808
1.049005496
1.048929671
1.048833008
1.048541703
1.048319963
1.048318416
1.048344366
1.048470899
1.048682318
1.04888736
1.048884919
1.048966759
1.049176814
1.04919016
1.049213993
1.0491514
1.048947647
1.048771311
1.048608584
1.048515143
1.048603149
1.048773301
1.048892632
1.048886986
1.047910244
1.048137501
1.048242702
1.04832811
1.048378834
1.048499482
1.048884038
1.04906303
1.049085209
1.049096341
1.048988338
1.048885152
1.048709855
1.048531994
1.048493937
1.048509806
1.04857093
1.048733555
1.048989063
1.049061592
1.049172341
1.049295849
1.049281364
1.049236714
1.049224727
1.049114346
1.048960305
1.048872909
1.048744692
1.048764925
1.048898779
1.049105194
1.049159805
1.048114357
1.048406005
1.048487847
1.048444289
1.048448134
1.04859514
1.049028566
1.049307272
1.049345442
1.049332412
1.049055161
1.048776152
1.048794529
1.048695918
1.04868269
1.048723785
1.048770553
1.048860651
1.049082642
1.049210215
1.049365059
1.0494695
1.049440018
1.049336866
1.049251346
1.049192618
1.049146631
1.049085474
1.049002634
1.048928574
1.0490447
1.049288397
1.049437811
1.048244433
1.048601699
1.048662383
1.048574862
1.04849775
1.048629615
1.049041493
1.049512239
1.04958947
1.049538305
1.049254577
1.04885703
1.048767148
1.048810458
1.048835276
1.048907725
1.048994537
1.049043371
1.049154373
1.049299998
1.049504215
1.049610581
1.049609282
1.04952818
1.049376388
1.049252074
1.049225866
1.04925032
1.049221296
1.04917652
1.049245207
1.049418704
1.049677263
1.048074761
1.048624612
1.048830132
1.048736212
1.048617517
1.04883692
1.049160811
1.049473305
1.049658197
1.049675312
1.04944222
1.049015968
1.048804394
1.048830149
1.048914229
1.049052289
1.049160964
1.049251321
1.049316616
1.049401142
1.04958383
1.049755488
1.049786189
1.049726152
1.049594388
1.049419438
1.04932676
1.049295485
1.049337691
1.049426135
1.049489332
1.049612118
1.049808306
1.048095469
1.048459788
1.048891076
1.048931116
1.048861719
1.049111383
1.049394933
1.049593008
1.049637732
1.049628841
1.049567268
1.049225506
1.048929508
1.04887081
1.048897074
1.049042491
1.049273413
1.049439149
1.049535602
1.049554561
1.049690775
1.049803757
1.049890335
1.0499263
1.049814751
1.049669098
1.04951935
1.049432279
1.049374204
1.049566773
1.049766142
1.049816984
1.049904535
1.048273754
1.048515049
1.048800928
1.0490791
1.049168259
1.049408345
1.049702048
1.049790164
1.049770603
1.049629364
1.049441512
1.049393013
1.049185037
1.04901088
1.048996931
1.049052831
1.049196785
1.049520614
1.049740757
1.049765074
1.049854326
1.049901654
1.049898946
1.049995007
1.050020862
1.049897525
1.049783051
1.049626595
1.049530417
1.049610851
1.049984158
1.050092287
1.050109273
1.048671231
1.048789111
1.048875459
1.049067346
1.049263045
1.049519708
1.049897802
1.050058044
1.050027576
1.049817174
1.049428308
1.049356073
1.049362265
1.049250421
1.049197305
1.049210546
1.049242898
1.049423577
1.049828272
1.049977415
1.0500899
1.05007371
1.050026939
1.049988036
1.050052095
1.050091796
1.050019806
1.049893467
1.04975699
1.049804729
1.050017849
1.050321403
1.048497117
1.049082123
1.049225453
1.049187894
1.049170218
1.04922881
1.049459085
1.049822363
1.050205289
1.050292158
1.050133024
1.049606769
1.049317738
1.049323806
1.049393089
1.049437695
1.049494616
1.049429132
1.049505646
1.049731765
1.050092011
1.050309957
1.050323424
1.050242297
1.050131834
1.050049171
1.050078729
1.050168122
1.050141342
1.050043396
1.050060466
1.050153538
1.050380163
1.048698816
1.049214076
1.049606901
1.049587333
1.049416941
1.04942203
1.049668225
1.04991898
1.050151547
1.050309951
1.050331733
1.049928648
1.049461705
1.049312816
1.049321828
1.04948104
1.049711058
1.049736779
1.04972418
1.049823846
1.050018069
1.050381137
1.050539667
1.05051272
1.050383061
1.050211346
1.050115065
1.050119172
1.050236813
1.050309006
1.050360897
1.050366749
1.050479462
1.048889392
1.049331559
1.04969498
1.049831509
1.049712934
1.049690009
1.049989125
1.050177219
1.050272063
1.050250349
1.050208216
1.050156961
1.049763913
1.049480046
1.049401078
1.049416171
1.049663689
1.049947191
1.050057183
1.050053862
1.050136437
1.050318758
1.050535977
1.050710873
1.050676102
1.050501469
1.050302318
1.050207331
1.050192538
1.05038885
1.050601769
1.050657096
1.050681039
1.049127625
1.049583262
1.049783252
1.049901575
1.049912401
1.049945511
1.050358774
1.050578462
1.050584491
1.050490794
1.050182286
1.05005993
1.050027328
1.04978913
1.049624539
1.049588448
1.049634864
1.049881326
1.050283247
1.050400431
1.050397039
1.050479306
1.050515862
1.05065178
1.050835934
1.050784317
1.050626621
1.050422923
1.050329489
1.050360702
1.050618746
1.050856975
1.050852537
1.049463897
1.049983023
1.05006563
1.050062218
1.050031322
1.050100846
1.050521574
1.050965834
1.051036131
1.050897092
1.050438396
1.050025152
1.049980653
1.05001227
1.049952384
1.049901943
1.049861009
1.049905446
1.050220163
1.050646358
1.050773479
1.050788423
1.050722446
1.050685999
1.050726481
1.05087448
1.050880606
1.050761582
1.050585816
1.050515732
1.050576447
1.050841726
1.050981461
1.049807045
1.050393058
1.050501998
1.050417554
1.050303684
1.050382817
1.050645883
1.051077246
1.051322622
1.051302408
1.050877809
1.050245106
1.049971005
1.049957448
1.050080329
1.050239279
1.050221555
1.050157021
1.050254188
1.050607327
1.051015303
1.051158686
1.051076153
1.050922038
1.050796005
1.05076449
1.050873981
1.05096446
1.05090175
1.050756165
1.050697187
1.050784802
1.051044482
1.050033895
1.05058507
1.050899406
1.050886539
1.050727274
1.050791362
1.050964962
1.051148319
1.051297893
1.05138221
1.05125919
1.050667955
1.050211725
1.050058101
1.050034956
1.050275501
1.050554868
1.050543799
1.050515683
1.050657606
1.050956228
1.051298142
1.051409539
1.051310609
1.051057174
1.050885316
1.050807037
1.050868824
1.051013682
1.051011341
1.050958942
1.050971564
1.051036519
1.05022038
1.050589351
1.050949546
1.051153638
1.051160004
1.051280408
1.051447885
1.051482573
1.051448065
1.051274456
1.051263442
1.051086025
1.050611787
1.050319168
1.050216078
1.050266123
1.050598354
1.05091224
1.050929545
1.0509327
1.051032869
1.051183052
1.051451946
1.051610352
1.051475769
1.051192243
1.050990652
1.050875283
1.050883636
1.051131717
1.051295483
1.051267982
1.051199513
1.0499907
1.050470775
1.050781218
1.050924473
1.05105003
1.051230532
1.051561143
1.051911576
1.051958847
1.051817445
1.051439349
1.051102692
1.051129926
1.050992715
1.050736457
1.050561772
1.050523367
1.050583626
1.050963879
1.051330157
1.051353037
1.051320971
1.051316616
1.051365506
1.05157486
1.051739306
1.051630004
1.051346991
1.051104116
1.050969073
1.051101408
1.051502356
1.051625999
1.051534024
1.050226578
1.050815536
1.051145051
1.051176742
1.051125552
1.051127943
1.051470796
1.052049186
1.052297777
1.052280074
1.051819023
1.051226422
1.050978942
1.051058139
1.051071976
1.051019877
1.050958933
1.05085511
1.050941751
1.05140364
1.051738277
1.05175924
1.051647496
1.051556708
1.051524587
1.051641841
1.051836756
1.051754438
1.051505603
1.051252834
1.05126489
1.05152899
1.051927878
1.051972163
1.050558233
1.051201362
1.05163969
1.051621193
1.051475211
1.051377497
1.051538069
1.051825157
1.052175059
1.052432027
1.05224372
1.051558812
1.051085459
1.050989836
1.051040572
1.051224727
1.05140886
1.051283617
1.05119206
1.051362293
1.05179883
1.052100553
1.052104886
1.051932606
1.051740493
1.051634047
1.051694898
1.051884012
1.051881903
1.051710995
1.051621543
1.051742355
1.052049483
1.052245008
1.050929918
1.051475387
1.052033895
1.052137304
1.052024905
1.051844262
1.051884858
1.051970873
1.052000507
1.052032197
1.052254595
1.052000657
1.05142749
1.051166764
1.051090538
1.051127772
1.051503599
1.051705693
1.051611778
1.051604194
1.051758033
1.052084633
1.052355221
1.052380342
1.052143572
1.051877797
1.051746355
1.051734732
1.051933331
1.052082847
1.052143419
1.0521219
1.052214308
1.052325126
1.051169836
1.051651467
1.052077964
1.052384765
1.052434716
1.052364157
1.052361835
1.052275776
1.05211842
1.051852209
1.051882115
1.052194338
1.051925275
1.05156273
1.051369433
1.051291145
1.05139187
1.05180603
1.052075701
1.052023441
1.052000193
1.052081519
1.052256372
1.052538381
1.052563108
1.052298959
1.052004552
1.051826529
1.051799074
1.052104266
1.052462769
1.052589693
1.052511218
1.052444032
1.051364167
1.051921205
1.052120016
1.052266672
1.052368197
1.052469052
1.052600259
1.052673932
1.05254434
1.052208039
1.051881822
1.051944724
1.052121899
1.052004867
1.051824638
1.051651073
1.051590187
1.05169254
1.052211302
1.052494759
1.052427008
1.052354878
1.052312053
1.05239819
1.052628651
1.052662174
1.052429705
1.052122804
1.051957324
1.051991176
1.05238086
1.052824862
1.052869448
1.052674815
1.051646567
1.05229801
1.052415412
1.052371343
1.052201096
1.052160223
1.052453039
1.052893994
1.053047041
1.052771149
1.052103401
1.051875136
1.051893174
1.052046466
1.052132081
1.052122507
1.051993756
1.051891871
1.052078493
1.052633335
1.052880456
1.052813393
1.052624204
1.052504402
1.052476061
1.052630938
1.0527233
1.052549678
1.052269122
1.052137536
1.052220819
1.052644911
1.053030244
1.053018692
1.051934121
1.052707789
1.052831894
1.052673519
1.052373422
1.052220704
1.052369201
1.05264337
1.05299313
1.053094641
1.052636526
1.052165082
1.051923424
1.051899317
1.052023701
1.052296039
1.052430423
1.05226089
1.052222236
1.052465247
1.05297136
1.053191619
1.053111678
1.052847721
1.052608111
1.052505493
1.052585312
1.052734971
1.052635373
1.052408079
1.052298467
1.052477705
1.052806806
1.051989076
1.052206393
1.052978661
1.053250993
1.053136998
1.052819555
1.052606655
1.052617932
1.052591829
1.052643383
1.052919659
1.05306076
1.052534357
1.052141931
1.052033986
1.052016324
1.052139387
1.052511531
1.05265828
1.052544992
1.052582107
1.052804016
1.053139746
1.053396184
1.053324268
1.052976721
1.052659875
1.052496617
1.052511207
1.052717622
1.052730651
1.052582066
1.052583466
1.052688126
1.052162133
1.052427503
1.053003309
1.053419645
1.053482374
1.053342427
1.053233749
1.053198075
1.053098441
1.052875216
1.052690952
1.052805287
1.052731518
1.052465539
1.052333559
1.052269446
1.052253825
1.052388159
1.05277618
1.052974769
1.052924844
1.052937909
1.053013913
1.053229748
1.053515181
1.053426859
1.053061354
1.052724508
1.05249482
1.052463556
1.052763038
1.052972569
1.052921633
1.052885746
1.052320718
1.052691881
1.053173657
1.05334989
1.053434081
1.053493567
1.053648283
1.053752086
1.053706163
1.053269327
1.052662511
1.052542916
1.052660456
1.052664892
1.052656328
1.052659543
1.052608167
1.052534936
1.05269618
1.053205146
1.053391147
1.053313931
1.053217472
1.053175893
1.053282404
1.053516942
1.053488371
1.05317075
1.052755109
1.052477984
1.052584764
1.053071202
1.053349468
1.053271513
1.052620217
1.053074764
1.053573319
1.053560826
1.053469913
1.053332864
1.053416029
1.053632501
1.053759257
1.053565339
1.053074864
1.052689506
1.052556897
1.052605987
1.05271444
1.052887695
1.053059214
1.052926611
1.052878751
1.053169211
1.053662783
1.05376884
1.053628679
1.053417751
1.053267768
1.053264392
1.053472837
1.053524264
1.053244564
1.052843162
1.05274464
1.05301152
1.053513831
1.053673139
1.052987198
1.053505414
1.054089516
1.054004141
1.053756373
1.053367483
1.053211266
1.053269501
1.053491728
1.053787249
1.05368251
1.053065685
1.052720882
1.052672761
1.052687492
1.052807714
1.053188863
1.053384473
1.053273666
1.053311219
1.053632221
1.053954629
1.054021923
1.053840214
1.053536088
1.053281165
1.053246499
1.053432012
1.053591124
1.053420396
1.053148096
1.053194463
1.053495865
1.053830562
1.053353236
1.053897096
1.054539593
1.054508126
1.054222831
1.053781129
1.053560724
1.053489967
1.05341746
1.053566482
1.053814116
1.053556158
1.053179532
1.052999092
1.052912577
1.052879068
1.053045786
1.053467549
1.053701902
1.053653448
1.053697017
1.053866378
1.054088468
1.054158099
1.053948145
1.053557867
1.053319918
1.053253883
1.053407017
1.053669921
1.054185027
1.054680592
)
;

boundaryField
{
    inlet
    {
        type            fixedValue;
        value           nonuniform 0();
    }
    outlet
    {
        type            inletOutlet;
        inletValue      nonuniform 0();
        value           nonuniform 0();
    }
    bottom
    {
        type            slip;
    }
    top
    {
        type            slip;
    }
    obstacle
    {
        type            zeroGradient;
    }
    defaultFaces
    {
        type            empty;
    }
    procBoundary10to4
    {
        type            processor;
        value           nonuniform List<scalar> 
32
(
0.8867106742
0.8863143894
0.8884852887
0.9007793122
0.9895607396
0.9849161234
0.9796199985
0.9699936724
0.9638904156
0.9604957601
0.9562131343
0.9478728749
0.9413591498
0.9381607584
0.9346811558
0.9277043001
0.9219540492
0.9199243398
0.9178524075
0.9134352075
0.908849843
0.9067488897
0.9044220483
0.8990094333
0.8963969335
0.8958544501
0.8944245133
0.8900425717
0.887355906
0.8876196696
0.8875269917
0.8875269917
)
;
    }
    procBoundary10to5
    {
        type            processor;
        value           uniform 0.9956794704;
    }
    procBoundary10to9
    {
        type            processor;
        value           nonuniform List<scalar> 
55
(
0.9887149021
0.980055975
0.970497027
0.9612014767
0.9527500114
0.9426239752
0.9335305291
0.9259241198
0.9149238965
0.9076086874
0.9006490618
0.8909961272
0.8879756567
0.8849190095
0.8812647386
0.8808562245
0.8811923965
0.8807605951
0.8804775171
0.8809004867
0.883520793
0.9063020429
0.9659540397
1.012808233
1.043191276
1.046394144
1.046032383
1.04641042
1.046349799
1.046717799
1.046717799
1.046626727
1.046644577
1.046978537
1.047356289
1.04747856
1.047424528
1.047335289
1.047266527
1.047299089
1.047299089
1.047116903
1.047407058
1.047598701
1.047724733
1.047660091
1.047712729
1.047860162
1.048183285
1.048183285
1.048334909
1.048581485
1.048736182
1.048926273
1.049130234
)
;
    }
    procBoundary10to11
    {
        type            processor;
        value           nonuniform List<scalar> 
70
(
1.017609778
1.031828126
1.034577611
1.035131497
1.036009475
1.036916302
1.037116358
1.037076358
1.037003401
1.037201977
1.037564445
1.0379265
1.038233528
1.038658542
1.039452942
1.040388891
1.04126185
1.042019129
1.042648249
1.043371024
1.04426285
1.04511391
1.045763072
1.046210195
1.046466585
1.046644254
1.046821867
1.046995165
1.047159499
1.047425904
1.047570166
1.04759371
1.047685716
1.047825978
1.048017279
1.048247569
1.048453881
1.048606315
1.048741829
1.048914588