/*--------------------------------*- C++ -*----------------------------------*\
  =========                 |
  \\      /  F ield         | OpenFOAM: The Open Source CFD Toolbox
   \\    /   O peration     | Website:  https://openfoam.org
    \\  /    A nd           | Version:  7
     \\/     M anipulation  |
\*---------------------------------------------------------------------------*/
FoamFile
{
    version     2.0;
    format      ascii;
    class       volVectorField;
    location    "1.3";
    object      U;
}
// * * * * * * * * * * * * * * * * * * * * * * * * * * * * * * * * * * * * * //

dimensions      [0 1 -1 0 0 0 0];

internalField   nonuniform List<vector> 
2222
(
(2.890795794 -0.2504443941 0)
(2.88998043 -0.251389188 0)
(2.889251419 -0.2514269422 0)
(2.890262838 -0.2516148732 0)
(2.891879451 -0.2525491818 0)
(2.892475794 -0.2527802828 0)
(2.893371503 -0.2525939153 0)
(2.894178903 -0.2513851866 0)
(2.895114506 -0.2483932118 0)
(2.896833727 -0.2429156091 0)
(2.899773472 -0.2349773904 0)
(2.904762428 -0.2231784985 0)
(2.910667728 -0.2106319935 0)
(2.918596824 -0.1952330226 0)
(2.927411892 -0.1752822488 0)
(3 5.332280213e-15 0)
(3 -3.788035539e-15 0)
(3 -1.05197819e-14 0)
(3 -1.421793868e-14 0)
(3 -7.91469684e-15 0)
(3 -5.785918815e-14 0)
(3 -3.049295258e-12 0)
(3 -3.870232139e-10 0)
(2.999999994 -1.594492433e-08 0)
(2.999999797 -5.170538824e-07 0)
(2.99999494 -1.317965511e-05 0)
(2.999936743 -0.0001645457171 0)
(2.999194652 -0.002023174124 0)
(2.996370687 -0.009787209615 0)
(2.979706578 -0.04914816933 0)
(2.967244414 -0.09076205833 0)
(2.92424646 -0.2045001474 0)
(2.912924614 -0.2220468266 0)
(2.909046774 -0.236395272 0)
(2.897704082 -0.2455448202 0)
(2.894894135 -0.2520809238 0)
(2.891902111 -0.2513057785 0)
(2.889064193 -0.2514088189 0)
(2.889210101 -0.2519585358 0)
(2.890407089 -0.2519494314 0)
(2.892086185 -0.2524668529 0)
(2.89262983 -0.252681802 0)
(2.893292257 -0.2525241495 0)
(2.893916352 -0.2515319869 0)
(2.894670912 -0.2489179628 0)
(2.896283853 -0.2437731009 0)
(2.899241964 -0.2358902994 0)
(2.903949156 -0.2251824316 0)
(2.910732623 -0.2103338271 0)
(2.917618473 -0.1970768012 0)
(2.927063208 -0.178494565 0)
(2.935212998 -0.158775593 0)
(3 2.989395631e-15 0)
(3 -4.907436462e-15 0)
(3 -4.107231893e-15 0)
(3 -1.099836785e-14 0)
(3 -3.18408283e-14 0)
(3 -4.014995022e-12 0)
(3 -2.744740058e-10 0)
(2.999999994 -1.403667822e-08 0)
(2.99999978 -5.750878661e-07 0)
(2.99999603 -1.018296125e-05 0)
(2.999920403 -0.0002071144092 0)
(2.999402178 -0.001580222365 0)
(2.994886381 -0.01223501031 0)
(2.985438783 -0.04083261701 0)
(2.955681714 -0.1143732262 0)
(2.933281833 -0.1634054747 0)
(2.920379999 -0.2135445657 0)
(2.903821302 -0.2548455993 0)
(2.897307744 -0.2502754769 0)
(2.892637068 -0.249934177 0)
(2.890606941 -0.2507242777 0)
(2.889957553 -0.2517538508 0)
(2.88974241 -0.2518863099 0)
(2.89087692 -0.2518007198 0)
(2.892207849 -0.2525217568 0)
(2.892717519 -0.252649211 0)
(2.89334414 -0.2524546272 0)
(2.893793224 -0.2515364296 0)
(2.894371422 -0.249133392 0)
(2.895714475 -0.2445317032 0)
(2.898711392 -0.236638981 0)
(2.903244368 -0.2263719347 0)
(2.909980401 -0.2124907421 0)
(2.917811519 -0.1957977709 0)
(2.92531352 -0.1823411719 0)
(2.935962771 -0.1597455308 0)
(2.943176137 -0.1408138394 0)
(3 1.183386358e-15 0)
(3 -5.413216238e-15 0)
(3 -9.514963444e-15 0)
(3 -3.592296332e-14 0)
(3 -1.257012675e-12 0)
(3 -2.650641889e-10 0)
(2.999999995 -1.201312089e-08 0)
(2.999999822 -4.473319815e-07 0)
(2.999995405 -1.189673882e-05 0)
(2.999939303 -0.0001573767561 0)
(2.999215308 -0.00197039549 0)
(2.996323377 -0.009904423986 0)
(2.979505854 -0.049323031 0)
(2.967030219 -0.09279423877 0)
(2.923781038 -0.2068595932 0)
(2.915170087 -0.2204958527 0)
(2.907900047 -0.2370378322 0)
(2.896705714 -0.2449644444 0)
(2.894158816 -0.2519939123 0)
(2.891570684 -0.2513707948 0)
(2.889092128 -0.251756672 0)
(2.889667573 -0.2520901049 0)
(2.89127614 -0.2520476544 0)
(2.892497876 -0.252556248 0)
(2.89295165 -0.2526820177 0)
(2.893412692 -0.2525522871 0)
(2.893677611 -0.2517303744 0)
(2.894062707 -0.2494907299 0)
(2.895237729 -0.245076123 0)
(2.897922758 -0.2378237144 0)
(2.90272056 -0.2268528047 0)
(2.908802755 -0.2146611201 0)
(2.91744737 -0.1972273326 0)
(2.925611165 -0.1798198757 0)
(2.933846717 -0.1651397491 0)
(2.944826927 -0.1389223349 0)
(2.950389899 -0.1234725187 0)
(3 2.209028964e-15 0)
(3 -1.318771662e-14 0)
(3 -2.189103822e-14 0)
(3 -1.55362187e-12 0)
(3 -1.289585696e-10 0)
(2.999999996 -9.383649605e-09 0)
(2.999999828 -4.432424608e-07 0)
(2.999996613 -8.526537068e-06 0)
(2.999926011 -0.0001911578918 0)
(2.999429877 -0.001489759354 0)
(2.994848004 -0.01227439711 0)
(2.985512673 -0.04040309479 0)
(2.954552525 -0.1172046944 0)
(2.934995609 -0.1629088433 0)
(2.919098236 -0.2168863858 0)
(2.90425496 -0.25550745 0)
(2.896880748 -0.2497782022 0)
(2.891284662 -0.2494476487 0)
(2.890246414 -0.2506034514 0)
(2.890038788 -0.2519777549 0)
(2.890104865 -0.2521916797 0)
(2.891382793 -0.2522450214 0)
(2.892551572 -0.2528352189 0)
(2.892912276 -0.2529322989 0)
(2.893371128 -0.252767933 0)
(2.893641283 -0.2519252464 0)
(2.893889626 -0.2498060072 0)
(2.894912695 -0.2454863208 0)
(2.897300632 -0.2386259477 0)
(2.90184497 -0.2282086152 0)
(2.908301917 -0.2145961558 0)
(2.915885773 -0.2004652484 0)
(2.925955747 -0.1791284701 0)
(2.933539297 -0.1629173693 0)
(2.942230598 -0.1469640716 0)
(2.952815421 -0.1181733639 0)
(2.957586878 -0.104918585 0)
(3 -3.089295986e-15 0)
(3 -1.805403612e-14 0)
(3 -1.770306774e-13 0)
(3 -1.136945939e-10 0)
(2.999999998 -6.420230323e-09 0)
(2.999999874 -3.172112117e-07 0)
(2.99999637 -9.380007104e-06 0)
(2.999946485 -0.0001379711412 0)
(2.999269531 -0.001822161944 0)
(2.996379004 -0.009680648732 0)
(2.97947515 -0.04863238809 0)
(2.966693236 -0.09374914255 0)
(2.923351964 -0.2092702143 0)
(2.916846122 -0.2187378388 0)
(2.905975598 -0.2383052758 0)
(2.896933316 -0.2459659475 0)
(2.89433334 -0.2518807491 0)
(2.890845151 -0.250837207 0)
(2.889082932 -0.2512844414 0)
(2.890116366 -0.2518602163 0)
(2.891783098 -0.2523387895 0)
(2.892806363 -0.2529080848 0)
(2.892962267 -0.2531178686 0)
(2.89311816 -0.2530357539 0)
(2.89316136 -0.2523044902 0)
(2.893325559 -0.2503144515 0)
(2.894238443 -0.2462736588 0)
(2.896691317 -0.239256268 0)
(2.900865112 -0.2296440789 0)
(2.907653775 -0.2153686478 0)
(2.915228856 -0.2001997902 0)
(2.924114013 -0.1838455639 0)
(2.934431436 -0.1597055685 0)
(2.941215186 -0.145507129 0)
(2.951257197 -0.1255151677 0)
(2.960853661 -0.09520618282 0)
(2.964683308 -0.08607208356 0)
(3 -1.077059428e-14 0)
(3 -2.017451616e-13 0)
(3 -2.217672067e-11 0)
(2.999999998 -4.268644867e-09 0)
(2.999999896 -2.672363347e-07 0)
(2.999997496 -6.230235088e-06 0)
(2.999937089 -0.0001633331855 0)
(2.999486433 -0.001337802859 0)
(2.994966425 -0.01198956637 0)
(2.985913503 -0.03940329737 0)
(2.953284996 -0.1189035493 0)
(2.93684257 -0.1605574628 0)
(2.91726833 -0.220490762 0)
(2.902502267 -0.2557061819 0)
(2.895585743 -0.2501003887 0)
(2.890889543 -0.2497990205 0)
(2.890204019 -0.2507668929 0)
(2.889941603 -0.251634224 0)
(2.89048613 -0.2518109494 0)
(2.891994943 -0.2523252747 0)
(2.893161854 -0.2529068754 0)
(2.893306848 -0.2530182206 0)
(2.893248498 -0.2529204271 0)
(2.892898515 -0.252333431 0)
(2.892715596 -0.2505959687 0)
(2.893371755 -0.2469365807 0)
(2.895695953 -0.2402731314 0)
(2.900025375 -0.2303112403 0)
(2.906276104 -0.217714157 0)
(2.914894737 -0.1997793968 0)
(2.922907808 -0.1844557565 0)
(2.933194186 -0.1643477325 0)
(2.94296443 -0.1384145199 0)
(2.949028085 -0.1264751871 0)
(2.959941964 -0.1030638046 0)
(2.967905086 -0.07445711913 0)
(2.971584372 -0.06750152001 0)
(3 -1.312258271e-14 0)
(3 -1.991402774e-11 0)
(2.999999999 -1.619863044e-09 0)
(2.999999935 -1.614324622e-07 0)
(2.999997638 -6.04455462e-06 0)
(2.999957171 -0.0001089200051 0)
(2.999357764 -0.001597230815 0)
(2.996525468 -0.009251069614 0)
(2.979822343 -0.04740357086 0)
(2.96662491 -0.09599592305 0)
(2.923027218 -0.2091907048 0)
(2.918863742 -0.2161392647 0)
(2.903670831 -0.2380789828 0)
(2.8950858 -0.2473421564 0)
(2.89349193 -0.2526723078 0)
(2.890423284 -0.2513555804 0)
(2.889213807 -0.2517878952 0)
(2.89072456 -0.2518943944 0)
(2.892491317 -0.2524040825 0)
(2.893447649 -0.2529815057 0)
(2.893672333 -0.2529982006 0)
(2.893569048 -0.2527898863 0)
(2.8930437 -0.252180236 0)
(2.892538725 -0.2506557093 0)
(2.8928648 -0.2472911056 0)
(2.894770769 -0.2412766967 0)
(2.899085873 -0.2313023452 0)
(2.905213313 -0.2188288909 0)
(2.913547487 -0.2027157528 0)
(2.923145132 -0.1818868963 0)
(2.931352838 -0.1666166163 0)
(2.942866046 -0.1417304449 0)
(2.950893924 -0.1176141309 0)
(2.956428394 -0.1077752517 0)
(2.968902768 -0.07880477917 0)
(2.975774509 -0.0517460301 0)
(2.979561144 -0.04640468271 0)
(3 -1.201872273e-14 0)
(3 -9.189078128e-10 0)
(2.999999964 -9.650673985e-08 0)
(2.999998586 -3.486570942e-06 0)
(2.999953833 -0.0001204315258 0)
(2.999572656 -0.001098098515 0)
(2.995276583 -0.01120756643 0)
(2.986530218 -0.03744625828 0)
(2.952473567 -0.120563858 0)
(2.939394313 -0.1589318185 0)
(2.914481277 -0.2260783367 0)
(2.901939425 -0.255666139 0)
(2.894185162 -0.2496439801 0)
(2.889627083 -0.2500092703 0)
(2.889884909 -0.2513436838 0)
(2.890116304 -0.2520751327 0)
(2.891154261 -0.2521174863 0)
(2.892789456 -0.2526611816 0)
(2.893535194 -0.2531640307 0)
(2.8939087 -0.2531621211 0)
(2.893834615 -0.2528856078 0)
(2.893297228 -0.2521971787 0)
(2.892713703 -0.2506982958 0)
(2.89281541 -0.2475519466 0)
(2.89444237 -0.2418090842 0)
(2.89823596 -0.2327679331 0)
(2.904643612 -0.2192348323 0)
(2.912288446 -0.2046782683 0)
(2.922562152 -0.1839785765 0)
(2.931917122 -0.1624214084 0)
(2.940102528 -0.1475888857 0)
(2.952323165 -0.1179081556 0)
(2.959093686 -0.09626950495 0)
(2.965221396 -0.08554027894 0)
(2.978346946 -0.05207589916 0)
(2.983398017 -0.03040865307 0)
(2.987055645 -0.02710359307 0)
(3 -5.004332764e-14 0)
(2.999999984 -3.758755412e-08 0)
(2.999998936 -2.734581597e-06 0)
(2.999971841 -7.112900842e-05 0)
(2.999487352 -0.00128516617 0)
(2.996860307 -0.008400683033 0)
(2.980596994 -0.04501342797 0)
(2.966922987 -0.09561290168 0)
(2.922634143 -0.2093495398 0)
(2.919435695 -0.2151736467 0)
(2.901237959 -0.2384337271 0)
(2.894100904 -0.2492012259 0)
(2.892172508 -0.2521076701 0)
(2.888852313 -0.2511911397 0)
(2.889076423 -0.2518452319 0)
(2.891408319 -0.2523150717 0)
(2.893073174 -0.2530314424 0)
(2.893568667 -0.2533717446 0)
(2.893818345 -0.25352278 0)
(2.893687696 -0.253252808 0)
(2.893227479 -0.2524335263 0)
(2.892817119 -0.2507903622 0)
(2.892943739 -0.2478040247 0)
(2.894508624 -0.2422587571 0)
(2.89808745 -0.2336084157 0)
(2.904243828 -0.2206960922 0)
(2.912286008 -0.204055618 0)
(2.921047757 -0.1877346585 0)
(2.932443651 -0.1625300198 0)
(2.94082965 -0.1426268457 0)
(2.949871734 -0.1256310426 0)
(2.962436359 -0.09103375981 0)
(2.967741102 -0.07422431458 0)
(2.974183674 -0.0634052886 0)
(2.986959412 -0.0273234598 0)
(2.991195794 -0.009888834394 0)
(2.995388208 -0.005235284957 0)
(3 -6.815303002e-11 0)
(2.999999626 -8.599317187e-07 0)
(2.999974581 -6.539940005e-05 0)
(2.999689618 -0.0007801639576 0)
(2.995758934 -0.01011638246 0)
(2.987701038 -0.03508715302 0)
(2.951997513 -0.1205803748 0)
(2.941848204 -0.1571831179 0)
(2.910116895 -0.2305244551 0)
(2.900452765 -0.2543872696 0)
(2.892287465 -0.2488394316 0)
(2.888019054 -0.2498212615 0)
(2.888519644 -0.2517630737 0)
(2.888953167 -0.2523862879 0)
(2.890690453 -0.2524535233 0)
(2.892779621 -0.2532436893 0)
(2.893368155 -0.2537255815 0)
(2.893579598 -0.25380227 0)
(2.893325943 -0.2536047146 0)
(2.892759958 -0.2528584272 0)
(2.892456985 -0.2511246643 0)
(2.892699731 -0.2482016005 0)
(2.894236248 -0.2430525786 0)
(2.898061858 -0.2342182726 0)
(2.904043593 -0.2222186078 0)
(2.912576509 -0.2048135463 0)
(2.921323021 -0.1867731279 0)
(2.931176563 -0.1679274375 0)
(2.943088179 -0.1382212658 0)
(2.950500534 -0.1208112438 0)
(2.960622601 -0.10087546 0)
(2.971767338 -0.06546578846 0)
(2.976135769 -0.05390662839 0)
(2.983864073 -0.03986842241 0)
(2.996229852 -0.000594464993 0)
(2.999815051 0.0129903718 0)
(3.004379402 0.01835009659 0)
(2.999999992 -2.0947771e-08 0)
(2.99999052 -2.278856267e-05 0)
(2.999674181 -0.0008024954058 0)
(2.997439265 -0.006665601897 0)
(2.981498553 -0.04217323582 0)
(2.967197325 -0.09793044536 0)
(2.922699502 -0.2078941858 0)
(2.919806636 -0.2142637286 0)
(2.898652854 -0.2390169506 0)
(2.892170562 -0.2494344413 0)
(2.889963867 -0.2512262808 0)
(2.887112055 -0.2510940002 0)
(2.888288513 -0.2521764638 0)
(2.890362829 -0.2527613518 0)
(2.892011177 -0.2534711674 0)
(2.89266866 -0.2539549053 0)
(2.892813684 -0.2540190894 0)
(2.892641294 -0.2538400379 0)
(2.892109305 -0.2533260266 0)
(2.89179384 -0.2518090683 0)
(2.892153785 -0.2488328653 0)
(2.893663597 -0.2438289901 0)
(2.897448418 -0.235296518 0)
(2.903752049 -0.2229199162 0)
(2.912089662 -0.2074841405 0)
(2.922458546 -0.185582903 0)
(2.931527642 -0.1670151819 0)
(2.94292769 -0.1437386143 0)
(2.953745909 -0.1127269302 0)
(2.959865649 -0.09994244498 0)
(2.971180449 -0.07589717252 0)
(2.981492724 -0.03936336323 0)
(2.985771173 -0.02991666336 0)
(2.995446736 -0.01107159749 0)
(3.005136169 0.02687492922 0)
(3.007827184 0.03438935748 0)
(3.012195624 0.04021631446 0)
(2.999998703 -3.222895612e-06 0)
(2.999857381 -0.0003443417978 0)
(2.996827576 -0.007492609481 0)
(2.988645546 -0.03190477466 0)
(2.951298921 -0.1181736281 0)
(2.942008372 -0.1533262917 0)
(2.906041218 -0.2365355218 0)
(2.897277464 -0.2563197923 0)
(2.889110404 -0.2501342698 0)
(2.886577659 -0.2490091498 0)
(2.887825306 -0.2522176333 0)
(2.888878251 -0.2521084495 0)
(2.890266915 -0.2526915454 0)
(2.891227188 -0.253577348 0)
(2.891666683 -0.2540348494 0)
(2.891679186 -0.2541395493 0)
(2.891582853 -0.2540792837 0)
(2.891282197 -0.2536931486 0)
(2.891025157 -0.2525585773 0)
(2.891430802 -0.2498318512 0)
(2.893019784 -0.244794484 0)
(2.896550717 -0.2366732993 0)
(2.902948376 -0.2240025027 0)
(2.911399702 -0.2084090407 0)
(2.922090888 -0.1884397781 0)
(2.933378397 -0.1628603642 0)
(2.942146595 -0.1457224871 0)
(2.954633843 -0.1180795633 0)
(2.964067409 -0.08790097597 0)
(2.97007379 -0.07604584003 0)
(2.983654159 -0.04494777433 0)
(2.99137282 -0.01173710793 0)
(2.994813854 -0.007492786092 0)
(3.004585262 0.01267505043 0)
(3.012650454 0.04912942406 0)
(3.015090109 0.05439674367 0)
(3.020782904 0.06505392189 0)
(2.999937064 -0.0001444642102 0)
(2.998304959 -0.004327417238 0)
(2.98348683 -0.03749796428 0)
(2.96908707 -0.08927835605 0)
(2.91676253 -0.2104335717 0)
(2.908680352 -0.2204149489 0)
(2.895314841 -0.2415518836 0)
(2.891503275 -0.250523319 0)
(2.890046471 -0.2518813915 0)
(2.888839598 -0.2514133455 0)
(2.889700618 -0.2520665681 0)
(2.890794923 -0.2527316202 0)
(2.891171238 -0.2533881759 0)
(2.891259428 -0.2539068401 0)
(2.891045635 -0.2541363032 0)
(2.890736075 -0.2541748544 0)
(2.89050425 -0.2538824466 0)
(2.890351466 -0.2530219643 0)
(2.890732077 -0.2508215071 0)
(2.892314914 -0.2461775987 0)
(2.89581527 -0.2381122889 0)
(2.901837491 -0.2260168739 0)
(2.910759556 -0.2085379322 0)
(2.920664189 -0.1905222036 0)
(2.93318487 -0.1656242988 0)
(2.943977994 -0.1395427152 0)
(2.952928219 -0.1226316338 0)
(2.967225603 -0.08787236357 0)
(2.975017082 -0.06016878968 0)
(2.980538603 -0.05041055169 0)
(2.994152264 -0.01638265 0)
(3.000137329 0.01186050033 0)
(3.003280442 0.01520991172 0)
(3.015599019 0.04294302235 0)
(3.022158255 0.07837806114 0)
(3.02418335 0.08126763866 0)
(3.030540228 0.09405643994 0)
(2.998495067 -0.003334159499 0)
(2.99032744 -0.02623589305 0)
(2.95170657 -0.1161060232 0)
(2.935917187 -0.158996146 0)
(2.901483992 -0.2400515824 0)
(2.892656149 -0.2589070398 0)
(2.887775078 -0.2517996603 0)
(2.890314575 -0.250805677 0)
(2.891047861 -0.2508202329 0)
(2.891441725 -0.2512442263 0)
(2.891955101 -0.2523519235 0)
(2.891827993 -0.2530694415 0)
(2.891424365 -0.2536109162 0)
(2.890931151 -0.2539709021 0)
(2.89045007 -0.2540033585 0)
(2.890065132 -0.2538251412 0)
(2.88988986 -0.2532802493 0)
(2.890287401 -0.2515327994 0)
(2.891797967 -0.2475074595 0)
(2.895264899 -0.2397224922 0)
(2.901053012 -0.2278499999 0)
(2.909688205 -0.2108427929 0)
(2.920096794 -0.1896975205 0)
(2.930893519 -0.1700037082 0)
(2.944994943 -0.13905927 0)
(2.955071935 -0.1134667486 0)
(2.96466306 -0.09526100702 0)
(2.978800845 -0.056633438 0)
(2.984475617 -0.03585273683 0)
(2.989649376 -0.0271017236 0)
(3.004263026 0.01269266187 0)
(3.009575059 0.03869383621 0)
(3.013017654 0.04223309875 0)
(3.025140108 0.07264048283 0)
(3.029301111 0.1022196759 0)
(3.030588688 0.1017460596 0)
(3.037228644 0.1170842128 0)
(2.986895821 -0.02873571357 0)
(2.967020132 -0.09183931719 0)
(2.918443619 -0.2130447137 0)
(2.907011834 -0.2137460306 0)
(2.897200451 -0.2423682469 0)
(2.894811254 -0.2526987066 0)
(2.893838931 -0.2550408037 0)
(2.891904394 -0.253381692 0)
(2.89245548 -0.2520767989 0)
(2.89272758 -0.2520578613 0)
(2.892705798 -0.25265589 0)
(2.892173957 -0.2530989317 0)
(2.891435172 -0.2533959968 0)
(2.890707772 -0.2535510491 0)
(2.890306916 -0.2535466362 0)
(2.890090786 -0.2532658651 0)
(2.890317626 -0.2519712983 0)
(2.891705744 -0.24846545 0)
(2.894946669 -0.2413990688 0)
(2.900709633 -0.2294041157 0)
(2.908644542 -0.2136667974 0)
(2.919588423 -0.1911273382 0)
(2.930686692 -0.1674745972 0)
(2.942650322 -0.1447005739 0)
(2.957290642 -0.1084431451 0)
(2.965499437 -0.087763906 0)
(2.97520653 -0.06912256769 0)
(2.989170715 -0.02685941461 0)
(2.994492461 -0.008356022419 0)
(3.001627985 0.005544830388 0)
(3.015234095 0.0482324092 0)
(3.018663365 0.0663132683 0)
(3.02143147 0.06757756128 0)
(3.033309342 0.09994287639 0)
(3.03653249 0.1255990409 0)
(3.037463424 0.1239454611 0)
(3.045612726 0.1444833162 0)
(2.954105466 -0.1100527892 0)
(2.936163464 -0.1600642585 0)
(2.906351885 -0.2450305933 0)
(2.900696007 -0.2458039035 0)
(2.896387662 -0.2491171648 0)
(2.895880613 -0.2505801448 0)
(2.894631744 -0.2542936671 0)
(2.893263029 -0.2539596048 0)
(2.893089417 -0.2533314821 0)
(2.892969798 -0.2528687022 0)
(2.892470263 -0.2528428616 0)
(2.89206148 -0.2529602458 0)
(2.891647075 -0.2531816875 0)
(2.891223378 -0.2532840114 0)
(2.890825015 -0.25317696 0)
(2.890954725 -0.2521489589 0)
(2.892107316 -0.2490503482 0)
(2.894997002 -0.2427145007 0)
(2.900435704 -0.2314910914 0)
(2.908419237 -0.2149641309 0)
(2.918532805 -0.1946577807 0)
(2.931430104 -0.165770928 0)
(2.942092899 -0.1423087789 0)
(2.954714957 -0.1171746636 0)
(2.968464337 -0.07871046429 0)
(2.975685675 -0.06120826969 0)
(2.98774664 -0.03605323169 0)
(3.00030235 0.008429939826 0)
(3.004314599 0.01980883811 0)
(3.010707016 0.03134015604 0)
(3.022546199 0.07320046199 0)
(3.025739328 0.08736495415 0)
(3.028690403 0.09210285998 0)
(3.042213005 0.1306772867 0)
(3.044992073 0.1551949945 0)
(3.046726897 0.1555356581 0)
(3.05487391 0.1769101887 0)
(2.918492176 -0.2131759581 0)
(2.899858121 -0.2301545582 0)
(2.901077856 -0.2595671303 0)
(2.898895129 -0.2585464257 0)
(2.895907137 -0.2552372081 0)
(2.893641284 -0.2529972882 0)
(2.893143839 -0.2528925809 0)
(2.892741907 -0.2531911463 0)
(2.89235971 -0.2530721611 0)
(2.892232099 -0.2529222659 0)
(2.892087151 -0.2527617103 0)
(2.891932629 -0.252744852 0)
(2.891885532 -0.2527295875 0)
(2.89170274 -0.2527609385 0)
(2.891851763 -0.252014976 0)
(2.892838861 -0.2494787552 0)
(2.895461107 -0.243722692 0)
(2.900424782 -0.2334543165 0)
(2.908488785 -0.2165277759 0)
(2.918383253 -0.1953943937 0)
(2.930301212 -0.1706188018 0)
(2.943697993 -0.1376162345 0)
(2.953502223 -0.1161917706 0)
(2.967996209 -0.08475180119 0)
(2.980776141 -0.04393114338 0)
(2.986868847 -0.03022350512 0)
(2.9993285 -0.002576329428 0)
(3.00934414 0.03836521893 0)
(3.012616384 0.04519287213 0)
(3.021277385 0.06342679308 0)
(3.032676374 0.1076688711 0)
(3.035626626 0.1182488642 0)
(3.039142085 0.1234014237 0)
(3.049624064 0.1606283708 0)
(3.051289625 0.1778671824 0)
(3.05130446 0.1757993273 0)
(3.060873585 0.2025404859 0)
(2.909691195 -0.2263781631 0)
(2.897695346 -0.2403430602 0)
(2.896612149 -0.2469601727 0)
(2.895746603 -0.2536814935 0)
(2.895099101 -0.2550855294 0)
(2.893909451 -0.2542944094 0)
(2.892983525 -0.2526446337 0)
(2.892187146 -0.2526306475 0)
(2.891933529 -0.2527032747 0)
(2.89192917 -0.2527744357 0)
(2.891934939 -0.2525524658 0)
(2.89197657 -0.2524011781 0)
(2.892022352 -0.2523533103 0)
(2.892319515 -0.2518112043 0)
(2.893300517 -0.2498376372 0)
(2.895766441 -0.2447956689 0)
(2.900594224 -0.2348120449 0)
(2.908142694 -0.2191658482 0)
(2.918671566 -0.1958692868 0)
(2.929475494 -0.1723382946 0)
(2.943470551 -0.1416591445 0)
(2.956914742 -0.1053187855 0)
(2.966381114 -0.08480516436 0)
(2.98181413 -0.04836500955 0)
(2.991425442 -0.01235915248 0)
(2.995974776 -0.004856773795 0)
(3.009012903 0.02685016848 0)
(3.018458866 0.0684317732 0)
(3.021919499 0.07481353178 0)
(3.03165242 0.09726911816 0)
(3.040560998 0.1391986797 0)
(3.042861973 0.1461958815 0)
(3.047222669 0.1534459606 0)
(3.05643575 0.1897175849 0)
(3.058244694 0.2019291328 0)
(3.058517207 0.1990187146 0)
(3.066653632 0.2254195666 0)
(2.893539876 -0.2623365818 0)
(2.89034221 -0.2548805268 0)
(2.890855308 -0.2510696795 0)
(2.891974662 -0.2508635684 0)
(2.893870856 -0.252912985 0)
(2.89381911 -0.2542723502 0)
(2.893273892 -0.2542558414 0)
(2.892499079 -0.253726353 0)
(2.892092575 -0.2532150945 0)
(2.891928509 -0.2529612346 0)
(2.891981732 -0.2524040118 0)
(2.892085752 -0.2521203316 0)
(2.892348568 -0.2516273723 0)
(2.893233013 -0.250085911 0)
(2.895552944 -0.2457673393 0)
(2.900298675 -0.2363063301 0)
(2.907629931 -0.2211158489 0)
(2.917939183 -0.1992454469 0)
(2.930537315 -0.1696314903 0)
(2.942311401 -0.1437575595 0)
(2.958154072 -0.1065265359 0)
(2.969885304 -0.07160591253 0)
(2.978161686 -0.05518553807 0)
(2.994196566 -0.01385726553 0)
(3.002776944 0.02048249367 0)
(3.007911141 0.03116720413 0)
(3.023333539 0.07129786856 0)
(3.029218398 0.1059228642 0)
(3.031707476 0.1058307596 0)
(3.040507288 0.1271167366 0)
(3.046982327 0.164301883 0)
(3.048602487 0.1665924432 0)
(3.053011912 0.1785757172 0)
(3.063908102 0.2203925257 0)
(3.065406259 0.23396728 0)
(3.067215033 0.2358191612 0)
(3.075576738 0.2633847052 0)
(2.892383037 -0.2551702646 0)
(2.891952532 -0.2552786036 0)
(2.891037675 -0.2527985653 0)
(2.891526774 -0.2507494165 0)
(2.892125157 -0.251444307 0)
(2.893046714 -0.2532587276 0)
(2.892846729 -0.2544119187 0)
(2.892628527 -0.2543309429 0)
(2.892147071 -0.2538173483 0)
(2.891818278 -0.253373285 0)
(2.891951503 -0.2522601137 0)
(2.892146639 -0.2517463145 0)
(2.892885048 -0.250432153 0)
(2.894994919 -0.2465304011 0)
(2.899415559 -0.2379797457 0)
(2.906996235 -0.2223813899 0)
(2.917096787 -0.2011763517 0)
(2.930576357 -0.1713942516 0)
(2.943756858 -0.1384081725 0)
(2.955550308 -0.1128929051 0)
(2.972247167 -0.07031389007 0)
(2.982254095 -0.0389572552 0)
(2.991255125 -0.02037025447 0)
(3.008109012 0.02812634666 0)
(3.014368853 0.0561441123 0)
(3.018222882 0.06115642144 0)
(3.031923958 0.100328912 0)
(3.036882769 0.1310055915 0)
(3.038614736 0.1338323135 0)
(3.050528333 0.1638378272 0)
(3.056581784 0.2005724334 0)
(3.05930101 0.201431109 0)
(3.063469463 0.2107832164 0)
(3.068346432 0.2431159877 0)
(3.068972115 0.248846394 0)
(3.068799123 0.2492829678 0)
(3.078428896 0.2809007794 0)
(2.891157625 -0.2522836112 0)
(2.891747138 -0.2529933071 0)
(2.891713644 -0.2522303655 0)
(2.891630624 -0.2517518965 0)
(2.891703963 -0.2518393517 0)
(2.891997407 -0.2526443168 0)
(2.892161765 -0.2536298682 0)
(2.89208728 -0.2541198639 0)
(2.891966496 -0.2540140272 0)
(2.891760641 -0.2536461557 0)
(2.892017379 -0.2525569455 0)
(2.892509125 -0.2512930537 0)
(2.894285468 -0.247585648 0)
(2.898386903 -0.2393766251 0)
(2.905900626 -0.2241493443 0)
(2.916716524 -0.2009199861 0)
(2.928949958 -0.1750691865 0)
(2.944466124 -0.1388014687 0)
(2.957392837 -0.1050481375 0)
(2.970074966 -0.07730538136 0)
(2.987774652 -0.02741501662 0)
(2.996184259 0.0003776067371 0)
(3.005020881 0.01970619872 0)
(3.020201883 0.06934132065 0)
(3.024796006 0.08886748925 0)
(3.028697889 0.09416630489 0)
(3.042577192 0.1374995327 0)
(3.046651585 0.1638967235 0)
(3.047613886 0.1639296451 0)
(3.059298448 0.1967728895 0)
(3.06331161 0.2306660106 0)
(3.064386434 0.2319611273 0)
(3.070437253 0.2484879956 0)
(3.076291106 0.2834379 0)
(3.078192127 0.2887437887 0)
(3.080372445 0.2922451086 0)
(3.086076141 0.3185117924 0)
(2.891284874 -0.2525662298 0)
(2.891441663 -0.2513545903 0)
(2.891589317 -0.2514291488 0)
(2.89162858 -0.2515246996 0)
(2.891530085 -0.2518628885 0)
(2.891524094 -0.2522126677 0)
(2.891596867 -0.252896978 0)
(2.891746521 -0.253529686 0)
(2.891584283 -0.2539055007 0)
(2.891792953 -0.25360605 0)
(2.892313767 -0.2523311234 0)
(2.893866551 -0.2488066876 0)
(2.897672899 -0.2406863054 0)
(2.904774635 -0.225906862 0)
(2.915624587 -0.2029494853 0)
(2.928595504 -0.1739724094 0)
(2.943039428 -0.1429770374 0)
(2.960734411 -0.09820904652 0)
(2.972485011 -0.06643576018 0)
(2.985944731 -0.03650858026 0)
(3.00133513 0.01402892286 0)
(3.007298607 0.03144880073 0)
(3.014769605 0.0484405115 0)
(3.02994128 0.1017086164 0)
(3.034465353 0.1219707706 0)
(3.040112188 0.1366779706 0)
(3.053646158 0.1837522036 0)
(3.056787006 0.2041413938 0)
(3.05904955 0.2008976655 0)
(3.066812319 0.2275637306 0)
(3.06841815 0.2517513253 0)
(3.068100312 0.2486051109 0)
(3.073685113 0.2658222052 0)
(3.078570018 0.2980912309 0)
(3.080678248 0.2998703538 0)
(3.080801845 0.3011295852 0)
(3.088954957 0.3307977247 0)
(2.891888196 -0.253368458 0)
(2.891818206 -0.2527784768 0)
(2.891652374 -0.2522224393 0)
(2.891561561 -0.2521475706 0)
(2.891438126 -0.2520663444 0)
(2.891318987 -0.2521911447 0)
(2.891318543 -0.2523557934 0)
(2.891397234 -0.252586748 0)
(2.891459449 -0.2531147316 0)
(2.891984594 -0.2526134709 0)
(2.893484389 -0.2498030087 0)
(2.897080629 -0.2423807067 0)
(2.903976202 -0.2277771417 0)
(2.914197032 -0.2061487989 0)
(2.928813529 -0.173452112 0)
(2.943780521 -0.1383103173 0)
(2.959689603 -0.1032025952 0)
(2.977003903 -0.0542410518 0)
(2.986798909 -0.02853512104 0)
(3.000445478 0.003351397194 0)
(3.015559503 0.05763548886 0)
(3.021091503 0.07487024905 0)
(3.033206058 0.1027702492 0)
(3.043606752 0.1521250007 0)
(3.046552228 0.1594015012 0)
(3.048773563 0.1637447991 0)
(3.06038867 0.2094914871 0)
(3.062259474 0.2280277333 0)
(3.063452278 0.2330759886 0)
(3.075064004 0.2701495396 0)
(3.077856246 0.2940838216 0)
(3.079619352 0.2906451457 0)
(3.085761173 0.3074542552 0)
(3.088348872 0.3348104537 0)
(3.089053721 0.3357622498 0)
(3.091020001 0.3428600277 0)
(3.094282246 0.3680661961 0)
(2.891857195 -0.252485454 0)
(2.891780283 -0.2526016219 0)
(2.89165114 -0.2527236463 0)
(2.891396225 -0.2525934023 0)
(2.891239281 -0.2523143131 0)
(2.891119099 -0.2523483683 0)
(2.891135712 -0.2523185348 0)
(2.891202738 -0.2522750221 0)
(2.89159301 -0.2520780121 0)
(2.892851789 -0.2500623247 0)
(2.896140999 -0.2438615336 0)
(2.902835523 -0.2302997065 0)
(2.913626451 -0.2072924356 0)
(2.928120474 -0.1758399222 0)
(2.945260972 -0.1344093471 0)
(2.959333986 -0.1004744099 0)
(2.976376724 -0.06141818997 0)
(2.992403604 -0.01020327444 0)
(3.000986983 0.01124638187 0)
(3.016667325 0.05077805918 0)
(3.028372072 0.1018236516 0)
(3.031981411 0.1103325894 0)
(3.042734897 0.1393234305 0)
(3.052527921 0.1904381011 0)
(3.05577587 0.1982165129 0)
(3.061857886 0.2084091962 0)
(3.070022132 0.2506561946 0)
(3.071163877 0.2586295286 0)
(3.069906709 0.2559865178 0)
(3.077976944 0.2869426119 0)
(3.080009061 0.3074218511 0)
(3.080852048 0.3065119588 0)
(3.089362367 0.3299128361 0)
(3.091344088 0.3567701419 0)
(3.092950686 0.3555692685 0)
(3.094704764 0.3612187607 0)
(3.095485441 0.3780985734 0)
(2.891524256 -0.2521921547 0)
(2.891486531 -0.252616343 0)
(2.891411888 -0.2530124055 0)
(2.891343404 -0.2530276236 0)
(2.891236365 -0.2529232804 0)
(2.891053983 -0.2525735606 0)
(2.891096766 -0.252235673 0)
(2.891256602 -0.2518125424 0)
(2.892155383 -0.2502064684 0)
(2.89502251 -0.2449361263 0)
(2.901495508 -0.2323180409 0)
(2.912900595 -0.2085767044 0)
(2.927519 -0.1764924954 0)
(2.943897765 -0.1402295548 0)
(2.96259951 -0.09097661369 0)
(2.976828809 -0.05599757636 0)
(2.996086683 -0.007767235087 0)
(3.010144753 0.04478613194 0)
(3.017002043 0.06252237261 0)
(3.033508826 0.1066131722 0)
(3.040843283 0.1476224033 0)
(3.043506208 0.1452739756 0)
(3.050994466 0.1696270848 0)
(3.059839525 0.2186073793 0)
(3.061216814 0.226737764 0)
(3.069164753 0.2491064441 0)
(3.077416843 0.2935942871 0)
(3.07995031 0.3022060035 0)
(3.081636338 0.3050412423 0)
(3.088939397 0.3395519256 0)
(3.088942127 0.3534381715 0)
(3.089664021 0.3467107807 0)
(3.094402174 0.3615744359 0)
(3.094686278 0.3719926352 0)
(3.095038795 0.3659288391 0)
(3.095384269 0.37158354 0)
(3.096930438 0.3844878058 0)
(2.891318677 -0.2525049408 0)
(2.891241287 -0.2526575921 0)
(2.891199544 -0.2528899342 0)
(2.891171709 -0.2530396584 0)
(2.8911655 -0.2530344915 0)
(2.891117636 -0.2527862837 0)
(2.89122786 -0.2523591661 0)
(2.891840906 -0.2509153007 0)
(2.894216687 -0.2461064388 0)
(2.90044766 -0.2336040689 0)
(2.911380795 -0.2112408191 0)
(2.926728554 -0.1777353 0)
(2.943705405 -0.1398339449 0)
(2.964792985 -0.09041089649 0)
(2.982475064 -0.03736439682 0)
(2.994754371 -0.008679560783 0)
(3.012868323 0.04279657184 0)
(3.022586895 0.08470792618 0)
(3.027159369 0.09213545408 0)
(3.045195569 0.1446539204 0)
(3.052282846 0.1925731391 0)
(3.055892123 0.2012302979 0)
(3.069481083 0.2374811533 0)
(3.073233123 0.2745054585 0)
(3.074983048 0.2662702285 0)
(3.076782678 0.274117718 0)
(3.081458034 0.312728563 0)
(3.08250421 0.3186711702 0)
(3.08354145 0.3202534865 0)
(3.089910206 0.3498506586 0)
(3.091091102 0.3565708232 0)
(3.090008837 0.3550959302 0)
(3.095734856 0.3702202909 0)
(3.096934732 0.3840027289 0)
(3.10008001 0.3845257106 0)
(3.103217551 0.3905869759 0)
(3.101559379 0.3980973485 0)
(2.891200602 -0.2529448768 0)
(2.891122067 -0.2529023125 0)
(2.891082755 -0.2529608162 0)
(2.891111356 -0.2529798328 0)
(2.891122384 -0.2530297582 0)
(2.891247157 -0.2528184494 0)
(2.891776573 -0.2517071261 0)
(2.893861777 -0.2474019203 0)
(2.899598087 -0.2356373655 0)
(2.910132269 -0.2137152767 0)
(2.925441066 -0.1811565388 0)
(2.946585875 -0.1313319124 0)