/*--------------------------------*- C++ -*----------------------------------*\
  =========                 |
  \\      /  F ield         | OpenFOAM: The Open Source CFD Toolbox
   \\    /   O peration     | Website:  https://openfoam.org
    \\  /    A nd           | Version:  7
     \\/     M anipulation  |
\*---------------------------------------------------------------------------*/
FoamFile
{
    version     2.0;
    format      ascii;
    class       volVectorField;
    location    "0.2";
    object      U;
}
// * * * * * * * * * * * * * * * * * * * * * * * * * * * * * * * * * * * * * //

dimensions      [0 1 -1 0 0 0 0];

internalField   nonuniform List<vector> 
2222
(
(3 -7.103730068e-15 0)
(3 -8.71611324e-15 0)
(3 -1.083788759e-14 0)
(3 -8.890185281e-15 0)
(3 -5.885485729e-15 0)
(3 -4.232675184e-15 0)
(3 -2.293473084e-15 0)
(3 -1.666213875e-15 0)
(3 -2.075868736e-15 0)
(3 -3.041283265e-15 0)
(3 -4.935764938e-15 0)
(3 -9.263193854e-15 0)
(3 -1.144726964e-14 0)
(3 -1.14018763e-14 0)
(3 -9.301866243e-15 0)
(3 -7.924308181e-15 0)
(3 -7.089171426e-15 0)
(3 -5.621869622e-15 0)
(3 -3.200266211e-15 0)
(3 -2.896647599e-15 0)
(3 -4.220454152e-15 0)
(3 -4.894353917e-15 0)
(3 -6.377949014e-15 0)
(3 -7.537962821e-15 0)
(3 -7.596401119e-15 0)
(3 -7.63035688e-15 0)
(3 -7.725405558e-15 0)
(3 -8.14819273e-15 0)
(3 -7.574584235e-15 0)
(3 -6.951640255e-15 0)
(3 -6.501545602e-15 0)
(3 -6.523456236e-15 0)
(3 -6.789195935e-15 0)
(3 -6.586574576e-15 0)
(3 -2.536362618e-15 0)
(3 -1.069668744e-15 0)
(3 1.13586375e-16 0)
(3 1.911102302e-15 0)
(3 3.095750766e-15 0)
(3 3.559878205e-15 0)
(3 5.053183985e-15 0)
(3 6.869667556e-15 0)
(3 6.845937137e-15 0)
(3 5.916983422e-15 0)
(3 5.846518621e-15 0)
(3 6.147004938e-15 0)
(3 7.511415224e-15 0)
(3 9.022981508e-15 0)
(3 7.792204399e-15 0)
(3 8.42881734e-15 0)
(3 8.142826178e-15 0)
(3 7.350468646e-15 0)
(3 6.95195685e-15 0)
(3 4.513276377e-15 0)
(3 3.547664675e-15 0)
(3 -8.941911258e-15 0)
(3 -8.41600271e-15 0)
(3 -8.260210576e-15 0)
(3 -6.532283564e-15 0)
(3 -2.535314364e-15 0)
(3 3.609972564e-18 0)
(3 2.323137142e-15 0)
(3 2.790734253e-15 0)
(3 2.188265819e-15 0)
(3 2.308346305e-15 0)
(3 1.09386274e-15 0)
(3 -2.819579042e-15 0)
(3 -4.30359149e-15 0)
(3 -4.656721688e-15 0)
(3 -3.038443576e-15 0)
(3 -2.108663461e-15 0)
(3 -1.442130005e-15 0)
(3 -1.363822317e-15 0)
(3 1.063295819e-16 0)
(3 1.296033841e-15 0)
(3 1.348417748e-15 0)
(3 -6.566948941e-16 0)
(3 -2.126325362e-15 0)
(3 -2.198420139e-15 0)
(3 -2.460666422e-15 0)
(3 -3.213501858e-15 0)
(3 -4.581822937e-15 0)
(3 -5.867376252e-15 0)
(3 -7.45932691e-15 0)
(3 -8.524862106e-15 0)
(3 -9.102375253e-15 0)
(3 -1.135490945e-14 0)
(3 -1.15452492e-14 0)
(3 -9.808374752e-15 0)
(3 -5.797076848e-15 0)
(3 -2.774942202e-15 0)
(3 -2.140524314e-15 0)
(3 2.515015108e-16 0)
(3 1.993592038e-15 0)
(3 3.269831232e-15 0)
(3 4.089648616e-15 0)
(3 5.049225832e-15 0)
(3 5.564125111e-15 0)
(3 4.806682188e-15 0)
(3 5.115698113e-15 0)
(3 5.323104416e-15 0)
(3 5.384044707e-15 0)
(3 5.773760877e-15 0)
(3 4.88903147e-15 0)
(3 3.105812362e-15 0)
(3 2.967448517e-15 0)
(3 3.360675056e-15 0)
(3 3.875233059e-15 0)
(3 3.026898531e-15 0)
(3 2.444137323e-15 0)
(3 1.377673187e-15 0)
(3 8.557761298e-16 0)
(3 8.421072936e-16 0)
(3 -6.862952273e-17 0)
(3 -1.566731156e-15 0)
(3 -1.787497849e-15 0)
(3 -3.853798511e-15 0)
(3 -5.980386154e-15 0)
(3 -6.297214655e-15 0)
(3 -8.864556043e-15 0)
(3 -9.416436886e-15 0)
(3 -9.968763736e-15 0)
(3 -3.305601563e-15 0)
(3 -4.76600313e-16 0)
(3 1.957775609e-15 0)
(3 1.294461656e-15 0)
(3 2.128076374e-15 0)
(3 3.529610476e-15 0)
(3 4.876544646e-15 0)
(3 6.234472462e-15 0)
(3 8.354520755e-15 0)
(3 8.776895321e-15 0)
(3 1.006312752e-14 0)
(3 1.15296482e-14 0)
(3 9.707323386e-15 0)
(3 6.325494005e-15 0)
(3 3.506562271e-15 0)
(3 3.593029387e-15 0)
(3 5.392697878e-15 0)
(3 5.98537321e-15 0)
(3 5.106502271e-15 0)
(3 5.276029026e-15 0)
(3 6.381257691e-15 0)
(3 5.420417969e-15 0)
(3 5.370940614e-15 0)
(3 4.905859109e-15 0)
(3 4.207003681e-15 0)
(3 3.060468349e-15 0)
(3 2.834559438e-17 0)
(3 -3.07409031e-15 0)
(3 -6.256062044e-15 0)
(3 -7.488076675e-15 0)
(3 -8.685967161e-15 0)
(3 -8.129255307e-15 0)
(3 -8.218966901e-15 0)
(3 -8.309793775e-15 0)
(3 -8.596655422e-15 0)
(3 -7.0479572e-15 0)
(3 -7.086932642e-15 0)
(3 -4.994848417e-15 0)
(3 -2.788996175e-15 0)
(3 7.724505049e-16 0)
(3 3.127763493e-15 0)
(3 4.810020063e-15 0)
(3 4.205967879e-15 0)
(3 4.693010437e-15 0)
(3 5.222066218e-15 0)
(3 4.22570271e-15 0)
(3 2.063248251e-15 0)
(3 3.162743839e-15 0)
(3 3.845497012e-15 0)
(3 1.781822024e-15 0)
(3 4.262862331e-16 0)
(3 8.655429587e-16 0)
(3 6.995307001e-16 0)
(3 8.489828703e-16 0)
(3 8.326532332e-16 0)
(3 7.565361415e-16 0)
(3 1.832612739e-16 0)
(3 -6.978573125e-16 0)
(3 -2.218680096e-15 0)
(3 -4.064420209e-15 0)
(3 -4.964023783e-15 0)
(3 -6.960385747e-15 0)
(3 -9.096841646e-15 0)
(3 -9.889671898e-15 0)
(3 -1.005310237e-14 0)
(3 -8.872019901e-15 0)
(3 -7.566990684e-15 0)
(3 2.25117531e-15 0)
(3 4.029198409e-15 0)
(3 5.912310935e-15 0)
(3 8.353613162e-15 0)
(3 7.940986833e-15 0)
(3 8.652328826e-15 0)
(3 9.592074323e-15 0)
(3 1.110286955e-14 0)
(3 1.316202748e-14 0)
(3 1.391245964e-14 0)
(3 1.463284705e-14 0)
(3 1.572275717e-14 0)
(3 1.491263986e-14 0)
(3 1.284981163e-14 0)
(3 1.231963944e-14 0)
(3 1.077063484e-14 0)
(3 1.02676082e-14 0)
(3 9.86646162e-15 0)
(3 8.752117058e-15 0)
(3 8.057930864e-15 0)
(3 8.552808551e-15 0)
(3 7.332972184e-15 0)
(3 5.34967108e-15 0)
(3 2.805754997e-15 0)
(3 1.436090579e-15 0)
(3 9.063561676e-16 0)
(3 -3.596118388e-17 0)
(3 -3.875816394e-15 0)
(3 -6.115369257e-15 0)
(3 -7.624352435e-15 0)
(3 -6.208474094e-15 0)
(3 -5.405637272e-15 0)
(3 -5.160859519e-15 0)
(3 -5.152673918e-15 0)
(3 -4.240231228e-15 0)
(3 -2.669453901e-15 0)
(3 -2.272232644e-15 0)
(3 -8.057006193e-16 0)
(3 7.33531996e-16 0)
(3 2.987312347e-15 0)
(3 4.582647493e-15 0)
(3 5.466692492e-15 0)
(3 5.604554919e-15 0)
(3 6.604986097e-15 0)
(3 3.963688947e-15 0)
(3 2.398213265e-15 0)
(3 4.808132217e-16 0)
(3 1.666293033e-16 0)
(3 -4.206563808e-16 0)
(3 -1.255550565e-15 0)
(3 -2.429711976e-15 0)
(3 -3.023560459e-15 0)
(3 -3.644249599e-15 0)
(3 -4.385334014e-15 0)
(3 -4.402177318e-15 0)
(3 -3.729854741e-15 0)
(3 -3.884943262e-15 0)
(3 -4.806581929e-15 0)
(3 -4.901730187e-15 0)
(3 -5.588212478e-15 0)
(3 -5.981314067e-15 0)
(3 -6.721951047e-15 0)
(3 -6.861602651e-15 0)
(3 -9.825402889e-15 0)
(3 -1.152147701e-14 0)
(3 -1.253734831e-14 0)
(3 -1.135495367e-14 0)
(3 5.43527586e-15 0)
(3 1.041455401e-14 0)
(3 1.207987623e-14 0)
(3 1.381196097e-14 0)
(3 1.358084172e-14 0)
(3 1.313575416e-14 0)
(3 1.280083396e-14 0)
(3 1.289899899e-14 0)
(3 1.260469788e-14 0)
(3 1.457593526e-14 0)
(3 1.544475681e-14 0)
(3 1.70735844e-14 0)
(3 1.662255694e-14 0)
(3 1.64843041e-14 0)
(3 1.655042709e-14 0)
(3 1.752560231e-14 0)
(3 1.457614351e-14 0)
(3 1.276405295e-14 0)
(3 1.05322071e-14 0)
(3 6.70007448e-15 0)
(3 4.740883227e-15 0)
(3 1.488121324e-16 0)
(3 -6.027725909e-15 0)
(3 -9.434786123e-15 0)
(3 -8.613885701e-15 0)
(3 -7.94255281e-15 0)
(3 -6.157403481e-15 0)
(3 -3.520957567e-15 0)
(3 -2.696936294e-15 0)
(3 -2.001408491e-15 0)
(3 -1.901430465e-15 0)
(3 -2.208640965e-15 0)
(3 -1.862519784e-15 0)
(3 -1.844794534e-15 0)
(3 -1.816422115e-15 0)
(3 -6.589510288e-16 0)
(3 8.104579706e-16 0)
(3 1.000229044e-15 0)
(3 1.608212654e-15 0)
(3 3.26153924e-15 0)
(3 2.636299186e-15 0)
(3 1.816846144e-15 0)
(3 4.001510777e-15 0)
(3 4.885062365e-15 0)
(3 4.100483409e-15 0)
(3 3.343218742e-15 0)
(3 2.177962877e-15 0)
(3 1.1374615e-16 0)
(3 -3.888830802e-15 0)
(3 -4.730422626e-15 0)
(3 -4.890826701e-15 0)
(3 -4.094793993e-15 0)
(3 -4.847775759e-15 0)
(3 -4.045756483e-15 0)
(3 -3.94445462e-15 0)
(3 -3.121347488e-15 0)
(3 -2.785706976e-15 0)
(3 -3.442950801e-15 0)
(3 -5.584166428e-15 0)
(3 -7.161290303e-15 0)
(3 -9.293327351e-15 0)
(3 -1.198653718e-14 0)
(3 -1.179025014e-14 0)
(3 -1.121241364e-14 0)
(3 -1.226798899e-14 0)
(3 -1.35870275e-14 0)
(3 -1.477297083e-14 0)
(3 9.509581631e-15 0)
(3 1.457152981e-14 0)
(3 1.519519654e-14 0)
(3 1.657648122e-14 0)
(3 1.727313073e-14 0)
(3 1.651153631e-14 0)
(3 1.599666034e-14 0)
(3 1.512479136e-14 0)
(3 1.533946233e-14 0)
(3 1.528294739e-14 0)
(3 1.444494453e-14 0)
(3 1.407517875e-14 0)
(3 1.520884005e-14 0)
(3 1.632114855e-14 0)
(3 1.610150928e-14 0)
(3 1.529778874e-14 0)
(3 1.31165416e-14 0)
(3 1.051778637e-14 0)
(3 4.138653956e-15 0)
(3 9.753605648e-16 0)
(3 -3.946355418e-15 0)
(3 -5.951451721e-15 0)
(3 -7.837902577e-15 0)
(3 -8.305627232e-15 0)
(3 -8.120252122e-15 0)
(3 -7.184357809e-15 0)
(3 -6.990281465e-15 0)
(3 -5.188502605e-15 0)
(3 -2.554579644e-15 0)
(3 -1.207273843e-15 0)
(3 -1.434018138e-15 0)
(3 -1.414333392e-15 0)
(3 -1.660953731e-15 0)
(3 -1.84035497e-15 0)
(3 -2.312178666e-15 0)
(3 -2.110250383e-15 0)
(3 -1.394256804e-15 0)
(3 -1.072282985e-15 0)
(3 -1.017423185e-15 0)
(3 -1.22775093e-15 0)
(3 -2.280132984e-15 0)
(3 -1.315899207e-15 0)
(3 2.201545118e-15 0)
(3 5.436210398e-15 0)
(3 5.21455435e-15 0)
(3 4.20285282e-15 0)
(3 1.716598265e-15 0)
(3 6.886481973e-16 0)
(3 4.36284161e-16 0)
(3 2.26673503e-16 0)
(3 1.763880804e-16 0)
(3 3.245170374e-16 0)
(3 2.826084945e-17 0)
(3 -5.599974826e-16 0)
(3 -1.576705942e-15 0)
(3 -3.279459482e-15 0)
(3 -5.862991089e-15 0)
(3 -8.718124773e-15 0)
(3 -1.16289801e-14 0)
(3 -1.150395583e-14 0)
(3 -1.078709952e-14 0)
(3 -1.064164368e-14 0)
(3 -1.110404652e-14 0)
(3 -9.902900507e-15 0)
(3 -9.817617174e-15 0)
(3 -9.353175991e-15 0)
(3 -8.79040886e-15 0)
(3 1.105834014e-14 0)
(3 1.175706714e-14 0)
(3 1.228756506e-14 0)
(3 1.35872725e-14 0)
(3 1.408992007e-14 0)
(3 1.650118709e-14 0)
(3 1.688548505e-14 0)
(3 1.576013708e-14 0)
(3 1.513546053e-14 0)
(3 1.263952842e-14 0)
(3 1.046386024e-14 0)
(3 1.011346348e-14 0)
(3 8.88034102e-15 0)
(3 8.551650096e-15 0)
(3 8.488102753e-15 0)
(3 6.347318783e-15 0)
(3 6.118503342e-15 0)
(3 2.178585967e-15 0)
(3 -1.036586233e-16 0)
(3 -1.829128531e-15 0)
(3 -2.48476934e-15 0)
(3 -2.927244183e-15 0)
(3 -4.567290238e-15 0)
(3 -6.18058592e-15 0)
(3 -4.231805983e-15 0)
(3 -1.02390773e-15 0)
(3 3.503603809e-16 0)
(3 5.967341287e-16 0)
(3 4.947295806e-16 0)
(3 1.314586969e-15 0)
(3 2.753537876e-15 0)
(3 4.02773234e-15 0)
(3 3.897588146e-15 0)
(3 3.411047746e-15 0)
(3 2.499681941e-15 0)
(3 6.912115954e-16 0)
(3 -2.51280263e-15 0)
(3 -3.23662072e-15 0)
(3 -3.513764336e-15 0)
(3 -3.253419018e-15 0)
(3 -2.215857067e-15 0)
(3 -1.116808216e-15 0)
(3 2.619968249e-16 0)
(3 1.846583407e-15 0)
(3 1.5263798e-15 0)
(3 1.599823774e-16 0)
(3 -9.133975694e-16 0)
(3 -1.362245843e-15 0)
(3 -1.635085859e-15 0)
(3 -1.442363056e-15 0)
(3 -2.054946448e-15 0)
(3 -2.863798209e-15 0)
(3 -3.061966269e-15 0)
(3 -4.083276589e-15 0)
(3 -3.938272748e-15 0)
(3 -4.74220523e-15 0)
(3 -7.660132037e-15 0)
(3 -1.111360693e-14 0)
(3 -1.153802526e-14 0)
(3 -1.160389192e-14 0)
(3 -9.587624301e-15 0)
(3 -7.487902957e-15 0)
(3 -6.705760155e-15 0)
(3 -6.245167376e-15 0)
(3 -6.407905073e-15 0)
(3 -6.141210281e-15 0)
(3 -5.413858796e-15 0)
(3 3.640423154e-15 0)
(3 4.238409314e-15 0)
(3 5.468485277e-15 0)
(3 6.676093657e-15 0)
(3 6.95180029e-15 0)
(3 6.295882466e-15 0)
(3 6.749606045e-15 0)
(3 7.57519648e-15 0)
(3 6.846850659e-15 0)
(3 5.273416377e-15 0)
(3 5.147384148e-15 0)
(3 5.717086957e-15 0)
(3 6.13749489e-15 0)
(3 4.023957449e-15 0)
(3 1.782891532e-15 0)
(3 -2.120369748e-16 0)
(3 -2.131806427e-15 0)
(3 -5.249216961e-15 0)
(3 -7.196583853e-15 0)
(3 -7.181585502e-15 0)
(3 -6.237524828e-15 0)
(3 -3.175102395e-15 0)
(3 -1.295104736e-15 0)
(3 -8.08722868e-16 0)
(3 -1.152934996e-15 0)
(3 2.6604026e-15 0)
(3 5.204693169e-15 0)
(3 5.834495421e-15 0)
(3 7.75349039e-15 0)
(3 9.001427726e-15 0)
(3 1.094068249e-14 0)
(3 1.19921224e-14 0)
(3 1.167978379e-14 0)
(3 1.096783598e-14 0)
(3 1.032594285e-14 0)
(3 8.915786764e-15 0)
(3 6.400975099e-15 0)
(3 2.722985008e-15 0)
(3 -4.887721624e-16 0)
(3 -1.544195665e-15 0)
(3 -1.571499264e-15 0)
(3 -8.500168554e-16 0)
(3 -1.089266073e-15 0)
(3 -1.126485677e-15 0)
(3 -2.901555799e-15 0)
(3 -5.625158545e-15 0)
(3 -6.028042299e-15 0)
(3 -6.909345103e-15 0)
(3 -7.841592382e-15 0)
(3 -7.124254068e-15 0)
(3 -6.948383629e-15 0)
(3 -8.283030882e-15 0)
(3 -8.958420363e-15 0)
(3 -8.208935718e-15 0)
(3 -8.419565214e-15 0)
(3 -9.108489128e-15 0)
(3 -1.125025462e-14 0)
(3 -1.395712407e-14 0)
(3 -1.559519153e-14 0)
(3 -1.341013292e-14 0)
(3 -1.101156731e-14 0)
(3 -1.12028611e-14 0)
(3 -1.054229935e-14 0)
(3 -9.780577045e-15 0)
(3 -8.239755592e-15 0)
(3 -5.857487984e-15 0)
(3 -5.525325415e-15 0)
(3 -7.406932525e-15 0)
(3 -7.299189959e-15 0)
(3 -7.606302015e-15 0)
(3 -7.589289111e-15 0)
(3 -7.361080088e-15 0)
(3 -7.704009531e-15 0)
(3 -5.776734648e-15 0)
(3 -6.096192584e-15 0)
(3 -4.570228464e-15 0)
(3 -1.689122587e-15 0)
(3 -1.096719754e-15 0)
(3 -7.566628491e-16 0)
(3 -1.213887268e-15 0)
(3 -2.593397437e-15 0)
(3 -3.749472261e-15 0)
(3 -5.517163917e-15 0)
(3 -6.387195756e-15 0)
(3 -6.247432045e-15 0)
(3 -5.453926489e-15 0)
(3 -3.964069603e-15 0)
(3 -3.833337884e-15 0)
(3 -9.089469593e-16 0)
(3 2.750367578e-15 0)
(3 5.628278293e-15 0)
(3 4.266570535e-15 0)
(3 5.688830989e-15 0)
(3 7.744680943e-15 0)
(3 8.436869562e-15 0)
(3 1.027454569e-14 0)
(3 1.20141604e-14 0)
(3 1.31015536e-14 0)
(3 1.339949256e-14 0)
(3 1.412151184e-14 0)
(3 1.384630512e-14 0)
(3 1.291839361e-14 0)
(3 1.259092588e-14 0)
(3 1.216100115e-14 0)
(3 1.199957419e-14 0)
(3 1.008295316e-14 0)
(3 7.138348703e-15 0)
(3 3.276462789e-15 0)
(3 5.052966131e-16 0)
(3 -3.993236204e-15 0)
(3 -6.48868024e-15 0)
(3 -8.073401324e-15 0)
(3 -8.626799628e-15 0)
(3 -8.790852938e-15 0)
(3 -9.907838878e-15 0)
(3 -1.004495832e-14 0)
(3 -1.236869393e-14 0)
(3 -1.403927884e-14 0)
(3 -1.407077649e-14 0)
(3 -1.419896347e-14 0)
(3 -1.458173528e-14 0)
(3 -1.549691005e-14 0)
(3 -1.594609689e-14 0)
(3 -1.569869359e-14 0)
(3 -1.636647353e-14 0)
(3 -1.629124976e-14 0)
(3 -1.144673824e-14 0)
(3 -1.05217059e-14 0)
(3 -1.033188356e-14 0)
(3 -1.053136257e-14 0)
(3 -6.837293159e-15 0)
(3 -4.994281872e-15 0)
(3 -4.588193994e-15 0)
(3 -4.557260793e-15 0)
(3 -6.836796259e-15 0)
(3 -8.210945935e-15 0)
(3 -9.685149059e-15 0)
(3 -1.030919927e-14 0)
(3 -1.018488905e-14 0)
(3 -9.974355381e-15 0)
(3 -9.567540624e-15 0)
(3 -9.463873548e-15 0)
(3 -7.723096678e-15 0)
(3 -4.710267313e-15 0)
(3 -4.221222474e-15 0)
(3 -3.050738233e-15 0)
(3 -2.547820958e-15 0)
(3 -3.20042273e-15 0)
(3 -4.354297124e-15 0)
(3 -4.962784204e-15 0)
(3 -6.282473487e-15 0)
(3 -6.005690767e-15 0)
(3 -4.445337383e-15 0)
(3 -3.088846957e-15 0)
(3 -5.090961251e-16 0)
(3 2.18625398e-15 0)
(3 4.210853407e-15 0)
(3 7.416100816e-15 0)
(3 7.648003949e-15 0)
(3 6.888285898e-15 0)
(3 7.898534659e-15 0)
(3 9.176843395e-15 0)
(3 9.628347264e-15 0)
(3 9.488120868e-15 0)
(3 1.142154002e-14 0)
(3 1.385178402e-14 0)
(3 1.58319016e-14 0)
(3 1.510335231e-14 0)
(3 1.377460286e-14 0)
(3 1.164852516e-14 0)
(3 1.149744953e-14 0)
(3 1.193403451e-14 0)
(3 1.170531663e-14 0)
(3 1.004163823e-14 0)
(3 4.375229317e-15 0)
(3 -2.230546727e-16 0)
(3 -6.656614116e-15 0)
(3 -1.066625966e-14 0)
(3 -1.188176261e-14 0)
(3 -1.229876636e-14 0)
(3 -1.250714286e-14 0)
(3 -1.266877408e-14 0)
(3 -1.337390157e-14 0)
(3 -1.368133856e-14 0)
(3 -1.431327304e-14 0)
(3 -1.464851753e-14 0)
(3 -1.572306848e-14 0)
(3 -1.799730362e-14 0)
(3 -1.891806084e-14 0)
(3 -1.766865844e-14 0)
(3 -1.433101516e-14 0)
(3 -1.147461614e-14 0)
(3 -8.489539565e-15 0)
(3 -7.274153917e-15 0)
(3 -6.314863592e-15 0)
(3 -3.798349512e-15 0)
(3 -9.341841236e-16 0)
(3 -4.8233001e-16 0)
(3 -4.547643818e-16 0)
(3 3.331149497e-16 0)
(3 1.108204551e-15 0)
(3 -8.584136628e-15 0)
(3 -1.037670299e-14 0)
(3 -1.002893621e-14 0)
(3 -1.064971755e-14 0)
(3 -9.577949773e-15 0)
(3 -8.966474331e-15 0)
(3 -8.715137643e-15 0)
(3 -6.991392372e-15 0)
(3 -5.155211926e-15 0)
(3 -2.760814932e-15 0)
(3 -2.085040718e-15 0)
(3 -2.191650439e-15 0)
(3 -1.464419742e-15 0)
(3 -1.269174782e-15 0)
(3 -1.509659131e-15 0)
(3 -1.437799799e-15 0)
(3 -2.534243516e-15 0)
(3 -2.156088849e-15 0)
(3 -2.794750386e-15 0)
(3 -2.287343537e-15 0)
(3 -5.489291444e-16 0)
(3 7.92168204e-16 0)
(3 4.17044778e-15 0)
(3 5.538811043e-15 0)
(3 6.033596948e-15 0)
(3 5.80789579e-15 0)
(3 5.398634757e-15 0)
(3 5.007531312e-15 0)
(3 5.270136893e-15 0)
(3 4.257408473e-15 0)
(3 4.861605517e-15 0)
(3 6.668905385e-15 0)
(3 9.28147115e-15 0)
(3 9.97640163e-15 0)
(3 1.089378993e-14 0)
(3 1.098152857e-14 0)
(3 1.03996917e-14 0)
(3 7.389576604e-15 0)
(3 5.279492721e-15 0)
(3 2.298941246e-15 0)
(3 -7.309289358e-16 0)
(3 -4.512623947e-15 0)
(3 -5.866250139e-15 0)
(3 -8.698493607e-15 0)
(3 -1.074298871e-14 0)
(3 -1.215708987e-14 0)
(3 -1.298928938e-14 0)
(3 -1.308763794e-14 0)
(3 -1.370724542e-14 0)
(3 -1.456127759e-14 0)
(3 -1.507199084e-14 0)
(3 -1.521803245e-14 0)
(3 -1.520053186e-14 0)
(3 -1.501404025e-14 0)
(3 -1.459213071e-14 0)
(3 -1.320835796e-14 0)
(3 -8.655523126e-15 0)
(3 -5.557383981e-15 0)
(3 -3.995831208e-15 0)
(3 -1.692255906e-15 0)
(3 2.348084822e-15 0)
(3 4.089859064e-15 0)
(3 3.955691898e-15 0)
(3 2.429844346e-15 0)
(3 1.56058937e-15 0)
(3 2.254726201e-15 0)
(3 4.81727068e-15 0)
(3 -8.874246419e-15 0)
(3 -7.36613476e-15 0)
(3 -6.010491745e-15 0)
(3 -4.959852936e-15 0)
(3 -5.501806023e-15 0)
(3 -6.616549757e-15 0)
(3 -6.161205684e-15 0)
(3 -5.429437845e-15 0)
(3 -6.188177961e-15 0)
(3 -6.016978885e-15 0)
(3 -5.154217231e-15 0)
(3 -3.700046076e-15 0)
(3 -2.698752137e-15 0)
(3 -4.976690726e-16 0)
(3 1.526684291e-15 0)
(3 3.463264701e-15 0)
(3 4.573108364e-15 0)
(3 4.451045367e-15 0)
(3 4.669636026e-15 0)
(3 4.652719444e-15 0)
(3 5.366069197e-15 0)
(3 6.628981513e-15 0)
(3 6.222735409e-15 0)
(3 5.486469015e-15 0)
(3 6.779523273e-15 0)
(3 6.747178761e-15 0)
(3 5.970247739e-15 0)
(3 3.447734048e-15 0)
(3 2.839246126e-15 0)
(3 3.410665597e-15 0)
(3 1.548174089e-15 0)
(3 3.223792804e-16 0)
(3 5.017002234e-16 0)
(3 4.135563337e-15 0)
(3 5.927861653e-15 0)
(3 6.448345068e-15 0)
(3 4.543854362e-15 0)
(3 3.054117979e-15 0)
(3 1.192697431e-15 0)
(3 -1.199761282e-15 0)
(3 -2.848323804e-15 0)
(3 -3.115164832e-15 0)
(3 -4.831731645e-15 0)
(3 -9.12804696e-15 0)
(3 -1.221385509e-14 0)
(3 -1.242242256e-14 0)
(3 -1.211402267e-14 0)
(3 -1.291770486e-14 0)
(3 -1.373599032e-14 0)
(3 -1.513970698e-14 0)
(3 -1.567565393e-14 0)
(3 -1.473045707e-14 0)
(3 -1.086021244e-14 0)
(3 -7.92054465e-15 0)
(3 -4.088836586e-15 0)
(3 3.284481284e-18 0)
(3 2.443945027e-15 0)
(3 2.564762811e-15 0)
(3 3.908908437e-15 0)
(3 5.644831305e-15 0)
(3 7.910190387e-15 0)
(3 8.181413423e-15 0)
(3 7.596880626e-15 0)
(3 6.940516967e-15 0)
(3 7.148502809e-15 0)
(3 6.890825596e-15 0)
(3 8.370547617e-15 0)
(3 -2.047212207e-15 0)
(3 -2.272366436e-15 0)
(3 -1.377785403e-15 0)
(3 -2.3737775e-15 0)
(3 -2.3641978e-15 0)
(3 -1.838321591e-15 0)
(3 -1.695705501e-15 0)
(3 -2.988720235e-15 0)
(3 -6.251919112e-15 0)
(3 -7.410880167e-15 0)
(3 -6.901932004e-15 0)
(3 -3.140283906e-15 0)
(3 -8.531831078e-16 0)
(3 1.786868711e-15 0)
(3 4.620923827e-15 0)
(3 7.999419559e-15 0)
(3 9.08023831e-15 0)
(3 9.105396882e-15 0)
(3 8.225943209e-15 0)
(3 8.553990251e-15 0)
(3 9.084456652e-15 0)
(3 9.972696172e-15 0)
(3 9.593795406e-15 0)
(3 9.217314476e-15 0)
(3 9.602714223e-15 0)
(3 1.218462098e-14 0)
(3 1.197973952e-14 0)
(3 9.434359563e-15 0)
(3 3.975569775e-15 0)
(3 2.923426571e-15 0)
(3 1.895403269e-15 0)
(3 7.008043789e-17 0)
(3 -6.750665863e-16 0)
(3 -1.369000264e-15 0)
(3 -2.313551664e-15 0)
(3 -2.314184892e-15 0)
(3 -1.988410737e-15 0)
(3 -2.161765677e-16 0)
(3 -3.886068437e-16 0)
(3 -9.361484013e-16 0)
(3 -1.96681737e-15 0)
(3 -3.722469499e-15 0)
(3 -6.013227429e-15 0)
(3 -9.588639511e-15 0)
(3 -1.414820473e-14 0)
(3 -1.554406638e-14 0)
(3 -1.506169195e-14 0)
(3 -1.430286804e-14 0)
(3 -1.379725932e-14 0)
(3 -1.318238441e-14 0)
(3 -1.237459395e-14 0)
(3 -6.800409762e-15 0)
(3 -2.289250813e-15 0)
(3 9.089742783e-16 0)
(3 2.533990326e-15 0)
(3 5.542959253e-15 0)
(3 7.190748173e-15 0)
(3 8.32681185e-15 0)
(3 9.6457743e-15 0)
(3 1.007771699e-14 0)
(3 1.027326142e-14 0)
(3 1.157776346e-14 0)
(3 1.391594065e-14 0)
(3 1.174965267e-14 0)
(3 1.046617434e-14 0)
(3 8.899382081e-15 0)
(3 7.740413727e-15 0)
(3 -4.393575423e-15 0)
(3 -2.043631749e-15 0)
(3 -1.297493888e-15 0)
(3 -2.124921112e-15 0)
(3 -2.73231774e-15 0)
(3 -2.697400861e-15 0)
(3 -3.439161149e-15 0)
(3 -4.568479815e-15 0)
(3 -6.197914167e-15 0)
(3 -7.109822507e-15 0)
(3 -7.075673358e-15 0)
(3 -5.906945699e-15 0)
(3 -3.540090832e-15 0)
(3 -1.970482093e-15 0)
(3 -1.601933879e-15 0)
(3 7.661786185e-16 0)
(3 1.973052344e-15 0)
(3 2.731912623e-15 0)
(3 2.785345846e-15 0)
(3 4.52453949e-15 0)
(3 5.805470614e-15 0)
(3 6.32095688e-15 0)
(3 6.264263918e-15 0)
(3 7.598254753e-15 0)
(3 9.411554087e-15 0)
(3 1.153259051e-14 0)
(3 1.194838074e-14 0)
(3 1.199136803e-14 0)
(3 8.874931897e-15 0)
(3 7.271705652e-15 0)
(3 4.478020539e-15 0)
(3 2.642669159e-15 0)
(3 -5.709023605e-16 0)
(3 -3.604269485e-15 0)
(3 -8.46655554e-15 0)
(3 -8.957971449e-15 0)
(3 -7.220632067e-15 0)
(3 -6.59975058e-15 0)
(3 -6.477980756e-15 0)
(3 -5.986663072e-15 0)
(3 -4.596987778e-15 0)
(3 -5.145060093e-15 0)
(3 -5.608148417e-15 0)
(3 -5.552328753e-15 0)
(3 -8.53040059e-15 0)
(3 -9.025691362e-15 0)
(3 -9.747271811e-15 0)
(3 -9.144315572e-15 0)
(3 -7.689148203e-15 0)
(3 -5.997908811e-15 0)
(3 -3.68607166e-15 0)
(3 -1.010164229e-15 0)
(3 4.788097255e-15 0)
(3 8.591933445e-15 0)
(3 1.110124396e-14 0)
(3 1.172854859e-14 0)
(3 1.261635964e-14 0)
(3 1.386329547e-14 0)
(3 1.394678923e-14 0)
(3 1.411548716e-14 0)
(3 1.446984267e-14 0)
(3 1.474137556e-14 0)
(3 1.441255264e-14 0)
(3 1.4116296e-14 0)
(3 1.003805695e-14 0)
(3 9.517978316e-15 0)
(3 6.444007568e-15 0)
(3 -1.244574826e-15 0)
(3 6.489400632e-16 0)
(3 9.141630321e-16 0)
(3 1.227009895e-15 0)
(3 4.065385064e-16 0)
(3 -1.712910888e-15 0)
(3 -5.310717922e-15 0)
(3 -6.905236235e-15 0)
(3 -7.71388931e-15 0)
(3 -8.130595366e-15 0)
(3 -8.729527047e-15 0)
(3 -1.019627668e-14 0)
(3 -1.169714949e-14 0)
(3 -1.247640332e-14 0)
(3 -1.257423178e-14 0)
(3 -1.185330056e-14 0)
(3 -9.189850945e-15 0)
(3 -7.336054842e-15 0)
(3 -3.831865625e-15 0)
(3 4.455104802e-16 0)
(3 2.778707895e-15 0)
(3 4.212099388e-15 0)
(3 4.981603978e-15 0)
(3 6.000362177e-15 0)
(3 5.610818712e-15 0)
(3 6.893443954e-15 0)
(3 8.011034898e-15 0)
(3 9.405940932e-15 0)
(3 9.931439182e-15 0)
(3 8.184396267e-15 0)
(3 5.135167093e-15 0)
(3 3.377807158e-15 0)
(3 3.574553666e-15 0)
(3 1.260519715e-15 0)
(3 -4.204776903e-15 0)
(3 -7.015037778e-15 0)
(3 -8.520407186e-15 0)
(3 -8.834503531e-15 0)
(3 -7.092396485e-15 0)
(3 -5.83871181e-15 0)
(3 -3.003794509e-15 0)
(3 -1.056211436e-15 0)
(3 -1.243102744e-15 0)
(3 -2.434109344e-15 0)
(3 -3.968612919e-15 0)
(3 -6.242805749e-15 0)
(3 -5.87124543e-15 0)
(3 -5.676337339e-15 0)
(3 -2.878463755e-15 0)
(3 8.640047677e-16 0)
(3 5.847985225e-15 0)
(3 7.242890438e-15 0)
(3 9.81162492e-15 0)
(3 1.181032992e-14 0)
(3 1.267366419e-14 0)
(3 1.449443131e-14 0)
(3 1.772294395e-14 0)
(3 1.800728841e-14 0)
(3 1.738865699e-14 0)
(3 1.730720097e-14 0)
(3 1.627276554e-14 0)
(3 1.623985666e-14 0)
(3 1.515064233e-14 0)
(3 1.456271936e-14 0)
(3 1.382572938e-14 0)
(3 1.217391822e-14 0)
(3 9.176543318e-15 0)
(3 -1.503949808e-16 0)
(3 -6.108879994e-16 0)
(3 -1.311463306e-15 0)
(3 -2.019703917e-15 0)
(3 -2.342508647e-15 0)
(3 -3.418752487e-15 0)
(3 -5.452568251e-15 0)
(3 -5.381835114e-15 0)
(3 -3.295295277e-15 0)
(3 -2.186147798e-15 0)
(3 -2.698731106e-15 0)
(3 -5.456421594e-15 0)
(3 -8.249412234e-15 0)
(3 -8.788753161e-15 0)
(3 -9.321951291e-15 0)
(3 -1.017776531e-14 0)
(3 -7.520039712e-15 0)
(3 -3.738570342e-15 0)
(3 -9.730832467e-16 0)
(3 4.211105996e-16 0)
(3 2.012025998e-16 0)
(3 1.362816596e-15 0)
(3 2.935859912e-15 0)
(3 2.932436672e-15 0)
(3 1.434400395e-15 0)
(3 7.356182162e-16 0)
(3 1.105033703e-15 0)
(3 2.043112669e-15 0)
(3 3.589947273e-15 0)
(3 5.393764118e-15 0)
(3 6.205903363e-15 0)
(3 5.534124957e-15 0)
(3 5.213035735e-15 0)
(3 3.551769689e-15 0)
(3 5.760847022e-17 0)
(3 -4.933828805e-15 0)
(3 -6.190471308e-15 0)
(3 -5.6187477e-15 0)
(3 -5.110117323e-15 0)
(3 -3.410289386e-15 0)
(3 -2.300311305e-15 0)
(3 -7.966004614e-16 0)
(3 5.765933962e-16 0)
(3 2.570068147e-16 0)
(3 2.220927202e-15 0)
(3 6.747795997e-16 0)
(3 2.76490634e-15 0)
(3 6.686764931e-15 0)
(3 9.893585206e-15 0)
(3 1.040954953e-14 0)
(3 1.018602018e-14 0)
(3 9.970035214e-15 0)
(3 1.103928546e-14 0)
(3 1.174530023e-14 0)
(3 1.146659534e-14 0)
(3 1.347111093e-14 0)
(3 1.334813277e-14 0)
(3 1.436236859e-14 0)
(3 1.42107115e-14 0)
(3 1.343174319e-14 0)
(3 1.296201053e-14 0)
(3 1.340995678e-14 0)
(3 1.391369354e-14 0)
(3 1.361462322e-14 0)
(3 1.28409426e-14 0)
(3 1.169273089e-14 0)
(3 8.315578409e-15 0)
(3 -2.308832935e-15 0)
(3 -3.845680735e-15 0)
(3 -6.02887371e-15 0)
(3 -6.4683297e-15 0)
(3 -7.35932984e-15 0)
(3 -6.066520896e-15 0)
(3 -2.567541067e-15 0)
(3 5.993321984e-16 0)
(3 2.806332671e-15 0)
(3 2.967564769e-15 0)
(3 3.111275525e-15 0)
(3 1.193810322e-15 0)
(3 -3.554576945e-15 0)
(3 -5.400683552e-15 0)
(3 -7.389395943e-15 0)
(3 -9.123659508e-15 0)
(3 -9.922352924e-15 0)
(3 -7.955132162e-15 0)
(3 -7.835470679e-15 0)
(3 -1.098920554e-14 0)
(3 -1.073300465e-14 0)
(3 -8.617535712e-15 0)
(3 -5.960645351e-15 0)
(3 -4.927760009e-15 0)
(3 -8.430065138e-15 0)
(3 -1.088754052e-14 0)
(3 -1.023200156e-14 0)
(3 -8.767065374e-15 0)
(3 -7.564755243e-15 0)
(3 -3.475656921e-15 0)
(3 2.258442798e-16 0)
(3 2.582102963e-15 0)
(3 2.558202732e-15 0)
(3 2.743034427e-15 0)
(3 -2.507292473e-16 0)
(3 -3.817874885e-15 0)
(3 -3.429432739e-15 0)
(3 -2.449314519e-15 0)
(3 -2.003690353e-15 0)
(3 -2.133174784e-15 0)
(3 -2.967293172e-15 0)
(3 -1.533381104e-15 0)
(3 9.572051711e-16 0)
(3 5.424805541e-15 0)
(3 8.666589061e-15 0)
(3 7.973574241e-15 0)
(3 7.915024517e-15 0)
(3 1.101967052e-14 0)
(3 1.206467175e-14 0)
(3 1.262226603e-14 0)
(3 1.188023341e-14 0)
(3 1.139826118e-14 0)
(3 1.034363075e-14 0)
(3 9.574092391e-15 0)
(3 1.070277225e-14 0)
(3 1.013696702e-14 0)
(3 6.52914684e-15 0)
(3 5.541842028e-15 0)
(3 5.999779002e-15 0)
(3 6.890282553e-15 0)
(3 7.619273443e-15 0)
(3 8.259471723e-15 0)
(3 8.425623911e-15 0)
(3 9.044133733e-15 0)
(3 8.820074258e-15 0)
(3 9.03781001e-15 0)
(3 7.182727385e-15 0)
(3 -5.489771533e-15 0)
(3 -5.744020899e-15 0)
(3 -4.739422479e-15 0)
(3 -4.598079804e-15 0)
(3 -4.785841426e-15 0)
(3 7.403464685e-16 0)
(3 4.371317942e-15 0)
(3 4.976573018e-15 0)
(3 3.545616443e-15 0)
(3 5.239451694e-15 0)
(3 7.339975073e-15 0)
(3 7.368370597e-15 0)
(3 6.406657786e-15 0)
(3 3.776135273e-15 0)
(3 6.413779326e-17 0)
(3 -2.018322606e-15 0)
(3 -6.558197905e-15 0)
(3 -1.367138685e-14 0)
(3 -1.519329459e-14 0)
(3 -1.546129142e-14 0)
(3 -1.631824189e-14 0)
(3 -1.660791242e-14 0)
(3 -1.413638468e-14 0)
(3 -1.190778076e-14 0)
(3 -9.87974846e-15 0)
(3 -9.599678109e-15 0)
(3 -1.097732917e-14 0)
(3 -1.078878592e-14 0)
(3 -8.849592837e-15 0)
(3 -5.680094072e-15 0)
(3 -3.701936466e-15 0)
(3 -2.763832529e-15 0)
(3 -4.446464678e-15 0)
(3 -3.813935257e-15 0)
(3 -3.019703762e-15 0)
(3 -2.609749021e-15 0)
(3 -3.288935627e-15 0)
(3 -3.073223918e-15 0)
(3 -1.303250198e-15 0)
(3 5.838111331e-16 0)
(3 6.674368437e-16 0)
(3 2.163448283e-15 0)
(3 5.090576809e-15 0)
(3 7.743360409e-15 0)
(3 1.141866221e-14 0)
(3 1.464492304e-14 0)
(3 1.625691668e-14 0)
(3 1.563888679e-14 0)
(3 1.416811635e-14 0)
(3 1.270302613e-14 0)
(3 1.217280236e-14 0)
(3 1.114503814e-14 0)
(3 8.010443914e-15 0)
(3 7.249962604e-15 0)
(3 7.846487199e-15 0)
(3 5.281757701e-15 0)
(3 2.561285637e-15 0)
(3 2.250091415e-15 0)
(3 2.847360238e-15 0)
(3 3.71341486e-15 0)
(3 4.580727799e-15 0)
(3 6.119789715e-15 0)
(3 6.981375855e-15 0)
(3 6.518765804e-15 0)
(3 5.432252193e-15 0)
(3 6.011283065e-15 0)
(3 5.588842801e-15 0)
(3 -1.167741034e-14 0)
(3 -1.103585258e-14 0)
(3 -9.721918008e-15 0)
(3 -8.566460477e-15 0)
(3 -5.758818879e-15 0)
(3 2.892522324e-16 0)
(3 5.064028763e-15 0)
(3 8.19149403e-15 0)
(3 1.034766415e-14 0)
(3 1.152309212e-14 0)
(3 1.219356653e-14 0)
(3 1.388587727e-14 0)
(3 1.364169081e-14 0)
(3 1.011080408e-14 0)
(3 5.386482649e-15 0)
(3 3.225579927e-15 0)
(3 1.220276516e-15 0)
(3 -4.212481531e-15 0)
(3 -1.025791541e-14 0)
(3 -1.179500115e-14 0)
(3 -1.265544164e-14 0)
(3 -1.245479834e-14 0)
(3 -1.320162547e-14 0)
(3 -1.402294832e-14 0)
(3 -1.211189577e-14 0)
(3 -1.103496682e-14 0)
(3 -1.133648496e-14 0)
(3 -1.155348336e-14 0)
(3 -1.243331599e-14 0)
(3 -1.366112518e-14 0)
(3 -1.536783764e-14 0)
(3 -1.199880478e-14 0)
(3 -8.826923643e-15 0)
(3 -6.90788524e-15 0)
(3 -1.1279164e-15 0)
(3 1.272509279e-15 0)
(3 1.062418183e-15 0)
(3 -1.694191144e-16 0)
(3 2.437192236e-15 0)
(3 4.330121574e-15 0)
(3 5.819260668e-15 0)
(3 6.029839878e-15 0)
(3 8.286272901e-15 0)
(3 1.287832302e-14 0)
(3 1.605332152e-14 0)
(3 1.973536114e-14 0)
(3 2.080136499e-14 0)
(3 2.050073694e-14 0)
(3 1.987110944e-14 0)
(3 1.693269541e-14 0)
(3 1.522314837e-14 0)
(3 1.23426503e-14 0)
(3 1.149669633e-14 0)
(3 1.017182569e-14 0)
(3 8.408336175e-15 0)
(3 5.942922156e-15 0)
(3 4.665618883e-15 0)
(3 3.293646193e-15 0)
(3 2.223402829e-15 0)
(3 1.537108371e-15 0)
(3 5.072833677e-16 0)
(3 7.829381177e-16 0)
(3 2.410421262e-15 0)
(3 3.304048582e-15 0)
(3 4.202254212e-15 0)
(3 5.918450172e-15 0)
(3 6.801878254e-15 0)
(3 -1.265894598e-14 0)
(3 -1.043945461e-14 0)
(3 -6.966309818e-15 0)
(3 -4.947381396e-15 0)
(3 -2.953096802e-15 0)
(3 6.035811062e-16 0)
(3 3.964568193e-15 0)
(3 8.089639668e-15 0)
(3 1.078775108e-14 0)
(3 9.330435492e-15 0)
(3 8.818912504e-15 0)
(3 8.899356607e-15 0)
(3 8.886195563e-15 0)
(3 9.855786121e-15 0)
(3 9.163545025e-15 0)
(3 7.728496107e-15 0)
(3 7.026910447e-15 0)
(3 4.961523363e-15 0)
(3 1.534814701e-15 0)
(3 -4.264938163e-16 0)
(3 -3.638135964e-15 0)
(3 -4.408969242e-15 0)
(3 -5.645187452e-15 0)
(3 -7.660992068e-15 0)
(3 -1.059012011e-14 0)
(3 -1.085230539e-14 0)
(3 -1.029133468e-14 0)
(3 -1.093716927e-14 0)
(3 -1.22378285e-14 0)
(3 -1.439682949e-14 0)
(3 -1.468087686e-14 0)
(3 -1.345325903e-14 0)
(3 -9.900472497e-15 0)
(3 -3.698221102e-15 0)
(3 -7.709839393e-16 0)
(3 1.295500283e-15 0)
(3 2.503820109e-15 0)
(3 4.066579656e-15 0)
(3 4.724095304e-15 0)
(3 5.653067433e-15 0)
(3 6.722579156e-15 0)
(3 8.970128615e-15 0)
(3 1.167549933e-14 0)
(3 1.301890232e-14 0)
(3 1.508000394e-14 0)
(3 1.660584359e-14 0)