/*--------------------------------*- C++ -*----------------------------------*\
  =========                 |
  \\      /  F ield         | OpenFOAM: The Open Source CFD Toolbox
   \\    /   O peration     | Website:  https://openfoam.org
    \\  /    A nd           | Version:  7
     \\/     M anipulation  |
\*---------------------------------------------------------------------------*/
FoamFile
{
    version     2.0;
    format      ascii;
    class       volVectorField;
    location    "3.7";
    object      U;
}
// * * * * * * * * * * * * * * * * * * * * * * * * * * * * * * * * * * * * * //

dimensions      [0 1 -1 0 0 0 0];

internalField   nonuniform List<vector> 
2222
(
(1.924594315 0.003196451857 0)
(1.950272321 0.003480777411 0)
(1.975689047 0.003694525959 0)
(2.000383538 0.003818099907 0)
(2.024018254 0.003883994426 0)
(2.046482667 0.003916438645 0)
(2.067981823 0.003937563242 0)
(2.088917039 0.003987377799 0)
(2.10960352 0.004111099622 0)
(2.130090384 0.004301967374 0)
(2.150242404 0.004496118242 0)
(2.169846291 0.004634186059 0)
(2.188710778 0.004717100002 0)
(2.206781311 0.004765141633 0)
(2.224207551 0.00480662405 0)
(2.241307019 0.004849215077 0)
(2.258438984 0.004900886652 0)
(2.275423571 0.004996890209 0)
(2.291907944 0.005108032613 0)
(2.307834502 0.005162013949 0)
(2.323206155 0.005180464979 0)
(2.33795195 0.005309172964 0)
(2.35192621 0.005351096024 0)
(2.365416752 0.005288225842 0)
(2.378667553 0.005217949451 0)
(2.391833138 0.00517675083 0)
(2.40496585 0.005124063374 0)
(2.417957738 0.0050830792 0)
(2.430662608 0.005097057705 0)
(2.442927416 0.005167978872 0)
(2.454660457 0.005255594124 0)
(2.466064014 0.005289596366 0)
(1.923652055 0.009387345183 0)
(1.949065032 0.01020770922 0)
(1.974208387 0.01081185465 0)
(1.998726388 0.01121662072 0)
(2.022284761 0.0114537235 0)
(2.044764825 0.01161234904 0)
(2.066348689 0.01176014696 0)
(2.087377289 0.01196087637 0)
(2.108080537 0.01229267493 0)
(2.12847368 0.01276926155 0)
(2.148447466 0.01326692506 0)
(2.167867666 0.0136296964 0)
(2.186616217 0.01383652772 0)
(2.204645841 0.01395226136 0)
(2.222130332 0.0140563691 0)
(2.239202493 0.01418831455 0)
(2.256067081 0.01424747619 0)
(2.272823257 0.01447962608 0)
(2.289020389 0.01471687992 0)
(2.304525029 0.01466025932 0)
(2.319675819 0.01453104099 0)
(2.334329124 0.014817389 0)
(2.348276669 0.01486794619 0)
(2.36187629 0.01475898903 0)
(2.375273529 0.01464817803 0)
(2.388554362 0.0145817236 0)
(2.401802127 0.01443613809 0)
(2.414899053 0.01432850814 0)
(2.427621903 0.01439455691 0)
(2.439820467 0.01462984229 0)
(2.451446773 0.01488244217 0)
(2.462733883 0.01490790905 0)
(1.923927517 0.01562804542 0)
(1.949384705 0.01695601353 0)
(1.974507174 0.01797099296 0)
(1.998975412 0.01863618062 0)
(2.02242993 0.01903608425 0)
(2.044771165 0.01931608106 0)
(2.06620299 0.01962759931 0)
(2.087083696 0.02006778844 0)
(2.10767389 0.02069297544 0)
(2.128021758 0.02147000394 0)
(2.147980282 0.0222224211 0)
(2.167355691 0.02275557537 0)
(2.186036206 0.02304790863 0)
(2.204032941 0.0232167697 0)
(2.221516624 0.02337045668 0)
(2.23853305 0.023692306 0)
(2.255163404 0.0240523144 0)
(2.271676189 0.02444636293 0)
(2.288037785 0.0249694592 0)
(2.303487519 0.02511778289 0)
(2.318003739 0.02470755931 0)
(2.332723652 0.02512073811 0)
(2.347187491 0.02531298987 0)
(2.361095283 0.02521972997 0)
(2.37445829 0.02512038003 0)
(2.387594726 0.02507413568 0)
(2.400736451 0.02487024858 0)
(2.413879041 0.02468527838 0)
(2.426777759 0.02478250196 0)
(2.439118917 0.02514890981 0)
(2.450798491 0.02555108444 0)
(2.462055301 0.02559148835 0)
(1.925042168 0.02171870079 0)
(1.950388495 0.02345941749 0)
(1.975372932 0.02486840549 0)
(1.99971811 0.02585186189 0)
(2.023163839 0.02649601756 0)
(2.045645149 0.02698718053 0)
(2.067329611 0.02754009515 0)
(2.088509523 0.02826517516 0)
(2.109388295 0.02913359961 0)
(2.129944092 0.03008154677 0)
(2.150004345 0.0310024045 0)
(2.169443684 0.03170876676 0)
(2.188258007 0.03213070139 0)
(2.206447374 0.03234167869 0)
(2.224034813 0.03254305055 0)
(2.241334878 0.03297432942 0)
(2.258463427 0.03344158156 0)
(2.27510469 0.03385021612 0)
(2.291096523 0.03406385052 0)
(2.306950317 0.03434957545 0)
(2.321626999 0.03443894856 0)
(2.335311107 0.03441266455 0)
(2.349890007 0.03463763132 0)
(2.363894115 0.03469332655 0)
(2.377228005 0.03475623116 0)
(2.39035895 0.03477124063 0)
(2.403489217 0.03452432757 0)
(2.416625025 0.03420458914 0)
(2.429575196 0.03423633478 0)
(2.441949813 0.03467481331 0)
(2.453651049 0.03518687059 0)
(2.464899897 0.03521370261 0)
(1.925547029 0.02787376344 0)
(1.95074865 0.02999707808 0)
(1.975498991 0.03168729694 0)
(1.999576231 0.03290595034 0)
(2.022786211 0.03376269072 0)
(2.045078982 0.03448898374 0)
(2.066617539 0.03533227934 0)
(2.087685687 0.03640167883 0)
(2.108493102 0.03759182747 0)
(2.129037343 0.03874926245 0)
(2.149077974 0.03977005127 0)
(2.168331414 0.04052953301 0)
(2.186741533 0.04100961922 0)
(2.204438732 0.04132548828 0)
(2.221573231 0.04172691228 0)
(2.23838395 0.0422760403 0)
(2.25494715 0.0427972748 0)
(2.271489397 0.04313837482 0)
(2.288049043 0.04314182485 0)
(2.303496021 0.04347782894 0)
(2.318107484 0.04407218224 0)
(2.332735662 0.04376406889 0)
(2.346796199 0.04375995829 0)
(2.360381182 0.043799301 0)
(2.373805162 0.04398956533 0)
(2.387168574 0.04407375244 0)
(2.400342511 0.04382837894 0)
(2.413267977 0.04336560445 0)
(2.425949337 0.04321282524 0)
(2.438275995 0.04371709534 0)
(2.450094656 0.04437009733 0)
(2.461485071 0.04444999163 0)
(1.926246604 0.03407561675 0)
(1.951390544 0.03647763009 0)
(1.976017757 0.03846252529 0)
(1.999956126 0.0399752629 0)
(2.023077248 0.04112473056 0)
(2.045400806 0.04216267124 0)
(2.067060325 0.04332040017 0)
(2.088218195 0.04469109549 0)
(2.108995398 0.0461232382 0)
(2.129409507 0.04738541004 0)
(2.149316233 0.04844739789 0)
(2.168511123 0.04928605495 0)
(2.186989989 0.04990917224 0)
(2.204948601 0.05042285829 0)
(2.222559358 0.05101824266 0)
(2.239724566 0.05174242778 0)
(2.256203533 0.05255591626 0)
(2.272229124 0.05311247306 0)
(2.288031654 0.05327976191 0)
(2.303378283 0.05407246894 0)
(2.31897681 0.05461008687 0)
(2.333399606 0.05466308614 0)
(2.346599798 0.0551302576 0)
(2.359862608 0.05547971858 0)
(2.373591806 0.05570380996 0)
(2.38732428 0.05579054319 0)
(2.400449952 0.05565187245 0)
(2.412900509 0.05526066147 0)
(2.425186161 0.05507689015 0)
(2.437580464 0.05561745728 0)
(2.449692617 0.0562630919 0)
(2.461353203 0.05633381403 0)
(1.927329897 0.04035211233 0)
(1.952174032 0.04298362719 0)
(1.976491851 0.04519273606 0)
(2.000294111 0.04697912114 0)
(2.023469983 0.04845396657 0)
(2.045950811 0.0498259662 0)
(2.067765021 0.05130955657 0)
(2.089035417 0.05297567651 0)
(2.109894746 0.05467784298 0)
(2.13029213 0.05607979466 0)
(2.150108288 0.05711548383 0)
(2.16925475 0.05794775877 0)
(2.187687877 0.05868877655 0)
(2.205519355 0.05939668044 0)
(2.223042737 0.06014359822 0)
(2.240468142 0.06097553388 0)
(2.257808553 0.06192042175 0)
(2.274887453 0.06272508856 0)
(2.291362141 0.06319478161 0)
(2.307217207 0.06324173272 0)
(2.322882918 0.06320974822 0)
(2.337337218 0.06354787473 0)
(2.350164773 0.06403907376 0)
(2.363494816 0.06453212849 0)
(2.377429018 0.0647571374 0)
(2.391293807 0.06487894807 0)
(2.404385658 0.06496507912 0)
(2.416610981 0.06480316934 0)
(2.428677064 0.06437561205 0)
(2.441288096 0.06483953421 0)
(2.453601758 0.06539239912 0)
(2.465388823 0.06554840247 0)
(1.929397075 0.04657741212 0)
(1.954171834 0.04952162927 0)
(1.978023419 0.0520993621 0)
(2.001047069 0.05417741968 0)
(2.023608977 0.05590696411 0)
(2.045923861 0.05758491991 0)
(2.067836479 0.05940772166 0)
(2.089139885 0.06134132642 0)
(2.109874106 0.06318574177 0)
(2.130176609 0.0646783345 0)
(2.150091215 0.06572461121 0)
(2.169430153 0.06657069443 0)
(2.188025778 0.06746538135 0)
(2.206037446 0.06843424957 0)
(2.22380716 0.06944169259 0)
(2.241230602 0.07042344074 0)
(2.257937504 0.07144770532 0)
(2.273657578 0.07245357263 0)
(2.288669048 0.07324648929 0)
(2.304080197 0.07286602762 0)
(2.319734333 0.07215774299 0)
(2.333956104 0.07257523708 0)
(2.347344836 0.07312678873 0)
(2.361000472 0.07384035548 0)
(2.37504177 0.0742944466 0)
(2.388967516 0.07466349696 0)
(2.402141028 0.07507925511 0)
(2.414364214 0.07527281798 0)
(2.426215889 0.07479467283 0)
(2.438440659 0.07457940958 0)
(2.450421074 0.07463974255 0)
(2.462120653 0.07463174531 0)
(1.929524033 0.05283764345 0)
(1.954301314 0.05598510809 0)
(1.978570108 0.05885566613 0)
(2.002480085 0.06140128565 0)
(2.025872504 0.06359264778 0)
(2.048638908 0.06557099999 0)
(2.070739872 0.06758127444 0)
(2.092011051 0.06970515583 0)
(2.112283008 0.0717657546 0)
(2.131683239 0.07348771497 0)
(2.150443992 0.07457657814 0)
(2.168933845 0.07529960215 0)
(2.187374453 0.07627444138 0)
(2.205426393 0.07747945176 0)
(2.223056573 0.07872576392 0)
(2.240441532 0.07995651361 0)
(2.257669169 0.0811094012 0)
(2.274421639 0.08224979456 0)
(2.290357508 0.08331392748 0)
(2.305568083 0.0834120186 0)
(2.319331973 0.0826988009 0)
(2.333270338 0.0837141842 0)
(2.347716856 0.08409940709 0)
(2.361847609 0.08473474759 0)
(2.375595317 0.08519422637 0)
(2.388830823 0.08529203592 0)
(2.401837331 0.08554756506 0)
(2.414488824 0.08590851066 0)
(2.426698655 0.08575860655 0)
(2.437678576 0.08538745418 0)
(2.449526624 0.08603214699 0)
(2.46140043 0.0862016579 0)
(1.932157378 0.05910647776 0)
(1.956809631 0.06254141807 0)
(1.980209428 0.06578193143 0)
(2.002718774 0.06866078654 0)
(2.024839737 0.07119203942 0)
(2.046790352 0.07357924838 0)
(2.068589237 0.07592748751 0)
(2.090113607 0.07820278782 0)
(2.111042341 0.08029211001 0)
(2.131304356 0.08205360754 0)
(2.151307119 0.08346495913 0)
(2.171155211 0.08451816894 0)
(2.190272338 0.08549942372 0)
(2.208449254 0.08684062674 0)
(2.225730781 0.08837423907 0)
(2.242408897 0.08985268438 0)
(2.258551936 0.09093529255 0)
(2.274290368 0.09186855341 0)
(2.289976254 0.09279821352 0)
(2.305631735 0.09323488184 0)
(2.321505815 0.09346710693 0)
(2.336285704 0.09308802526 0)
(2.351296994 0.09287621567 0)
(2.365705514 0.09326988727 0)
(2.379490473 0.09393840879 0)
(2.392981631 0.09484322257 0)
(2.405533665 0.09554560264 0)
(2.417267951 0.09604874791 0)
(2.428279884 0.09616765255 0)
(2.440629953 0.09564910961 0)
(2.452659669 0.09503382525 0)
(2.464972394 0.09488175021 0)
(1.930684646 0.06536913995 0)
(1.955486415 0.06902954938 0)
(1.979497814 0.0726120657 0)
(2.003021501 0.07590220362 0)
(2.026235392 0.0789020421 0)
(2.049093003 0.08173502645 0)
(2.071452187 0.08438549747 0)
(2.093122133 0.0867781419 0)
(2.113902262 0.08891176992 0)
(2.133619586 0.09080764488 0)
(2.152259728 0.09250272225 0)
(2.170162325 0.09376662542 0)
(2.187910415 0.09482399691 0)
(2.205903439 0.09617552743 0)
(2.22381897 0.09784550661 0)
(2.241322754 0.09948166285 0)
(2.258688314 0.1007794349 0)
(2.275665497 0.1017494603 0)
(2.291566117 0.1025628783 0)
(2.306336684 0.1031731927 0)
(2.319724602 0.1039262138 0)
(2.334252495 0.1032490935 0)
(2.349286568 0.1029051349 0)
(2.363686996 0.1030979133 0)
(2.376981637 0.1035563074 0)
(2.389333665 0.1045745883 0)
(2.401886729 0.1053813072 0)
(2.415179787 0.1058938745 0)
(2.427911429 0.1063532481 0)
(2.438685081 0.106057285 0)
(2.450564096 0.1046981434 0)
(2.462177282 0.104417696 0)
(1.933442006 0.07207018953 0)
(1.958128106 0.07593513864 0)
(1.98183402 0.07965488865 0)
(2.004738832 0.08316478967 0)
(2.027053308 0.08650031009 0)
(2.048936408 0.0896669113 0)
(2.070363517 0.09257968108 0)
(2.091245151 0.09514252681 0)
(2.111569757 0.09735309595 0)
(2.131351369 0.09936664826 0)
(2.150667991 0.1012306375 0)
(2.169838634 0.1028807741 0)
(2.189232207 0.1045121627 0)
(2.208413831 0.1060850201 0)
(2.226696592 0.1076392804 0)
(2.243879264 0.1092914081 0)
(2.259814099 0.110754591 0)
(2.274663178 0.1116173494 0)
(2.28923291 0.1122221053 0)
(2.304150597 0.1129510579 0)
(2.319238374 0.1136370288 0)
(2.334806206 0.1132857842 0)
(2.350065378 0.1129819483 0)
(2.364607144 0.113188903 0)
(2.378125606 0.1139697595 0)
(2.39085672 0.1151379352 0)
(2.403131328 0.1159292971 0)
(2.414758148 0.115865834 0)
(2.426558013 0.1165955884 0)
(2.438735729 0.1161387452 0)
(2.450467942 0.1152151327 0)
(2.461403226 0.1150377179 0)
(1.933344039 0.07850714866 0)
(1.957717284 0.08260754878 0)
(1.98127458 0.08654217328 0)
(2.004296084 0.09033709619 0)
(2.027056459 0.09401567723 0)
(2.049644907 0.09753046794 0)
(2.071926345 0.1007828806 0)
(2.09364351 0.1037153876 0)
(2.114594089 0.1063233202 0)
(2.134680902 0.1085653554 0)
(2.153918371 0.1104830197 0)
(2.172293797 0.1123524417 0)
(2.189858403 0.1142245996 0)
(2.206969855 0.1157411342 0)
(2.224084396 0.1171708028 0)
(2.241387603 0.1187677871 0)
(2.258371419 0.1201906571 0)
(2.275021245 0.1213396142 0)
(2.291585263 0.1222449913 0)
(2.307440978 0.1226959274 0)
(2.322460308 0.1231336314 0)
(2.33689846 0.1234146223 0)
(2.350427348 0.1232724479 0)
(2.363466392 0.1231122479 0)
(2.376799673 0.1238514613 0)
(2.389915242 0.1248946965 0)
(2.402859734 0.1257791294 0)
(2.416616563 0.1264350688 0)
(2.430064421 0.1263776356 0)
(2.442720997 0.1259344631 0)
(2.453570986 0.1257205051 0)
(2.463834097 0.1253450251 0)
(1.934123344 0.08517736557 0)
(1.958975296 0.08964656977 0)
(1.983113298 0.09387270387 0)
(2.006636034 0.09790521205 0)
(2.029580294 0.1018085744 0)
(2.051852568 0.1055510448 0)
(2.073320335 0.1089869934 0)
(2.093949805 0.1120470475 0)
(2.113798992 0.1147588734 0)
(2.133004971 0.1170952612 0)
(2.15173261 0.1191800235 0)
(2.170208871 0.1212749482 0)
(2.188851081 0.1233906656 0)
(2.207879238 0.1254393421 0)
(2.226758222 0.1273382011 0)
(2.244588582 0.1287718274 0)
(2.261119292 0.1299406097 0)
(2.276432416 0.1311309458 0)
(2.290847064 0.1319596154 0)
(2.304945776 0.1323372582 0)
(2.31944387 0.1325826915 0)
(2.334237084 0.1329471484 0)
(2.349407396 0.1334364237 0)
(2.365064364 0.1337025288 0)
(2.379475613 0.1341065412 0)
(2.392088035 0.1350757899 0)
(2.403906309 0.1358512547 0)
(2.415368046 0.1365276852 0)
(2.426857699 0.1362846965 0)
(2.438483036 0.1355997247 0)
(2.450357364 0.1361708796 0)
(2.462137478 0.1357514189 0)
(1.934697253 0.09164987998 0)
(1.959496322 0.09641344662 0)
(1.983398483 0.1008769701 0)
(2.006529714 0.1051521747 0)
(2.029083405 0.1093276841 0)
(2.05113063 0.113332275 0)
(2.072614095 0.1170080496 0)
(2.093458555 0.1202777819 0)
(2.113661229 0.1231397048 0)
(2.133387721 0.1256890465 0)
(2.152932787 0.1281535281 0)
(2.172285098 0.1305090421 0)
(2.191007459 0.1327152105 0)
(2.208743111 0.134927645 0)
(2.22563846 0.1368415983 0)
(2.242017565 0.1382591882 0)
(2.257947276 0.1393949518 0)
(2.273725547 0.1404773726 0)
(2.289433414 0.1412709275 0)
(2.305009786 0.1418787727 0)
(2.32057358 0.1423213716 0)
(2.335708317 0.1428302793 0)
(2.350037638 0.1436852948 0)
(2.363336797 0.1441707828 0)
(2.375892335 0.1439963872 0)
(2.388901242 0.1450638113 0)
(2.401979573 0.1459005706 0)
(2.414881238 0.1461798792 0)
(2.427857599 0.1465190411 0)
(2.441084874 0.1465435253 0)
(2.45346784 0.1459378654 0)
(2.466076723 0.1457076261 0)
(1.935132285 0.0979782033 0)
(1.959782557 0.103081751 0)
(1.983612083 0.1079383953 0)
(2.006810925 0.1126437991 0)
(2.029508053 0.1171956227 0)
(2.051704696 0.1214657645 0)
(2.073377423 0.1253288621 0)
(2.094495039 0.1287448332 0)
(2.114997094 0.1317468804 0)
(2.134787358 0.1344526128 0)
(2.153757582 0.1370080818 0)
(2.171998337 0.1393791327 0)
(2.189840237 0.1417394871 0)
(2.20759787 0.1440494718 0)
(2.225370444 0.1459771523 0)
(2.24302827 0.147667509 0)
(2.260468467 0.1492020046 0)
(2.277101363 0.1503272192 0)
(2.292441022 0.1510573142 0)
(2.306639216 0.151729307 0)
(2.320240918 0.1521473297 0)
(2.333724092 0.1527251305 0)
(2.347743352 0.153485112 0)
(2.362196607 0.1541116392 0)
(2.377201331 0.1547889746 0)
(2.391978918 0.154914642 0)
(2.405713156 0.1555637807 0)
(2.416873165 0.1561225435 0)
(2.427230218 0.1565211966 0)
(2.438209119 0.1565813234 0)
(2.450291158 0.1558243103 0)
(2.461785722 0.1554149163 0)
(1.935762781 0.1042322024 0)
(1.96034332 0.1097098553 0)
(1.98414725 0.1150171301 0)
(2.007343329 0.1201789785 0)
(2.030008422 0.1250855822 0)
(2.05211331 0.1295637013 0)
(2.073614012 0.1335094786 0)
(2.094451806 0.1369390093 0)
(2.114574084 0.1400036082 0)
(2.134028057 0.1428806177 0)
(2.153037527 0.1456605981 0)
(2.171936542 0.1483280415 0)
(2.19092139 0.1509084246 0)
(2.20979546 0.15321284 0)
(2.227993912 0.1551637014 0)
(2.245011404 0.1570467937 0)
(2.260720736 0.1586086197 0)
(2.275580371 0.1595835927 0)
(2.290103084 0.1604145977 0)
(2.304670294 0.1612349981 0)
(2.319753277 0.1620295839 0)
(2.335267999 0.1630272472 0)
(2.350264229 0.1636852429 0)
(2.363916942 0.1643634469 0)
(2.376265722 0.1652411801 0)
(2.388770372 0.1649586828 0)
(2.401084547 0.1647974668 0)
(2.413559173 0.1663699814 0)
(2.425663777 0.1671157524 0)
(2.437429594 0.1667244169 0)
(2.449584377 0.1661444947 0)
(2.461971402 0.1663891169 0)
(1.936641399 0.1104846445 0)
(1.96115466 0.1163332732 0)
(1.984923718 0.1221316646 0)
(2.008038078 0.1277853445 0)
(2.030542911 0.1330611781 0)
(2.052430909 0.1377410306 0)
(2.073704089 0.1417759332 0)
(2.094368597 0.1453061026 0)
(2.114461451 0.1485569539 0)
(2.134108602 0.1516383934 0)
(2.153494305 0.154600007 0)
(2.17267405 0.157403159 0)
(2.19144295 0.1599554144 0)
(2.209546657 0.1621647373 0)
(2.226905273 0.1641776515 0)
(2.243585481 0.1661678515 0)
(2.259698735 0.1677744443 0)
(2.27534237 0.1689845646 0)
(2.290832994 0.1701242525 0)
(2.306341712 0.171140602 0)
(2.321268613 0.1721175627 0)
(2.335039401 0.1731166403 0)
(2.348068713 0.1737878878 0)
(2.361020055 0.1746396788 0)
(2.374598102 0.1750541981 0)
(2.388426867 0.175034206 0)
(2.40263776 0.1755261568 0)
(2.415924013 0.1759588898 0)
(2.428983609 0.1763250685 0)
(2.441287353 0.1763734241 0)
(2.451742243 0.1768507821 0)
(2.461474803 0.1775119295 0)
(1.937772783 0.11686787 0)
(1.962230394 0.1230883705 0)
(1.985937719 0.1293343458 0)
(2.008928602 0.1354425339 0)
(2.031201139 0.1410468449 0)
(2.052799955 0.1458900547 0)
(2.073830902 0.1500154597 0)
(2.094374464 0.1536808295 0)
(2.114487487 0.1571187414 0)
(2.134221231 0.1604079979 0)
(2.153577037 0.1635957594 0)
(2.172511994 0.166569697 0)
(2.191022367 0.1692120848 0)
(2.209088357 0.1715364639 0)
(2.226644762 0.1736018854 0)
(2.243665838 0.1754708161 0)
(2.260209488 0.1770585544 0)
(2.276237656 0.1784865401 0)
(2.291552975 0.1798438676 0)
(2.306141612 0.1810560247 0)
(2.320220485 0.1821839203 0)
(2.334116916 0.1831489028 0)
(2.348165318 0.1840513074 0)
(2.362641128 0.1848400755 0)
(2.376916012 0.1850007009 0)
(2.389551364 0.1853312427 0)
(2.400687508 0.1859027459 0)
(2.413551266 0.1857217515 0)
(2.426457829 0.1862180564 0)
(2.437486404 0.1866367188 0)
(2.447721263 0.1871798448 0)
(2.458882784 0.1873024973 0)
(1.939289726 0.1235776477 0)
(1.963717958 0.1301749174 0)
(1.9873582 0.1367947711 0)
(2.010173234 0.1432272498 0)
(2.032176621 0.1490630986 0)
(2.053486488 0.1540784121 0)
(2.074282889 0.1583723891 0)
(2.09466027 0.1622140431 0)
(2.114629468 0.1658081458 0)
(2.134189413 0.1692639445 0)
(2.153350535 0.1726407374 0)
(2.172170767 0.1757967718 0)
(2.190722955 0.1786545658 0)
(2.208985942 0.1811947814 0)
(2.226823163 0.1833198927 0)
(2.244010825 0.1850999439 0)
(2.260328014 0.1865850909 0)
(2.27577388 0.1879655066 0)
(2.290683956 0.1894307365 0)
(2.305552879 0.1909254463 0)
(2.320663384 0.1923090288 0)
(2.335966034 0.1935001333 0)
(2.350741258 0.1944981125 0)
(2.364208743 0.1951283053 0)
(2.376337931 0.195180112 0)
(2.388149816 0.1959007278 0)
(2.400760061 0.196156742 0)
(2.412961107 0.1960045107 0)
(2.424980629 0.1965176724 0)
(2.436881016 0.1971623073 0)
(2.449348657 0.1976033605 0)
(2.461728495 0.1977124397 0)
(1.941073348 0.1305269596 0)
(1.965380077 0.1374534045 0)
(1.988935175 0.1443594791 0)
(2.011565936 0.1509939248 0)
(2.033258912 0.1569670108 0)
(2.054247769 0.1621401495 0)
(2.074789533 0.1666843436 0)
(2.094999726 0.1707877734 0)
(2.114894841 0.1746428852 0)
(2.134456286 0.1783601784 0)
(2.153665444 0.1819780036 0)
(2.172505873 0.1853688907 0)
(2.190934836 0.1884319518 0)
(2.2088808 0.1909939875 0)
(2.226288395 0.1929171083 0)
(2.243092125 0.1944831154 0)
(2.259296497 0.1959376858 0)
(2.275090676 0.1975394663 0)
(2.29068022 0.1993420871 0)
(2.306093946 0.2010470393 0)
(2.321134805 0.2024423326 0)
(2.335516625 0.2035669023 0)
(2.349212109 0.2043840851 0)
(2.362463824 0.2049266659 0)
(2.375470801 0.2053631523 0)
(2.388511686 0.205936133 0)
(2.402011971 0.2061364981 0)
(2.415665967 0.2065125001 0)
(2.428370718 0.2069656301 0)
(2.44012177 0.2078067684 0)
(2.450662748 0.2080955915 0)
(2.460478627 0.2079024715 0)
(1.943377646 0.1377285068 0)
(1.967560548 0.1450455084 0)
(1.990961537 0.1521463524 0)
(2.013340387 0.1588326189 0)
(2.034696306 0.1648638761 0)
(2.055329263 0.1702353232 0)
(2.075554041 0.1750410901 0)
(2.095513889 0.179403024 0)
(2.115242893 0.183481403 0)
(2.134718369 0.1873808173 0)
(2.153873281 0.1911625544 0)
(2.172605275 0.1947305306 0)
(2.190872867 0.1979728872 0)
(2.208686697 0.2006888951 0)
(2.226056099 0.2027754042 0)
(2.242937992 0.2045002336 0)
(2.25931241 0.2060202712 0)
(2.275198558 0.2075915091 0)
(2.290620322 0.2092823934 0)
(2.305671893 0.210894087 0)
(2.320430453 0.2123989253 0)
(2.334898309 0.213754357 0)
(2.349067359 0.2146533282 0)
(2.362950926 0.215260046 0)
(2.376644001 0.2157547795 0)
(2.390188414 0.2162227158 0)
(2.403094639 0.2165661915 0)
(2.414570031 0.2168121036 0)
(2.425308029 0.2171772393 0)
(2.43662247 0.2176640296 0)
(2.448714253 0.2180040564 0)
(2.461425307 0.2181147825 0)
(1.946253294 0.1449860326 0)
(1.970090664 0.1526351072 0)
(1.993172726 0.159889923 0)
(2.015244192 0.1665861966 0)
(2.036312155 0.1726826858 0)
(2.056675014 0.1782954244 0)
(2.076671663 0.18347861 0)
(2.096480752 0.1882470025 0)
(2.116112244 0.1926457745 0)
(2.135472337 0.1966942796 0)
(2.154454367 0.2005058558 0)
(2.17300275 0.2041182943 0)
(2.191080875 0.2074128574 0)
(2.208665023 0.2101989528 0)
(2.225764682 0.2123659535 0)
(2.242428236 0.2141534927 0)
(2.258741987 0.2157690131 0)
(2.274756195 0.2175089872 0)
(2.29041728 0.2193830214 0)
(2.305663215 0.2211986401 0)
(2.320459463 0.2228504239 0)
(2.334832373 0.2241226533 0)
(2.348892708 0.2248350965 0)
(2.362688861 0.2253727772 0)
(2.376216971 0.2257488011 0)
(2.389299575 0.226120191 0)
(2.401660867 0.2266238782 0)
(2.41358617 0.2271795696 0)
(2.425512133 0.2278189478 0)
(2.437915017 0.2281912522 0)
(2.45047466 0.2283316905 0)
(2.461960192 0.2281290752 0)
(1.950153221 0.1522939583 0)
(1.973584247 0.160360216 0)
(1.996221412 0.1678063829 0)
(2.017823168 0.1745085798 0)
(2.038481017 0.1806460036 0)
(2.058502749 0.1864729855 0)
(2.078134256 0.1919585322 0)
(2.097569078 0.1970206789 0)
(2.116895066 0.2016348281 0)
(2.136083567 0.2058205026 0)
(2.155021633 0.209763944 0)
(2.173516949 0.2134062938 0)
(2.191432743 0.2166908864 0)
(2.208777865 0.21951784 0)
(2.225709964 0.2218500501 0)
(2.242360738 0.2239369679 0)
(2.258724222 0.2258370078 0)
(2.274675431 0.2276724559 0)
(2.290122694 0.229459466 0)
(2.305109796 0.2311918253 0)
(2.319703649 0.2327712145 0)
(2.333955334 0.2339569424 0)
(2.347970115 0.234704249 0)
(2.361800288 0.2353516433 0)
(2.375401479 0.2357829556 0)
(2.388602946 0.2363403974 0)
(2.401461464 0.2370720074 0)
(2.41418852 0.2378101537 0)
(2.426673361 0.2384400949 0)
(2.438683249 0.2385435441 0)
(2.450026982 0.2382409486 0)
(2.461017672 0.2378332484 0)
(1.955090385 0.159526645 0)
(1.977985352 0.1679934906 0)
(2.000097135 0.1756986974 0)
(2.021219385 0.1825326057 0)
(2.041505911 0.188865118 0)
(2.061222792 0.1949771024 0)
(2.080541288 0.2007780063 0)
(2.099590769 0.2060859733 0)
(2.118489144 0.2108455996 0)
(2.137249693 0.2150608253 0)
(2.155816835 0.2189257624 0)
(2.174046036 0.2224850003 0)
(2.191773879 0.2257325443 0)
(2.208964683 0.2286300147 0)
(2.225739457 0.2311575854 0)
(2.242231815 0.2335067913 0)
(2.258499149 0.2356473592 0)
(2.274497565 0.2376919695 0)
(2.290138108 0.2397035983 0)
(2.305323798 0.2415794059 0)
(2.319943538 0.2431436599 0)
(2.334043329 0.2442790799 0)
(2.347824551 0.2450290314 0)
(2.361403024 0.2456154493 0)
(2.374799844 0.2459568877 0)
(2.387943542 0.2464864068 0)
(2.400869102 0.247187019 0)
(2.413538183 0.2478939307 0)
(2.425941051 0.2485150319 0)
(2.438230126 0.2487294983 0)
(2.450334272 0.2485748176 0)
(2.461830068 0.2482037914 0)
(1.961724472 0.1670579418 0)
(1.9843887 0.1760808102 0)
(2.005786015 0.184049423 0)
(2.02602374 0.190984775 0)
(2.045578892 0.1974413259 0)
(2.064782939 0.2036910932 0)
(2.083709617 0.209655001 0)
(2.102388471 0.2151715655 0)
(2.120893341 0.2200898777 0)
(2.139275394 0.2244055722 0)
(2.157454086 0.2282898403 0)
(2.175249658 0.2317677105 0)
(2.192540925 0.2349126858 0)
(2.209375812 0.2378098833 0)
(2.225904295 0.2404724283 0)
(2.242240054 0.2430419366 0)
(2.258426698 0.2453984743 0)
(2.274376956 0.2476151136 0)
(2.289930961 0.2496721443 0)
(2.304965209 0.251467337 0)
(2.319418557 0.2529672821 0)
(2.333407264 0.2541515923 0)
(2.347172371 0.2550079921 0)
(2.360812169 0.2557202201 0)
(2.374291829 0.2561611935 0)
(2.387491626 0.256726687 0)
(2.400364671 0.2573906643 0)
(2.412937197 0.2580595595 0)
(2.425329852 0.2586620254 0)
(2.437551541 0.2587854987 0)
(2.44926928 0.2584809514 0)
(2.46022224 0.2579744769 0)
(1.966055685 0.1741490254 0)
(1.989318491 0.1838965879 0)
(2.01130687 0.1924858855 0)
(2.032041653 0.1999862011 0)
(2.051883433 0.2068795417 0)
(2.070799914 0.2132688512 0)
(2.088827301 0.2191467731 0)
(2.10648767 0.2245014094 0)
(2.124218141 0.2293545798 0)
(2.142031738 0.2336507657 0)
(2.159733496 0.237571437 0)
(2.17707678 0.2410980728 0)
(2.193927988 0.2442966158 0)
(2.210352797 0.2472445267 0)
(2.226525409 0.2499548853 0)
(2.242579342 0.2526207287 0)
(2.258552139 0.255109991 0)
(2.274344039 0.2574596041 0)
(2.289805199 0.2595752505 0)
(2.304786659 0.2613571648 0)
(2.319187296 0.2628725976 0)
(2.33313571 0.2641518528 0)
(2.346876698 0.2651559979 0)
(2.36048801 0.2659988726 0)
(2.373950754 0.2665562562 0)
(2.387152008 0.2671523593 0)
(2.400030971 0.2677531954 0)
(2.412566765 0.2682691138 0)
(2.42474382 0.2686077197 0)
(2.436552817 0.2684702434 0)
(2.44789837 0.2681106318 0)
(2.458910986 0.2677003518 0)
(1.968430196 0.1811397854 0)
(1.9918498 0.1909255115 0)
(2.013989926 0.1999189707 0)
(2.035237529 0.2081914608 0)
(2.055825942 0.215882245 0)
(2.075550461 0.2228588407 0)
(2.094405346 0.2290410861 0)
(2.112490967 0.2343888841 0)
(2.129970563 0.2390624163 0)
(2.147116927 0.2432683824 0)
(2.164083225 0.2472252888 0)
(2.180685499 0.2508058724 0)
(2.196809837 0.2540219965 0)
(2.212587915 0.256970325 0)
(2.228198202 0.2597141747 0)
(2.243730375 0.2624262836 0)
(2.259235735 0.2649260408 0)
(2.274668047 0.2672804725 0)
(2.289868607 0.269361194 0)
(2.304658487 0.2711253208 0)
(2.318935584 0.2727028396 0)
(2.332803471 0.2740934378 0)
(2.346424644 0.2752020413 0)
(2.359859012 0.2761307861 0)
(2.373179174 0.276710165 0)
(2.386344555 0.2773094257 0)
(2.399326629 0.27790672 0)
(2.412096076 0.2784130135 0)
(2.424550215 0.2787419442 0)
(2.436527515 0.278666238 0)
(2.447865705 0.278355117 0)
(2.458694431 0.2778051366 0)
(1.972275639 0.1897424015 0)
(1.994057138 0.1989224765 0)
(2.01527052 0.2077574141 0)
(2.036546118 0.2161140628 0)
(2.057388472 0.2242074884 0)
(2.07737026 0.2316123947 0)
(2.096691014 0.2381358238 0)
(2.115532398 0.2437932513 0)
(2.134009078 0.2486965095 0)
(2.152078141 0.2531219035 0)
(2.169417001 0.2572799088 0)
(2.185876841 0.2609537104 0)
(2.201663633 0.264250849 0)
(2.216944204 0.2672518664 0)
(2.231879673 0.2699882187 0)
(2.246675228 0.2726588797 0)
(2.261452603 0.2750987538 0)
(2.276131804 0.2772883505 0)
(2.29059387 0.2791499652 0)
(2.304759747 0.2807781717 0)
(2.318621203 0.2823660008 0)
(2.332284701 0.2838940486 0)
(2.34585879 0.2852376498 0)
(2.359362086 0.2864208103 0)
(2.372806648 0.2871826239 0)
(2.386047859 0.2878281502 0)
(2.398984888 0.2883131687 0)
(2.411567606 0.2885599468 0)
(2.423727549 0.2885609428 0)
(2.435409536 0.288237134 0)
(2.446650349 0.2878780171 0)
(2.457708242 0.2875036439 0)
(1.982603279 0.1984803292 0)
(2.000600753 0.2090912458 0)
(2.019560075 0.2177763664 0)
(2.039205609 0.2256196771 0)
(2.058763896 0.2335368566 0)
(2.078038268 0.2407257061 0)
(2.097205832 0.2470004416 0)
(2.116101757 0.2525569495 0)
(2.134779956 0.2575848967 0)
(2.153462173 0.2624950963 0)
(2.171838826 0.2672107992 0)
(2.189491342 0.271249745 0)
(2.20625124 0.2747457256 0)
(2.222106449 0.277868875 0)
(2.237267967 0.2807424031 0)
(2.251935808 0.2834907699 0)
(2.26620565 0.2858707452 0)
(2.28013586 0.2879627 0)
(2.293755169 0.2897145076 0)
(2.307036483 0.2912499515 0)
(2.320003453 0.2927063329 0)
(2.332823503 0.2940444677 0)
(2.345676679 0.2952147838 0)
(2.358660234 0.2963104957 0)
(2.371835181 0.2971075352 0)
(2.385038908 0.2978974198 0)
(2.398098265 0.2985234627 0)
(2.410852995 0.2988101479 0)
(2.423135806 0.2987464795 0)
(2.43486459 0.2983482877 0)
(2.446085181 0.297937303 0)
(2.457050039 0.2975553607 0)
(2.001660411 0.2069529252 0)
(2.016763271 0.2153709461 0)
(2.032310122 0.2252959878 0)
(2.047752121 0.2361759639 0)
(2.064091713 0.2448841797 0)
(2.081296391 0.2516134792 0)
(2.098750197 0.2571760391 0)
(2.116256401 0.2621385131 0)
(2.134298189 0.2667933142 0)
(2.15268568 0.2714946864 0)
(2.171141509 0.2760336038 0)
(2.189318749 0.2802102623 0)
(2.207059834 0.2841855178 0)
(2.224132695 0.2878527065 0)
(2.240413701 0.2911405506 0)
(2.255836757 0.2940871062 0)
(2.270506319 0.2965734298 0)
(2.284495038 0.2987232785 0)
(2.297817419 0.3004753488 0)
(2.310626092 0.3019960524 0)
(2.323109285 0.3034178607 0)
(2.335354474 0.3046704014 0)
(2.347451499 0.3056815057 0)
(2.359587791 0.3065814097 0)
(2.371933523 0.307211307 0)
(2.384455846 0.3079083691 0)
(2.397088458 0.3085012372 0)
(2.409672024 0.3087913688 0)
(2.421967867 0.3087539565 0)
(2.433815968 0.3084125548 0)
(2.445192255 0.3081051924 0)
(2.456300965 0.3078253296 0)
(2.030738695 0.2161498259 0)
(2.040986304 0.2267534749 0)
(2.052098117 0.2369878614 0)
(2.064658147 0.2456918962 0)
(2.078034508 0.2539396789 0)
(2.0914902 0.2620250669 0)
(2.10511657 0.2688510169 0)
(2.119960518 0.2737753508 0)
(2.136221221 0.2777775434 0)
(2.153243438 0.282082593 0)
(2.170513282 0.2858332517 0)
(2.188178948 0.2892887748 0)