/*--------------------------------*- C++ -*----------------------------------*\
  =========                 |
  \\      /  F ield         | OpenFOAM: The Open Source CFD Toolbox
   \\    /   O peration     | Website:  https://openfoam.org
    \\  /    A nd           | Version:  7
     \\/     M anipulation  |
\*---------------------------------------------------------------------------*/
FoamFile
{
    version     2.0;
    format      ascii;
    class       volScalarField;
    location    "4.9";
    object      p;
}
// * * * * * * * * * * * * * * * * * * * * * * * * * * * * * * * * * * * * * //

dimensions      [1 -1 -2 0 0 0 0];

internalField   nonuniform List<scalar> 
800
(
1
1
1
1
1
1
1
1
1
1
1
1
1
1
1
1
1
1
1
1
1
1
1
1
1
1
1
1
1
1
1
1
1
1
1
1
1
1
1
1
1
1
1
1
1
1
1
1
1
1
1
1
1
1
1
1
1
1
1
1
1
1
1
1
1
1
1
1
1
1
1
1
1
1
1
1
1
1
1
1
1
1
1
1
1
1
1
1
1
1
1
1
1
1
1
1
1
1
1
1
1
1
1
1
1
1
1
1
1
1
1
1
1
1
1
1
1
1
0.9999999999
0.9999999997
1
1
1
1
1
0.9999999999
0.9999999997
0.9999999995
0.9999999992
0.999999999
1
1
0.9999999999
0.9999999997
0.9999999994
0.9999999988
0.9999999988
0.9999999977
0.9999999982
0.9999999986
0.9999999998
0.999999999
0.9999999987
0.999999998
0.999999998
0.9999999976
1.000000001
0.9999999941
1.000000623
1.00000016
0.9999999958
0.9999999958
0.9999999966
0.9999999952
1.000000016
1.000000389
1.000002599
1.000012353
1.000101931
1.000085505
0.99999999
1.000000086
1.000001429
1.000011599
1.00005586
1.000214777
1.000649166
1.001710235
1.004328953
1.006575728
1.000020342
1.000155332
1.000663003
1.002091325
1.005168799
1.011049995
1.020680603
1.035686243
1.05658349
1.081451193
1.003224387
1.011799665
1.025840206
1.047881008
1.07398034
1.106973389
1.141420949
1.181235297
1.216470902
1.275360451
1.056061108
1.121144329
1.193503375
1.261733797
1.328156151
1.386801675
1.442073521
1.489204878
1.527480788
1.57436812
1
1.000000634
1.000036301
1.000954712
1.008589297
1.043034025
1.10655041
1.177646434
1.228817783
1.211841365
1.000000001
1.00001962
1.00055664
1.007563749
1.034701323
1.084547003
1.122916165
1.157905678
1.176110475
1.139907357
1.000000302
1.000358553
1.005329488
1.03423809
1.092567997
1.117686467
1.126654245
1.115681905
1.095079831
1.054507262
1.000023924
1.004036617
1.031054998
1.089832297
1.141010628
1.137312043
1.115563359
1.061055739
0.985280222
0.9818875802
1.000879107
1.026499894
1.101356957
1.144177984
1.14388203
1.118458737
1.049444263
0.974318573
0.9155595541
0.9307723674
1.014065036
1.096274758
1.173806618
1.168626392
1.119596006
1.032118833
0.9468988172
0.9215775542
0.911359436
0.9323550952
1.093518901
1.185316235
1.180631149
1.129796782
1.008353839
0.9115202928
0.8848174236
0.8950869416
0.9247680274
0.9707392663
1.241016523
1.230307392
1.127932333
0.9713157182
0.8962384216
0.8821108761
0.8915616296
0.9270239531
0.9651406082
0.9892366232
1.277113993
1.133717233
0.9155022239
0.8208669975
0.8363054994
0.8792549488
0.9519244981
0.9865751037
0.9907045421
0.996937325
1.192579663
0.836817006
0.7768243094
0.8221047115
0.9079630423
0.9720713931
0.9879944158
0.9975364168
0.9966856008
0.9966034656
0.6824597853
0.681833035
0.7914287909
0.9508068392
1.014299548
1.021617947
0.9910437407
0.9942947235
0.9949677625
0.9973694955
0.6562328184
0.6974840763
0.8487313362
0.9855197882
1.017472015
1.022951711
0.9904174208
0.9927406919
0.9948092106
0.9964066434
0.6701064459
0.720585886
0.8865415416
1.000335496
1.018587317
1.020244122
0.9847755757
0.9873002367
0.9899558465
0.993601934
0.6780105561
0.747858895
0.9302269637
1.009939621
1.013299423
1.014058934
0.9812798725
0.9868629973
0.9902139493
0.9961620767
0.6856186159
0.7858079997
0.972635242
1.01615648
1.014542415
1.015897858
0.9827160399
0.9885322153
0.992644751
0.9984831648
0.6943485725
0.8271204063
1.00489288
1.017206043
1.016217177
1.018216622
0.9829506229
0.9883824272
0.9930844943
0.9959911992
0.7048188106
0.8697664617
1.02811205
1.022354839
1.017113703
1.017146487
0.981697869
0.9889380572
0.9959200004
0.9960298584
0.71717011
0.9177281383
1.037456878
1.023823072
1.019197397
1.019391167
0.9810415067
0.9893078329
0.9973559957
0.9967535813
0.7305875184
0.9626124992
1.043677833
1.019248242
1.014328022
1.015378416
0.9754067177
0.9859877108
0.9935852277
0.9951620637
0.7271404015
1.032959225
1.045215065
1.01615958
1.010748644
1.010448084
0.9705906453
0.9859957704
0.9916419594
0.9959439863
0.7305843172
1.017408034
1.045771547
1.015395104
1.011199135
1.010419614
0.9706335133
0.9876263639
0.9918523834
0.9975568042
0.7299451019
0.9678400606
1.045962458
1.019336632
1.01214152
1.012898826
0.975577159
0.9861324827
0.9919030425
0.9979508922
0.7168885552
0.9275753876
1.03995662
1.022349521
1.018864159
1.019580422
0.981501697
0.9879106407
0.9966361602
0.9966983248
0.7051258824
0.8780182562
1.025927848
1.021290512
1.018853481
1.01847547
0.9818424712
0.9909300207
0.9966552694
0.996452859
0.6945722534
0.8241209215
1.002229504
1.017822849
1.016483609
1.017912805
0.9826699702
0.9892105985
0.9939847494
0.9962461628
0.6856140211
0.780408239
0.9703650017
1.017367193
1.01442645
1.016370393
0.9828750521
0.9867113128
0.9916129238
0.993638006
0.677795394
0.7485896561
0.9326809814
1.010498275
1.013011074
1.014460878
0.981314872
0.9853180062
0.9885431578
0.9926662114
0.6700077015
0.7225263881
0.8899036474
1.000368396
1.018815752
1.019716662
0.9838944508
0.9864723313
0.9910326456
0.9984208473
0.6563046546
0.6969673582
0.848245113
0.9847818534
1.017848876
1.022723585
0.9897865178
0.9931775084
0.9962233017
0.9995789964
0.6825257855
0.6812007467
0.7898577332
0.9500263394
1.01458368
1.021513706
0.991162997
0.9947439376
0.9954996135
0.9973931946
1.19257579
0.8368373179
0.7768569242
0.8221322285
0.9080027889
0.9721037119
0.9880456352
0.9975162013
0.9966782846
0.9962088915
1.277113725
1.133712769
0.9154940971
0.8208783791
0.8363124425
0.8792661049
0.9519863042
0.9865212425
0.9906703669
0.9969738125
1.241016413
1.230306147
1.127929386
0.9713224158
0.8962446403
0.8821267763
0.8915958093
0.927011646
0.9651054929
0.9892141702
1.093518965
1.1853154
1.180630794
1.12979755
1.008357264
0.9115215557
0.8848433491
0.8951068141
0.9247582868
0.9706850898
1.01406506
1.096274537
1.173806257
1.16862643
1.119594232
1.032118588
0.946908202
0.9215887787
0.9113770989
0.9323547651
1.00087911
1.026499864
1.10135663
1.144177718
1.143881609
1.118456237
1.049442029
0.974324759
0.9155775437
0.9307758066
1.000023924
1.00403661
1.031054887
1.089832029
1.141010169
1.137311425
1.115560733
1.061054006
0.9852884648
0.9818937306
1.000000302
1.000358552
1.005329478
1.034237941
1.092567623
1.117686029
1.126653353
1.115679841
1.095079265
1.054511808
1.000000001
1.00001962
1.00055664
1.007563709
1.034701186
1.084546689
1.122915478
1.157904902
1.176109598
1.139908774
1
1.000000634
1.000036301
1.000954708
1.008589255
1.043033899
1.106550051
1.177645497
1.228816744
1.211841391
1.056061108
1.121144329
1.193503376
1.261733796
1.328156152
1.386801675
1.442073521
1.489204879
1.527480786
1.574368132
1.003224387
1.011799666
1.025840206
1.047881008
1.07398034
1.106973389
1.141420949
1.181235297
1.216470896
1.275360532
1.000020342
1.000155332
1.000663003
1.002091325
1.005168799
1.011049996
1.020680603
1.035686244
1.056583486
1.081451201
0.99999999
1.000000086
1.000001429
1.000011599
1.00005586
1.000214777
1.000649166
1.001710235
1.004328952
1.006575728
0.9999999958
0.9999999958
0.9999999966
0.9999999952
1.000000016
1.000000389
1.000002599
1.000012353
1.000101931
1.000085505
0.9999999998
0.999999999
0.9999999987
0.999999998
0.999999998
0.9999999976
1.000000001
0.9999999941
1.000000623
1.00000016
1
1
0.9999999999
0.9999999997
0.9999999994
0.9999999988
0.9999999988
0.9999999977
0.9999999982
0.9999999986
1
1
1
1
1
0.9999999999
0.9999999997
0.9999999995
0.9999999992
0.999999999
1
1
1
1
1
1
1
1
0.9999999999
0.9999999997
1
1
1
1
1
1
1
1
1
1
1
1
1
1
1
1
1
1
1
1
1
1
1
1
1
1
1
1
1
1
1
1
1
1
1
1
1
1
1
1
1
1
1
1
1
1
1
1
1
1
1
1
1
1
1
1
1
1
1
1
1
1
1
1
1
1
1
1
1
1
1
1
1
1
1
1
1
1
1
1
1
1
1
1
1
1
1
1
1
1
1
1
1
1
1
1
1
1
1
1
1
1
1
1
1
1
1
1
1
1
)
;

boundaryField
{
    inlet
    {
        type            fixedValue;
        value           uniform 1;
    }
    outlet
    {
        type            zeroGradient;
    }
    bottom
    {
        type            slip;
    }
    top
    {
        type            slip;
    }
    obstacle
    {
        type            zeroGradient;
    }
    defaultFaces
    {
        type            empty;
    }
}


// ************************************************************************* //
