/*--------------------------------*- C++ -*----------------------------------*\
  =========                 |
  \\      /  F ield         | OpenFOAM: The Open Source CFD Toolbox
   \\    /   O peration     | Website:  https://openfoam.org
    \\  /    A nd           | Version:  7
     \\/     M anipulation  |
\*---------------------------------------------------------------------------*/
FoamFile
{
    version     2.0;
    format      ascii;
    class       volScalarField;
    location    "3";
    object      p;
}
// * * * * * * * * * * * * * * * * * * * * * * * * * * * * * * * * * * * * * //

dimensions      [1 -1 -2 0 0 0 0];

internalField   nonuniform List<scalar> 
2222
(
0.9767009775
0.9796526763
0.9801733703
0.979942814
0.9804569534
0.9808354702
0.9818296968
0.9841409184
0.9858949684
0.9862111078
0.9866251678
0.9876288617
0.9889850614
0.9896937284
0.989564094
0.9797080111
0.9799149269
0.9789122622
0.9769602482
0.9766675747
0.9763081748
0.9759184774
0.9765797488
0.9766928992
0.9766231786
0.9763547981
0.975362434
0.974902724
0.9753971839
0.9748018417
0.9756723204
0.9765670772
0.9731972047
0.9730235493
0.9789589019
0.9816755589
0.977427673
0.9721266144
0.9727933886
0.9763542115
0.9795701135
0.9798316046
0.9797327003
0.9798898611
0.9805907363
0.9821768525
0.984985339
0.9859408566
0.9860702322
0.9861220686
0.9866574287
0.987778779
0.9886391803
0.9889342553
0.9778733365
0.9781323237
0.9776439061
0.9758699345
0.9753335041
0.9751062474
0.9743803356
0.974824848
0.9752008083
0.9755764323
0.9765807085
0.9767515016
0.9764308491
0.9755229829
0.974350858
0.9750880487
0.9759637271
0.9733064041
0.9730744024
0.9781657454
0.9827088585
0.9794107492
0.9733122307
0.9725441549
0.9751118253
0.9785806429
0.9792097307
0.9790250398
0.979157437
0.9801093416
0.9820267848
0.9853129487
0.9859227645
0.9861993822
0.9858329781
0.9856682877
0.9860155056
0.9865918891
0.9870430121
0.9778383298
0.9790458652
0.9783307672
0.9761815619
0.9753635266
0.9749369989
0.9733844484
0.9735775688
0.9740054064
0.9744489591
0.9758841728
0.9770314483
0.9774907735
0.9768510906
0.9750372164
0.9749458318
0.9754389934
0.9727568873
0.972585147
0.978618688
0.9836541157
0.9811535716
0.974949449
0.9727614127
0.974482605
0.9771552505
0.9784444077
0.9784200141
0.9787967914
0.979895615
0.9823589416
0.9854163843
0.98619803
0.9866903398
0.9861925033
0.9854300196
0.9851719776
0.9856135822
0.9862160867
0.9816499813
0.9812192415
0.9801597369
0.9779739713
0.9771136036
0.9766691992
0.9754446673
0.9754398411
0.9756372374
0.9753077745
0.9756368601
0.9763822481
0.9766199
0.9765170221
0.9757968979
0.9760160109
0.976362397
0.9729969473
0.9727781173
0.9781164326
0.982937308
0.9809823572
0.9755639163
0.9729558552
0.9741151497
0.9766041579
0.9784898332
0.9788741962
0.9791242743
0.9800260917
0.9824047143
0.9852310401
0.9862615573
0.9864941564
0.9857769522
0.9845605275
0.9839353723
0.9841840632
0.9847289779
0.9817166266
0.9807049926
0.9797939693
0.9777469444
0.9768912486
0.976490363
0.9759045311
0.9762078711
0.9768186664
0.9770308816
0.9772150432
0.9764950561
0.9755616536
0.9752177533
0.9752795383
0.9760326678
0.976960241
0.9746030349
0.9736634832
0.9776352671
0.981315014
0.9795064063
0.9751021941
0.973007779
0.9743111434
0.9764505774
0.9782777055
0.9788372672
0.979136108
0.9801456639
0.9826531773
0.9853938649
0.9860709148
0.9859763376
0.9850537975
0.9836443348
0.9826953143
0.9829542225
0.9837574024
0.9801707226
0.9798488329
0.9798120841
0.9778884525
0.9770197963
0.9765428568
0.9758121715
0.9760942262
0.9770885303
0.9772901365
0.9774448713
0.9768716426
0.9758610616
0.9751224174
0.9752520217
0.9761512113
0.9769714727
0.9747596441
0.9734212001
0.9768991357
0.9797065433
0.9779687484
0.9748900588
0.9732980988
0.9744807608
0.9762724441
0.9780526165
0.979014721
0.9794871561
0.9805306582
0.9827877404
0.9853524976
0.9858521859
0.9858523887
0.9849462739
0.9836432311
0.982533798
0.9826711675
0.9833326782
0.9790855619
0.9799729814
0.9784263005
0.9774322967
0.9770674951
0.976248649
0.9764196324
0.9774033391
0.9772973236
0.9770349301
0.9765100061
0.9757283829
0.975140032
0.9753583801
0.9763850041
0.9769422448
0.9745997748
0.9732562805
0.9762319496
0.9781736824
0.976525247
0.9745267239
0.9732569919
0.9747243992
0.9762424718
0.9780761702
0.9790155862
0.979485031
0.9804626447
0.9826367194
0.985271324
0.9856942706
0.9856465377
0.9847133576
0.9835031136
0.9823790891
0.9824311115
0.9829820491
0.9789760913
0.9797293218
0.9782677691
0.9765224094
0.9760255421
0.9752171301
0.9750622236
0.9760868802
0.9760462
0.9759686583
0.9758700673
0.9755327419
0.9753973898
0.9755667527
0.9763536482
0.976635475
0.9743059849
0.9734829084
0.9758286532
0.9769508872
0.9751727997
0.9737808519
0.9732912039
0.9748305936
0.9764747743
0.9785046973
0.9788533301
0.9791616333
0.9800300026
0.9821621243
0.9846558276
0.9853678997
0.9854208875
0.9845173351
0.9833448322
0.9823280912
0.982258105
0.9826527149
0.9800146302
0.9802370693
0.9787159126
0.9763584506
0.975532453
0.9746600893
0.9741479483
0.9749248838
0.9749017764
0.9750115543
0.9755425753
0.9761122314
0.9764948278
0.9764433926
0.9762293198
0.9762648403
0.9739688097
0.9737506227
0.976066074
0.9766633079
0.9745646328
0.9734307074
0.9736804898
0.9753651068
0.977119514
0.9785356823
0.9783829882
0.9785773809
0.9793852142
0.9815156827
0.983881755
0.9852957105
0.985621744
0.9847018667
0.9834593537
0.9824637451
0.9820733151
0.9822107148
0.9810572032
0.9811402422
0.9797934441
0.97751201
0.976451399
0.9756407994
0.9748787823
0.9751986177
0.9751127523
0.975109496
0.976104065
0.9771922583
0.9772024962
0.9763896524
0.9758313787
0.9759889228
0.9740049788
0.9744193242
0.97703201
0.9771895053
0.9744892995
0.974206686
0.9749131807
0.9766698764
0.977258987
0.9778874064
0.9778606361
0.9780979565
0.9788023591
0.9809792556
0.9834893404
0.985353574
0.9857425511
0.9848152877
0.9835090921
0.9824415746
0.9818905324
0.9819061447
0.9808425207
0.9803061153
0.9801216817
0.9782973074
0.9774662598
0.9769471369
0.9764185967
0.9766511703
0.9767689156
0.9766545032
0.9767481759
0.9768228112
0.9768983416
0.9761794091
0.9755168344
0.9757892269
0.9740457998
0.9750371543
0.9779097938
0.977796837
0.9746170788
0.9749191188
0.9761237711
0.9768579459
0.9766418717
0.9770261779
0.9772427826
0.9775249966
0.9782320556
0.9804805689
0.9834025714
0.9851317684
0.9853934961
0.9845695569
0.9833944879
0.9824625988
0.9817526988
0.9816197616
0.979199129
0.9790996515
0.9790963697
0.9777488568
0.9769516705
0.9769345971
0.9766155736
0.9776905996
0.977855424
0.9774822235
0.9771723424
0.9765984654
0.9760928186
0.975374476
0.9752093008
0.9758016316
0.9742666078
0.9756233601
0.9788515257
0.9784996545
0.9751188577
0.9754475261
0.976689804
0.9769615573
0.9761507313
0.976248546
0.9765869716
0.9770515157
0.9779910709
0.9801940206
0.9829987146
0.9846637956
0.9847520861
0.9840410327
0.9831644891
0.9823243053
0.9815655222
0.9813088898
0.9787789035
0.9786354752
0.9774227178
0.9765042844
0.9763848378
0.9760115835
0.9768436543
0.9775905649
0.9771918937
0.9769844271
0.9764145039
0.9754960868
0.974734321
0.9751081297
0.9760374773
0.9742992698
0.9757403568
0.9791610633
0.9784924676
0.9750659618
0.9754132598
0.9768810615
0.976890924
0.9755846465
0.9754469665
0.9758308034
0.9768749986
0.9782837461
0.9803080812
0.9828798815
0.9841554636
0.984164774
0.9835034072
0.9830131153
0.9824326312
0.9818586494
0.9814003843
0.9814855855
0.9792392487
0.9789250309
0.9776720925
0.9764255424
0.976015402
0.9751369469
0.9755782174
0.9763148118
0.9759062453
0.975683225
0.9756545535
0.9751237851
0.9746891441
0.9754323348
0.9764060725
0.974389558
0.9756034237
0.9789181725
0.9779539033
0.9745791288
0.974844943
0.9763939749
0.9764057241
0.9751047788
0.9749626417
0.9754767351
0.9769894866
0.9786141361
0.9804154256
0.9827350347
0.9834779198
0.98343745
0.9827928902
0.9828008719
0.982741948
0.9825384853
0.9819488396
0.9818063328
0.9799253986
0.9795241323
0.978193839
0.9769036145
0.9761757305
0.9747441501
0.9749316815
0.9754872325
0.975252345
0.9752695975
0.975941699
0.9760183342
0.9755950882
0.9763351123
0.9769607446
0.9745480406
0.9755680543
0.9787518452
0.977484394
0.9742392886
0.9738547256
0.9755660279
0.9757330357
0.9746186476
0.9746968533
0.9756755606
0.9775207487
0.9789406061
0.9804297649
0.9824200175
0.9828691025
0.9826416336
0.9821922437
0.9824869773
0.9830870762
0.9833677044
0.9830591904
0.9828952358
0.9803222603
0.9800927512
0.9787815893
0.977717042
0.9768070866
0.9753235163
0.9754803971
0.9758499696
0.975774458
0.9758268282
0.9767030019
0.9772533541
0.9767581664
0.9770480156
0.9769157125
0.9742195447
0.9752435986
0.9782817107
0.9767582541
0.9732201885
0.972715477
0.9746847186
0.9752203389
0.9748198133
0.9752276435
0.9765072891
0.9780878772
0.9790221908
0.9802512372
0.9819039929
0.9822528083
0.9820962178
0.9820662201
0.9826567626
0.9837088174
0.9843657593
0.9845421759
0.9845274864
0.9799791355
0.9800761348
0.9787571376
0.9780670856
0.9773037114
0.9762933777
0.9765234095
0.9767408066
0.9767867694
0.9764975221
0.9769930222
0.9775356841
0.9771488293
0.9769169018
0.9763247355
0.97353333
0.9747683316
0.9778630596
0.9761149113
0.9719755827
0.9717826125
0.9741593811
0.975635186
0.9757997772
0.9763150436
0.9773303817
0.9782322334
0.9787171928
0.9798387192
0.981263913
0.9816773
0.9819290498
0.9821972856
0.9829154752
0.9841907771
0.9852228292
0.9860857404
0.9864059886
0.9782929079
0.9789705092
0.9777523019
0.9773202204
0.9769397085
0.9766859432
0.9770707898
0.9773987623
0.9776844808
0.9772594937
0.9770843916
0.977074804
0.9764664708
0.9761620622
0.9757553454
0.9731599736
0.97481864
0.9782427511
0.9762743899
0.9716669219
0.9717303795
0.9743517655
0.9762962453
0.9765741157
0.9769884134
0.9776954561
0.9781946058
0.9784401877
0.9794780344
0.980740538
0.9812441746
0.9817338371
0.9821521616
0.9828402831
0.9840966211
0.9855659047
0.9871168533
0.9880542825
0.9776285096
0.9786519113
0.977746962
0.9772280342
0.9765625309
0.9762293821
0.9763772328
0.9767246419
0.9773601093
0.9771888486
0.9767585942
0.9763098283
0.9753044666
0.9753767719
0.9754588503
0.9731732708
0.9751879522
0.9790585649
0.9769622289
0.9721297534
0.9722228407
0.9750851278
0.9771238142
0.9771817949
0.9773854651
0.9774925244
0.9776471961
0.9778791764
0.9790562834
0.9803518685
0.9810107853
0.9815551144
0.9819417963
0.9825500042
0.9835624275
0.985079189
0.9873591151
0.9890797975
0.9794328193
0.9781180852
0.9773276555
0.9768558934
0.97567167
0.975177942
0.9753806174
0.9759640214
0.9760466159
0.9758797887
0.9756368375
0.9746019507
0.974986472
0.9758220576
0.973590637
0.9756550264
0.9800333721
0.978008642
0.9729533784
0.9732395202
0.9765204781
0.9777368081
0.9775574741
0.9772873013
0.9768202552
0.9768861624
0.9773074544
0.9787605456
0.980191173
0.9809941882
0.9813611783
0.9815425957
0.9820523037
0.9829741957
0.9845609988
0.9871395458
0.9896929363
0.9796910978
0.9794013204
0.9782854519
0.977098853
0.9757421789
0.9749865565
0.9751750346
0.9751372042
0.9751666668
0.9761544025
0.9763847005
0.9755900993
0.9759601118
0.9768376811
0.9745032076
0.9763021049
0.9808112156
0.9787270653
0.9739193217
0.9743245819
0.977613427
0.9777016772
0.9771537784
0.9762256003
0.9755004896
0.9755703924
0.9763111954
0.9782669443
0.9800642026
0.9809814387
0.9809769869
0.9809499652
0.9813677065
0.9822685882
0.9839846828
0.9867526718
0.9897017656
0.9796050075
0.9796886012
0.9785503282
0.9780187094
0.9767192143
0.9755526797
0.9757870741
0.975629877
0.9755755519
0.9764643735
0.9770698143
0.9767065233
0.9769896975
0.9777137319
0.9748515089
0.9763148967
0.9806915742
0.9787419136
0.9746440335
0.9748267762
0.9776426162
0.9771771299
0.9760117008
0.974673761
0.974392261
0.9745670533
0.975613805
0.9778217178
0.9798139828
0.980712819
0.9804580838
0.9803141037
0.9806537107
0.9818041203
0.9842328434
0.9873503542
0.9902420911
0.9785018555
0.9788902942
0.9780102669
0.9780840757
0.9775501315
0.9767310837
0.97703322
0.9766265918
0.9762068119
0.9766718693
0.9775475415
0.9775047368
0.9775523524
0.9777166142
0.9742939343
0.9752933482
0.9795701585
0.9778725047
0.9745651274
0.974116304
0.9766113497
0.9760472359
0.9752020892
0.9745404347
0.9746651042
0.9748849225
0.9758951471
0.977900023
0.9796312296
0.980340382
0.9800465371
0.979910811
0.9803480162
0.9819368933
0.9846255084
0.9879209552
0.9906117636
0.9777859207
0.9781564788
0.9773798133
0.9774089666
0.9773987231
0.9769216756
0.9775910095
0.9775756211
0.9767808995
0.9764669594
0.9769114738
0.9773397788
0.9773937927
0.976934607
0.9731735069
0.9741109319
0.9786002229
0.9769104119
0.9733985347
0.9732212779
0.9757730538
0.9757256511
0.9752029962
0.9746751139
0.9749858428
0.9753152798
0.9762359519
0.9779972463
0.9794748427
0.9801304451
0.9798101994
0.9796921906
0.9801843218
0.9819354668
0.9851365747
0.9883257069
0.9905857008
0.9770303322
0.9773725473
0.9766807172
0.9765722122
0.9765491362
0.9762351325
0.9770822965
0.9773221811
0.9769664732
0.9760815283
0.9760324871
0.9761936629
0.9762841861
0.9760005706
0.9724460996
0.9736448622
0.9780618789
0.9762749754
0.9725701955
0.9728574992
0.9755973964
0.9756208786
0.9752120058
0.9750722082
0.9755445896
0.976007043
0.9768293689
0.9782636937
0.9792935509
0.9798957544
0.9795158996
0.9794184873
0.979946828
0.9817832849
0.9852131849
0.9884091654
0.9907639804
0.9782301101
0.977412319
0.9769898478
0.9761199908
0.975253601
0.9759321093
0.9765139681
0.9766354667
0.9764285685
0.9762182298
0.9753634545
0.9759965132
0.9760391946
0.9724558046
0.9740947645
0.9785314672
0.9762281218
0.9719223374
0.9727653386
0.9759483862
0.9763222815
0.9759123113
0.975949083
0.9765279774
0.9770180354
0.977679132
0.9787626005
0.9794648059
0.9798313071
0.9792756377
0.9792219603
0.9797596411
0.9815628008
0.984898084
0.9883171152
0.9909919298
0.9922108748
0.9790496708
0.978002374
0.977658649
0.9766511284
0.9752925081
0.975354296
0.9757373861
0.9759718882
0.9763367877
0.976442241
0.9755951269
0.9761196264
0.976445311
0.972911172
0.975080787
0.9801239061
0.977483061
0.9722967602
0.9733516339
0.9765902063
0.9771028424
0.9766915047
0.9767773595
0.977438826
0.9778631272
0.9783958756
0.9791325239
0.979561783
0.9798072034
0.9792607527
0.9792933379
0.9798405062
0.9815652734
0.9845070144
0.9879551756
0.9908926933
0.9924614338
0.9791353043
0.9781284111
0.9780985679
0.9773677757
0.9761133644
0.975940268
0.9757861954
0.9757105161
0.9765018848
0.9771086118
0.9766315298
0.9770298252
0.9775165043
0.9737838422
0.9761567713
0.9816022003
0.9784648577
0.9727328253
0.9737653332
0.9768168355
0.977198531
0.9769072165
0.9771161804
0.977858249
0.9782260934
0.9786086447
0.9789523312
0.979234844
0.9794586963
0.9791834075
0.9793358746
0.9799354758
0.9815494395
0.9843795778
0.9877252236
0.9910411199
0.9932188708
0.9784022249
0.9775392133
0.9778156477
0.9777248389
0.9769668178
0.9768475904
0.9764908705
0.9760494827
0.976396977
0.9772830443
0.9772454614
0.9776199255
0.9778837775
0.973782253
0.9762681799
0.9822009305
0.9789073225
0.9729382425
0.973867349
0.976861676
0.9769266033
0.9767101958
0.9770648092
0.9778903636
0.9781848293
0.9782687717
0.9784386691
0.9786563594
0.9788057068
0.9789259113
0.9793337525
0.9800265949
0.9815892809
0.984411706
0.9880856848
0.9916950021
0.9936175758
0.9772743014
0.9764855116
0.9768320497
0.9770514578
0.9768187887
0.9772097028
0.9772953093
0.9764614532
0.976057083
0.97673764
0.9769322979
0.9775239858
0.9775054617
0.9731021269
0.9756161972
0.9818914701
0.9788102213
0.9731155335
0.9740186514
0.9768307385
0.9767341193
0.9764704206
0.9769127396
0.9777589454
0.9779436445
0.9776808054
0.9776607598
0.9778410663
0.9780414499
0.9784980554
0.9791873545
0.9799708956
0.9816043744
0.9845910831
0.9885572501
0.9921286694
0.9931587366
0.9766189107
0.9757641914
0.9759098189
0.9760855916
0.976041589
0.9766886965
0.9774437482
0.9770300968
0.9761156033
0.976027611
0.9762160653
0.9771173429
0.9769659329
0.9725488058
0.9749240054
0.9811028248
0.9781653084
0.9730879189
0.9742849226
0.9768567324
0.9766214619
0.9763631383
0.9767409306
0.9775668168
0.977681789
0.9772236735
0.977014278
0.9771295179
0.9774714284
0.9782169975
0.9791205414
0.9799357023
0.9815594728
0.9846414204
0.9886334749
0.991778268
0.9924102763
0.9777483874
0.976628499
0.9766697545
0.9763397879
0.9755224266
0.9756284945
0.9765829491
0.9769127781
0.9764771807
0.9760102491
0.9758859743
0.9767784786
0.9766591406
0.9724641844
0.9748392858
0.9808064123
0.9778605811
0.9731377752
0.9746766457
0.9773267293
0.9768299543
0.9763303412
0.9765014365
0.9772489051
0.9773426741
0.9768498959
0.9765939318
0.9766719087
0.9771330127
0.978232199
0.9792589139
0.9800356188
0.9815771366
0.9844871922
0.9880021244
0.9906269297
0.9917777576
0.9780006292
0.9782057733
0.9779005824
0.976388031
0.9752155268
0.9757705153
0.9762800866
0.9765003415
0.9765987602
0.9762488403
0.9769327844
0.976747514
0.9726443516
0.9751846777
0.981022069
0.9779414259
0.9730693227
0.9749050804
0.9779453769
0.9773566341
0.9765633469
0.9764153342
0.9770302072
0.9770395716
0.9766342923
0.9764791012
0.9766219941
0.977358342
0.9786554447
0.979568531
0.9802839363
0.9818299655
0.9843457273
0.9871484931
0.9894966035
0.991353323
0.977841171
0.9782015468
0.9783902622
0.977371688
0.9760154985
0.9759286241
0.9758725697
0.9763857366
0.9772576859
0.9769790509
0.9775346132
0.9772276158
0.9729813895
0.9758257921
0.9814586356
0.9779290644
0.9726819875
0.9746387608
0.9781510672
0.9777394687
0.9768707959
0.9765938406
0.9772073428
0.9771849018
0.9770437295
0.9770610268
0.9773878466
0.9784743642
0.9797106576
0.9802402995
0.9808163365
0.9822392157
0.9843160811
0.9864751532
0.9888350283
0.9912237999
0.9768851803
0.9774868172
0.9779102346
0.977339265
0.9767700767
0.9768218101
0.9762509438
0.9763483146
0.9773328049
0.9772855679
0.9781435326
0.9776433815
0.9729660077
0.9759948174
0.9815942876
0.9774258356
0.9720263203
0.9740150316
0.9780303691
0.9778526873
0.9770381745
0.9769337074
0.9776218834
0.9778361582
0.9781439304
0.978472026
0.979132152
0.9802729576
0.9809209516
0.9810314483
0.9814103908
0.9826385889
0.9842409391
0.9860078729
0.9886997175
0.9914900618
0.9755545178
0.9760733668
0.9767114289
0.9763769076
0.976498429
0.977294091
0.977031207
0.976429485
0.9768314808
0.9768734826
0.9782603792
0.9776467093
0.9725208245
0.9758297308
0.9817671179
0.9769087324
0.9713037174
0.9734717305
0.977855402
0.9778230359
0.9771688078
0.9773042742
0.978087059
0.9788405991
0.9796526066
0.9801829426
0.9808787958
0.9815618139
0.9816769428
0.9816180085
0.9820132938
0.9829915147
0.9841864003
0.9858918229
0.9889542991
0.9916863084
0.9746510685
0.9748050883
0.9755145319
0.9756872391
0.9761177249
0.9772503853
0.9774434209
0.9766579409
0.9761461704
0.9761619913
0.9779081484
0.9773100713
0.9720378107
0.9759867309
0.9822910706
0.9767067524
0.97097666
0.9734068044
0.9778594772
0.9777916167
0.9772505355
0.9775008726
0.9785257404
0.9797202142
0.9806171159
0.9809604195
0.9813851106
0.981693776
0.9818334927
0.9820242173
0.982620858
0.983307159
0.9841676597
0.9858594087
0.9888397749
0.9912500071
0.9759740168
0.9754964195
0.9761421775
0.97615006
0.9755409883
0.9763304907
0.9767761649
0.976489657
0.9759383337
0.9757971745
0.9775498677
0.9769782934
0.9718908747
0.9763721998
0.9828180067
0.9769019925
0.9713912045
0.9742200332
0.9784917621
0.9782175101
0.9775448587
0.9777908221
0.9789900729
0.9802271822
0.9807086966
0.9807352797
0.980774099
0.9811103136
0.9817268947
0.9823682428
0.9832919745
0.9837200693
0.9842781034
0.9857791972
0.9882054392
0.9898130741
0.9766907078
0.9776513808
0.97714417
0.9754278562
0.9752717777
0.9759241421
0.9761394377
0.9762509818
0.976297602
0.9776767585
0.9769724168
0.9721975304
0.9769343762
0.9835183184
0.9778510341
0.972535419
0.9756248564
0.9794106204
0.9788197555
0.9777208978
0.9778778726
0.9790903775
0.9798211415
0.9799590595
0.9798411729
0.9796194625
0.9801383849
0.981243721
0.9824878432
0.9837676622
0.9841747659
0.9846555976
0.9855895791
0.9870785057
0.988255901
0.977205999
0.9779036832
0.9774203205
0.9762106985
0.9753876842
0.9755720172
0.9761903236
0.9770516044
0.9772394856
0.9782351622
0.9772849831
0.9726836986
0.977627641
0.9845765743
0.9788619861
0.9727556936
0.9759187071
0.9795719231
0.9788715601
0.9773780337
0.9774821045
0.9786123616
0.9790187693
0.979051652
0.9788698108
0.9785692445
0.9791845235
0.9807117727
0.9827247023
0.9842368522
0.9847965359
0.985171179
0.985437809
0.9860155648
0.9872756761
0.9888999439
0.9759573054
0.9766826974
0.97648536
0.9763519261
0.9764770304
0.9763522556
0.9766459718
0.9775016206
0.9774963537
0.9785411957
0.9773928012
0.9729207027
0.9781860996
0.9841340535
0.9780036262
0.9716846639
0.9750844427
0.9790756934
0.9784460892
0.9769077212
0.9770180834
0.978135643
0.9784169909
0.9784002607
0.9782232473
0.9780961733
0.9787679545
0.9808131592
0.9835728646
0.9850895522
0.9856282523
0.9857677255
0.9855711787
0.9855947626
0.9867713596
0.9887586802
0.9738045424
0.9748929215
0.9755562077
0.9765212631
0.9773088763
0.9772339588
0.9765545269
0.9766978626
0.9767437717
0.9783490763
0.9772600727
0.9722526898
0.9774327459
0.982976416
0.9763515863
0.9704108621
0.9738197223
0.9786141634
0.9781860007
0.9768750084
0.9770542144
0.9782363738
0.9784297246
0.978317802
0.9781273718
0.9782437363
0.9792045545
0.9820448995
0.9854026654
0.9868147485
0.9870814275
0.9869663141
0.986204302
0.9856934277
0.9862940377
0.9880583536
0.9727951579
0.9738928726
0.9756771814
0.9763477577
0.9769241809
0.9772819678
0.9764971782
0.9758184236
0.9759925014
0.9779426431
0.9771162379
0.9715585793
0.9765992551
0.9817996681
0.9745741206
0.9694118213
0.9731524519
0.978810934
0.9787605639
0.977826131
0.9780788966
0.9791224766
0.979252401
0.9789933414
0.9787668702
0.979089105
0.9806892828
0.984367679
0.988095229
0.9890798222
0.9889038121
0.987991594
0.9863241628
0.9853902218
0.9857304863
0.9873904491
0.9732614051
0.9744546265
0.9756839119
0.97554081
0.9760483093
0.9764408495
0.9761563647
0.975554529
0.9756193918
0.9776888917
0.9770923028
0.9714623622
0.9764989353
0.9813118046
0.9737243766
0.9691219249
0.9737136295
0.9801092795
0.9800725821
0.9788383984
0.9783854726
0.9791918107
0.9790956379
0.9791371412
0.9792412185
0.9803314359
0.9826959691
0.9861579451
0.9893273204
0.9899048285
0.98942929
0.987724503
0.9857615081
0.9847640922
0.9850461541
0.9865666616
0.975446568
0.9764502453
0.9762760897
0.9750543603
0.9750223664
0.9756085809
0.9758199536
0.9756899559
0.9759445022
0.9779038042
0.9773575252
0.9720908226
0.9773665005
0.9821161538
0.9737880279
0.9700297114
0.9752468184
0.980592708
0.98004861
0.9784323013
0.9778799883
0.9787145941
0.978594747
0.9787035923
0.9793684351
0.9811517659
0.9831399009
0.9860448239
0.9890934638
0.989606054
0.9889939674
0.9872320415
0.9849141645
0.9839477721
0.9840582635
0.9851780813
0.9770107158
0.97728906
0.9758956212
0.9747476862
0.9749813019
0.9757929382
0.9764365876
0.9766260479
0.9781413622
0.9774084235
0.972831348
0.9788519015
0.983645887
0.9751840235
0.9704014711
0.975529713
0.9805967699
0.9797142456
0.9778657156
0.9771457268
0.9779589626
0.9781147171
0.9784245106
0.9796382798
0.9812007848
0.982814836
0.9855818159
0.9883161572
0.9888501047
0.9882593764
0.9864760526
0.9840664953
0.9829949597
0.9829542286
0.9837621288
0.9762623076
0.9768013761
0.9763823911
0.9757971223
0.9755314797
0.976224001
0.9768034629
0.9768435568
0.9780166711
0.9771109445
0.9728637599
0.9794871603
0.9839477701
0.9753225309
0.9699134741
0.9753772815
0.9805099228
0.9792611803
0.9770432415
0.9767231341
0.977575279
0.9780140765
0.9787467478
0.9800922011
0.9809658417
0.9822838716
0.9849094911
0.9872105131
0.9874743535
0.9870830202
0.9860299214
0.9838668469
0.9825797703
0.9824201682
0.9832054571
0.9735353893
0.9756424812
0.9764113252
0.9771403913
0.9766358815
0.9761167953
0.9765465979
0.9764977928
0.9779116857
0.9769048096
0.9724185566
0.97934592
0.9834235482
0.9746940151
0.9691530985
0.9749565211
0.9802245948
0.9790121872
0.9767924599
0.9767223096
0.9777022061
0.9787411833
0.9796840345
0.9801686165
0.9805899657
0.9816315488
0.9837631747
0.9856951643
0.9866152248
0.9868168161
0.9861110712
0.9842933509
0.9827631974
0.9824276648
0.9830770352
0.9705960988
0.9736745631
0.9764466417
0.9772756251
0.9770804664
0.9760941185
0.9759102282
0.9760283389
0.9777899856
0.9769732585
0.9719350968
0.9788201617
0.9820605427
0.9727193377
0.9681661762
0.9741582177
0.9802791799
0.9792826771
0.9772890486
0.9776201005
0.9789029407
0.9798044687
0.9799227321
0.9799095761
0.9801273304
0.9806487016
0.9824091171
0.9850493961
0.9865903589
0.9877908906
0.9876022838
0.9861335127
0.9840543891
0.9832350296
0.9834488322
0.9699942676
0.9732612359
0.9748464632
0.9765131724
0.9767619911
0.9764064476
0.975478176
0.9756336601
0.9777440867
0.977438888
0.971772253
0.9782858931
0.9808875751
0.9709566995
0.9676487513
0.9739277721
0.9809608585
0.9802782953
0.9783037534
0.9784399499
0.9794866368
0.9798043352
0.9796623992
0.9795591064
0.9791722189
0.979916064
0.982117674
0.9849174096
0.9878720577
0.9903937824
0.9902212521
0.9884759399
0.9853329935
0.9837193084
0.9835525703
0.9719417381
0.9737900078
0.9743945123
0.9749492582
0.9759309393
0.9762079168
0.975499688
0.9754828434
0.9779032372
0.9779319974
0.9719273587
0.9779648605
0.9806026783
0.9705586171
0.9674893967
0.9746730604
0.9816800558
0.9807551624
0.9782703911
0.9781688362
0.9791882127
0.9794927432
0.9793201544
0.978802914
0.9788450886
0.9798133586
0.9821453568
0.986047212
0.9904093038
0.9918363307
0.9910247085
0.988756
0.9852188573
0.9834438756
0.9831555857
0.9750518784
0.976582939
0.9751677222
0.9738399092
0.9745032914
0.9759972562
0.9759796532
0.97575561
0.97731881
0.9777533142
0.9721310043
0.9779123263
0.9806596319
0.9704557674
0.9680355296
0.9759327772
0.9821294118
0.9806023287
0.9779044457
0.9776872827
0.9787384774
0.9789744371
0.9786492355
0.9784689225
0.978775715
0.9801675296
0.9832944609
0.9879767893
0.9910418488
0.9916661606
0.9909147561
0.9885859813
0.9848938929
0.9830483684
0.9826299608
0.9765070253
0.9764155489
0.9747358755
0.9742568845
0.9753534878
0.9763524888
0.9759239047
0.9770252761
0.9774246814
0.972324875
0.9785856618
0.9809814954
0.9707135331
0.9680469322
0.9766819608
0.9824658309
0.9804257471
0.9772400816
0.9769328866
0.9780217205
0.9784307531
0.9785333245
0.9785619913
0.9793790998
0.9815342242
0.9847226357
0.988517802
0.9908562411
0.9912853839
0.9905091483
0.988152593
0.984381649
0.9822167391
0.9816967958
0.9756249756
0.9759674167
0.9762554243
0.9751254314
0.9751013092
0.9759818166
0.9758038133
0.976676596
0.9767696146
0.972199407
0.9795148139
0.9816311213
0.9707695367
0.9678509325
0.9766284865
0.9823487423
0.9802445367
0.9767090642
0.9765654138
0.9776942363
0.9783662306
0.9789453147
0.9795501198
0.9807896401
0.982653768
0.984963351
0.9882783231
0.9904675883
0.9905452747
0.9894729424
0.9868448658
0.9833015627
0.9816448758
0.9812125767
0.9814367177
0.9707945287
0.9747643071
0.9768329938
0.9769838577
0.9752265776
0.9754149088
0.9755112804
0.9766576704
0.9763079509
0.9721224992
0.9799449816
0.981943377
0.9707138094
0.9674951817
0.9763115082
0.9821701798
0.980090801
0.9766095018
0.976507675
0.9776637112
0.9787498894
0.9797989778
0.980693238
0.981580597
0.9828392945
0.9848079023
0.9878641551
0.9891554562
0.9890805175
0.9877944737
0.9855776599
0.9829105541
0.9816486857
0.9811161155
0.9814037579
0.9670606885
0.9713072346
0.9762376235
0.9773929931
0.9762979859
0.9749120435
0.97483846
0.9766610363
0.976204005
0.9721504212
0.9803249811
0.9820343487
0.9705375585
0.9672822949
0.9762750469
0.9823507642
0.9803321665
0.9769224858
0.9769182783
0.9781845324
0.9793801669
0.980315988
0.9811033035
0.9817050867
0.9827092395
0.9845381185
0.9868603199
0.9869977159
0.9869080441
0.9867773214
0.9856852835
0.9833706665
0.9819015311
0.9814387571
0.9820380332
0.9667308077
0.9699253577
0.9733955036
0.9768253046
0.9767493993
0.9749289687
0.9741913826
0.9766505075
0.9763475338
0.9722387282
0.9803030692
0.9815098328
0.9696336679
0.9672663647
0.9766157145
0.982894252
0.9806864996
0.9773096235
0.9772042887
0.9784903675
0.9793556476
0.9802407377
0.9810219861
0.9815708879
0.9823295714
0.9835982942
0.9847948598
0.9854328146
0.986133162
0.9864929029
0.9860132336
0.98476961
0.9832392753
0.9828442909
0.9831137159
0.9712234474
0.970811302
0.972082607
0.9743449389
0.9764363965
0.9755239845
0.9740948153
0.9763472179
0.9766188099
0.971582605
0.9791312716
0.9800858002
0.9685587778
0.9673867826
0.9772224371
0.9829494766
0.9806040343
0.9768309827
0.9766036193
0.9777948659
0.9788743703
0.9800934593
0.9807775432
0.9810984778
0.9817379773
0.9827828063
0.9840686983
0.9851792236
0.986023171
0.9872126298
0.9880797895
0.9872965809
0.9847043426
0.9827177769
0.9827181209
0.9749300783
0.9750494568
0.9723499408
0.9728761478
0.9752460025
0.9758919364
0.9743628841
0.9754302175
0.9765192059
0.9713021893
0.9784219808
0.9793870143
0.9681294649
0.9673525692
0.9778123281
0.9829337171
0.9804591739
0.97616909
0.97569449
0.9770799636
0.9784863488
0.97994024
0.9808906692
0.9813027327
0.9819403185
0.9828655706
0.9840006366
0.9850431626
0.9864427676
0.9889767826
0.9894933959
0.9882526185
0.9850643213
0.982481433
0.982138828
0.9749452927
0.9761847349
0.9755395889
0.9730291146
0.9738777539
0.9759869622
0.9749564725
0.9752944938
0.9763383991
0.9711018418
0.9780441441
0.9790056821
0.9676447457
0.9672502717
0.9782047637
0.9830966759
0.980223243
0.9757330462
0.9751722223
0.9766501202
0.9784711837
0.9800741538
0.9812741081
0.9817876676
0.9824810839
0.9833842632
0.9843836857
0.9854961354
0.987553035
0.9896705831
0.9894566613
0.9881680766
0.9850490092
0.9817769727
0.9811155882
0.9754114146
0.9763744675
0.9756834001
0.9736474161
0.9753028973
0.975121705
0.9753013215
)
;

boundaryField
{
    inlet
    {
        type            fixedValue;
        value           nonuniform 0();
    }
    outlet
    {
        type            zeroGradient;
    }
    bottom
    {
        type            slip;
    }
    top
    {
        type            slip;
    }
    obstacle
    {
        type            zeroGradient;
    }
    defaultFaces
    {
        type            empty;
    }
    procBoundary22to15
    {
        type            processor;
        value           uniform 0.9798240287;
    }
    procBoundary22to16
    {
        type            processor;
        value           nonuniform List<scalar> 
40
(
0.9764121829
0.9794556277
0.9798281005
0.9796672441