/*--------------------------------*- C++ -*----------------------------------*\
  =========                 |
  \\      /  F ield         | OpenFOAM: The Open Source CFD Toolbox
   \\    /   O peration     | Website:  https://openfoam.org
    \\  /    A nd           | Version:  7
     \\/     M anipulation  |
\*---------------------------------------------------------------------------*/
FoamFile
{
    version     2.0;
    format      ascii;
    class       volScalarField;
    location    "0.2";
    object      rho;
}
// * * * * * * * * * * * * * * * * * * * * * * * * * * * * * * * * * * * * * //

dimensions      [1 -3 0 0 0 0 0];

internalField   nonuniform List<scalar> 5(1.400788846 1.402181913 1.385753424 1.333031595 1.317984026);

boundaryField
{
    inlet
    {
        type            calculated;
        value           nonuniform 0();
    }
    outlet
    {
        type            calculated;
        value           nonuniform 0();
    }
    bottom
    {
        type            calculated;
        value           uniform 1.400788846;
    }
    top
    {
        type            calculated;
        value           nonuniform 0();
    }
    obstacle
    {
        type            calculated;
        value           nonuniform 0();
    }
    defaultFaces
    {
        type            empty;
    }
    procBoundary4to3
    {
        type            processor;
        value           nonuniform List<scalar> 2(1.400879456 1.4068857);
    }
    procBoundary4to5
    {
        type            processor;
        value           nonuniform List<scalar> 3(1.400271147 1.397940288 1.378205509);
    }
    procBoundary4to9
    {
        type            processor;
        value           nonuniform List<scalar> 2(1.416813917 1.385134373);
    }
    procBoundary4to10
    {
        type            processor;
        value           uniform 1.376277276;
    }
    procBoundary4to11
    {
        type            processor;
        value           nonuniform List<scalar> 2(1.351157896 1.35895716);
    }
    procBoundary4to15
    {
        type            processor;
        value           uniform 1.290213257;
    }
}


// ************************************************************************* //
