/*--------------------------------*- C++ -*----------------------------------*\
  =========                 |
  \\      /  F ield         | OpenFOAM: The Open Source CFD Toolbox
   \\    /   O peration     | Website:  https://openfoam.org
    \\  /    A nd           | Version:  7
     \\/     M anipulation  |
\*---------------------------------------------------------------------------*/
FoamFile
{
    version     2.0;
    format      ascii;
    class       volScalarField;
    location    "3.3";
    object      p;
}
// * * * * * * * * * * * * * * * * * * * * * * * * * * * * * * * * * * * * * //

dimensions      [1 -1 -2 0 0 0 0];

internalField   nonuniform List<scalar> 
555
(
0.9999980036
1.001804118
1.002762214
1.002334516
1.000432782
0.9983456624
1.003024618
1.00003903
0.9928386653
0.9911739409
0.994454742
0.9956881626
0.9921782626
0.9912108796
0.9928332678
0.9961151705
0.9971641609
0.9972521331
0.9984298254
1.000348509
1.002424547
1.003184971
1.002393038
1.000734536
0.9987628804
1.003376263
1.000602443
0.9923282932
0.9897269951
0.9933260849
0.9951939065
0.9924349126
0.9912038436
0.9927026601
0.9963728936
0.9978067926
0.9978842149
0.9986602161
1.000634128
1.00231336
1.003082375
1.002335304
1.001163985
0.9993929833
1.003648004
1.000028606
0.9920222664
0.9889808674
0.9921716186
0.9946020395
0.9921941258
0.991236067
0.9925397002
0.9959492524
0.998023149
0.9986191281
0.9992847145
1.000815706
1.001849748
1.002671673
1.00276136
1.00220782
1.00052647
1.002248167
0.9993474344
0.992045345
0.9896932987
0.9924427715
0.994762781
0.9921584209
0.9913203429
0.9923548688
0.9948951511
0.9971440742
0.9983960629
0.9991865738
1.000422168
1.001710441
1.002788069
1.003503656
1.003524112
1.002380329
1.001080558
1.000174608
0.9944419348
0.9909269834
0.9925698
0.9945138587
0.9926493548
0.9915255957
0.9920654733
0.9942081964
0.996431207
0.9977813334
0.9987750706
1.000075344
1.002077902
1.00345392
1.004043965
1.004314628
1.003496861
1.001237844
1.00155937
0.9961829508
0.9916783966
0.9925055754
0.9941477787
0.9926434682
0.9912266504
0.9916124162
0.9937343551
0.9960405083
0.9975927531
0.998774135
1.000113763
1.002163945
1.003973642
1.003931088
1.003947958
1.002874371
1.003245645
0.9984761415
0.9931060792
0.992724937
0.9940960569
0.9928723218
0.9911386904
0.9915745665
0.9936496339
0.9959817622
0.9976660825
0.9989851062
1.000178276
1.002062953
1.003642566
1.003257971
1.002951119
1.001698858
1.003194442
0.9991029192
0.9939686911
0.9927676516
0.9939980315
0.9931877274
0.9917163012
0.9923162275
0.9942951787
0.9963541763
0.99798804
0.9991915534
0.9999661093
1.001515686
1.002836101
1.002752142
1.002049919
1.00021995
1.001996088
0.9980671895
0.993295706
0.9924577827
0.9939763233
0.9934876744
0.9926098173
0.9935159666
0.9951493335
0.9969409498
0.9983408666
0.9990482734
0.9995074797
1.000780907
1.001999709
1.00226244
1.001153657
0.9987385649
0.9972263071
1.000056662
0.9970606797
0.9927749583
0.992428652
0.9942738449
0.9941879029
0.9937344468
0.9939595255
0.9951818485
0.9966824333
0.9980524775
0.9988001321
0.9991137956
1.000273028
1.001502193
1.001504123
1.000448228
0.9984690749
0.9970457856
0.9984850102
0.997610552
0.9933210621
0.9929450274
0.9946543877
0.9942765018
0.9937064656
0.9937086405
0.9948276253
0.9962132225
0.9975315188
0.9984306259
0.9988563264
1.000081424
1.00127756
1.001087771
1.000276184
0.9990768918
0.9982392035
0.9984187776
0.9992292551
0.994500287
0.9937434605
0.9945047815
0.9939165611
0.9931328491
0.9929328208
0.9945791567
0.9956741066
0.9967697471
0.9978249838
0.9985618964
0.9999593396
1.001219188
1.001769831
1.001381361
1.00088592
1.000787224
0.999794786
0.9956574013
0.9934376625
0.9938069507
0.9927708088
0.9920479927
0.992465461
0.994526553
0.9953702738
0.9961225875
0.9971231461
0.9984547259
1.000117242
1.002040792
1.003680821
1.003774328
1.003887943
1.003324389
0.9992846206
0.9950441009
0.9927520815
0.9929118612
0.9918025808
0.9914006194
0.9922922105
0.9943862359
0.9951957389
0.9959103606
0.9968388841
0.9979527047
0.9996468208
1.002201079
1.004485473
1.004899144
1.004738089
1.003714236
0.9972466041
0.9944643723
0.9921910809
0.9921895725
0.9909521906
0.9909429684
0.9923039973
0.9945018495
0.9952572151
0.9959459784
0.9968445153
0.9978327302
0.9995869926
1.002336603
1.004283702
1.004976543
1.004436479
1.002877692
0.9957925846
0.9935159242
0.9918748419
0.9920296277
0.9907945904
0.9910069655
0.9923912509
0.9944542853
0.9952353452
0.9959793802
0.9968985379
0.9976605884
0.9993231745
1.001846215
1.003202119
1.003573668
1.002816227
1.001111038
0.9955151836
0.9932798721
0.9926141951
0.99290666
0.9913849084
0.9915092273
0.9924238386
0.9943138406
0.9950399377
0.9958404213
0.9967440005
0.9973372866
0.998656738
1.000937417
1.00227595
1.002275431
1.001386854
0.9993731998
0.9963691098
0.9942729515
0.9936430731
0.9938181804
0.9920861988
0.9919117862
0.9924766169
0.994343622
0.99502537
0.9957082666
0.9962961729
0.9969736246
0.9982990465
1.000118945
1.000992163
1.000696423
0.9997617298
0.9976978491
0.9976827787
0.9953477416
0.9948885537
0.9949413383
0.9927576023
0.9921040626
0.992353143
0.9944158883
0.995186246
0.9955631909
0.9957694754
0.9967032861
0.9982607592
0.9995563593
0.9997925772
0.9994411142
0.9988111632
0.9974769699
0.9957775677
0.9954465179
0.9956212766
0.9930313577
0.9919611926
0.9919885415
0.9942589513
0.9952246622
0.995230505
0.9952441758
0.996308092
0.9980084976
0.9990100247
0.999298591
0.999423078
0.9993767935
0.9986638413
0.9949728854
0.9947672378
0.9952351211
0.9925217183
0.9913456327
0.9915272637
0.9941216979
0.9953963126
0.9951693144
0.9951212124
0.9962292279
0.997620506
0.9987968518
0.9999920475
1.000579308
1.000773484
1.000695245
0.9928626879
0.9921974525
0.9929266929
0.990787833
0.9897078873
0.990353975
0.9934304736
0.9954354222
0.9954174672
0.9954042839
0.9964255317
0.9975623613
0.9992515083
1.001233685
1.002310095
1.00250002
1.002446567
0.9903281293
0.9892785383
0.9909725673
0.989217876
0.9883054962
0.9891951596
0.9924575352
0.9944990231
0.9948365238
0.9948580591
0.9958795689
0.9975924945
0.9997117002
1.001995525
1.003983763
1.004467038
1.004365105
1.003712661
0.9901023824
0.98971126
0.9921884796
0.990772317
0.9897862265
0.9902531248
0.9927924801
0.9937105081
0.9937976047
0.9939638721
0.9954468231
0.9977992922
0.9998872284
1.00217297
1.00460128
1.005339196
1.005331524
1.004706405
0.9913962213
0.992158126
0.9950263952
0.9935838355
0.9916288074
0.9916142156
0.9935498442
0.9945153403
0.9946132806
0.9948236712
0.9963160201
0.9985516787
1.000114199
1.001825551
1.003998932
1.00528383
1.005292514
1.004741009
0.992890959
0.9937422943
0.9967375453
0.9953039693
0.992373169
0.9919919742
0.993507449
0.9954038909
0.9962169975
0.9963864904
0.9973820072
0.9990857613
1.000047986
1.001396488
1.002842526
1.003429001
1.003072286
1.002287217
0.9933527142
0.9966515894
0.9950535939
0.9911909652
0.9904931417
0.991988388
0.995532486
0.9972057902
0.9973410564
0.9979116247
0.9992488042
0.9999706862
1.000884615
1.000568677
0.9996454763
0.998783494
0.9979014519
0.9918887961
0.9953732265
0.9933616372
0.9893709777
0.9888589353
0.9904725361
0.9949454007
0.9971399536
0.9973322302
0.9978303855
0.9990737794
0.9994452716
0.9989618484
0.9977558443
0.997511068
0.9971903604
0.9964070651
0.990296667
0.9941451355
0.992891599
0.9892099672
0.9885630099
0.9898626593
0.993975069
0.9962072422
0.9963478248
0.9965284135
0.997249822
0.9971007594
0.9964488459
0.9974360794
0.9982383863
0.9981608947
0.9974654516
0.9899473839
0.9943976157
0.9938694113
0.9901927611
0.989557395
0.9904806985
0.9936377772
0.9945947513
0.9945740505
0.9942140012
0.9945119715
0.9948667563
0.9963107955
0.9985751322
0.9996470053
0.9996338793
0.9991242343
0.9901758795
0.9952353158
0.995245308
0.9916495622
0.9909760146
0.9916748651
)
;

boundaryField
{
    inlet
    {
        type            fixedValue;
        value           nonuniform 0();
    }
    outlet
    {
        type            zeroGradient;
    }
    bottom
    {
        type            slip;
    }
    top
    {
        type            slip;
    }
    obstacle
    {
        type            zeroGradient;
    }
    defaultFaces
    {
        type            empty;
    }
    procBoundary22to16
    {
        type            processor;
        value           nonuniform List<scalar> 
20
(
0.9998247169
1.001607219
1.002644115
1.002370023
1.000415852
0.9986854861
1.002506748
0.9986539153
0.9926556814
0.9917958443
0.9943275965
0.9949998501
0.9916418597
0.990399933
0.9923199698
0.9949830503
0.9966236268
0.9971618628
0.9983324732
0.9983324732
)
;
    }
    procBoundary22to17
    {
        type            processor;
        value           uniform 0.997956856;
    }
    procBoundary22to21
    {
        type            processor;
        value           nonuniform List<scalar> 
35
(
1.00037621
0.9985029886
0.9989654148
0.9974145306
0.9960148339
0.9929044092
1.000752752
1.000752752
0.9997624185
0.9978853394
0.9963596541
0.9941959641
0.9934829753
0.9998282894
0.9998282894
1.000276976
0.9993867571
0.9960848238
0.9943258532
0.9947634354
0.9960026388
0.9984998901
0.9984998901
0.9979864636
0.9964718043
0.9948372287
0.994148062
0.9946396537
0.9968095263
0.9936945281
0.9936945281
0.9934436774
0.992564805
0.9914201975
0.9910244209
)
;
    }
    procBoundary22to23
    {
        type            processor;
        value           nonuniform List<scalar> 
32
(
0.9984338365
0.9986334724
0.9993075955
1.000904206
1.001457924
1.000587387
0.99942529
0.9980548162
0.9980548162
0.9972642369
0.9968769782
0.9978543193
1.000315184
1.001808284
1.002141397
1.001443122
0.999442476
0.9978546793
0.9964927392
0.9968193386
0.9983782827
1.000630052
1.002520016
1.002520016
1.004025742
1.004877982
1.004394005
1.001610304
0.9978510085
0.9967068157
0.997706505
0.9994180981
)
;
    }
    procBoundary22to28
    {
        type            processor;
        value           nonuniform List<scalar> 
18
(
0.9943372469
0.9946435948
0.9943468743
0.9937655895
0.9940765306
0.9953256335
0.9973028223
0.9999480322
1.001289327
1.001298854
1.000854064
0.9897095247
0.9954260737
0.995761816
0.992464301
0.9917018908
0.9943372469
0.992295784
)
;
    }
}


// ************************************************************************* //
