/*--------------------------------*- C++ -*----------------------------------*\
  =========                 |
  \\      /  F ield         | OpenFOAM: The Open Source CFD Toolbox
   \\    /   O peration     | Website:  https://openfoam.org
    \\  /    A nd           | Version:  7
     \\/     M anipulation  |
\*---------------------------------------------------------------------------*/
FoamFile
{
    version     2.0;
    format      ascii;
    class       volScalarField;
    location    "1.5";
    object      p;
}
// * * * * * * * * * * * * * * * * * * * * * * * * * * * * * * * * * * * * * //

dimensions      [1 -1 -2 0 0 0 0];

internalField   nonuniform List<scalar> 8(1.092927627 1.047072627 1.059472966 1.058400284 1.014964649 1.041892348 1.001514753 1.020804137);

boundaryField
{
    inlet
    {
        type            fixedValue;
        value           nonuniform 0();
    }
    outlet
    {
        type            zeroGradient;
    }
    bottom
    {
        type            slip;
    }
    top
    {
        type            slip;
    }
    obstacle
    {
        type            zeroGradient;
    }
    defaultFaces
    {
        type            empty;
    }
    procBoundary33to26
    {
        type            processor;
        value           uniform 1.095654168;
    }
    procBoundary33to27
    {
        type            processor;
        value           nonuniform List<scalar> 2(1.158545292 0.9326417809);
    }
    procBoundary33to32
    {
        type            processor;
        value           nonuniform List<scalar> 3(1.005744699 1.000031994 1.000000119);
    }
    procBoundary33to34
    {
        type            processor;
        value           nonuniform List<scalar> 4(0.9614535813 1.033134604 1.050605263 1.05392177);
    }
}


// ************************************************************************* //
