/*--------------------------------*- C++ -*----------------------------------*\
  =========                 |
  \\      /  F ield         | OpenFOAM: The Open Source CFD Toolbox
   \\    /   O peration     | Website:  https://openfoam.org
    \\  /    A nd           | Version:  7
     \\/     M anipulation  |
\*---------------------------------------------------------------------------*/
FoamFile
{
    version     2.0;
    format      ascii;
    class       volScalarField;
    location    "0.7";
    object      rho;
}
// * * * * * * * * * * * * * * * * * * * * * * * * * * * * * * * * * * * * * //

dimensions      [1 -3 0 0 0 0 0];

internalField   nonuniform List<scalar> 
555
(
1.411992043
1.411532824
1.402705423
1.412365134
1.410834028
1.411619925
1.414209263
1.41387552
1.413175416
1.412170049
1.412069145
1.412978257
1.414016279
1.414508147
1.414749106
1.415360965
1.415345518
1.415567277
1.416459138
1.405648892
1.414077253
1.412324391
1.412937854
1.415492677
1.41490763
1.414054725
1.413325465
1.413626735
1.414565602
1.415683795
1.416270426
1.416499983
1.416586031
1.416661695
1.417327554
1.418150548
1.408007465
1.414923995
1.413059002
1.413717123
1.416089808
1.415492715
1.414330804
1.413469818
1.413420364
1.414049016
1.415416597
1.416485141
1.416954374
1.41677782
1.416614326
1.417302341
1.418810366
1.41047383
1.416325034
1.413791121
1.414522562
1.416653964
1.41681065
1.415424086
1.413823936
1.412984937
1.413138492
1.414323508
1.41583209
1.416777746
1.416732263
1.416182796
1.416703452
1.418316536
1.413008662
1.418065348
1.415041361
1.415522398
1.417209094
1.417882453
1.41661615
1.41507099
1.413779342
1.413006022
1.413109423
1.414539465
1.415766492
1.415919709
1.415611189
1.415903048
1.416963874
1.413303255
1.414638505
1.419014593
1.415934187
1.415647282
1.416873657
1.417346454
1.416160376
1.41523156
1.414239852
1.413132642
1.413024135
1.41373286
1.414562082
1.414678386
1.414698485
1.415222888
1.41584123
1.413290363
1.414991177
1.419117406
1.416312485
1.414656955
1.415492604
1.415485755
1.414413218
1.413898349
1.413685904
1.413233744
1.413067192
1.413416113
1.413806812
1.41374852
1.413965331
1.414953042
1.415322773
1.41232499
1.414280531
1.417793472
1.415106496
1.413432275
1.413828269
1.41339536
1.412299223
1.411944372
1.412432942
1.413204429
1.413477319
1.413516851
1.413581586
1.413250301
1.413289949
1.414740122
1.415457668
1.410093424
1.411729869
1.414747521
1.41220713
1.412447089
1.413383866
1.412955595
1.411634194
1.411021119
1.411796858
1.413351947
1.414070522
1.413886132
1.413018867
1.412266889
1.412293801
1.413675561
1.414902498
1.406144589
1.407294654
1.409997638
1.407666733
1.409426264
1.411566457
1.411875689
1.411218549
1.411056242
1.411708499
1.413150269
1.413893694
1.413534913
1.41205614
1.410405527
1.410268873
1.411185425
1.400142233
1.401217076
1.403450528
1.401484767
1.40351916
1.406289183
1.40722288
1.407250095
1.407682646
1.40863353
1.410328922
1.411245899
1.411039244
1.409606754
1.407286354
1.406620235
1.4070119
1.392909384
1.394087573
1.395913893
1.394388995
1.396305891
1.399020346
1.400487351
1.401075065
1.401873689
1.403027925
1.404583164
1.405683623
1.405642813
1.404142452
1.401824609
1.400629116
1.400608644
1.387171618
1.38540065
1.386905018
1.388339961
1.38692208
1.388769392
1.391494893
1.39319907
1.393953528
1.394756154
1.395885076
1.397064987
1.39795074
1.397909866
1.396590322
1.395118341
1.394281722
1.39394133
1.379940124
1.37845628
1.379971861
1.381143158
1.379860617
1.381514708
1.383600775
1.384736664
1.385355011
1.386066693
1.387165992
1.388171263
1.388631577
1.388608554
1.388110926
1.3879052
1.388248216
1.388311157
1.373223651
1.371717942
1.372538211
1.373300542
1.37233007
1.374248437
1.37557805
1.375794667
1.376078548
1.376605171
1.377612028
1.3785063
1.378589182
1.378611611
1.37903958
1.379416865
1.38060981
1.381611341
1.365350547
1.363575231
1.364114431
1.364491811
1.363509328
1.36573385
1.366932725
1.36675185
1.366801947
1.367194298
1.368106743
1.368849711
1.368762424
1.368852916
1.36959783
1.370300214
1.371788635
1.373533617
1.356551866
1.354541486
1.355031475
1.354912764
1.353615366
1.3558179
1.357085624
1.357214822
1.357477513
1.358160721
1.359118492
1.359578408
1.359525579
1.359722134
1.360506953
1.361433856
1.363026177
1.364890359
1.346535344
1.344980016
1.34543248
1.344969742
1.343637763
1.345665216
1.347146902
1.347603479
1.348356602
1.349523024
1.350686272
1.350796141
1.350822533
1.351257468
1.35147497
1.352136467
1.353506158
1.354884756
1.336674177
1.335622352
1.3349237
1.334328502
1.333292663
1.335104993
1.337120253
1.338214744
1.339378211
1.340874672
1.34190761
1.34211797
1.341848799
1.34083231
1.340287607
1.340452722
1.341508898
1.343176748
1.329895372
1.327647409
1.324542628
1.323724098
1.324005094
1.323616977
1.325538144
1.327741015
1.32892351
1.330018875
1.331402469
1.332199708
1.332479647
1.331850284
1.330148149
1.32890541
1.328585557
1.329424542
1.330502681
1.321232956
1.317621279
1.314025603
1.313997605
1.314573776
1.314517363
1.316534332
1.318660356
1.319573796
1.320366871
1.321524829
1.322136727
1.322527969
1.321829346
1.319441691
1.317684178
1.316902222
1.317631997
1.318339842
1.311107103
1.307954801
1.304580862
1.304856715
1.305541763
1.305573244
1.307721762
1.30947536
1.309748984
1.309919801
1.310809636
1.311440306
1.311439715
1.31057801
1.308168817
1.30642588
1.305999993
1.307223798
1.308070024
1.300696066
1.298035108
1.295267365
1.295900662
1.29663058
1.296613031
1.298668836
1.300062537
1.299918966
1.299822247
1.300370637
1.3004588
1.300118028
1.299104327
1.297168111
1.296333515
1.296537021
1.297839654
1.29063306
1.288055764
1.285766893
1.286858457
1.287588937
1.287205719
1.288988631
1.290388069
1.290513189
1.290396559
1.290468054
1.290216604
1.289801619
1.288818954
1.287566002
1.287322774
1.287901034
1.289641943
1.281144666
1.278380832
1.276414209
1.277605473
1.27852099
1.278113905
1.279827951
1.281177372
1.281555209
1.281488513
1.281466076
1.281166257
1.280662346
1.279741376
1.279184654
1.279550556
1.280816213
1.282908569
1.274783673
1.272633608
1.269059157
1.267192308
1.268532141
1.269757229
1.269815535
1.271680458
1.272893341
1.273318861
1.273374209
1.27358014
1.273450621
1.272932645
1.272339638
1.272395462
1.273419759
1.275417677
1.277309061
1.267541976
1.264904769
1.260550137
1.258879718
1.260658553
1.262214715
1.262575621
1.264791838
1.265857482
1.266141807
1.266599219
1.267191119
1.267421656
1.267395279
1.267002711
1.267492197
1.268665336
1.270577443
1.272491053
1.260174579
1.257791391
1.253497581
1.25278741
1.254688817
1.256369411
1.256881039
1.259336667
1.260233523
1.260230789
1.26083808
1.262283051
1.263001745
1.263552628
1.263666015
1.263993666
1.264761546
1.266569587
1.268603638
1.253324528
1.252168996
1.248378692
1.248667877
1.251278771
1.252711621
1.253163551
1.255774565
1.256321986
1.256034715
1.256824482
1.258433573
1.259563133
1.260733951
1.261300399
1.261505695
1.261821299
1.263121029
1.264600687
1.250257874
1.247777478
1.244770898
1.246267575
1.24956119
1.250524915
1.250741813
1.253679362
1.254662515
1.254639194
1.255562876
1.256270267
1.257007356
1.257857736
1.258555736
1.258463258
1.25827486
1.259011295
1.260102303
1.249648796
1.246173179
1.243699343
1.245720197
1.248828253
1.249407477
1.249728188
1.252989133
1.253915055
1.254571451
1.255344305
1.25587066
1.256271979
)
;

boundaryField
{
    inlet
    {
        type            calculated;
        value           nonuniform 0();
    }
    outlet
    {
        type            calculated;
        value           nonuniform 0();
    }
    bottom
    {
        type            calculated;
        value           nonuniform 0();
    }
    top
    {
        type            calculated;
        value           nonuniform 0();
    }
    obstacle
    {
        type            calculated;
        value           nonuniform 0();
    }
    defaultFaces
    {
        type            empty;
    }
    procBoundary16to10
    {
        type            processor;
        value           nonuniform List<scalar> 
18
(
1.407573897
1.405031321
1.399534152
1.41015377
1.408650333
1.40939845
1.411965846
1.41190505
1.411160319
1.409686394
1.409245581
1.409560959
1.4099968
1.410087188
1.41116611
1.412364901
1.412310236
1.412310236
)
;
    }
    procBoundary16to11
    {
        type            processor;
        value           uniform 1.410588773;
    }
    procBoundary16to15
    {
        type            processor;
        value           nonuniform List<scalar> 
35
(
1.403098312
1.405443888
1.407705715
1.410104717
1.412343843
1.412343843
1.416601112
1.415500601
1.414281905
1.412775334
1.408956844
1.402666982
1.39499661
1.39499661
1.388207915
1.381742754
1.374945206
1.365894633
1.355610203
1.345656954
1.337343836
1.337343836
1.326691429
1.318737027
1.310720232
1.300857329
1.29067527
1.282285874
1.282285874
1.271505161
1.26415753
1.255926345
1.248720635
1.246829632
1.24774395
)
;
    }
    procBoundary16to17
    {
        type            processor;
        value           nonuniform List<scalar> 
32
(
1.416478338
1.41900648
1.419387982
1.419006911
1.417807461
1.416210394
1.415265875
1.415124622
1.414885278
1.412474761
1.412474761
1.407916375
1.401322585
1.39388071
1.387438472
1.381374933
1.373638413
1.364665535
1.355093329
1.344290341
1.331477107
1.319571012
1.309483963
1.298815335
1.298815335
1.291194387
1.28441011
1.278631521
1.273698397
1.269440817
1.264309572
1.260067951
)
;
    }
    procBoundary16to22
    {
        type            processor;
        value           nonuniform List<scalar> 
20
(
1.256154396
1.25582525
1.255605462
1.255696104
1.256932878
1.258557416
1.252096792
1.247402789
1.244344712
1.246141136
1.248993716
1.249504446
1.249787457
1.252432336
1.253609001
1.254560475
1.255656377
1.256027922
1.256154396
1.256211581
)
;
    }
}


// ************************************************************************* //
