/*--------------------------------*- C++ -*----------------------------------*\
  =========                 |
  \\      /  F ield         | OpenFOAM: The Open Source CFD Toolbox
   \\    /   O peration     | Website:  https://openfoam.org
    \\  /    A nd           | Version:  7
     \\/     M anipulation  |
\*---------------------------------------------------------------------------*/
FoamFile
{
    version     2.0;
    format      ascii;
    class       volScalarField;
    location    "1.9";
    object      rho;
}
// * * * * * * * * * * * * * * * * * * * * * * * * * * * * * * * * * * * * * //

dimensions      [1 -3 0 0 0 0 0];

internalField   nonuniform List<scalar> 
23
(
1.26742705
1.277647324
1.402206472
1.30306106
1.275906706
1.514532965
1.428586594
1.342437889
1.53930628
1.514565286
1.446705747
1.537161878
1.533591299
1.51248909
1.490976329
1.515133061
1.523700575
1.434460892
1.483271192
1.520340841
1.408571621
1.442634948
1.504634231
)
;

boundaryField
{
    inlet
    {
        type            calculated;
        value           nonuniform 0();
    }
    outlet
    {
        type            calculated;
        value           nonuniform 0();
    }
    bottom
    {
        type            calculated;
        value           nonuniform 0();
    }
    top
    {
        type            calculated;
        value           nonuniform List<scalar> 3(1.408571621 1.442634948 1.504634231);
    }
    obstacle
    {
        type            calculated;
        value           nonuniform 0();
    }
    defaultFaces
    {
        type            empty;
    }
    procBoundary34to27
    {
        type            processor;
        value           uniform 1.522645843;
    }
    procBoundary34to28
    {
        type            processor;
        value           nonuniform List<scalar> 4(1.256859295 1.329828616 1.283638198 1.283638198);
    }
    procBoundary34to33
    {
        type            processor;
        value           nonuniform List<scalar> 6(1.562011921 1.539663967 1.488167127 1.433969597 1.40755184 1.400959355);
    }
    procBoundary34to35
    {
        type            processor;
        value           nonuniform List<scalar> 8(1.314268856 1.286434517 1.316265432 1.371558847 1.4589667 1.513003624 1.554129737 1.573098622);
    }
}


// ************************************************************************* //
