/*--------------------------------*- C++ -*----------------------------------*\
  =========                 |
  \\      /  F ield         | OpenFOAM: The Open Source CFD Toolbox
   \\    /   O peration     | Website:  https://openfoam.org
    \\  /    A nd           | Version:  7
     \\/     M anipulation  |
\*---------------------------------------------------------------------------*/
FoamFile
{
    version     2.0;
    format      ascii;
    class       volScalarField;
    location    "3.9";
    object      T;
}
// * * * * * * * * * * * * * * * * * * * * * * * * * * * * * * * * * * * * * //

dimensions      [0 0 0 1 0 0 0];

internalField   nonuniform List<scalar> 
22
(
0.9822552319
1.090699308
0.9733499928
1.060861712
0.9536594667
1.029484746
0.9400885364
1.000876925
1.058241308
0.9348065213
0.9808359751
1.043928432
0.9324782881
0.9673923594
1.030194722
0.9303394998
0.9550496966
1.014763209
0.9276519454
0.9439873797
0.9970671853
0.9222449518
)
;

boundaryField
{
    inlet
    {
        type            fixedValue;
        value           nonuniform 0();
    }
    outlet
    {
        type            inletOutlet;
        inletValue      nonuniform 0();
        value           nonuniform 0();
    }
    bottom
    {
        type            slip;
    }
    top
    {
        type            slip;
    }
    obstacle
    {
        type            zeroGradient;
    }
    defaultFaces
    {
        type            empty;
    }
    procBoundary21to15
    {
        type            processor;
        value           nonuniform List<scalar> 2(0.981830985 1.084275081);
    }
    procBoundary21to22
    {
        type            processor;
        value           nonuniform List<scalar> 7(1.084991133 1.08114791 1.070911179 1.070911179 1.060046743 1.052023754 1.04636317);
    }
    procBoundary21to27
    {
        type            processor;
        value           nonuniform List<scalar> 4(0.9342105033 0.9805139038 0.9342105033 0.9316652259);
    }
    procBoundary21to28
    {
        type            processor;
        value           nonuniform List<scalar> 2(1.040231023 1.033965005);
    }
}


// ************************************************************************* //
