/*--------------------------------*- C++ -*----------------------------------*\
  =========                 |
  \\      /  F ield         | OpenFOAM: The Open Source CFD Toolbox
   \\    /   O peration     | Website:  https://openfoam.org
    \\  /    A nd           | Version:  7
     \\/     M anipulation  |
\*---------------------------------------------------------------------------*/
FoamFile
{
    version     2.0;
    format      ascii;
    class       volScalarField;
    location    "5";
    object      rho;
}
// * * * * * * * * * * * * * * * * * * * * * * * * * * * * * * * * * * * * * //

dimensions      [1 -3 0 0 0 0 0];

internalField   nonuniform List<scalar> 
2222
(
1.916906246
1.906287296
1.895823866
1.883737495
1.871757478
1.860744558
1.849425995
1.836632532
1.827519943
1.819051836
1.808304016
1.79609584
1.786433402
1.777609207
1.766147757
1.755476737
1.739287671
2.160234167
2.149812872
2.140221923
2.126245006
2.112635542
2.101502541
2.093907428
2.087355939
2.078605938
2.069207425
2.058014439
2.042513746
2.028102704
2.016462315
1.996582964
1.983642063
1.971314026
1.960273359
1.95521083
1.94724392
1.936850013
1.927667839
1.918924683
1.908795505
1.897632249
1.885050647
1.872916494
1.861461782
1.849991179
1.837416516
1.828192485
1.819761925
1.809310962
1.797569964
1.788129509
1.779023595
1.76734771
1.75661695
1.740447527
2.153034643
2.143847536
2.128939585
2.114876936
2.10317261
2.094602081
2.088073119
2.079767287
2.071599403
2.060952403
2.045566509
2.03085442
2.018485926
1.999227191
1.985616929
1.973993257
1.961838238
1.955726898
1.947624289
1.937242891
1.928483828
1.920439845
1.910292291
1.89869739
1.886211705
1.874156792
1.86254931
1.850863596
1.838263273
1.828754233
1.820448567
1.810384902
1.799370794
1.790443052
1.780881342
1.768784477
1.757860911
1.741462509
2.155195412
2.145335657
2.130227724
2.115391564
2.103138056
2.094303704
2.088229433
2.080765428
2.073409672
2.063029306
2.047620076
2.032865728
2.019912655
2.001754049
1.987655887
1.976623846
1.963081628
1.955850786
1.947708255
1.937517299
1.929028244
1.921392835
1.911241597
1.899547972
1.887257252
1.875312775
1.863671044
1.851832565
1.839087377
1.829238924
1.821083306
1.811374207
1.801076541
1.792755428
1.782966459
1.770550131
1.759284047
1.742408033
2.157109423
2.145704428
2.130553623
2.114993551
2.10232676
2.093925466
2.088765625
2.081704727
2.074330458
2.064077421
2.049273989
2.034640841
2.021370448
2.004379941
1.989543236
1.979048723
1.96424575
1.955748148
1.947687642
1.937828715
1.929422849
1.922060083
1.912040344
1.900379795
1.888301969
1.876574318
1.864888073
1.852836422
1.839926677
1.829848611
1.821685288
1.812194914
1.802271105
1.793847683
1.784360587
1.772118442
1.760635445
1.74332013
2.159197161
2.146198404
2.131458959
2.115245698
2.102305084
2.094678874
2.089964276
2.083532823
2.075345199
2.064337984
2.050156919
2.03625315
2.022770425
2.006761522
1.991415807
1.980922629
1.965108765
1.955727491
1.948038263
1.938346574
1.929807453
1.922564917
1.912659035
1.901026918
1.889214458
1.87788112
1.86622947
1.853923456
1.840767302
1.830510538
1.822292975
1.812914053
1.803049637
1.79429112
1.784938359
1.773169151
1.761726391
1.744286757
2.16145029
2.147519993
2.133382761
2.117490494
2.104167599
2.096691826
2.09170975
2.084005722
2.074544724
2.064067346
2.050939384
2.037747457
2.02461786
2.009492283
1.99343609
1.982413249
1.966182339
1.956256929
1.948796874
1.939108477
1.930346048
1.923184588
1.913402421
1.901791507
1.890301124
1.879334714
1.867545553
1.854936535
1.841647149
1.831142055
1.822973277
1.813791076
1.803739688
1.794697136
1.785257795
1.773843925
1.762611204
1.745427725
2.164082318
2.149227458
2.135983803
2.119898917
2.107068895
2.099460447
2.092936963
2.084226041
2.074281832
2.06403723
2.051949407
2.039324726
2.026404438
2.012198332
1.995657695
1.983886554
1.96762522
1.957240835
1.949803803
1.940307038
1.931352279
1.924094156
1.914324597
1.902657758
1.89158167
1.88089486
1.868763717
1.855835817
1.842590313
1.831901287
1.823832043
1.814705179
1.804358623
1.795119573
1.785602531
1.774419253
1.763527598
1.74691255
2.167469113
2.151556689
2.137705703
2.120582423
2.109515239
2.101957831
2.093861818
2.084224855
2.074094554
2.065146627
2.053782002
2.040959916
2.028361728
2.014983001
1.998307879
1.985670809
1.969420148
1.958495139
1.951131723
1.942303059
1.932964762
1.925444684
1.915764625
1.904184941
1.893457862
1.882478242
1.869653955
1.856516646
1.843524169
1.83288763
1.825017484
1.815684424
1.804962292
1.795623024
1.786052613
1.775115085
1.764744803
1.748707337
2.17056562
2.153669
2.138359906
2.120076535
2.110790261
2.103430483
2.094064204
2.083776663
2.074713082
2.067468462
2.055662529
2.042413493
2.030240652
2.017795722
2.001270055
1.987908007
1.971740022
1.960057477
1.953081586
1.943733684
1.934409681
1.926968539
1.917838358
1.906701026
1.89589157
1.883879832
1.870226219
1.857023117
1.844350882
1.83398426
1.825891341
1.816121119
1.805555904
1.796221384
1.786675716
1.776112293
1.766287794
1.750306002
2.172130472
2.154555888
2.138818737
2.120852245
2.110497346
2.103108181
2.093185935
2.083363952
2.075261734
2.067910413
2.056562451
2.043929013
2.03292593
2.021393243
2.005024137
1.991013587
1.974871931
1.962150868
1.954379394
1.944409213
1.93491524
1.928452051
1.920385937
1.909813412
1.898111655
1.884754386
1.870588584
1.857519314
1.845176365
1.835007735
1.826419107
1.816542012
1.806203912
1.797121887
1.787760191
1.777505084
1.767543513
1.751315449
2.172958485
2.154830043
2.139328262
2.122432722
2.111239267
2.102560454
2.093299731
2.084324291
2.076145964
2.067841741
2.056765646
2.045709555
2.036717055
2.026234137
2.009678266
1.99479152
1.978904624
1.96434064
1.95516812
1.944948085
1.935414989
1.929780677
1.922754695
1.912310494
1.899357096
1.885140489
1.870826498
1.857990082
1.845978092
1.835751962
1.826813398
1.816970437
1.807056268
1.798391244
1.789283562
1.778634553
1.768131909
1.752014832
2.174120751
2.155071746
2.139867974
2.124666577
2.113404135
2.10442737
2.095489089
2.086630706
2.077421772
2.067722885
2.056751319
2.047654843
2.041284277
2.031977296
2.01500439
1.999087604
1.983240533
1.966319017
1.955749649
1.945537965
1.936084805
1.931165016
1.924937481
1.914080804
1.899912937
1.885247905
1.871033636
1.85848666
1.846713753
1.836357546
1.827211275
1.817426235
1.807712394
1.798974168
1.789713275
1.778996763
1.76850873
1.752800743
2.176028777
2.15582872
2.140873809
2.125799336
2.116068427
2.10748858
2.098992393
2.089326602
2.078405229
2.067469148
2.057050438
2.049555303
2.045418506
2.036630524
2.019609221
2.00318671
1.986970361
1.968199569
1.956526859
1.946466461
1.937079137
1.933013009
1.926587255
1.914034562
1.899759924
1.885361096
1.871271251
1.858884115
1.847391435
1.836996952
1.827679274
1.817875731
1.808186476
1.799387386
1.790045621
1.779360607
1.768993116
1.753978836
2.157653933
2.143055229
2.12690864
2.117451809
2.1111968
2.101838077
2.090930127
2.078553399
2.067211627
2.057799351
2.052024127
2.048111945
2.038825296
2.022673051
2.00639858
1.989682756
1.970089447
1.95769503
1.947726468
1.938713169
1.934649984
1.926880682
1.913989263
1.899703228
1.885684232
1.871840512
1.859590511
1.848265062
1.837755704
1.828274196
1.818354547
1.808628273
1.799729281
1.790330511
1.779803151
1.769906746
1.755639738
2.160067376
2.145987756
2.128618459
2.118374417
2.113802053
2.103317994
2.090784345
2.077885124
2.067631147
2.059880708
2.0548478
2.049096731
2.039437879
2.024638977
2.008773798
1.991699675
1.971999894
1.959112017
1.949298102
1.941052316
1.935356836
1.927089783
1.914189429
1.899801834
1.886103021
1.872751743
1.860750844
1.849565643
1.838828367
1.828999334
1.818882538
1.808959327
1.799926948
1.79066475
1.780510656
1.771676009
1.75705692
2.161808448
2.14807545
2.130900885
2.119665111
2.115476018
2.102858172
2.089471146
2.0782615
2.069157835
2.062229137
2.055059918
2.048648669
2.03969297
2.026210296
2.010720121
1.993288971
1.973825101
1.960653924
1.951407567
1.942762603
1.935994946
1.927414598
1.914543456
1.900277728
1.88728377
1.874939564
1.863277578
1.851832141
1.840408583
1.829906519
1.81946986
1.809299677
1.800085869
1.79113852
1.781838365
1.773416607
1.757357653
2.162627465
2.148903085
2.133182798
2.121238314
2.116924221
2.102840962
2.090474526
2.080306424
2.071338972
2.062938776
2.054634108
2.048042193
2.039982292
2.02764241
2.012505481
1.994685113
1.975553088
1.962420223
1.953763543
1.944076203
1.936710854
1.928067964
1.915104628
1.901103274
1.889573278
1.878748476
1.867323433
1.855144268
1.842506323
1.831022147
1.820181107
1.809829626
1.800409106
1.791718652
1.782862858
1.773852931
1.75743388
2.163416033
2.14931837
2.135241358
2.123204687
2.118772191
2.104700967
2.093426843
2.083260245
2.072605074
2.062910302
2.053324222
2.047557201
2.040414322
2.029165192
2.014405208
1.996278
1.977461342
1.964563576
1.95580505
1.945344649
1.937726738
1.929049666
1.916042464
1.902651942
1.892572148
1.882029433
1.870255576
1.857785068
1.844580535
1.832250237
1.821013184
1.81040752
1.800882707
1.79227307
1.783286189
1.774098553
1.757541942
2.164901123
2.150190496
2.137586519
2.125755144
2.120692045
2.107554015
2.096520192
2.084997846
2.072591262
2.061517561
2.052001687
2.047463302
2.041382484
2.031214842
2.016528979
1.998191498
1.979759297
1.966991621
1.957631945
1.94672319
1.939046511
1.93038254
1.917692843
1.905084057
1.894408987
1.882989678
1.871069104
1.858956799
1.846074474
1.83347729
1.821900263
1.811089629
1.80142648
1.792801489
1.783701848
1.774376549
1.757756377
2.167227077
2.152172896
2.141085457
2.129108166
2.123271126
2.110670409
2.097656067
2.084824882
2.071005708
2.060012608
2.051834826
2.047931154
2.043577826
2.033724309
2.018828873
2.000624716
1.982516402
1.969417337
1.959397885
1.948227698
1.940621998
1.93212952
1.919500992
1.906071388
1.894906811
1.883101776
1.871114262
1.859304752
1.846971651
1.83453426
1.822820849
1.811911636
1.801998521
1.793348045
1.784202934
1.774758094
1.758091773
2.169537295
2.15531334
2.146378334
2.133705872
2.125980339
2.111901468
2.096766465
2.083774886
2.070882531
2.060620025
2.052867011
2.049823817
2.045584886
2.03526657
2.020941265
2.003445051
1.98545957
1.971784814
1.961208971
1.949868271
1.942318119
1.933334879
1.920344686
1.906533649
1.895035131
1.883077205
1.870965529
1.859415936
1.847607532
1.835489643
1.823774683
1.812761719
1.802635317
1.793943969
1.784755292
1.77524091
1.758557176
2.17144707
2.158877549
2.151882047
2.138558457
2.127963676
2.112111048
2.096320781
2.085127262
2.072886537
2.062895327
2.055393551
2.051147125
2.045640152
2.035617786
2.022540698
2.006164755
1.988288232
1.97417634
1.963196748
1.951804453
1.94384113
1.934343538
1.9211458
1.907013552
1.895267829
1.883171799
1.871088153
1.859770666
1.848443337
1.836582183
1.824904721
1.813792658
1.803370398
1.794592332
1.785349474
1.775827199
1.759212929
2.173108994
2.161542005
2.15487163
2.141831644
2.129227126
2.113280767
2.097291717
2.08763156
2.076461503
2.0659154
2.057582192
2.051603395
2.045200852
2.035292319
2.023535631
2.008421656
1.991002024
1.976780623
1.965623479
1.954274032
1.945265534
1.935371988
1.922121857
1.907714005
1.895782854
1.883559014
1.871763246
1.860957778
1.850114531
1.838306043
1.826475134
1.814970247
1.804153279
1.795293277
1.785990125
1.776531714
1.760051155
2.175146067
2.163436513
2.156189362
2.143542373
2.130131921
2.115013731
2.099214837
2.091089466
2.078609708
2.067518109
2.058574141
2.051303595
2.044098735
2.035082064
2.024506349
2.010822318
1.994286948
1.98021167
1.968889186
1.957218789
1.946772896
1.936433263
1.923179317
1.908710917
1.897106317
1.885266517
1.874193731
1.864310789
1.853945843
1.841530534
1.828876205
1.816509081
1.805081418
1.796118528
1.786739806
1.777386245
1.760588504
2.178348529
2.165270114
2.157246055
2.144670553
2.131009045
2.117148138
2.102076721
2.092570318
2.079120161
2.067900606
2.058151651
2.050193799
2.043221917
2.035217631
2.026324119
2.014382793
1.998821831
1.985005629
1.973039797
1.960238067
1.948347622
1.937594329
1.924113043
1.90941204
1.898514851
1.888310063
1.878310134
1.869277954
1.859649351
1.846375245
1.832200012
1.818590437
1.806461933
1.797361843
1.787847264
1.778363311
1.761034548
2.16712651
2.158530463
2.146020739
2.132563884
2.120785961
2.103684998
2.092599653
2.079370778
2.067336609
2.056579123
2.049540912
2.043252615
2.036126779
2.029842155
2.019604174
2.004367611
1.990241524
1.976803867
1.962728875
1.949883534
1.938685613
1.924931207
1.909782984
1.898756509
1.888970886
1.879571431
1.870946773
1.862506699
1.850468682
1.835975201
1.82180643
1.809240208
1.799783683
1.789550241
1.779210266
1.76148454
2.168919938
2.160333397
2.148566466
2.13609988
2.124748396
2.104803122
2.093136298
2.080908741
2.067135686
2.056311473
2.050321243
2.044025149
2.037672538
2.032323358
2.022901301
2.00848726
1.993909683
1.97925279
1.964672414
1.951335326
1.939494166
1.925469185
1.909768161
1.8988122
1.888944453
1.879306594
1.870545335
1.862347727
1.852110521
1.839504803
1.826795931
1.814464245
1.803735493
1.791314448
1.779812901
1.762018503
2.170581624
2.163058209
2.153598317
2.141981504
2.126949265
2.105717831
2.09444692
2.082925423
2.068244919
2.057692016
2.052071646
2.045416408
2.038025348
2.032280211
2.023107683
2.009857532
1.995642194
1.980750252
1.966325429
1.95271873
1.939937463
1.925418661
1.909449797
1.898727676
1.888822457
1.878912717
1.869966184
1.861787104
1.852344225
1.842185937
1.83182811
1.819417127
1.806611052
1.792321588
1.780371072
1.762650488
2.172699649
2.167641195
2.16066908
2.146329252
2.127543245
2.106579995
2.095923203
2.08501975
2.070032918
2.059975029
2.054593253
2.04696047
2.03801395
2.031569932
2.022766308
2.009916227
1.996430702
1.981973229
1.967953737
1.954137039
1.940755587
1.925824178
1.909748116
1.899017463
1.888965068
1.878830822
1.869486346
1.861140713
1.852262437
1.843564832
1.83402617
1.821163852
1.807596701
1.792899829
1.781090267
1.763545605
2.176636489
2.173829347
2.164922397
2.147177636
2.127775612
2.108030372
2.097552206
2.08688394
2.072059809
2.063421585
2.057768451
2.048075706
2.037504954
2.030128797
2.021833312
2.009791153
1.997026922
1.983436869
1.969762217
1.955640839
1.941720656
1.927060078
1.910891614
1.899902386
1.889551958
1.879038758
1.869149807
1.860719616
1.852146284
1.843961418
1.834277264
1.82123455
1.807941098
1.793560373
1.782337135
1.764770156
2.182450835
2.177352401
2.165644237
2.147126262
2.128470968
2.110501849
2.099108681
2.088561114
2.074772061
2.066888581
2.05929003
2.048625041
2.036843338
2.029134867
2.021349725
2.009749587
1.997837592
1.985333066
1.971740943
1.957174268
1.942828984
1.928417581
1.912362111
1.90111265
1.890564257
1.879461969
1.868993422
1.86052766
1.852147661
1.844062766
1.834251154
1.821080924
1.808275333
1.794893117
1.784329021
1.765654781
2.185261402
2.17811839
2.165910157
2.1473244
2.130053689
2.113479121
2.10057572
2.090450593
2.078622366
2.068159644
2.059677306
2.048067218
2.036225549
2.028990425
2.021514208
2.010367098
1.999675052
1.987863332
1.973610047
1.958579835
1.944101197
1.929975353
1.914066625
1.90276512
1.891771412
1.879892788
1.869038197
1.860513299
1.852331955
1.84420231
1.834265052
1.821161807
1.809284747
1.797133907
1.785914614
1.766113406
2.186431807
2.178679067
2.16643785
2.14846017
2.132811056
2.116498863
2.102156028
2.092803502
2.080350994
2.067684666
2.058361649
2.046467719
2.035808902
2.029614202
2.022664735
2.013077875
2.003131746
1.990364302
1.974999478
1.959811706
1.945527627
1.931853025
1.91611527
1.904079738
1.892594834
1.88031915
1.86931872
1.860881363
1.852821687
1.844579942
1.834403851
1.821691022
1.811370714
1.799132702
1.78659013
1.766505024
2.187345364
2.179343306
2.167507276
2.151545461
2.137235167
2.119299021
2.104006503
2.094966545
2.08094677
2.065617997
2.057246756
2.046083238
2.036236373
2.030943433
2.024633396
2.015212302
2.004477353
1.991460615
1.975913203
1.96112915
1.947275517
1.934045963
1.91805459
1.904952616
1.893256447
1.880852464
1.869924217
1.862016691
1.854300095
1.845504065
1.834875482
1.823134441
1.813230001
1.799652767
1.786877068
1.766920418
2.188088151
2.180286417
2.169659465
2.157330836
2.141921794
2.121528898
2.106088373
2.096714444
2.080603486
2.065592397
2.058232525
2.047275032
2.037665781
2.032053486
2.025031077
2.01501964
2.004120055
1.991614344
1.976651809
1.96279147
1.949500445
1.936174358
1.919423443
1.905467938
1.894023591
1.881619153
1.871075545
1.864623894
1.857040598
1.846631565
1.835658791
1.824680872
1.813827527
1.799714017
1.787110261
1.767423101
2.189350443
2.181651552
2.173802317
2.162335488
2.143800964
2.123445496
2.108501371
2.098448802
2.081261376
2.066935216
2.060221077
2.049432741
2.039569346
2.0325178
2.024399917
2.013683654
2.003319838
1.991709944
1.977712935
1.965122443
1.952024011
1.937793182
1.920474592
1.906166171
1.895088029
1.882638493
1.873582213
1.868058889
1.858629965
1.84726582
1.836551312
1.825654505
1.813808419
1.799583465
1.787320628
1.768088409
2.19086336
2.184798798
2.178485505
2.163585163
2.144275535
2.125737603
2.111625311
2.100405014
2.082469925
2.068987602
2.063014659
2.052819952
2.040799197
2.031739435
2.022281831
2.012080901
2.003021237
1.992242027
1.979710296
1.968177965
1.954194676
1.938904855
1.921472556
1.907117271
1.896299473
1.883895151
1.876838002
1.869626401
1.858868455
1.847869586
1.837383649
1.825439914
1.813396285
1.799308164
1.787443604
1.768994934
2.194081099
2.189480879
2.180300696
2.163847024
2.145061046
2.128958364
2.115433014
2.102421561
2.084039697
2.072518128
2.066580605
2.054402783
2.040312548
2.030003432
2.021144158
2.011968587
2.00327563
1.993942168
1.983169714
1.970765259
1.955459033
1.939822386
1.922582466
1.908158105
1.897613375
1.886175758
1.878761979
1.870202868
1.859210206
1.848333368
1.837616038
1.825236773
1.813033268
1.799081226
1.787712081
1.770487338
2.198741542
2.191695383
2.180884901
2.16427886
2.147037376
2.133299116
2.118489564
2.104120342
2.087337418
2.076937999
2.067893262
2.054225397
2.037857062
2.029875873
2.021765099
2.01269744
2.004349466
1.99729547
1.985634605
1.97154614
1.956146357
1.940759723
1.92384163
1.909325068
1.899179684
1.889098573
1.879713203
1.87060938
1.859564326
1.848484212
1.837584954
1.825049452
1.812458757
1.798791776
1.78827453
1.772699809
2.192577854
2.181573541
2.165308557
2.151388252
2.137124737
2.119710608
2.105775361
2.092975834
2.079074378
2.067711078
2.052009466
2.037219672
2.031280761
2.023218481
2.014158977
2.007497868
1.999183016
1.98571602
1.971631979
1.956814666
1.941764072
1.925096103
1.910656903
1.901126449
1.890907473
1.880485965
1.870913621
1.859852292
1.848600485
1.837561189
1.824932596
1.8121146
1.79876347
1.789473557
1.774915502
2.193424995
2.182437518
2.168699226
2.156701786
2.13841538
2.120291985
2.107972184
2.097241247
2.07963301
2.066554279
2.051546113
2.038499182
2.033352931
2.025659913
2.016943051
2.009058545
1.999133983
1.985336661
1.971694108
1.957704763
1.942874818
1.926377402
1.912389792
1.903231513
1.892143097
1.880932163
1.871061708
1.860089621
1.848705151
1.83756657
1.824877277
1.811962005
1.799089162
1.791157175
1.776298903
2.194365531
2.184315778
2.173730605
2.158515442
2.138851058
2.121590543
2.111311785
2.099810886
2.07976777
2.066948107
2.052879382
2.040772775
2.03643857
2.027969534
2.017941886
2.009101103
1.998088819
1.984417768
1.97186525
1.958872301
1.944282508
1.928063568
1.914790413
1.905267953
1.893271005
1.881206919
1.871306745
1.860445402
1.84888108
1.837617976
1.824898546
1.812021272
1.80013168
1.792870457
1.776746264
2.195638744
2.187663009
2.174977671
2.158705626
2.139652248
2.125049852
2.116431545
2.101481126
2.080298353
2.067966846
2.055000556
2.0443102
2.038348806
2.028850628
2.017726488
2.00735776
1.996084664
1.98383763
1.972391576
1.960552638
1.946298501
1.930631153
1.917774646
1.90710521
1.894321028
1.881913753
1.871918026
1.860980792
1.849196207
1.837819564
1.825134651
1.812655439
1.802073299
1.794280483
1.776734158
2.198250232
2.188619639
2.174690383
2.158388557
2.141519391
2.131101864
2.120693931
2.101708461
2.080846799
2.069326799
2.059047937
2.04709712
2.038967912
2.027866132
2.015046513
2.004947419
1.99527568
1.983967632
1.973969659
1.963628866
1.949275453
1.934089853
1.920672361
1.908566368
1.89526229
1.882813451
1.87268271
1.861659716
1.849711773
1.838255586
1.826112835
1.814907258
1.804777204
1.795129307
1.776484776
2.199640927
2.188298277
2.173590655
2.158595065
2.145180009
2.135739857
2.121342583
2.101392038
2.081687858
2.071858356
2.063878307
2.047988517
2.037479627
2.025141966
2.012889739
2.00464582
1.995573632
1.984803221
1.977266696
1.9666791
1.952151673
1.937025114
1.922593205
1.909638784
1.896166254
1.883717831
1.87349398
1.86248182
1.850409424
1.839458198
1.828504622
1.817874822
1.80649426
1.795328385
1.776211127
2.199540237
2.187107608
2.173018443
2.159298617
2.149663496
2.137352909
2.121179745
2.10144513
2.084255653
2.075637576
2.065540595
2.04716797
2.036294828
2.025039752
2.013469759
2.005734882
1.996897032
1.987422142
1.978113773
1.966836306
1.953399134
1.93836184
1.923667465
1.910583846
1.897185699
1.884674189
1.874364497
1.863473029
1.851624827
1.840824134
1.82933553
1.817921877
1.806433681
1.795249919
1.776149376
2.198738077
2.186399942
2.17320213
2.161969725
2.153711419
2.138004348
2.120284573
2.102898953
2.089727212
2.079101503
2.065898778
2.04662758
2.037404878
2.026525874
2.015651861
2.008135955
1.998814581
1.988114278
1.977608943
1.96618224
1.953350553
1.939001094
1.92462857
1.911732033
1.898408303
1.885754991
1.875350562
1.864787172
1.852773898
1.841149398
1.82920116
1.817464376
1.806165449
1.795153704
1.776497318
2.198290949
2.186523232
2.173957927
2.167179798
2.155910994
2.137802842
2.11997052
2.106777896
2.096093338
2.081174365
2.066360114
2.047490997
2.039526904
2.029644669
2.018269524
2.009705862
1.999446913
1.98746954
1.975712476
1.965251251
1.953395304
1.939650241
1.925967032
1.913202133
1.899663371
1.886956856
1.876634638
1.866536287
1.853401077
1.841128631
1.828573874
1.816605774
1.805840304
1.795190491
1.777498391
2.198620028
2.187227824
2.177224954
2.170789559
2.15658383
2.136821024
2.120880495
2.11245728
2.099806736
2.081803217
2.066823687
2.049117708
2.042501263
2.031736338
2.01920625
2.009494198
1.998324128
1.985386616
1.974583179
1.965219243
1.953664492
1.940642848
1.927547802
1.914446237
1.90078839
1.888412977
1.878543776
1.868187091
1.853698893
1.840369492
1.827791041
1.816100477
1.805695509
1.795436006
1.778990754
2.199550343
2.189466818
2.182078806
2.171442915
2.156021875
2.137085955
2.124689585
2.117184315
2.100317344
2.081775058
2.067551199
2.051800709
2.043934623
2.03228893
2.018171731
2.008276212
1.997821782
1.985115296
1.974863826
1.965722841
1.954588509
1.942401214
1.928375077
1.915078875
1.90201668
1.890549078
1.881062396
1.869071909
1.8531958
1.839315645
1.827617638
1.816095317
1.805702873
1.795902026
1.780488487
2.201708906
2.193932139
2.183116562
2.170660364
2.154987045
2.138462069
2.130578301
2.118993464
2.099700289
2.081693454
2.069137295
2.055053213
2.044315608
2.03155849
2.017623517
2.009045434
1.998860599
1.985682853
1.975752501
1.967280264
1.957249336
1.943673728
1.928555196
1.915605865
1.903815406
1.893784257
1.883309299
1.869430525
1.851916566
1.839102253
1.82794974
1.816356825
1.805874292
1.796577721
1.781663854
2.206296858
2.195659267
2.182616603
2.168852101
2.155428503
2.142375624
2.134656249
2.119173158
2.09899032
2.082350976
2.071930018
2.057910554
2.044678162
2.032027196
2.01900926
2.010664825
1.999700417
1.98605406
1.977639998
1.970233997
1.958579507
1.94367076
1.928725516
1.916593842
1.906921206
1.897928979
1.884364921
1.868768598
1.851775427
1.83972335
1.828652683
1.816952413
1.806370662
1.797626589
1.782596886
2.208821433
2.195523733
2.180865512
2.168518566
2.156680776
2.147778103
2.136282996
2.118721219
2.099209539
2.085222914
2.076364092
2.060433604
2.045704558
2.033706204
2.021245332
2.011532375
1.999633935
1.986306253
1.97870303
1.970678607
1.958345162
1.943493624
1.929142763
1.919124973
1.912243577
1.90110061
1.884787883
1.868540946
1.852736332
1.840751481
1.829627144
1.817931171
1.80784148
1.799294688
1.783464755
2.194428773
2.180328794
2.169233719
2.159877098
2.151969897
2.13685982
2.118459119
2.101746904
2.091975389
2.081072465
2.061958514
2.04686981
2.035861385
2.022436436
2.011358164
1.999394428
1.986751949
1.978767331
1.970139196
1.957743075
1.943486038
1.931016173
1.925360306
1.917883173
1.901890617
1.884242636
1.869343767
1.853953031
1.841995617
1.831063028
1.819924079
1.810402364
1.801008321
1.784472455
2.194298981
2.180844061
2.170482489
2.165213871
2.15387707
2.136410998
2.119146554
2.107892454
2.098653787
2.082368999
2.062650877
2.048236375
2.038167728
2.023139877
2.011366053
2.000027579
1.987123643
1.977950437
1.968872042
1.957508054
1.944000055
1.937486263
1.933310998
1.919461395
1.901834668
1.884548892
1.870333098
1.855418029
1.843548274
1.832816706
1.821255715
1.81124299
1.801950179
1.785962671
2.194868577
2.18184842
2.174091253
2.168736229
2.154267718
2.135274595
2.12200673
2.11389695
2.100053246
2.082200333
2.063404431
2.050160417
2.04034712
2.023927087
2.012035732
2.00103338
1.987270205
1.976921358
1.968373143
1.957590334
1.948256052
1.946265119
1.935945421
1.919565883
1.901575282
1.885069841
1.871497424
1.857158631
1.845353207
1.833737946
1.821718774
1.811480982
1.802530921
1.788095595
2.195844467
2.183702354
2.178220102
2.169458238
2.153502978
2.135674355
2.126476538
2.116140686
2.100160426
2.082043066
2.065072881
2.053173814
2.042567479
2.024769646
2.012945381
2.002208148
1.987296497
1.976624262
1.968454778
1.958910093
1.955568653
1.94909182
1.936020161
1.919228754
1.901671868
1.885831405
1.873010676
1.859184561
1.846696542
1.834336167
1.821856464
1.81181921
1.80323568
1.790064195
2.197331188
2.187671149
2.178935785
2.169091197
2.153041673
2.137477968
2.130042666
2.116782278
2.099379408
2.082345025
2.069169074
2.058136116
2.044875418
2.025571657
2.014151193
2.003684932
1.987268776
1.976784922
1.969018646
1.963343014
1.957105027
1.948782817
1.935607076
1.91888409
1.902104381
1.887073052
1.875049461
1.861237063
1.847527114
1.834553444
1.821960211
1.81250841
1.804432134
1.790387665
2.200436578
2.189907869
2.179092723
2.168766746
2.153712797
2.142121569
2.132265038
2.116768858
2.098316862
2.084672394
2.076594147
2.06304088
2.046432882
2.026549119
2.016051064
2.005486412
1.98741376
1.97736151
1.971281966
1.964717069
1.956358666
1.947394937
1.934650391
1.918975076
1.902981586
1.889156509
1.877712464
1.862954998
1.848107094
1.835121043
1.82270298
1.813467496
1.805812143
1.790267332
2.202294177
2.19062017
2.179443615
2.169256907
2.155539082
2.147096187
2.133094886
2.115473713
2.098575802
2.090800255
2.082899483
2.064251203
2.047352231
2.028588452
2.018633213
2.007260198
1.98786582
1.978747173
1.972340312
1.964291158
1.954423091
1.945681166
1.934180905
1.919278595
1.904737717
1.892687326
1.880632424
1.864094366
1.848755317
1.836038012
1.82376641
1.815048033
1.806412819
1.789783937
2.202738523
2.191348288
2.180120289
2.17018176
2.16083601
2.149334357
2.132745778
2.114629087
2.101564491
2.097852793
2.084487632
2.064030452
2.048611571
2.032136234
2.021159388
2.008620484
1.988724458
1.979514127
1.972480175
1.963387642
1.953106748
1.945167894
1.934168442
1.920160453
1.908466004
1.897100136
1.882372291
1.864811722
1.84941101
1.837026636
1.824982516
1.816473126
1.806802259
1.78913252
)
;

boundaryField
{
    inlet
    {
        type            calculated;
        value           nonuniform 0();
    }
    outlet
    {
        type            calculated;
        value           nonuniform List<scalar> 
62
(
1.740432995
1.741461712
1.742415349
1.7433283
1.744283251
1.745393943
1.746837354
1.748623586
1.750273297
1.751324306
1.752021453
1.752772109
1.753893724
1.755537432
1.757060822
1.757418416
1.757490849
1.757598021
1.757807796
1.758137217
1.758595983
1.759225332
1.760086278
1.76064328
1.761097145
1.761537627
1.762060785
1.762675323
1.76352975
1.76475144
1.765705718
1.766190646
1.766576385
1.766982462
1.767474154
1.768115707
1.768963251
1.770370818
1.772530655
1.774804958
1.776289892
1.776796662
1.776814494
1.776562705
1.776272333
1.776170537
1.776468879
1.777413904
1.778884911
1.780411757
1.781623579
1.782573876
1.783440416
1.78441191
1.785822734
1.787904616
1.789984013
1.790429866
1.790324545
1.789877763
1.789220883
1.739254079
)
;
    }
    bottom
    {
        type            calculated;
        value           nonuniform 0();
    }
    top
    {
        type            calculated;
        value           nonuniform 0();
    }
    obstacle
    {
        type            calculated;
        value           nonuniform 0();
    }
    defaultFaces
    {
        type            empty;
    }
    procBoundary23to17
    {
        type            processor;
        value           nonuniform List<scalar> 
40
(
1.91568127
1.904282979
1.894049829
1.883373639
1.871664435
1.860966245
1.849587498
1.836743927
1.827361509
1.818748302
1.807888174
1.79534047
1.785428909
1.776588398
1.765165165
1.754384942
1.737970686
2.157951418
2.147861075
2.137860703
2.126170011
2.112254966
2.100894343
2.093256928
2.085905377
2.077539875
2.067629974
2.055740013
2.039137172
2.025505916
2.014150962
1.994161913
1.982080703
1.969282117
1.95941496
1.95486266
1.946693893
1.936160759
1.926652652
1.926652652
)
;
    }
    procBoundary23to22
    {
        type            processor;
        value           nonuniform List<scalar> 
65
(
2.168739071
2.163401472
2.163401472
2.166217655
2.168456668
2.170270116
2.172750282
2.175907305
2.179068016
2.181159046
2.182450885
2.183740849
2.185783417
2.18864949
2.177956044
2.177956044
2.179198338
2.179681659
2.18004862
2.181593029
2.18492073
2.188055741
2.189217569
2.189491499
2.189809921
2.19056485
2.192954375
2.181610578
2.181610578
2.183388874
2.184480292
2.185651197
2.18719144
2.190010864
2.194010182
2.195894317
2.196792748
2.197776205
2.198972936
2.200473095
2.202930578
2.206473237
2.200695649
2.200695649
2.201834864
2.202899111
2.203981218
2.205263898
2.208548211
2.211763625
2.212233963
2.212074211
2.212184143
2.212867768
2.213833729
2.215922844
2.220748688
2.209040659
2.209040659
2.208813903
2.208888172
2.209289409
2.209976622
2.211247854
2.21398417
)
;
    }
    procBoundary23to28
    {