/*--------------------------------*- C++ -*----------------------------------*\
  =========                 |
  \\      /  F ield         | OpenFOAM: The Open Source CFD Toolbox
   \\    /   O peration     | Website:  https://openfoam.org
    \\  /    A nd           | Version:  7
     \\/     M anipulation  |
\*---------------------------------------------------------------------------*/
FoamFile
{
    version     2.0;
    format      ascii;
    class       volVectorField;
    location    "5";
    object      U;
}
// * * * * * * * * * * * * * * * * * * * * * * * * * * * * * * * * * * * * * //

dimensions      [0 1 -1 0 0 0 0];

internalField   nonuniform List<vector> 
2222
(
(3 1.941241799e-16 0)
(3 5.821432695e-17 0)
(3 4.712811969e-16 0)
(3 1.367827483e-15 0)
(3 1.901795524e-15 0)
(3 1.827652013e-15 0)
(3 1.842880255e-15 0)
(3 1.444981612e-15 0)
(3 1.636755084e-15 0)
(3 1.526326618e-16 0)
(3 1.268183742e-15 0)
(3 2.148753466e-15 0)
(3 2.292495002e-15 0)
(3 1.522784798e-15 0)
(3 1.400566913e-15 0)
(3 1.653220207e-15 0)
(3 1.822635698e-15 0)
(3 1.495086125e-15 0)
(3 1.344920475e-15 0)
(3 7.038681565e-16 0)
(3 6.617410917e-16 0)
(3 1.770176829e-15 0)
(3 2.441248897e-15 0)
(3 3.345239837e-15 0)
(3 4.049429574e-15 0)
(3 3.744790478e-15 0)
(3 3.19178536e-15 0)
(3 1.855222405e-15 0)
(3 1.050457116e-15 0)
(3 1.293001297e-15 0)
(3 1.838220417e-15 0)
(3 3.128828402e-15 0)
(3 3.879746216e-15 0)
(3 3.07333321e-15 0)
(3 2.676627923e-15 0)
(3 2.549630905e-15 0)
(3 2.823412396e-15 0)
(3 2.750528836e-15 0)
(3 3.204112767e-15 0)
(3 2.86905298e-15 0)
(3 1.562633771e-15 0)
(3 1.278279044e-15 0)
(3 1.653137573e-15 0)
(3 2.53725244e-15 0)
(3 3.521217984e-15 0)
(3 3.988102758e-15 0)
(3 3.298513437e-15 0)
(3 2.404738662e-15 0)
(3 2.265984534e-15 0)
(3 1.453852231e-15 0)
(3 2.087335571e-15 0)
(3 3.239311275e-15 0)
(3 3.125494921e-15 0)
(3 2.676289411e-15 0)
(3 2.438999852e-15 0)
(3 1.261496797e-15 0)
(3 3.640177565e-16 0)
(3 6.663030918e-17 0)
(3 5.913635426e-16 0)
(3 1.289350193e-15 0)
(3 1.846779295e-16 0)
(3 -6.216659111e-16 0)
(3 -1.113991979e-15 0)
(3 -1.429034866e-15 0)
(3 -1.760582014e-15 0)
(3 -1.810603925e-15 0)
(3 -1.87052377e-15 0)
(3 2.53662678e-15 0)
(3 2.798650386e-15 0)
(3 2.606045277e-15 0)
(3 2.386361892e-15 0)
(3 2.191563326e-15 0)
(3 1.698761984e-15 0)
(3 2.959023501e-15 0)
(3 3.967350207e-15 0)
(3 3.547363203e-15 0)
(3 3.740356403e-15 0)
(3 5.243870467e-15 0)
(3 5.531228963e-15 0)
(3 4.430203253e-15 0)
(3 3.462568659e-15 0)
(3 2.253619205e-15 0)
(3 1.027335059e-15 0)
(3 1.046816226e-15 0)
(3 9.62764517e-16 0)
(3 1.358072505e-15 0)
(3 1.359640478e-15 0)
(3 2.292816258e-15 0)
(3 2.105635931e-15 0)
(3 2.212723392e-15 0)
(3 2.343346358e-15 0)
(3 3.051302197e-15 0)
(3 2.629589618e-15 0)
(3 2.232039736e-15 0)
(3 2.056217444e-15 0)
(3 1.943099765e-15 0)
(3 1.739004222e-15 0)
(3 1.384746086e-15 0)
(3 1.351752862e-15 0)
(3 -3.937091883e-16 0)
(3 -1.51294321e-15 0)
(3 -2.343321348e-15 0)
(3 -2.096783502e-15 0)
(3 -8.875385635e-16 0)
(3 -9.805681229e-17 0)
(3 -5.378906144e-16 0)
(3 -2.047079984e-16 0)
(3 2.716986199e-16 0)
(3 -4.205934912e-17 0)
(3 6.133969125e-17 0)
(3 7.291492808e-16 0)
(3 1.064836977e-15 0)
(3 2.018183083e-15 0)
(3 2.131904412e-15 0)
(3 -3.1080331e-16 0)
(3 -1.467246887e-15 0)
(3 2.698895898e-15 0)
(3 2.046403171e-15 0)
(3 2.523233828e-15 0)
(3 2.546208856e-15 0)
(3 2.488939347e-15 0)
(3 1.951983172e-15 0)
(3 2.795249664e-15 0)
(3 2.699947882e-15 0)
(3 2.909680402e-15 0)
(3 3.179117659e-15 0)
(3 3.785393683e-15 0)
(3 4.842071753e-15 0)
(3 4.882389492e-15 0)
(3 3.474033808e-15 0)
(3 1.454058107e-15 0)
(3 1.14982348e-15 0)
(3 5.885336031e-16 0)
(3 1.056703507e-15 0)
(3 1.650322162e-15 0)
(3 1.450298413e-15 0)
(3 4.769635783e-16 0)
(3 7.500256109e-16 0)
(3 1.442131581e-15 0)
(3 2.037438869e-15 0)
(3 3.265329334e-15 0)
(3 3.70101178e-15 0)
(3 4.328830516e-15 0)
(3 3.182738126e-15 0)
(3 2.778317625e-15 0)
(3 2.202422249e-15 0)
(3 1.302426551e-15 0)
(3 1.096618351e-15 0)
(3 -4.655977304e-16 0)
(3 -1.580761098e-15 0)
(3 -3.224929094e-15 0)
(3 -3.437884913e-15 0)
(3 -3.162360678e-15 0)
(3 -2.362001238e-15 0)
(3 -5.680273098e-16 0)
(3 1.196134803e-15 0)
(3 1.58257455e-15 0)
(3 2.028664953e-15 0)
(3 1.998051008e-15 0)
(3 8.0712917e-16 0)
(3 9.879831481e-16 0)
(3 1.268886787e-15 0)
(3 1.214569872e-15 0)
(3 6.370916559e-16 0)
(3 -2.666772203e-16 0)
(3 1.513419363e-16 0)
(3 4.217884592e-16 0)
(3 4.38885638e-16 0)
(3 -1.552496974e-16 0)
(3 -1.141533786e-15 0)
(3 -1.07306535e-15 0)
(3 -8.019282226e-16 0)
(3 -3.285750364e-16 0)
(3 -1.035436283e-16 0)
(3 4.566992718e-17 0)
(3 4.720192466e-16 0)
(3 -3.623714531e-17 0)
(3 -4.607818676e-16 0)
(3 3.199837954e-15 0)
(3 3.458520146e-15 0)
(3 4.085434176e-15 0)
(3 4.571563666e-15 0)
(3 4.785555203e-15 0)
(3 4.016553851e-15 0)
(3 3.379382901e-15 0)
(3 2.738908908e-15 0)
(3 3.044886098e-15 0)
(3 3.829942645e-15 0)
(3 3.789947347e-15 0)
(3 4.757265465e-15 0)
(3 4.557060986e-15 0)
(3 3.768548147e-15 0)
(3 2.727401519e-15 0)
(3 1.866011955e-15 0)
(3 1.083469482e-16 0)
(3 -7.194582328e-16 0)
(3 -1.006026949e-16 0)
(3 5.763154097e-16 0)
(3 2.96589178e-16 0)
(3 2.834657644e-16 0)
(3 1.647761076e-16 0)
(3 9.009109452e-16 0)
(3 2.429771553e-15 0)
(3 3.778109987e-15 0)
(3 4.181372356e-15 0)
(3 3.27519192e-15 0)
(3 2.419309668e-15 0)
(3 1.724018105e-15 0)
(3 8.858669289e-16 0)
(3 2.443530277e-16 0)
(3 -7.395822271e-17 0)
(3 3.153995092e-16 0)
(3 2.968208492e-16 0)
(3 -9.846277517e-16 0)
(3 -9.851921627e-16 0)
(3 -4.44362985e-16 0)
(3 6.733406277e-16 0)
(3 1.481091319e-15 0)
(3 2.271060145e-15 0)
(3 2.149340081e-15 0)
(3 7.704322756e-16 0)
(3 2.63777403e-17 0)
(3 7.907262967e-16 0)
(3 1.505234833e-15 0)
(3 1.731063602e-15 0)
(3 2.287351571e-15 0)
(3 2.300881921e-15 0)
(3 2.092888214e-15 0)
(3 1.116249615e-15 0)
(3 4.816252763e-16 0)
(3 1.31119381e-15 0)
(3 1.708193825e-15 0)
(3 1.755073781e-15 0)
(3 1.174513258e-15 0)
(3 5.739095695e-17 0)
(3 -1.046241179e-16 0)
(3 8.138874655e-16 0)
(3 1.142253019e-15 0)
(3 3.939494042e-17 0)
(3 4.647834842e-18 0)
(3 -1.164749465e-15 0)
(3 -1.038712889e-15 0)
(3 -6.888385406e-16 0)
(3 3.1049561e-15 0)
(3 4.042383253e-15 0)
(3 4.01789352e-15 0)
(3 3.250176136e-15 0)
(3 2.476740674e-15 0)
(3 2.671344327e-15 0)
(3 3.370452835e-15 0)
(3 3.345346463e-15 0)
(3 2.865072446e-15 0)
(3 2.606916672e-15 0)
(3 3.000673605e-15 0)
(3 3.47573679e-15 0)
(3 3.819525312e-15 0)
(3 3.259726981e-15 0)
(3 1.926702077e-15 0)
(3 1.005174527e-15 0)
(3 8.633433347e-16 0)
(3 1.181462853e-15 0)
(3 1.469596576e-15 0)
(3 7.398759823e-16 0)
(3 3.886237665e-16 0)
(3 5.047712213e-16 0)
(3 1.082059088e-15 0)
(3 1.484774536e-15 0)
(3 6.490549488e-16 0)
(3 -4.834265863e-16 0)
(3 -3.419231039e-16 0)
(3 3.949496814e-16 0)
(3 1.819074391e-15 0)
(3 2.08722734e-15 0)
(3 2.040821834e-15 0)
(3 1.443024571e-15 0)
(3 6.651942239e-16 0)
(3 1.142170838e-15 0)
(3 2.245745345e-15 0)
(3 2.929565633e-15 0)
(3 3.897410858e-15 0)
(3 3.259526325e-15 0)
(3 4.248785947e-15 0)
(3 4.360497919e-15 0)
(3 3.703000305e-15 0)
(3 3.927314701e-15 0)
(3 2.95422977e-15 0)
(3 2.374208052e-15 0)
(3 1.835569806e-15 0)
(3 1.406519947e-15 0)
(3 1.035263422e-15 0)
(3 1.306108407e-15 0)
(3 1.770024824e-15 0)
(3 2.876201107e-15 0)
(3 3.119522041e-15 0)
(3 2.636496992e-15 0)
(3 1.774924217e-15 0)
(3 6.645436726e-16 0)
(3 1.56610445e-15 0)
(3 1.490813735e-15 0)
(3 2.301872442e-15 0)
(3 1.633412301e-15 0)
(3 -3.961052453e-16 0)
(3 -1.963744238e-15 0)
(3 -2.123239713e-15 0)
(3 -1.766961163e-15 0)
(3 -3.182725819e-16 0)
(3 3.200456227e-15 0)
(3 6.129823855e-15 0)
(3 2.15199694e-14 0)
(3 5.195858809e-14 0)
(3 2.201573581e-13 0)
(3 3.082509468e-12 0)
(3 2.56713568e-15 0)
(3 2.941099594e-15 0)
(3 2.937383535e-15 0)
(3 2.425378343e-15 0)
(3 2.168411001e-15 0)
(3 2.459058224e-15 0)
(3 2.063732736e-15 0)
(3 1.865273096e-15 0)
(3 1.835926632e-15 0)
(3 1.09989997e-15 0)
(3 1.104009451e-15 0)
(3 5.706116054e-16 0)
(3 8.825406792e-16 0)
(3 1.2200502e-15 0)
(3 1.012232994e-15 0)
(3 1.047311818e-15 0)
(3 3.241396551e-15 0)
(3 4.245117428e-15 0)
(3 3.363411847e-15 0)
(3 2.329649751e-15 0)
(3 2.280991227e-15 0)
(3 -1.980229173e-16 0)
(3 -7.606170585e-16 0)
(3 -1.403613326e-15 0)
(3 -1.624050641e-15 0)
(3 -1.076121045e-15 0)
(3 -9.715306576e-16 0)
(3 5.198253559e-16 0)
(3 1.69934463e-15 0)
(3 2.398353321e-15 0)
(3 2.44890129e-15 0)
(3 2.225749426e-15 0)
(3 1.9842826e-15 0)
(3 2.891941892e-15 0)
(3 3.873747235e-15 0)
(3 5.133196296e-15 0)
(3 5.444774626e-15 0)
(3 4.98855315e-15 0)
(3 3.932078712e-15 0)
(3 2.757685516e-15 0)
(3 2.263309838e-15 0)
(3 2.356785313e-15 0)
(3 1.980703658e-15 0)
(3 2.345357843e-15 0)
(3 2.341416567e-15 0)
(3 1.69278309e-15 0)
(3 1.320601457e-15 0)
(3 6.433084716e-16 0)
(3 5.836234638e-16 0)
(3 7.669243579e-16 0)
(3 1.390491728e-15 0)
(3 4.884245843e-16 0)
(3 -1.430727832e-15 0)
(3 -1.690578421e-15 0)
(3 -1.819185421e-15 0)
(3 -1.98860529e-15 0)
(3 -2.10498411e-15 0)
(3 -2.918173877e-16 0)
(3 2.66431378e-15 0)
(3 2.405907635e-14 0)
(3 1.062822037e-13 0)
(3 2.323639984e-13 0)
(3 4.206746602e-13 0)
(3 8.402917075e-13 0)
(3 2.347019016e-12 0)
(3 2.226473251e-12 0)
(3.000000001 2.152254866e-09 0)
(3 -5.766281789e-16 0)
(3 -3.139208885e-17 0)
(3 6.156469486e-16 0)
(3 1.234129188e-15 0)
(3 3.666322899e-16 0)
(3 -1.079561147e-17 0)
(3 3.067377473e-16 0)
(3 1.271992657e-17 0)
(3 -1.555027891e-17 0)
(3 -5.088748941e-16 0)
(3 -4.922855985e-17 0)
(3 1.073759228e-15 0)
(3 1.868371139e-15 0)
(3 2.038242535e-15 0)
(3 2.258266444e-15 0)
(3 1.917046584e-15 0)
(3 1.092906587e-15 0)
(3 1.393333689e-15 0)
(3 1.731622329e-15 0)
(3 1.670769833e-15 0)
(3 1.092090522e-15 0)
(3 1.03412597e-15 0)
(3 2.085534632e-16 0)
(3 -7.450574524e-17 0)
(3 -5.774085889e-16 0)
(3 -1.265153281e-15 0)
(3 -1.849497248e-15 0)
(3 -9.50118793e-16 0)
(3 3.317716963e-16 0)
(3 5.188889504e-16 0)
(3 1.363703684e-15 0)
(3 1.399846344e-15 0)
(3 1.837264081e-15 0)
(3 1.544747003e-15 0)
(3 1.944457707e-15 0)
(3 2.6262875e-15 0)
(3 2.513209663e-15 0)
(3 1.561828315e-15 0)
(3 1.515943885e-15 0)
(3 9.013793208e-16 0)
(3 3.390936474e-16 0)
(3 5.3139493e-16 0)
(3 7.112644879e-16 0)
(3 4.748446602e-16 0)
(3 1.024209013e-16 0)
(3 -5.624852851e-16 0)
(3 -6.822923231e-16 0)
(3 -6.759509204e-16 0)
(3 8.714545353e-17 0)
(3 5.802749087e-16 0)
(3 6.87222945e-16 0)
(3 8.209657885e-16 0)
(3 -2.364463751e-16 0)
(3 -4.403107478e-16 0)
(3 7.455629456e-15 0)
(3 1.188961025e-14 0)
(3 3.379602712e-14 0)
(3 8.752367329e-14 0)
(3 2.386905496e-13 0)
(3 9.097543871e-13 0)
(3 1.926811637e-12 0)
(3 2.677661711e-12 0)
(3 5.458153026e-12 0)
(3 5.214719216e-12 0)
(3 1.561492432e-11 0)
(3 -4.669785211e-11 0)
(3.000000219 3.513042078e-07 0)
(3 -8.773665332e-16 0)
(3 -1.691143985e-15 0)
(3 -7.98818554e-16 0)
(3 4.183953022e-16 0)
(3 1.224501366e-15 0)
(3 1.697501873e-15 0)
(3 2.270741124e-15 0)
(3 1.348239611e-15 0)
(3 8.533091677e-16 0)
(3 -4.693862608e-16 0)
(3 -6.307971261e-16 0)
(3 1.399539257e-17 0)
(3 1.332873613e-15 0)
(3 2.332664e-15 0)
(3 2.006929398e-15 0)
(3 2.07874109e-15 0)
(3 2.485051889e-15 0)
(3 3.587150358e-15 0)
(3 3.640698418e-15 0)
(3 2.788988829e-15 0)
(3 1.508920148e-15 0)
(3 1.466877767e-15 0)
(3 1.272882202e-15 0)
(3 -4.804209464e-17 0)
(3 -6.635603856e-16 0)
(3 -2.177939711e-16 0)
(3 -2.379520239e-16 0)
(3 -1.861668698e-15 0)
(3 -1.762536595e-15 0)
(3 -5.694336393e-16 0)
(3 4.193772627e-17 0)
(3 -1.836045759e-16 0)
(3 8.165968524e-16 0)
(3 -4.690222131e-18 0)
(3 7.496610969e-16 0)
(3 1.004421844e-15 0)
(3 7.639718702e-16 0)
(3 5.605606501e-16 0)
(3 1.039599618e-15 0)
(3 1.040306557e-15 0)
(3 -3.892259898e-16 0)
(3 -1.718343543e-15 0)
(3 -1.665529024e-15 0)
(3 -6.612710109e-16 0)
(3 -3.48643923e-16 0)
(3 -1.082463599e-15 0)
(3 -1.47159573e-15 0)
(3 -9.060651847e-17 0)
(3 6.860962006e-16 0)
(3 2.180260526e-15 0)
(3 5.016384438e-15 0)
(3 1.972646292e-14 0)
(3 5.268376965e-14 0)
(3 1.53614403e-13 0)
(3 3.357918465e-13 0)
(3 8.299242035e-13 0)
(3 1.320108532e-12 0)
(3 1.583829414e-12 0)
(3 3.04507816e-12 0)
(3 4.741938124e-12 0)
(3 5.907676986e-12 0)
(3 5.779944368e-12 0)
(3 1.863605428e-11 0)
(3 -1.513897775e-10 0)
(3 1.302511947e-10 0)
(2.999999905 -1.662445337e-07 0)
(3.000007292 1.311484237e-05 0)
(3 3.153505437e-15 0)
(3 3.395958719e-15 0)
(3 3.028248484e-15 0)
(3 3.046179925e-15 0)
(3 3.519911027e-15 0)
(3 3.68179871e-15 0)
(3 3.233601711e-15 0)
(3 3.50065776e-15 0)
(3 2.706063946e-15 0)
(3 2.397870728e-15 0)
(3 1.544948829e-15 0)
(3 9.914463386e-16 0)
(3 7.05679523e-16 0)
(3 7.189884171e-16 0)
(3 2.837450047e-16 0)
(3 2.341237857e-16 0)
(3 1.08185475e-15 0)
(3 2.060499166e-15 0)
(3 1.800931584e-15 0)
(3 5.017847407e-16 0)
(3 -6.302248186e-16 0)
(3 -1.265515061e-15 0)
(3 -1.249147945e-15 0)
(3 -1.149772796e-15 0)
(3 -9.923222079e-16 0)
(3 -8.377021224e-16 0)
(3 -1.224896687e-16 0)
(3 -5.274480098e-16 0)
(3 -9.569271188e-16 0)
(3 -7.318258163e-16 0)
(3 -5.32206382e-16 0)
(3 3.724551164e-16 0)
(3 1.183081566e-15 0)
(3 2.025109903e-15 0)
(3 1.57740507e-15 0)
(3 3.219401846e-16 0)
(3 -4.172966208e-16 0)
(3 -6.783550928e-16 0)
(3 -1.094221621e-15 0)
(3 -6.528854633e-16 0)
(3 -3.933774088e-17 0)
(3 -1.169477303e-15 0)
(3 -2.492910308e-15 0)
(3 -2.634446963e-15 0)
(3 -7.378927199e-16 0)
(3 2.181892818e-15 0)
(3 4.148110196e-15 0)
(3 1.547036899e-14 0)
(3 4.948231324e-14 0)
(3 1.420885915e-13 0)
(3 2.333572011e-13 0)
(3 4.056176836e-13 0)
(3 8.450133982e-13 0)
(3 1.754016441e-12 0)
(3 1.757747254e-12 0)
(3 4.648884153e-12 0)
(3 7.304635787e-12 0)
(3 5.369869589e-12 0)
(3 2.289250908e-11 0)
(3 -1.590443015e-10 0)
(3 -6.857793328e-11 0)
(2.999999997 -4.328790974e-09 0)
(2.99999996 -5.337086196e-08 0)
(2.999999659 -4.985302908e-07 0)
(2.999998044 -2.854610588e-06 0)
(2.999959011 -7.366708645e-05 0)
(3.000037391 7.136887396e-05 0)
(3 4.068611597e-15 0)
(3 3.719096688e-15 0)
(3 2.772392589e-15 0)
(3 1.61781787e-15 0)
(3 7.479581938e-16 0)
(3 1.224014181e-15 0)
(3 2.109681894e-15 0)
(3 2.560268343e-15 0)
(3 2.849627262e-15 0)
(3 3.440358526e-15 0)
(3 2.510734668e-15 0)
(3 1.720364877e-15 0)
(3 7.174579954e-16 0)
(3 -1.643056627e-15 0)
(3 -2.482080345e-15 0)
(3 -2.895495121e-15 0)
(3 -2.702505197e-15 0)
(3 -3.490599896e-15 0)
(3 -3.881407597e-15 0)
(3 -3.466176683e-15 0)
(3 -3.173996362e-15 0)
(3 -2.95962535e-15 0)
(3 -2.69861422e-15 0)
(3 -1.423536419e-15 0)
(3 -3.885797656e-16 0)
(3 -9.379401632e-16 0)
(3 -1.715950782e-15 0)
(3 -1.55471732e-15 0)
(3 -1.339889181e-15 0)
(3 -1.192932762e-15 0)
(3 -1.087920919e-15 0)
(3 -2.849448181e-16 0)
(3 2.905250875e-16 0)
(3 -1.129601169e-15 0)
(3 -2.49087991e-15 0)
(3 -2.71071849e-15 0)
(3 -2.981428548e-15 0)
(3 -2.75842422e-15 0)
(3 -2.618229371e-15 0)
(3 -2.074546648e-15 0)
(3 -1.306165831e-15 0)
(3 4.400661347e-16 0)
(3 2.717315067e-15 0)
(3 1.324851512e-14 0)
(3 5.697365831e-14 0)
(3 1.490426671e-13 0)
(3 2.538075379e-13 0)
(3 5.771177321e-13 0)
(3 1.245751761e-12 0)
(3 1.668194408e-12 0)
(3 1.581303839e-12 0)
(3 2.465066205e-12 0)
(3 2.615865992e-12 0)
(3 3.955098992e-12 0)
(3 8.074012651e-12 0)
(3 -8.778307096e-11 0)
(3 3.509741825e-10 0)
(2.999999997 -4.472145247e-09 0)
(2.999999967 -4.261158924e-08 0)
(2.999999716 -4.004028629e-07 0)
(2.999997939 -3.089636736e-06 0)
(2.999989399 -1.668037167e-05 0)
(2.999949892 -7.97045977e-05 0)
(2.99979911 -0.0003345197843 0)
(2.999328887 -0.001094317301 0)
(2.996890816 -0.005697620092 0)
(2.997562913 -0.003778376995 0)
(3 4.565651508e-15 0)
(3 2.642119809e-15 0)
(3 7.651217114e-16 0)
(3 -3.97137036e-16 0)
(3 -9.641092312e-16 0)
(3 -1.52942737e-15 0)
(3 -1.408937267e-15 0)
(3 -5.192581551e-16 0)
(3 -4.321769323e-17 0)
(3 4.952895615e-16 0)
(3 6.449545321e-16 0)
(3 -2.444471006e-16 0)
(3 -1.82441937e-15 0)
(3 -1.558226971e-15 0)
(3 -1.698412608e-15 0)
(3 -1.602938207e-15 0)
(3 -2.600308307e-15 0)
(3 -3.899414983e-15 0)
(3 -4.311322763e-15 0)
(3 -4.049307026e-15 0)
(3 -3.579223001e-15 0)
(3 -3.743738159e-15 0)
(3 -3.866980907e-15 0)
(3 -2.900690488e-15 0)
(3 -8.743704059e-16 0)
(3 -7.444772434e-17 0)
(3 -4.241008993e-16 0)
(3 -1.059407171e-15 0)
(3 -1.124488955e-15 0)
(3 -2.028324021e-15 0)
(3 -1.671008642e-15 0)
(3 -2.063759778e-15 0)
(3 -2.520310747e-15 0)
(3 -2.502897099e-15 0)
(3 -2.763944942e-15 0)
(3 -2.726703482e-15 0)
(3 -1.990511964e-15 0)
(3 -4.007025694e-16 0)
(3 2.64367864e-15 0)
(3 1.557840858e-14 0)
(3 5.737886839e-14 0)
(3 1.508192514e-13 0)
(3 2.887329255e-13 0)
(3 6.06537056e-13 0)
(3 1.114494518e-12 0)
(3 1.51956158e-12 0)
(3 3.349515036e-12 0)
(3 3.616387088e-12 0)
(3 3.749516967e-12 0)
(3 3.603362913e-12 0)
(3 -9.819281006e-12 0)
(3 -7.50272601e-12 0)
(3 1.093290264e-10 0)
(2.999999997 -3.386867007e-09 0)
(2.999999968 -4.17563579e-08 0)
(2.999999734 -3.899566195e-07 0)
(2.999998242 -2.603018869e-06 0)
(2.999990179 -1.511438952e-05 0)
(2.999954242 -7.301858116e-05 0)
(2.999820967 -0.0002922397919 0)
(2.99932431 -0.001062484518 0)
(2.998002881 -0.00357336391 0)
(2.994880171 -0.008977759285 0)
(2.988513141 -0.0203148688 0)
(2.976198908 -0.04287780191 0)
(2.953577443 -0.09115392065 0)
(2.93699608 -0.1171923365 0)
(3 4.058904184e-15 0)
(3 1.507423432e-15 0)
(3 1.395096684e-15 0)
(3 7.945238729e-16 0)
(3 7.443505596e-16 0)
(3 2.537790851e-16 0)
(3 -3.650929855e-16 0)
(3 -1.082186675e-16 0)
(3 1.15263106e-15 0)
(3 8.880987422e-16 0)
(3 1.439694426e-16 0)
(3 -3.049292226e-16 0)
(3 -4.846198339e-16 0)
(3 -7.29788647e-16 0)
(3 -9.564415198e-16 0)
(3 -1.389043257e-15 0)
(3 -1.738092543e-15 0)
(3 -1.241749632e-15 0)
(3 -2.201075466e-15 0)
(3 -1.786363586e-15 0)
(3 -2.425141508e-15 0)
(3 -3.131114543e-15 0)
(3 -3.609354709e-15 0)
(3 -3.613674829e-15 0)
(3 -3.163836964e-15 0)
(3 -1.851518863e-15 0)
(3 -1.447627673e-15 0)
(3 -2.074489076e-15 0)
(3 -2.418568997e-15 0)
(3 -2.013727831e-15 0)
(3 -1.62801434e-15 0)
(3 -2.442119273e-15 0)
(3 -3.049731899e-15 0)
(3 -1.867030038e-15 0)
(3 2.03603023e-16 0)
(3 1.633029459e-14 0)
(3 6.231525718e-14 0)
(3 1.620958063e-13 0)
(3 2.927467842e-13 0)
(3 7.418591683e-13 0)
(3 1.562802625e-12 0)
(3 1.60195642e-12 0)
(3 3.191171457e-12 0)
(3 3.649291988e-12 0)
(3 4.013308587e-12 0)
(3 3.881795425e-12 0)
(3 -4.418872191e-12 0)
(3 8.657893023e-11 0)
(3 -1.236220633e-10 0)
(2.999999997 -3.434009013e-09 0)
(2.999999969 -3.999579854e-08 0)
(2.999999731 -3.892643361e-07 0)
(2.999998299 -2.603349453e-06 0)
(2.999990976 -1.348923969e-05 0)
(2.999953279 -7.281842251e-05 0)
(2.999821991 -0.0002908213498 0)
(2.999391509 -0.0009975104835 0)
(2.998101828 -0.003222376596 0)
(2.994933179 -0.009060640112 0)
(2.989627688 -0.01851128182 0)
(2.974789113 -0.04472162582 0)
(2.959832705 -0.07319067345 0)
(2.932091752 -0.1323361769 0)
(2.902124034 -0.1939110028 0)
(2.872490681 -0.2513327172 0)
(2.867734819 -0.2800263357 0)
(2.815874799 -0.3674571017 0)
(3 3.548303378e-15 0)
(3 2.241479677e-15 0)
(3 1.536472219e-15 0)
(3 9.782501934e-16 0)
(3 1.897811087e-15 0)
(3 2.842899639e-15 0)
(3 4.18465728e-15 0)
(3 4.877098565e-15 0)
(3 4.330848864e-15 0)
(3 2.108934579e-15 0)
(3 1.381338409e-15 0)
(3 4.456718971e-16 0)
(3 5.618756475e-16 0)
(3 -4.151824892e-16 0)
(3 -1.868287789e-15 0)
(3 -2.875437753e-15 0)
(3 -3.074820636e-15 0)
(3 -2.595003904e-15 0)
(3 -1.735808417e-15 0)
(3 -1.695507462e-15 0)
(3 -1.779353159e-15 0)
(3 -1.819784655e-15 0)
(3 -2.550980424e-15 0)
(3 -2.270626881e-15 0)
(3 -2.272311258e-15 0)
(3 -2.337483508e-15 0)
(3 -2.283069275e-15 0)
(3 -3.558222226e-15 0)
(3 -4.159652416e-15 0)
(3 -2.328208879e-15 0)
(3 1.87996307e-15 0)
(3 8.899932714e-15 0)
(3 4.831924408e-14 0)
(3 1.357052952e-13 0)
(3 3.29008886e-13 0)
(3 8.096512676e-13 0)
(3 1.636321968e-12 0)
(3 2.283663042e-12 0)
(3 4.413341504e-12 0)
(3 3.965667758e-12 0)
(3 4.27181124e-12 0)
(3 4.851006727e-12 0)
(3 2.234997863e-11 0)
(3 -1.346713465e-10 0)
(3 9.718559196e-11 0)
(2.999999997 -3.570552074e-09 0)
(2.999999967 -4.575261412e-08 0)
(2.999999739 -3.621172989e-07 0)
(2.999998172 -2.725218969e-06 0)
(2.99999048 -1.457085541e-05 0)
(2.999955494 -6.863338293e-05 0)
(2.9998099 -0.0003043345545 0)
(2.999388912 -0.001044947434 0)
(2.998243945 -0.00299004882 0)
(2.994993333 -0.00833060122 0)
(2.988676051 -0.02038771881 0)
(2.97693157 -0.04297470812 0)
(2.959441623 -0.07323931567 0)
(2.932380251 -0.1302191815 0)
(2.914221247 -0.1752872748 0)
(2.866685951 -0.2628948971 0)
(2.833711395 -0.3303838425 0)
(2.827175634 -0.3525173411 0)
(2.817255856 -0.3874745376 0)
(2.775561599 -0.4591049492 0)
(2.764784502 -0.4797354191 0)
(2.760682141 -0.4835084867 0)
(3 3.346074495e-15 0)
(3 3.25778954e-15 0)
(3 2.521842269e-15 0)
(3 2.97216073e-15 0)
(3 4.178240312e-15 0)
(3 5.053961175e-15 0)
(3 5.962424628e-15 0)
(3 5.417231917e-15 0)
(3 4.062831786e-15 0)
(3 2.783610045e-15 0)
(3 2.385437078e-15 0)
(3 1.973064618e-15 0)
(3 1.035259886e-15 0)
(3 6.624428495e-16 0)
(3 -1.25139484e-15 0)
(3 -1.87427572e-15 0)
(3 -2.854328044e-15 0)
(3 -3.243307374e-15 0)
(3 -2.902277277e-15 0)
(3 -3.349667233e-15 0)
(3 -3.875648004e-15 0)
(3 -3.643056069e-15 0)
(3 -2.354563734e-15 0)
(3 -1.850510023e-15 0)
(3 1.77626346e-15 0)
(3 2.064780736e-15 0)
(3 7.474180014e-15 0)
(3 2.218714342e-14 0)
(3 6.125001004e-14 0)
(3 1.459505208e-13 0)
(3 3.948321979e-13 0)
(3 7.908122647e-13 0)
(3 1.56528471e-12 0)
(3 2.231916476e-12 0)
(3 5.152547711e-12 0)
(3 5.64782355e-12 0)
(3 5.487558483e-12 0)
(3 4.876021116e-12 0)
(3 2.364812937e-11 0)
(3 -1.135691362e-10 0)
(3 -2.605583964e-10 0)
(2.999999997 -3.096920588e-09 0)
(2.999999962 -5.326828927e-08 0)
(2.999999709 -4.095660139e-07 0)
(2.999998048 -2.787512879e-06 0)
(2.999988862 -1.723678868e-05 0)
(2.999953816 -7.329438987e-05 0)
(2.999818232 -0.0002942400456 0)
(2.999345192 -0.001069620785 0)
(2.998140788 -0.003195799129 0)
(2.99518686 -0.008228646866 0)
(2.988009712 -0.02015984378 0)
(2.976508654 -0.04399929202 0)
(2.961720794 -0.07358503798 0)
(2.931586084 -0.1277792854 0)
(2.906881107 -0.1804585329 0)
(2.888217304 -0.226283137 0)
(2.837828224 -0.3240178373 0)
(2.816800035 -0.3809021341 0)
(2.825187525 -0.364673282 0)
(2.806006828 -0.3931214485 0)
(2.783344951 -0.4451208904 0)
(2.779543514 -0.4518966547 0)
(2.777334719 -0.4540152039 0)
(2.767096559 -0.46001733 0)
(2.762062038 -0.4662584082 0)
(2.760962579 -0.4698884134 0)
(3 2.475660391e-15 0)
(3 3.740293613e-15 0)
(3 4.381004718e-15 0)
(3 3.890512957e-15 0)
(3 3.031378469e-15 0)
(3 2.594765705e-15 0)
(3 2.238480312e-15 0)
(3 1.529622101e-15 0)
(3 1.604184121e-15 0)
(3 2.686801936e-15 0)
(3 1.285312118e-15 0)
(3 -6.490625867e-16 0)
(3 -1.43506302e-15 0)
(3 -1.655278753e-15 0)
(3 -2.134737849e-15 0)
(3 -2.978411752e-15 0)
(3 -3.100746121e-15 0)
(3 -3.493648653e-15 0)
(3 -3.744465037e-15 0)
(3 -4.226381574e-15 0)
(3 -3.240707167e-15 0)
(3 -2.912758429e-16 0)
(3 7.797024618e-15 0)
(3 2.948910858e-14 0)
(3 7.42937838e-14 0)
(3 2.077566392e-13 0)
(3 5.828253019e-13 0)
(3 9.889260845e-13 0)
(3 1.639011057e-12 0)
(3 2.324476082e-12 0)
(3 3.031091508e-12 0)
(3 1.156348897e-11 0)
(3 1.123943102e-11 0)
(3 6.004020236e-12 0)
(3 -4.719840796e-12 0)
(3 1.581202038e-10 0)
(3 -4.371967953e-10 0)
(2.999999996 -5.139058991e-09 0)
(2.999999955 -5.79063472e-08 0)
(2.999999626 -5.436751395e-07 0)
(2.999997808 -3.236196488e-06 0)
(2.999988232 -1.788490987e-05 0)
(2.999946041 -8.571140067e-05 0)
(2.99980731 -0.0003143974814 0)
(2.999321689 -0.001097313004 0)
(2.997885917 -0.003445798334 0)
(2.994763846 -0.009468833954 0)
(2.988681556 -0.01989487131 0)
(2.976396986 -0.04133674686 0)
(2.958005356 -0.0808080538 0)
(2.937152724 -0.1219796231 0)
(2.895334507 -0.1991738991 0)
(2.872035638 -0.2548387956 0)
(2.869330784 -0.2809542144 0)
(2.812701348 -0.3775258083 0)
(2.788954694 -0.4374370286 0)
(2.791480178 -0.4302602079 0)
(2.777012303 -0.4552350545 0)
(2.76161334 -0.4871110402 0)
(2.757180686 -0.4907094547 0)
(2.751728114 -0.4943540167 0)
(2.750529525 -0.502619386 0)
(2.749188959 -0.5052923077 0)
(2.746200764 -0.4976638726 0)
(2.746953474 -0.4862663984 0)
(2.749433317 -0.4843889237 0)
(2.751987765 -0.4842874402 0)
(3 -1.68723369e-15 0)
(3 -8.674874724e-17 0)
(3 1.346479488e-15 0)
(3 1.606404975e-15 0)
(3 1.947801042e-15 0)
(3 1.720430288e-15 0)
(3 1.282056517e-15 0)
(3 -5.522215409e-16 0)
(3 -2.009672103e-15 0)
(3 -2.561682714e-15 0)
(3 -2.570238074e-15 0)
(3 -3.021156315e-15 0)
(3 -2.849527142e-15 0)
(3 -3.065667093e-15 0)
(3 -2.706977576e-15 0)
(3 -2.716261603e-15 0)
(3 -2.669043072e-15 0)
(3 -2.821596833e-15 0)
(3 4.495089401e-15 0)
(3 4.134309844e-14 0)
(3 1.085835764e-13 0)
(3 2.013779291e-13 0)
(3 3.744823762e-13 0)
(3 6.275860416e-13 0)
(3 1.376472845e-12 0)
(3 3.437387547e-12 0)
(3 3.752925892e-12 0)
(3 4.056628887e-12 0)
(3 5.158062288e-12 0)
(3 1.160625883e-11 0)
(3 -6.555387862e-12 0)
(3 7.073377091e-12 0)
(3 1.106489623e-10 0)
(2.999999994 -8.137474875e-09 0)
(2.999999943 -7.427414448e-08 0)
(2.99999954 -6.514650413e-07 0)
(2.999997227 -4.278756036e-06 0)
(2.999986987 -1.972230498e-05 0)
(2.999938861 -9.537646314e-05 0)
(2.999762101 -0.0003791269096 0)
(2.999258217 -0.001232647112 0)
(2.997798297 -0.003693057051 0)
(2.994205583 -0.009894457758 0)
(2.987930657 -0.02261560831 0)
(2.976494296 -0.04169238336 0)
(2.954334138 -0.08156554284 0)
(2.933074839 -0.1285040119 0)
(2.907953271 -0.1826771385 0)
(2.863549144 -0.2752916318 0)
(2.850973735 -0.3017679751 0)
(2.85160277 -0.3158711658 0)
(2.799784467 -0.3981249236 0)
(2.787988184 -0.4418393436 0)
(2.790508111 -0.4272179404 0)
(2.782453532 -0.4371958136 0)
(2.772446443 -0.4545049808 0)
(2.770351163 -0.4583047047 0)
(2.76572457 -0.4665931401 0)
(2.763261287 -0.4699001234 0)
(2.758384665 -0.472574022 0)
(2.754945749 -0.4776726265 0)
(2.751143851 -0.4816314566 0)
(2.748515698 -0.4878963287 0)
(2.748175238 -0.4884551981 0)
(2.748622961 -0.487393774 0)
(2.750517103 -0.487569834 0)
(2.750255469 -0.4873996946 0)
(3 -5.849991902e-15 0)
(3 -5.408108714e-15 0)
(3 -3.854871093e-15 0)
(3 -1.698684576e-15 0)
(3 -2.262133587e-15 0)
(3 -3.869128461e-15 0)
(3 -4.212372721e-15 0)
(3 -5.008404863e-15 0)
(3 -5.840021006e-15 0)
(3 -6.128752376e-15 0)
(3 -5.632501655e-15 0)
(3 -4.501957175e-15 0)
(3 -4.261451575e-15 0)
(3 -3.633569211e-15 0)
(3 7.676080584e-15 0)
(3 2.500802235e-14 0)
(3 8.201215565e-14 0)
(3 1.92312738e-13 0)
(3 5.029308807e-13 0)
(3 9.662068364e-13 0)
(3 1.465570559e-12 0)
(3 2.518662326e-12 0)
(3 4.673263213e-12 0)
(3 2.964072353e-12 0)
(3 2.286752477e-12 0)
(3 6.663485887e-12 0)
(3 3.622677682e-11 0)
(3 -3.007816974e-10 0)
(3 -2.429072653e-10 0)
(2.999999992 -9.541682224e-09 0)
(2.999999921 -1.124271399e-07 0)
(2.99999946 -7.586495167e-07 0)
(2.999996578 -5.047803679e-06 0)
(2.999983094 -2.604875764e-05 0)
(2.999929899 -0.0001080334912 0)
(2.999716204 -0.0004499875781 0)
(2.999101304 -0.001492235583 0)
(2.997621644 -0.004187498038 0)
(2.994021583 -0.009958619533 0)
(2.98606188 -0.02412091809 0)
(2.973701923 -0.05042993195 0)
(2.954952408 -0.08201016418 0)
(2.924826968 -0.1425215953 0)
(2.906215955 -0.1879781671 0)
(2.880347513 -0.2448756911 0)
(2.825840068 -0.3544085528 0)
(2.813172871 -0.3791736977 0)
(2.821165333 -0.3876012156 0)
(2.780467801 -0.443030717 0)
(2.766561803 -0.4797013743 0)
(2.763400775 -0.479458959 0)
(2.754265463 -0.4925843961 0)
(2.752779979 -0.5073081773 0)
(2.748778717 -0.5017007767 0)
(2.748952236 -0.4950237022 0)
(2.750406312 -0.4906591519 0)
(2.751971724 -0.4897758157 0)
(2.752244607 -0.4894279587 0)
(2.749503427 -0.4854493882 0)
(2.748315446 -0.4824685839 0)
(2.748073971 -0.4816414763 0)
(2.748242897 -0.4818450236 0)
(2.749263313 -0.4817328933 0)
(2.749619638 -0.4816665461 0)
(2.750161083 -0.4815001328 0)
(2.751293415 -0.4832040756 0)
(2.75131678 -0.4855216933 0)
(3 -6.851075855e-15 0)
(3 -6.55426341e-15 0)
(3 -5.524413914e-15 0)
(3 -3.539725739e-15 0)
(3 -3.92342178e-15 0)
(3 -4.579515606e-15 0)
(3 -5.065601248e-15 0)
(3 -4.741284915e-15 0)
(3 -2.513549658e-15 0)
(3 -1.586239031e-15 0)
(3 8.892966106e-15 0)
(3 4.239867005e-14 0)
(3 1.344778795e-13 0)
(3 2.655276259e-13 0)
(3 6.591737044e-13 0)
(3 1.399407065e-12 0)
(3 1.764031882e-12 0)
(3 2.719953653e-12 0)
(3 3.521004363e-12 0)
(3 4.18513324e-12 0)
(3 4.146296745e-12 0)
(3 1.802116391e-12 0)
(3 8.088395631e-11 0)
(3 -6.733154913e-11 0)
(2.999999999 -1.45067991e-09 0)
(2.999999989 -1.252946199e-08 0)
(2.99999989 -1.549788696e-07 0)
(2.999999264 -1.070392013e-06 0)
(2.999995779 -6.037704942e-06 0)
(2.999977418 -3.459131995e-05 0)
(2.999911008 -0.0001408909837 0)
(2.999688804 -0.0005043568289 0)
(2.998958236 -0.00171386683 0)
(2.997161368 -0.004834914904 0)
(2.993351769 -0.01168978281 0)
(2.984844762 -0.02526492725 0)
(2.969533172 -0.05466595598 0)
(2.953789111 -0.0903004867 0)
(2.925748986 -0.1408476879 0)
(2.891590461 -0.2118936265 0)
(2.883594216 -0.2366387796 0)
(2.846958875 -0.3041766503 0)
(2.807569355 -0.4017391958 0)
(2.800879958 -0.4050750729 0)
(2.811461827 -0.3936630348 0)
(2.785731129 -0.4301452568 0)
(2.779019601 -0.4492908968 0)
(2.776896925 -0.4564998573 0)
(2.76761066 -0.4628530571 0)
(2.762363162 -0.4685347026 0)
(2.759421097 -0.4691445189 0)
(2.756821381 -0.4728903781 0)
(2.754855412 -0.4791810672 0)
(2.752142579 -0.4820549152 0)
(2.75068969 -0.4835515552 0)
(2.750746903 -0.486313611 0)
(2.749729903 -0.4897612773 0)
(2.747832794 -0.4899216278 0)
(2.746320094 -0.4887117253 0)
(2.745733354 -0.4866027997 0)
(2.746486294 -0.4855996618 0)
(2.747827777 -0.4847985997 0)
(2.749057914 -0.4822863665 0)
(2.749251946 -0.4800038132 0)
(2.749190706 -0.4796577821 0)
(2.749303859 -0.4804728683 0)
(2.748677787 -0.4825123088 0)
(3 -4.742457207e-15 0)
(3 -3.810751658e-15 0)
(3 -3.134069737e-15 0)
(3 -3.670553457e-15 0)
(3 -1.94456605e-15 0)
(3 -9.002679781e-16 0)
(3 9.177127059e-15 0)
(3 5.543046816e-14 0)
(3 1.449365692e-13 0)
(3 3.482437792e-13 0)
(3 8.505734276e-13 0)
(3 1.892630504e-12 0)
(3 2.118685216e-12 0)
(3 3.834429898e-12 0)
(3 3.933400231e-12 0)
(3 1.117810725e-11 0)
(3 1.100664023e-11 0)
(3 1.6220871e-11 0)
(3 -6.629848594e-11 0)
(3 2.519199828e-10 0)
(2.999999999 -1.588713294e-09 0)
(2.999999983 -2.209089172e-08 0)
(2.999999853 -1.932579419e-07 0)
(2.999998923 -1.570736703e-06 0)
(2.999994289 -8.445603028e-06 0)
(2.99997243 -4.177829649e-05 0)
(2.999882454 -0.0001862382997 0)
(2.999618418 -0.0006293792323 0)
(2.998809722 -0.001966573674 0)
(2.996565891 -0.005548534685 0)
(2.991811702 -0.01458259119 0)
(2.98350973 -0.03002919993 0)
(2.969172063 -0.05406406119 0)