/*--------------------------------*- C++ -*----------------------------------*\
  =========                 |
  \\      /  F ield         | OpenFOAM: The Open Source CFD Toolbox
   \\    /   O peration     | Website:  https://openfoam.org
    \\  /    A nd           | Version:  7
     \\/     M anipulation  |
\*---------------------------------------------------------------------------*/
FoamFile
{
    version     2.0;
    format      ascii;
    class       volScalarField;
    location    "2.5";
    object      T;
}
// * * * * * * * * * * * * * * * * * * * * * * * * * * * * * * * * * * * * * //

dimensions      [0 0 0 1 0 0 0];

internalField   nonuniform List<scalar> 
22
(
1.000272872
1.00245528
1.012212238
1.029602991
1.002161519
1.00984762
1.023663776
1.034036387
1.025905195
1.032758398
1.035190892
1.039201105
1.038244105
1.032598045
1.040364948
1.03385845
1.015567406
1.034932475
1.01147152
0.9874942207
1.006774476
0.9793333587
)
;

boundaryField
{
    inlet
    {
        type            fixedValue;
        value           nonuniform 0();
    }
    outlet
    {
        type            inletOutlet;
        inletValue      nonuniform 0();
        value           nonuniform 0();
    }
    bottom
    {
        type            slip;
    }
    top
    {
        type            slip;
    }
    obstacle
    {
        type            zeroGradient;
    }
    defaultFaces
    {
        type            empty;
    }
    procBoundary4to3
    {
        type            processor;
        value           nonuniform List<scalar> 6(1.000010365 1.000158912 1.00974135 1.00974135 1.025268212 1.040392364);
    }
    procBoundary4to5
    {
        type            processor;
        value           nonuniform List<scalar> 6(1.048065723 1.0430746 1.032355202 1.018171116 0.9945178849 0.9802066749);
    }
    procBoundary4to9
    {
        type            processor;
        value           nonuniform List<scalar> 2(1.047420101 1.03879805);
    }
    procBoundary4to10
    {
        type            processor;
        value           nonuniform List<scalar> 4(0.9708965008 0.9774905773 0.9708965008 0.974390335);
    }
}


// ************************************************************************* //
