/*--------------------------------*- C++ -*----------------------------------*\
  =========                 |
  \\      /  F ield         | OpenFOAM: The Open Source CFD Toolbox
   \\    /   O peration     | Website:  https://openfoam.org
    \\  /    A nd           | Version:  7
     \\/     M anipulation  |
\*---------------------------------------------------------------------------*/
FoamFile
{
    version     2.0;
    format      ascii;
    class       volVectorField;
    location    "0.6";
    object      U;
}
// * * * * * * * * * * * * * * * * * * * * * * * * * * * * * * * * * * * * * //

dimensions      [0 1 -1 0 0 0 0];

internalField   nonuniform List<vector> 
22
(
(2.661754906 -0.03233276196 0)
(2.754251201 -0.04552926854 0)
(2.74052894 -0.08348564853 0)
(2.798091066 -0.05110386088 0)
(2.837210945 -0.1214400942 0)
(2.881123106 -0.08978194887 0)
(2.896874708 -0.168917111 0)
(2.94387608 -0.1355837752 0)
(2.932829534 -0.01894456412 0)
(2.932632991 -0.2117449908 0)
(2.983607384 -0.1679452657 0)
(2.968633411 -0.04015442165 0)
(2.950816374 -0.2463889549 0)
(3.009399141 -0.199099031 0)
(3.010533778 -0.06659969277 0)
(2.961705581 -0.2735369348 0)
(3.028845369 -0.2229664117 0)
(3.043728467 -0.09377167381 0)
(2.977506419 -0.300243262 0)
(3.048063657 -0.2500790951 0)
(3.063078344 -0.1288215672 0)
(2.975301144 -0.3191110207 0)
)
;

boundaryField
{
    inlet
    {
        type            fixedValue;
        value           nonuniform 0();
    }
    outlet
    {
        type            inletOutlet;
        inletValue      nonuniform 0();
        value           nonuniform 0();
    }
    bottom
    {
        type            slip;
    }
    top
    {
        type            slip;
    }
    obstacle
    {
        type            slip;
    }
    defaultFaces
    {
        type            empty;
    }
    procBoundary21to15
    {
        type            processor;
        value           nonuniform List<vector> 2((2.665561618 0.03028536887 0) (2.763716053 0.02887650219 0));
    }
    procBoundary21to22
    {
        type            processor;
        value           nonuniform List<vector> 7((2.830090846 -0.0009752388786 0) (2.846456556 -0.006202408199 0) (2.891986347 -0.0111746307 0) (2.891986347 -0.0111746307 0) (2.928321091 0.002151000171 0) (2.967337914 0.0004554708303 0) (2.997736436 0.003873377203 0));
    }
    procBoundary21to27
    {
        type            processor;
        value           nonuniform List<vector> 4((3.064627096 -0.2734223011 0) (3.07165779 -0.1645934693 0) (3.064627096 -0.2734223011 0) (2.966616491 -0.3230687924 0));
    }
    procBoundary21to28
    {
        type            processor;
        value           nonuniform List<vector> 2((3.016422772 -0.002949453523 0) (3.027855518 -0.01330352026 0));
    }
}


// ************************************************************************* //
