/*--------------------------------*- C++ -*----------------------------------*\
  =========                 |
  \\      /  F ield         | OpenFOAM: The Open Source CFD Toolbox
   \\    /   O peration     | Website:  https://openfoam.org
    \\  /    A nd           | Version:  7
     \\/     M anipulation  |
\*---------------------------------------------------------------------------*/
FoamFile
{
    version     2.0;
    format      ascii;
    class       volScalarField;
    location    "3.8";
    object      rho;
}
// * * * * * * * * * * * * * * * * * * * * * * * * * * * * * * * * * * * * * //

dimensions      [1 -3 0 0 0 0 0];

internalField   nonuniform List<scalar> 
2222
(
1.208234176
1.209014912
1.207697492
1.206530402
0.4170622699
0.4196257354
0.6738541171
1.009917478
1.160725427
1.123232188
1.157322816
1.174220308
1.163841124
1.17645112
1.178847356
1.176258274
1.179666216
1.179338606
1.178989322
1.177661073
1.177448422
1.179771004
1.184382945
1.187876831
1.192820309
1.197956407
1.198589029
1.195049641
1.190890524
1.191903134
1.194925271
1.19553398
1.196325382
1.198926054
1.203050464
1.205847447
1.20619838
1.205371135
0.4138323119
0.4166941063
0.4204933488
0.8952515984
1.138786607
1.15241832
1.124465547
1.165674494
1.163027811
1.161910326
1.175369993
1.174353747
1.17632372
1.180085145
1.180119944
1.179545667
1.177672394
1.177162969
1.179452958
1.181955473
1.18261922
1.185538868
1.192086582
1.1959343
1.194215633
1.191476423
1.192974522
1.195723429
1.195454209
1.194350769
1.194928926
1.197890445
1.201427479
1.204099524
1.204144732
0.4134123022
0.4149073141
0.6731208887
0.9958431276
1.157726212
1.134277722
1.133617285
1.16762046
1.155345709
1.161199219
1.171399371
1.169614129
1.175084737
1.179625258
1.180157414
1.179562866
1.178216275
1.178815883
1.180494996
1.181126811
1.180610974
1.181737097
1.185864426
1.189458052
1.190513097
1.19099343
1.193219352
1.19588087
1.19522884
1.192873368
1.19274826
1.194879665
1.198042675
1.200947487
1.202570765
0.4125969622
0.4155314967
0.9280571418
1.106723963
1.160950901
1.125494003
1.15196182
1.168016806
1.154262798
1.162081836
1.165721625
1.165180293
1.171605491
1.175487222
1.177877359
1.178404033
1.178361424
1.179513926
1.180773908
1.181067557
1.180490483
1.180960327
1.182975562
1.18435471
1.185140325
1.187752513
1.191030378
1.19464155
1.194158198
1.19179708
1.191561463
1.193584332
1.196092189
1.197916864
1.200324221
0.4090895283
0.6800499461
0.9977273358
1.157975703
1.151251959
1.12892546
1.163773337
1.16153614
1.154898374
1.163415876
1.16233009
1.16307157
1.168140881
1.169637902
1.171888793
1.174837501
1.177924101
1.179844402
1.180582233
1.181029576
1.180600708
1.181168194
1.182230082
1.182527157
1.181697631
1.18349245
1.187280208
1.191116031
1.191625407
1.191127285
1.191607758
1.19336025
1.194986387
1.195666266
1.197038091
0.4157080954
0.8958897577
1.065032965
1.16143108
1.131073112
1.139412805
1.166272565
1.154484621
1.157053875
1.164291147
1.161472923
1.163579862
1.166320379
1.165600202
1.166307705
1.168877953
1.173931559
1.177694344
1.179521354
1.180722785
1.18148196
1.181660602
1.182452224
1.182184642
1.180725073
1.180882106
1.183011415
1.186291648
1.188049145
1.19011489
1.191739004
1.19357218
1.194599842
1.194417763
1.194263723
0.7061781118
0.9899792546
1.127012759
1.157013252
1.12453994
1.151234467
1.164172294
1.151017152
1.158966744
1.163587718
1.161288115
1.164992952
1.165303036
1.163961337
1.163881742
1.165226113
1.168572469
1.172391451
1.176028931
1.179724075
1.181641833
1.18168236
1.182569753
1.18241275
1.180922063
1.179347571
1.179935931
1.1826393
1.18521476
1.188238605
1.191094896
1.193710443
1.194383188
1.193817806
1.19265768
0.892082886
1.083092317
1.156428854
1.143763222
1.125279277
1.153501272
1.153868245
1.148472752
1.160542044
1.161767851
1.162488173
1.166136409
1.164876119
1.163736636
1.163534938
1.164227075
1.165533951
1.167237867
1.170168129
1.175823725
1.179971045
1.18078334
1.181989401
1.182361801
1.181279965
1.178473726
1.178352587
1.180758516
1.184068435
1.186691192
1.189586917
1.192858613
1.194129744
1.193553955
1.191922866
1.005572754
1.140297886
1.160318663
1.124506845
1.128892003
1.152001289
1.143119321
1.147801426
1.1597432
1.159944914
1.162976523
1.166289307
1.16434361
1.163451758
1.16380785
1.16440641
1.164601412
1.164920672
1.166417645
1.170965422
1.174692964
1.177215108
1.179823465
1.181427857
1.180763262
1.177820248
1.177464763
1.180130411
1.184298605
1.186178427
1.187794771
1.190404303
1.192877154
1.193037769
0.9137918761
1.115333596
1.15690631
1.156980289
1.115199778
1.13737752
1.148857112
1.139257229
1.148740644
1.156213236
1.155684505
1.161371404
1.164152998
1.163270792
1.163771826
1.164405503
1.165064827
1.164691923
1.164691833
1.165698043
1.168555231
1.169855144
1.171539921
1.175227488
1.178464831
1.178392622
1.176383318
1.17654278
1.179700701
1.184575871
1.185861988
1.186238262
1.187278469
1.189423211
1.191524242
1.028824779
1.154169317
1.158018116
1.134470164
1.117823181
1.1441391
1.142798735
1.14013534
1.150701851
1.151396498
1.15072658
1.155947091
1.158349336
1.16043723
1.163051232
1.163859919
1.164673199
1.164529851
1.164566467
1.166059188
1.167363269
1.16681947
1.167332755
1.170587405
1.173699961
1.174297287
1.173673061
1.174722926
1.17853137
1.183953583
1.184643707
1.183757677
1.18325368
1.184550111
1.188127625
1.123006177
1.15756232
1.144858355
1.103518085
1.120816311
1.146125393
1.13999739
1.143239945
1.151500389
1.14800848
1.14795147
1.151542799
1.151500978
1.154492754
1.158392295
1.160823777
1.162383341
1.163494447
1.164881863
1.166741127
1.166770283
1.165475037
1.16581476
1.16813167
1.170026359
1.170522876
1.17017079
1.171821731
1.175926827
1.181144712
1.181716084
1.180100228
1.179282471
1.180412844
1.183689345
1.142493605
1.141154304
1.113024015
1.100227211
1.131457985
1.146416528
1.140334339
1.147832223
1.151464832
1.145492862
1.147147011
1.148692909
1.148380339
1.150503598
1.152985994
1.154891478
1.156785879
1.159864269
1.164500276
1.166295824
1.165789902
1.164979941
1.165332746
1.166446937
1.167364542
1.167306268
1.166678342
1.168050669
1.171461788
1.17550512
1.176148265
1.175263804
1.175645612
1.177364388
1.179884438
1.137973475
1.116119136
1.094376083
1.102737946
1.144984264
1.142368992
1.140629368
1.149179028
1.148386132
1.143847059
1.146873309
1.146945008
1.147386843
1.148499912
1.149145908
1.149710989
1.150762684
1.153753166
1.159113415
1.162343616
1.163521455
1.164219367
1.164772651
1.164834883
1.165091131
1.164547684
1.163332568
1.163322621
1.165219032
1.167844449
1.170070394
1.17201652
1.173904525
1.175980359
1.177403945
1.125435705
1.090374238
1.093939137
1.120217933
1.143016556
1.13363707
1.137903282
1.147883547
1.143350809
1.14279839
1.146139962
1.145747399
1.146639968
1.14675082
1.146437064
1.146727629
1.147820542
1.149943978
1.152502081
1.155217955
1.15901491
1.16249238
1.163354336
1.163048089
1.162749373
1.162011922
1.160156659
1.158468741
1.159213854
1.161712342
1.165878826
1.169870271
1.172467148
1.174669305
1.175249542
1.095765295
1.085748239
1.103145198
1.138562029
1.13722456
1.123919282
1.133339917
1.141237952
1.137473689
1.140994207
1.144183662
1.144022589
1.145033369
1.14464107
1.144260881
1.14499728
1.146424061
1.147780933
1.147592534
1.148322865
1.152847264
1.159013431
1.160516461
1.160194274
1.159709589
1.158935511
1.156895888
1.154607213
1.155035899
1.158028879
1.163383773
1.167873585
1.170441843
1.172337257
1.172900849
1.105160102
1.081602306
1.091898084
1.127568059
1.139687212
1.124462586
1.116685443
1.129349028
1.130370902
1.130501802
1.136920335
1.139612756
1.140614465
1.142080936
1.141770112
1.142469405
1.14419703
1.145608118
1.145818837
1.144563129
1.144683085
1.14848102
1.153383089
1.155636276
1.156265318
1.156339068
1.155702506
1.153803622
1.151890847
1.152456567
1.15599022
1.161290223
1.165248065
1.167580754
1.169209155
1.170092952
1.092233783
1.086240197
1.112065969
1.138895292
1.134946717
1.109480846
1.116154676
1.125336323
1.12267936
1.124806947
1.131210842
1.132579206
1.134732634
1.136962826
1.137984175
1.140364916
1.143330176
1.144411547
1.144051407
1.142788611
1.14330605
1.146273467
1.148282121
1.149640045
1.151645242
1.152989147
1.152883531
1.151518475
1.150015506
1.150605284
1.154320202
1.158828351
1.161085916
1.16262662
1.164593961
1.166678477
1.092702007
1.100166282
1.134029778
1.139268312
1.118350514
1.106061325
1.116871832
1.122137884
1.119376668
1.122484054
1.12593222
1.125799719
1.128145919
1.130338302
1.132841742
1.136652358
1.140698194
1.142175197
1.141942055
1.141727373
1.143230828
1.144977081
1.144682187
1.144862609
1.147142687
1.149969653
1.15050779
1.149662056
1.148461496
1.148765416
1.152020972
1.155339559
1.15569504
1.156635982
1.159461416
1.163235448
1.095456437
1.121591355
1.136990721
1.130655251
1.104171845
1.108204295
1.121350442
1.121376248
1.119690879
1.122045732
1.121962479
1.121430253
1.123431764
1.124962018
1.127835119
1.131749528
1.135596194
1.138501443
1.139665555
1.141054216
1.143355316
1.143593641
1.142492022
1.142384662
1.144095924
1.147069244
1.148282185
1.147711194
1.146697334
1.146413712
1.148664068
1.15044496
1.15037075
1.151529387
1.155053001
1.159714775
1.104074818
1.124359005
1.127289157
1.108382012
1.10072178
1.111380385
1.124921893
1.12157837
1.120600068
1.12195279
1.119575129
1.119524263
1.121013666
1.122099168
1.124636257
1.12716983
1.129280245
1.132499112
1.136357753
1.140196455
1.142506663
1.142031419
1.14112378
1.141111343
1.1422835
1.144355238
1.145770923
1.145402846
1.144235691
1.143523403
1.144470154
1.145526517
1.146368997
1.148186061
1.151524369
1.155898908
1.107417513
1.120292833
1.107182427
1.092578529
1.100715059
1.119721603
1.125865951
1.120791683
1.121355574
1.121196476
1.118038971
1.119045913
1.119945815
1.121025065
1.122960029
1.123879131
1.124466582
1.126503048
1.131665945
1.138037174
1.140386096
1.140021441
1.140046414
1.140410234
1.141039749
1.142044325
1.142863865
1.142540911
1.141025351
1.140285875
1.140751961
1.142201252
1.144686774
1.146607205
1.148918017
1.151817521
1.10942178
1.106149312
1.084049558
1.088809974
1.104387362
1.122714019
1.121191691
1.117026774
1.120191075
1.118985972
1.117244193
1.119084014
1.11955454
1.120712716
1.121841834
1.121844032
1.121975116
1.123212189
1.127825151
1.134251301
1.136985555
1.1376932
1.138705758
1.139612597
1.139763976
1.139966773
1.139958595
1.13937757
1.137600923
1.137125459
1.137996375
1.140504073
1.143676482
1.145188497
1.146632729
1.09677965
1.107633252
1.087784459
1.081135368
1.089191951
1.111678329
1.117998638
1.110091165
1.111033515
1.116804643
1.115854539
1.116819616
1.118906236
1.119215844
1.120364268
1.120895176
1.120559185
1.120596717
1.121970456
1.125830518
1.129349878
1.131881805
1.13457674
1.137191816
1.138237305
1.138046365
1.137801276
1.13728684
1.136415084
1.134491899
1.134387396
1.135763933
1.139342136
1.14233089
1.142814562
1.142948488
1.097332851
1.098656627
1.081779473
1.082535924
1.098058016
1.113494062
1.108225444
1.099028261
1.106343978
1.111764399
1.112936941
1.115954422
1.117628498
1.118039576
1.119190278
1.119782967
1.119947999
1.120373612
1.122397964
1.124822604
1.125553252
1.126739635
1.1308265
1.135129697
1.136224742
1.135860368
1.135584497
1.135045102
1.134137251
1.132258244
1.13197337
1.133510872
1.137564741
1.140151646
1.139787643
1.138436008
1.096782053
1.090154
1.085193412
1.09128108
1.110847726
1.11215666
1.095512804
1.096042621
1.104599875
1.106924309
1.109026673
1.112851481
1.114572506
1.115597534
1.117144171
1.118333899
1.119620529
1.120765376
1.123104832
1.124074889
1.123433265
1.124079701
1.1277855
1.131738788
1.13326558
1.133261914
1.133499528
1.133513271
1.132766468
1.131059196
1.129731524
1.131042086
1.134513204
1.135982306
1.134760966
1.132802885
1.092013301
1.088628428
1.091125093
1.107319597
1.113875254
1.103979397
1.091159842
1.096309235
1.105060655
1.105482582
1.106932359
1.109358441
1.109976347
1.111361343
1.113128008
1.115354457
1.118614707
1.121066925
1.123300671
1.123120925
1.121899163
1.123378598
1.126100558
1.128183432
1.129448057
1.130406829
1.131654805
1.132323711
1.131847999
1.130192334
1.127984833
1.128027431
1.12976215
1.130052373
1.129382746
1.129421228
1.085716003
1.08813852
1.102807182
1.11328762
1.113315334
1.09466094
1.093003456
1.100905855
1.105906045
1.105294255
1.106178945
1.106576236
1.106065218
1.107195373
1.108361207
1.110141782
1.114604147
1.120602866
1.122749574
1.121885568
1.122164181
1.12348428
1.12517335
1.125685089
1.126271229
1.127720782
1.129893468
1.131033669
1.130804909
1.129296967
1.126754467
1.124939221
1.124698377
1.125191973
1.127365341
1.12920275
1.080921446
1.091222988
1.107571581
1.112685038
1.102647652
1.092297058
1.096439101
1.105796924
1.10633938
1.105511927
1.105636861
1.104725808
1.104346345
1.105503353
1.106129674
1.106970791
1.109827665
1.116443938
1.120436269
1.1208787
1.122321719
1.12398181
1.124428129
1.12428689
1.124795937
1.12618937
1.128216042
1.129432315
1.129403912
1.128080958
1.125516257
1.12276248
1.122345755
1.123832689
1.12641053
1.129380593
1.076902792
1.079115708
1.090450278
1.103160678
1.10168491
1.089528353
1.091365142
1.101263163
1.106308299
1.105492046
1.104052625
1.104199671
1.102868681
1.103708059
1.105015834
1.105314324
1.105653243
1.107386394
1.111005569
1.115666584
1.120004683
1.122380509
1.123812054
1.123698982
1.123620499
1.124447657
1.125584402
1.126834546
1.127704845
1.127700661
1.126392263
1.124019569
1.122272775
1.122224239
1.123894957
1.126339236
1.128994347
1.072114381
1.080829486
1.090347224
1.09479495
1.085036462
1.083872917
1.091471826
1.103367729
1.105289562
1.10092671
1.101674386
1.102347278
1.102216483
1.103965182
1.104841416
1.104781779
1.10480286
1.106473466
1.107993086
1.110987246
1.117272335
1.121726107
1.122677866
1.122543662
1.123211503
1.124659577
1.125267408
1.125793893
1.126033778
1.125892114
1.124689255
1.123057171
1.122719632
1.123090292
1.124855434
1.126938838
1.128606689
1.074114136
1.083880264
1.089939867
1.083503594
1.077060599
1.081249795
1.095601469
1.09998716
1.097413658
1.095518337
1.099102442
1.100298395
1.101266071
1.103243443
1.103814805
1.10378293
1.105191331
1.106195465
1.107057077
1.108945323
1.113941878
1.119063974
1.12030382
1.120643632
1.122255611
1.124322097
1.125037829
1.124952442
1.124588672
1.124316529
1.123655881
1.122785379
1.123020906
1.124074325
1.125433794
1.126564262
1.127174158
1.079473084
1.086821921
1.087419672
1.078718818
1.07660702
1.081932823
1.092653552
1.092660217
1.086842624
1.09013683
1.094809827
1.096030224
1.097794682
1.09985034
1.10122322
1.102817318
1.10543528
1.1068045
1.107135878
1.108682133
1.11186681
1.115786357
1.117458207
1.118354166
1.120250423
1.123079163
1.124162039
1.123947639
1.123425725
1.123067323
1.122686948
1.122128233
1.122832054
1.123987591
1.125560088
1.12539256
1.124265194
1.088401582
1.088828318
1.08409655
1.078956739
1.080083464
1.088658292
1.091201218
1.08521959
1.082079425
1.087748985
1.091587824
1.09242792
1.093642613
1.094776356
1.096924443
1.10153577
1.105486253
1.107078233
1.107687956
1.108837935
1.110597284
1.112442564
1.1143935
1.116273476
1.118372777
1.120636483
1.122231814
1.122555421
1.122498453
1.122118049
1.121609669
1.120823911
1.121469947
1.122948259
1.123620224
1.121933094
1.119597211
1.090302795
1.089377849
1.083607425
1.082609224
1.087759282
1.091676862
1.08885742
1.08039354
1.082526439
1.088091914
1.089978078
1.090002905
1.089960417
1.090199907
1.092537184
1.098873219
1.105254738
1.107382334
1.108107698
1.109135287
1.109335793
1.109431063
1.111640583
1.114638155
1.116836378
1.118006542
1.11945593
1.120940788
1.121747457
1.121735986
1.120935179
1.119585647
1.11914696
1.119639139
1.119527649
1.118948267
1.117922877
1.085270043
1.084549581
1.083327293
1.087445154
1.091436953
1.092408847
1.083867547
1.080372453
1.0851359
1.089301306
1.089516115
1.088040641
1.087422013
1.087886357
1.090423398
1.096226011
1.102995018
1.106508539
1.107626188
1.108314632
1.107767564
1.107684451
1.10976073
1.11313697
1.115069327
1.115601261
1.116700349
1.119137792
1.121186803
1.121607336
1.120709516
1.118634637
1.116682688
1.115804951
1.116637562
1.117847
1.118121985
1.073918944
1.076111539
1.076032261
1.0811596
1.088367421
1.091835114
1.087958912
1.080292306
1.082951223
1.089088198
1.091193043
1.089168289
1.086823465
1.086556957
1.087585912
1.09022253
1.094764388
1.099679908
1.103962303
1.106441822
1.106870719
1.106563027
1.106967594
1.10893315
1.111999805
1.113530536
1.113823766
1.114619094
1.117512113
1.120607189
1.121177775
1.120455995
1.117956455
1.114895876
1.114084095
1.115641105
1.117601054
1.062610271
1.062263507
1.067445475
1.078771503
1.087115139
1.086560372
1.078813099
1.079097993
1.086620654
1.092250391
1.091993856
1.088748686
1.087784259
1.088255693
1.0894937
1.091820815
1.09476661
1.097034222
1.100689756
1.10468175
1.105560625
1.10583064
1.106719321
1.108819796
1.111219308
1.112337352
1.112678611
1.113504128
1.116318583
1.119762666
1.120460436
1.119915527
1.117487649
1.114081889
1.113483798
1.115191606
1.117773892
1.058599622
1.05981557
1.067131719
1.077241761
1.082092291
1.076619122
1.072786337
1.078279264
1.088461922
1.092585141
1.090220781
1.088771452
1.090279141
1.091624291
1.093236865
1.094777869
1.095356259
1.095856086
1.098394438
1.102751102
1.104818292
1.105703317
1.107102586
1.108880644
1.109976144
1.111220596
1.112169012
1.113263504
1.11555053
1.118434767
1.119606564
1.119300025
1.117343985
1.114539878
1.113899761
1.115513609
1.118071181
1.061250177
1.064314031
1.070268156
1.07635589
1.07576833
1.070063586
1.071758372
1.08091992
1.089528353
1.089867185
1.087040443
1.088171132
1.091646414
1.094193249
1.096545777
1.097580017
1.09645948
1.096212221
1.098260419
1.102189855
1.105110899
1.10646726
1.10765282
1.108261017
1.108591396
1.110251109
1.112092724
1.113575438
1.115191215
1.116824645
1.118525381
1.11871607
1.117452779
1.115492718
1.114885204
1.116097074
1.11783269
1.068556944
1.073126873
1.076961016
1.07797523
1.072884642
1.071011717
1.075423097
1.084515201
1.087947428
1.08506794
1.084810924
1.089426017
1.093278863
1.096020299
1.098546927
1.099364304
1.098157088
1.0979832
1.099786645
1.102458487
1.105581966
1.107407546
1.107775442
1.107267201
1.107346307
1.109277159
1.112285382
1.114180691
1.114840232
1.115387645
1.117066448
1.118303641
1.117577018
1.116273777
1.115737048
1.116118457
1.116570787
1.077158274
1.081766344
1.082926607
1.079289236
1.074574757
1.075993329
1.08200638
1.087547613
1.085979874
1.082235695
1.085888592
1.091653674
1.094260111
1.096537313
1.098823425
1.099862975
1.100040067
1.100850632
1.102473474
1.103819165
1.105981393
1.107788927
1.107591121
1.106636658
1.106749156
1.109119901
1.112875832
1.114616709
1.114611531
1.114578132
1.115673244
1.117544909
1.117846097
1.116793669
1.115707443
1.114983141
1.114565077
1.076493664
1.087144272
1.088163989
1.084648194
1.078514196
1.07848755
1.084084713
1.089253074
1.089444413
1.083645847
1.083081461
1.089155391
1.093516911
1.094978309
1.096519259
1.098337319
1.099958112
1.101568582
1.103675159
1.10507677
1.105738059
1.106778387
1.108053924
1.107443277
1.106583032
1.106932061
1.109417329
1.113098228
1.114829994
1.114351125
1.114259125
1.115272542
1.116434783
1.117301689
1.11629465
1.114541107
1.113375169
1.11299334
1.084731866
1.09106764
1.089280537
1.082199645
1.078627618
1.084379812
1.091488375
1.094121984
1.088568474
1.083232438
1.087184146
1.093301701
1.095640868
1.096334583
1.096883224
1.097620693
1.099395608
1.10347852
1.106430051
1.107040847
1.107122293
1.107467668
1.107919678
1.107483294
1.107028045
1.107853159
1.110116642
1.113080968
1.114582244
1.114416453
1.114624796
1.115273106
1.115633432
1.116042935
1.115308584
1.113488132
1.112564969
1.112247634
1.085278654
1.08750486
1.082173986
1.076821963
1.080134602
1.089183419
1.095160586
1.092866065
1.085832723
1.086205366
1.092176145
1.096510511
1.096949043
1.097148854
1.09713123
1.097687234
1.10007834
1.104820013
1.107855291
1.108041511
1.107589132
1.107297806
1.107040997
1.107271344
1.107989678
1.109296952
1.110788983
1.112527923
1.114096801
1.115050968
1.115643576
1.115888698
1.115664469
1.115109396
1.11393598
1.11287502
1.112283258
1.113288712
1.085483476
1.079294901
1.073435817
1.075036819
1.082094256
1.091047321
1.092444895
1.087189162
1.0863528
1.090745893
1.096222391
1.097518158
1.096911169
1.097587937
1.098215574
1.098755693
1.101170124
1.104874179
1.107435581
1.107560843
1.107128232
1.106776246
1.106910491
1.108081238
1.10976203
1.110415754
1.11071102
1.110926407
1.113239641
1.115495164
1.116461838
1.116584529
1.115605151
1.113972163
1.112708667
1.112622632
1.113396267
1.114974498
1.079224716
1.071031461
1.071979787
1.07549546
1.082580721
1.088560645
1.085521727
1.084712936
1.088146011
1.094398176
1.097396745
1.096030661
1.096540898
1.099187232
1.099875266
1.100122074
1.101749401
1.103761621
1.105617177
1.107099511
1.107596999
1.107561541
1.107892206
1.109282452
1.110492554
1.110413613
1.109467859
1.10903724
1.112012668
1.115974081
1.117405038
1.116936131
1.115200702
1.113301183
1.112666833
1.113214315
1.11456229
1.116865936
1.071008626
1.070640952
1.072318695
1.076709918
1.082554882
1.082749807
1.081346175
1.084301611
1.09078977
1.096116209
1.09493139
1.093557434
1.096363743
1.100316033
1.101252362
1.100511117
1.101088311
1.101774891
1.104115776
1.107093142
1.107955634
1.107941689
1.108576184
1.109932107
1.110174087
1.109226451
1.107565374
1.107500175
1.11018244
1.1149623
1.117046427
1.116125827
1.11455307
1.113354232
1.11268833
1.113508397
1.115103592
1.117074345
1.072888251
1.073529496
1.076705854
1.07989497
1.080698638
1.077870874
1.079501219
1.084302071
1.091218031
1.09306329
1.09045631
1.091429753
1.096019892
1.100317294
1.101516758
1.101441026
1.10000548
1.100755961
1.103307429
1.106636875
1.107880259
1.107796956
1.107852927
1.108312194
1.108379123
1.106584862
1.105394113
1.106148589
1.108073648
1.111391688
1.113869267
1.113502501
1.112676531
1.112530754
1.112325194
1.113288208
1.114552944
1.078708353
1.07562443
1.078952631
1.082588163
1.082749059
1.079795874
1.076923088
1.078742598
1.085249522
1.0895479
1.08865387
1.086946732
1.089115691
1.094178675
1.097362138
1.099749652
1.100797474
1.10053421
1.099977782
1.101638926
1.104725146
1.106316008
1.106033887
1.105460668
1.104774078
1.103638378
1.102218184
1.102381751
1.103391457
1.105110535
1.106639392
1.108234039
1.109198813
1.10975898
1.110204533
1.110403169
1.110686666
1.111921134
1.071769485
1.074295856
1.079447763
1.080265636
1.078585469
1.075965365
1.07537963
1.079138898
1.084031352
1.085068473
1.0824805
1.083329834
1.086761697
1.090733387
1.092633255
1.095005517
1.09745451
1.098114915
1.097920808
1.098742455
1.100312159
1.101485457
1.101139314
1.100192665
1.098725227
1.096535465
1.096352785
1.097437203
1.098657897
1.099685113
1.09960655
1.10074078
1.103231885
1.104810608
1.105749716
1.105745221
1.105198747
1.105458967
1.061711731
1.070332855
1.071429598
1.070002317
1.067268369
1.065983702
1.069019314
1.074478752
1.076370442
1.07659476
1.077124712
1.07989209
1.083648916
1.084365316
1.085125462
1.086894352
1.090342757
1.092238839
1.092488686
1.092370544
1.092352263
1.092784453
1.092351234
1.090968461
1.088224024
1.087090037
1.088018629
1.090105376
1.091321042
1.090978663
1.089946864
1.091713194
1.094747932
1.097200746
1.09789269
1.097517826
1.09657485
1.095446416
1.047731013
1.055010091
1.054921831
1.051684241
1.049712121
1.052070499
1.058402841
1.061961454
1.062931229
1.063896798
1.068046144
1.073448076
1.076710524
1.075074467
1.074500615
1.076177767
1.080237914
1.082930431
1.082848511
1.081647231
1.080606417
1.07990943
1.079340468
1.077657859
1.076016263
1.075851368
1.077020447
1.079376234
1.080456334
1.078922388
1.078906234
1.080759759
1.084033438
1.086640986
1.086830469
1.086092186
1.084445301
1.082923052
1.02879496
1.033367705
1.031589766
1.028896911
1.030291833
1.036180356
1.043297129
1.045275665
1.046095365
1.048790435
1.055464379
1.063146954
1.06502082
1.063630055
1.061829648
1.063122818
1.066225307
1.069496843
1.069362628
1.067575995
1.065563745
1.064250411
1.063584804
1.062848826
1.062583052
1.062763925
1.063942882
1.065915268
1.066858158
1.066779299
1.067185693
1.068939847
1.072119569
1.073932308
1.073966875
1.072736567
1.071048615
1.070367873
1.011424843
1.012252799
1.009840452
1.011098485
1.014760673
1.020193207
1.025212396
1.026613236
1.028817019
1.033449514
1.041966377
1.048921671
1.050135602
1.050670691
1.04965074
1.04998654
1.051468665
1.054075167
1.054451611
1.051971573
1.049448677
1.048777383
1.048744727
1.048706243
1.048882552
1.049260336
1.050134232
1.05150289
1.052699382
1.054026816
1.055604081
1.057631233
1.059711643
1.061115085
1.060522022
1.059537242
1.058884562
1.058480905
0.9975830288
0.9972986638
0.9954176656
0.9960036637
0.9992602271
1.003809872
1.008301297
1.010209715
1.011405253
1.015710183
1.021313065
1.029455258
1.033625506
1.035500384
1.037217036
1.038237161
1.037909321
1.037721194
1.039030728
1.040028872
1.039277693
1.037401964
1.03633675
1.036332472
1.036277432
1.036419506
1.03684918
1.037443543
1.037947603
1.040286058
1.043223234
1.046027945
1.047601599
1.048458513
1.049367134
1.050040693
1.049765857
1.049352435
1.049000938
0.9899465856
0.9867804242
0.9871982711
0.9905478007
0.9939691142
0.9975997755
0.9997466199
0.9999196522
1.002767558
1.007530085
1.014911062
1.018886147
1.020439672
1.022977464
1.026524383
1.028628347
1.027975523
1.026576733
1.027058639
1.029104778
1.029465271
1.028980856
1.02753704
1.027303054
1.026744633
1.026838609
1.027222069
1.02720838
1.027810288
1.030801714
1.035340985
1.038609037
1.039589181
1.03962119
1.040330474
1.041900139
1.042730798
1.042957715
1.042831372
0.984050493
0.9846415699
0.9866739048
0.9905651806
0.994593764
0.994799255
0.9950748509
0.9950162933
0.9994285734
1.005718285
1.011109962
1.011835784
1.011746292
1.013892008
1.018978894
1.020810747
1.020330357
1.01915427
1.019652128
1.022161505
1.023885014
1.023894774
1.022725368
1.021307592
1.020843095
1.020836118
1.02079358
1.020851307
1.021865437
1.024903995
1.030301488
1.033628567
1.034403919
1.034668411
1.035183559
1.036940187
1.0385794
1.039560525
1.039596675
0.9805386001
0.9830929744
0.9879147347
0.9933719592
0.995537585
0.9943617534
0.9917791532
0.994643264
1.001338827
1.008270969
1.009300057
1.007747556
1.006701327
1.009042771
1.013293033
1.015553748
1.015378202
1.015165697
1.015964714
1.018864333
1.021562193
1.021378695
1.020287862
1.018130616
1.018087307
1.018630711
1.018840824
1.018832856
1.019595927
1.022303798
1.027618991
1.030732838
1.031295387
1.031839968
1.032931977
1.035160172
1.037124736
1.037950934
1.037777956
0.9777636061
0.9820583863
0.9898236554
0.9930182865
0.9939523239
0.9935455506
0.9936068997
0.9966783398
1.003949238
1.009493477
1.008692394
1.005046882
1.004763447
1.006504792
1.009484738
1.012447506
1.013683159
1.014048877
1.015129446
1.01704032
1.019347291
1.019847203
1.018447408
1.017344568
1.017206964
1.017890861
1.018308522
1.018445573
1.019342472
1.022339729
1.025969931
1.028870956
1.029932
1.030800268
1.032788609
1.035661544
1.037107733
1.036998436
1.03624265
0.9764094215
0.9841803173
0.989149463
0.9905461208
0.9910208861
0.9921038739
0.9945096406
0.9991567541
1.004973586
1.008455729
1.009124478
1.006930927
1.004441307
1.005345939
1.007111728
1.010377293
1.013928793
1.015006377
1.015035597
1.015435673
1.016903681
1.017811852
1.01726236
1.016894107
)
;

boundaryField
{
    inlet
    {
        type            calculated;
        value           nonuniform 0();
    }
    outlet
    {
        type            calculated;
        value           nonuniform 0();
    }
    bottom
    {
        type            calculated;
        value           nonuniform 0();
    }
    top
    {
        type            calculated;
        value           nonuniform 0();
    }
    obstacle
    {
        type            calculated;
        value           nonuniform 0();
    }
    defaultFaces
    {
        type            empty;
    }
    procBoundary16to10
    {
        type            processor;
        value           nonuniform List<scalar> 
35
(
1.210742692
1.21060619
1.20903523
1.208029749
0.4197065452
0.4205314169
0.425809895
0.866909796
1.154087548
1.14168217
1.144269659
1.178757198
1.165814747
1.173985282
1.18193605
1.176223472
1.178070353
1.179173238
1.178967029
1.178976928
1.179346201
1.182746949
1.189875463
1.194796837
1.19778803
1.199512404
1.198554056
1.194575605
1.190264273
1.191390133
1.194264356
1.196083022
1.199420336
1.204397216
1.204397216
)
;
    }
    procBoundary16to15
    {
        type            processor;
        value           nonuniform List<scalar> 
70
(
0.4163545656
0.4163545656
0.4117076468
0.409927993
0.4097426062
0.4094491888
0.4061125827
0.4011905067
0.422056998
0.746514346
0.746514346
0.4476673646
0.7479946655
0.9135921862
1.068568147
1.115005957
1.123803281
1.120730863
1.120730863
1.126666584
1.120052895
1.103505511
1.085625544
1.084092876
1.086045597
1.092559544
1.092559544
1.069228145
1.070773544
1.082570407
1.095299193
1.094285741
1.090057362
1.090057362
1.073160364
1.070419706
1.071159932
1.075287291
1.084657267
1.084642833
1.079529047
1.079529047
1.07611743
1.074574787
1.066700703
1.060626156
1.061541687
1.068338688
1.068338688
1.064535356
1.066978669
1.072081915
1.077649656
1.081263361
1.080059411
1.082160859
1.082160859
1.08244734
1.071494649
1.055586972
1.035213377
1.019609739
1.006761499
1.006761499
0.9976374382
0.9909068683
0.9866892625
0.980153388
0.9760917603
0.9731206202
)
;
    }
    procBoundary16to17
    {
        type            processor;
        value           nonuniform List<scalar> 
65
(
1.206599405
1.205491791
1.204624392
1.203602251
1.201914397
1.198802639
1.194951252
1.191784333
1.189891322
1.191622017
1.191622017
1.191208075
1.190154283
1.18752165
1.183169998
1.178980917
1.175682276
1.172999761
1.170373169
1.167703837
1.165176345
1.162586765
1.159357566
1.154894382
1.148061076
1.148061076
1.143333858
1.138206237
1.13293197
1.130620657
1.130685971
1.131367264
1.131707191
1.1311571
1.128573127
1.123758515
1.119317399
1.117965734
1.118025792
1.118587594
1.118587594
1.119207843
1.119616858
1.119034759
1.117020343
1.114474754
1.11273944
1.113723196
1.115286017
1.117022087
1.118365384