/*--------------------------------*- C++ -*----------------------------------*\
  =========                 |
  \\      /  F ield         | OpenFOAM: The Open Source CFD Toolbox
   \\    /   O peration     | Website:  https://openfoam.org
    \\  /    A nd           | Version:  7
     \\/     M anipulation  |
\*---------------------------------------------------------------------------*/
FoamFile
{
    version     2.0;
    format      ascii;
    class       volVectorField;
    location    "4.4";
    object      U;
}
// * * * * * * * * * * * * * * * * * * * * * * * * * * * * * * * * * * * * * //

dimensions      [0 1 -1 0 0 0 0];

internalField   nonuniform List<vector> 
2222
(
(3 -9.48112138e-15 0)
(3 -2.266012664e-15 0)
(3 -3.397350677e-15 0)
(3 -4.791163031e-15 0)
(3 4.43362836e-16 0)
(3 1.703728822e-15 0)
(3 2.930190519e-15 0)
(3 2.435180914e-15 0)
(3 -1.86564257e-15 0)
(3 -2.138258925e-15 0)
(3 -3.933695739e-15 0)
(3 -5.132117885e-15 0)
(3 -3.521750925e-15 0)
(3 -3.262141321e-15 0)
(3 -3.797536161e-15 0)
(3 -2.620846424e-15 0)
(3 -5.452238288e-16 0)
(3 2.220089544e-15 0)
(3 1.557906187e-15 0)
(3 1.15920692e-14 0)
(3 5.733296335e-15 0)
(3 3.2702599e-15 0)
(3 3.025487827e-15 0)
(3 3.297704161e-15 0)
(3 1.371759434e-15 0)
(3 1.4697909e-15 0)
(3 3.666603382e-16 0)
(3 -6.107395513e-15 0)
(3 3.432014951e-15 0)
(3 1.794349506e-14 0)
(3 1.200382467e-14 0)
(3 -1.395331415e-14 0)
(3 -1.383487696e-14 0)
(3 -1.038351617e-14 0)
(3 -1.388832845e-14 0)
(3 -1.12853396e-14 0)
(3 -3.955605972e-15 0)
(3 -7.631933472e-16 0)
(3 2.100705733e-15 0)
(3 5.399889263e-15 0)
(3 -1.532010749e-15 0)
(3 -4.481793795e-15 0)
(3 -7.485313126e-15 0)
(3 -9.990533727e-15 0)
(3 -1.9233413e-15 0)
(3 -4.00546111e-15 0)
(3 -4.940680647e-15 0)
(3 -2.570311817e-15 0)
(3 1.914135392e-15 0)
(3 7.691609573e-15 0)
(3 9.508798721e-15 0)
(3 1.653146003e-14 0)
(3 1.123998549e-14 0)
(3 9.811626318e-15 0)
(3 6.345932126e-15 0)
(3 6.656780407e-15 0)
(3 4.01432245e-15 0)
(3 2.638454676e-15 0)
(3 3.07662395e-15 0)
(3 3.995943313e-16 0)
(3 2.047714285e-14 0)
(3 3.47797012e-14 0)
(3 -1.14978542e-14 0)
(3 -3.437683723e-12 0)
(3 -1.940496486e-14 0)
(3 -2.374000005e-14 0)
(3 -1.579501002e-14 0)
(3 -8.361592148e-15 0)
(3 -1.268223486e-15 0)
(3 5.885283136e-15 0)
(3 1.254153093e-14 0)
(3 1.818660279e-14 0)
(3 7.609525369e-15 0)
(3 5.658476034e-17 0)
(3 -3.816047081e-15 0)
(3 -5.557978111e-15 0)
(3 -6.687843827e-15 0)
(3 -7.289291994e-15 0)
(3 -7.990304419e-15 0)
(3 -7.466359021e-15 0)
(3 -1.209256487e-15 0)
(3 8.120977796e-16 0)
(3 1.040325223e-14 0)
(3 2.364830225e-14 0)
(3 2.360528747e-14 0)
(3 2.139397295e-14 0)
(3 1.764518762e-14 0)
(3 1.395168142e-14 0)
(3 8.234716453e-15 0)
(3 1.083753306e-14 0)
(3 6.743029662e-15 0)
(3 7.413321105e-15 0)
(3 2.56642641e-14 0)
(3 1.607827881e-16 0)
(3 -4.547177578e-12 0)
(3 -2.113130782e-10 0)
(3 -2.595212198e-14 0)
(3 -3.066224526e-14 0)
(3 -1.924640181e-14 0)
(3 -4.359704803e-15 0)
(3 6.808407349e-15 0)
(3 1.497878092e-14 0)
(3 2.872790734e-14 0)
(3 2.863350616e-14 0)
(3 2.115469071e-14 0)
(3 8.867107483e-15 0)
(3 1.728384577e-15 0)
(3 -5.457720117e-15 0)
(3 -6.397719385e-15 0)
(3 -3.32784778e-15 0)
(3 -2.27526954e-15 0)
(3 -5.457494414e-15 0)
(3 4.028542753e-15 0)
(3 6.617628393e-15 0)
(3 1.317243609e-14 0)
(3 3.209904588e-14 0)
(3 3.959452654e-14 0)
(3 3.293162486e-14 0)
(3 2.768006926e-14 0)
(3 2.075651005e-14 0)
(3 1.473269863e-14 0)
(3 1.648011635e-14 0)
(3 1.494828935e-14 0)
(3 1.854680954e-14 0)
(3 -7.243420566e-15 0)
(3 -3.666589704e-12 0)
(3 -2.724740454e-10 0)
(2.999999996 -1.028372102e-08 0)
(3 -3.051662074e-14 0)
(3 -2.86803104e-14 0)
(3 -2.202640035e-14 0)
(3 -7.028935829e-15 0)
(3 1.489106334e-14 0)
(3 2.363774076e-14 0)
(3 3.298143973e-14 0)
(3 3.275748277e-14 0)
(3 2.709920224e-14 0)
(3 1.888789193e-14 0)
(3 1.066786439e-14 0)
(3 -2.989604883e-15 0)
(3 -3.569903166e-15 0)
(3 -2.549461396e-15 0)
(3 -2.791868057e-15 0)
(3 -1.252606246e-15 0)
(3 8.089564769e-15 0)
(3 1.110959097e-14 0)
(3 1.819158813e-14 0)
(3 3.632075506e-14 0)
(3 4.595150555e-14 0)
(3 2.782211146e-14 0)
(3 2.273532853e-14 0)
(3 2.36753229e-14 0)
(3 2.065046659e-14 0)
(3 1.941833052e-14 0)
(3 2.345775381e-14 0)
(3 -1.317581018e-15 0)
(3 -4.797784939e-12 0)
(3 -2.120012116e-10 0)
(2.999999995 -1.320578298e-08 0)
(2.999999886 -2.942200408e-07 0)
(3 -2.341071542e-14 0)
(3 -2.980454005e-14 0)
(3 -1.830868361e-14 0)
(3 -4.879583328e-15 0)
(3 1.317745164e-14 0)
(3 2.961877894e-14 0)
(3 3.899967911e-14 0)
(3 3.660405439e-14 0)
(3 2.733954505e-14 0)
(3 2.360219904e-14 0)
(3 1.211908119e-14 0)
(3 -2.199454404e-15 0)
(3 -5.465287755e-15 0)
(3 -2.897518508e-15 0)
(3 -1.966257826e-15 0)
(3 3.206457892e-15 0)
(3 8.141617547e-15 0)
(3 1.494075121e-14 0)
(3 2.605121166e-14 0)
(3 3.787636762e-14 0)
(3 4.591360161e-14 0)
(3 4.291412506e-14 0)
(3 3.423333287e-14 0)
(3 2.750262772e-14 0)
(3 2.543649304e-14 0)
(3 2.580405107e-14 0)
(3 -1.343725049e-14 0)
(3 -3.948638102e-12 0)
(3 -2.74973846e-10 0)
(2.999999996 -1.098891586e-08 0)
(2.999999866 -3.412103765e-07 0)
(2.999997384 -6.841159964e-06 0)
(3 -1.09455394e-14 0)
(3 -2.170905461e-14 0)
(3 -2.349813941e-14 0)
(3 -1.321655747e-14 0)
(3 -9.360397937e-16 0)
(3 2.127770598e-14 0)
(3 3.964273524e-14 0)
(3 3.791659633e-14 0)
(3 2.711810777e-14 0)
(3 1.791826132e-14 0)
(3 5.119173245e-15 0)
(3 -1.238459858e-16 0)
(3 -4.113100761e-15 0)
(3 -2.488462517e-15 0)
(3 1.805356074e-16 0)
(3 4.990546637e-15 0)
(3 1.369362246e-14 0)
(3 1.728596406e-14 0)
(3 2.928161109e-14 0)
(3 3.349972583e-14 0)
(3 3.98479531e-14 0)
(3 4.399935407e-14 0)
(3 4.086961218e-14 0)
(3 3.634285598e-14 0)
(3 3.687357051e-14 0)
(3 2.819175285e-15 0)
(3 -4.998898719e-12 0)
(3 -2.189847615e-10 0)
(2.999999995 -1.413834203e-08 0)
(2.999999883 -3.060899194e-07 0)
(2.999997134 -7.252564324e-06 0)
(2.999962262 -9.930309843e-05 0)
(3 -8.339076648e-15 0)
(3 -1.385004351e-14 0)
(3 -1.898320499e-14 0)
(3 -9.280155776e-15 0)
(3 -1.271916198e-17 0)
(3 1.101964234e-14 0)
(3 2.966819959e-14 0)
(3 3.262644087e-14 0)
(3 2.843197009e-14 0)
(3 1.31140114e-14 0)
(3 1.575949527e-15 0)
(3 -8.485678314e-16 0)
(3 -6.040070321e-16 0)
(3 -1.093143909e-15 0)
(3 1.038591804e-15 0)
(3 1.024741334e-14 0)
(3 1.916173329e-14 0)
(3 1.6650371e-14 0)
(3 2.330364332e-14 0)
(3 3.262169239e-14 0)
(3 3.687787112e-14 0)
(3 4.357681102e-14 0)
(3 4.6717455e-14 0)
(3 3.642913235e-14 0)
(3 -8.242929916e-15 0)
(3 -4.096721591e-12 0)
(3 -2.756011027e-10 0)
(2.999999996 -1.170772133e-08 0)
(2.999999862 -3.521191963e-07 0)
(2.999997191 -7.423163271e-06 0)
(2.999962579 -9.442859837e-05 0)
(2.999602181 -0.001036580304 0)
(3 -1.148306662e-15 0)
(3 -4.364344528e-15 0)
(3 -1.017053191e-14 0)
(3 -2.445237246e-16 0)
(3 7.790615109e-15 0)
(3 1.063040867e-14 0)
(3 2.134631539e-14 0)
(3 3.581978982e-14 0)
(3 3.144533038e-14 0)
(3 1.977847584e-14 0)
(3 1.03039387e-14 0)
(3 1.921010913e-15 0)
(3 3.22306816e-15 0)
(3 2.971603718e-15 0)
(3 4.225984466e-15 0)
(3 1.459246153e-14 0)
(3 1.921276956e-14 0)
(3 1.661897323e-14 0)
(3 1.445842028e-14 0)
(3 2.360225723e-14 0)
(3 2.714587483e-14 0)
(3 3.49791511e-14 0)
(3 3.46197702e-14 0)
(3 -7.919077006e-15 0)
(3 -5.149142825e-12 0)
(3 -2.253304625e-10 0)
(2.999999994 -1.468021038e-08 0)
(2.999999881 -3.104096282e-07 0)
(2.999996962 -7.705962462e-06 0)
(2.999960138 -0.0001053397614 0)
(2.99963664 -0.0009282693654 0)
(2.99710449 -0.007248333607 0)
(3 -3.814340227e-15 0)
(3 -7.069034612e-15 0)
(3 -8.913521074e-15 0)
(3 -1.383927501e-15 0)
(3 8.532817566e-15 0)
(3 1.470071918e-14 0)
(3 2.026968041e-14 0)
(3 3.795983881e-14 0)
(3 3.826912022e-14 0)
(3 2.110082261e-14 0)
(3 1.530977106e-14 0)
(3 9.28261166e-15 0)
(3 3.729918725e-15 0)
(3 2.431235066e-16 0)
(3 3.055725663e-15 0)
(3 1.123158459e-14 0)
(3 1.285478849e-14 0)
(3 9.202832009e-15 0)
(3 9.329824801e-15 0)
(3 1.387395569e-14 0)
(3 2.727341304e-14 0)
(3 2.755535911e-14 0)
(3 -2.076967081e-14 0)
(3 -4.292736992e-12 0)
(3 -2.830960701e-10 0)
(2.999999995 -1.226284177e-08 0)
(2.999999859 -3.636379047e-07 0)
(2.99999709 -7.712734669e-06 0)
(2.999961709 -9.625326032e-05 0)
(2.999578472 -0.001094141546 0)
(2.997614186 -0.006273227311 0)
(2.986682068 -0.03111396167 0)
(3 -3.66425248e-15 0)
(3 -4.909721292e-15 0)
(3 -7.241539206e-16 0)
(3 1.979337123e-15 0)
(3 5.728210505e-15 0)
(3 1.20289717e-14 0)
(3 1.707728568e-14 0)
(3 3.324088724e-14 0)
(3 4.054889257e-14 0)
(3 2.106889058e-14 0)
(3 1.530180186e-14 0)
(3 4.91693996e-15 0)
(3 -6.319848328e-15 0)
(3 -5.366060339e-15 0)
(3 -5.802951414e-15 0)
(3 7.458830816e-17 0)
(3 2.21692595e-15 0)
(3 2.278698115e-15 0)
(3 5.490969381e-15 0)
(3 2.010793553e-14 0)
(3 3.207967866e-14 0)
(3 -1.385491313e-14 0)
(3 -5.330902141e-12 0)
(3 -2.345261542e-10 0)
(2.999999994 -1.524978123e-08 0)
(2.999999879 -3.170061194e-07 0)
(2.999996762 -8.325612055e-06 0)
(2.999960042 -0.0001059053954 0)
(2.999626907 -0.0009525655489 0)
(2.996986941 -0.007509753625 0)
(2.990231752 -0.02641208514 0)
(2.961550317 -0.09263027113 0)
(3 4.35764812e-15 0)
(3 6.932483526e-15 0)
(3 8.738276983e-15 0)
(3 7.29204652e-15 0)
(3 9.642703492e-15 0)
(3 1.119388626e-14 0)
(3 1.779173784e-14 0)
(3 2.527047314e-14 0)
(3 3.478721937e-14 0)
(3 2.527741428e-14 0)
(3 1.412989254e-14 0)
(3 8.913695762e-15 0)
(3 -2.168905059e-15 0)
(3 -1.096905542e-14 0)
(3 -1.017677545e-14 0)
(3 -5.8070018e-15 0)
(3 2.903065306e-15 0)
(3 5.615957451e-15 0)
(3 9.950542769e-15 0)
(3 2.112473807e-14 0)
(3 -3.178865562e-14 0)
(3 -4.502446123e-12 0)
(3 -2.913186673e-10 0)
(2.999999995 -1.277099003e-08 0)
(2.999999856 -3.747648517e-07 0)
(2.999996984 -8.024236197e-06 0)
(2.999960267 -9.9930865e-05 0)
(2.999567214 -0.001136841704 0)
(2.997619528 -0.006247120108 0)
(2.986291597 -0.03208407853 0)
(2.973014678 -0.07758551756 0)
(2.937238895 -0.1708616031 0)
(3 5.40324854e-15 0)
(3 1.18855676e-14 0)
(3 1.512047568e-14 0)
(3 1.555576902e-14 0)
(3 1.773838771e-14 0)
(3 1.781518186e-14 0)
(3 2.043914669e-14 0)
(3 1.903225844e-14 0)
(3 2.527403252e-14 0)
(3 1.855991862e-14 0)
(3 8.752600802e-15 0)
(3 3.784432088e-15 0)
(3 6.472557449e-15 0)
(3 -5.21106301e-15 0)
(3 -8.275734967e-15 0)
(3 -3.102019388e-15 0)
(3 5.469980532e-15 0)
(3 1.643262134e-14 0)
(3 1.532915916e-14 0)
(3 -5.029670165e-14 0)
(3 -5.512671136e-12 0)
(3 -2.432300099e-10 0)
(2.999999994 -1.571115833e-08 0)
(2.999999877 -3.234640028e-07 0)
(2.999996565 -8.950047461e-06 0)
(2.999960402 -0.0001051692811 0)
(2.999601081 -0.001014703501 0)
(2.997013101 -0.007547034139 0)
(2.990055904 -0.02677214974 0)
(2.960990119 -0.0936587998 0)
(2.954920477 -0.1360563803 0)
(2.914170007 -0.2348558321 0)
(3 1.131438371e-14 0)
(3 1.633006757e-14 0)
(3 1.784920512e-14 0)
(3 2.509846479e-14 0)
(3 2.326141484e-14 0)
(3 2.187853256e-14 0)
(3 2.004419645e-14 0)
(3 1.578359532e-14 0)
(3 2.105260325e-14 0)
(3 1.762171104e-14 0)
(3 2.115991143e-14 0)
(3 1.986936071e-14 0)
(3 2.078441718e-14 0)
(3 1.297464462e-14 0)
(3 -5.788356481e-15 0)
(3 -3.420362646e-15 0)
(3 1.493305385e-14 0)
(3 1.936707012e-14 0)
(3 -5.19339629e-14 0)
(3 -4.723064315e-12 0)
(3 -3.019370793e-10 0)
(2.999999995 -1.317394962e-08 0)
(2.999999853 -3.849855858e-07 0)
(2.999996879 -8.357403309e-06 0)
(2.999958936 -0.0001038019484 0)
(2.999560811 -0.001168289171 0)
(2.997541461 -0.006380423033 0)
(2.986286469 -0.03237247594 0)
(2.972263106 -0.07872099256 0)
(2.936249046 -0.1722000033 0)
(2.927257291 -0.1813904462 0)
(2.906335242 -0.2202130962 0)
(3 9.106410358e-15 0)
(3 1.471646733e-14 0)
(3 2.252601594e-14 0)
(3 2.125094889e-14 0)
(3 2.038471965e-14 0)
(3 1.694702778e-14 0)
(3 1.013060045e-14 0)
(3 3.891957169e-15 0)
(3 3.873660859e-15 0)
(3 9.891288943e-15 0)
(3 1.863382394e-14 0)
(3 2.165358868e-14 0)
(3 2.157770203e-14 0)
(3 2.180378368e-14 0)
(3 8.824701733e-15 0)
(3 8.52579172e-15 0)
(3 1.405239519e-14 0)
(3 -5.193943557e-14 0)
(3 -5.701601668e-12 0)
(3 -2.567206685e-10 0)
(2.999999994 -1.609343483e-08 0)
(2.999999874 -3.317125195e-07 0)
(2.999996385 -9.537605778e-06 0)
(2.999960849 -0.0001043067373 0)
(2.999571779 -0.001092605335 0)
(2.997072817 -0.007500121076 0)
(2.989612105 -0.02761371412 0)
(2.960684186 -0.0934804849 0)
(2.953317334 -0.1386247408 0)
(2.913570618 -0.2368387295 0)
(2.896299135 -0.2375716691 0)
(2.899019454 -0.2395193683 0)
(3 1.1342415e-14 0)
(3 1.926329538e-14 0)
(3 2.393682326e-14 0)
(3 2.593518602e-14 0)
(3 2.40442909e-14 0)
(3 1.369866883e-14 0)
(3 9.688762051e-15 0)
(3 5.533331945e-15 0)
(3 -9.965205869e-16 0)
(3 5.21391732e-15 0)
(3 2.354882649e-14 0)
(3 2.305433627e-14 0)
(3 2.064649209e-14 0)
(3 1.973622065e-14 0)
(3 1.378927345e-14 0)
(3 1.236417941e-14 0)
(3 -6.179847021e-14 0)
(3 -5.091293318e-12 0)
(3 -3.208067027e-10 0)
(2.999999995 -1.353883085e-08 0)
(2.999999847 -3.98394948e-07 0)
(2.999996784 -8.647771916e-06 0)
(2.999957874 -0.0001073452319 0)
(2.999552511 -0.001204231902 0)
(2.997476473 -0.00648612954 0)
(2.98623545 -0.03287707703 0)
(2.971410416 -0.08009437125 0)
(2.935066652 -0.1715333121 0)
(2.927251971 -0.1815196556 0)
(2.905985302 -0.2234762794 0)
(2.901396384 -0.2490963539 0)
(2.899091345 -0.2478159095 0)
(3 2.173349283e-14 0)
(3 2.737900827e-14 0)
(3 2.349494466e-14 0)
(3 2.41023905e-14 0)
(3 2.123161999e-14 0)
(3 1.476009066e-14 0)
(3 8.035844853e-15 0)
(3 3.290690705e-15 0)
(3 2.545917416e-15 0)
(3 1.301124308e-14 0)
(3 2.211184242e-14 0)
(3 2.675803879e-14 0)
(3 2.898186323e-14 0)
(3 2.634823521e-14 0)
(3 1.594603943e-14 0)
(3 -7.477422558e-14 0)
(3 -6.039033941e-12 0)
(3 -2.760249157e-10 0)
(2.999999994 -1.648152893e-08 0)
(2.999999869 -3.439639434e-07 0)
(2.999996225 -1.002502842e-05 0)
(2.999961168 -0.0001035876829 0)
(2.999541966 -0.001178344243 0)
(2.997162685 -0.007371820654 0)
(2.989096627 -0.02863874398 0)
(2.960367463 -0.09338013143 0)
(2.952156152 -0.141281037 0)
(2.91253263 -0.2375460526 0)
(2.898082158 -0.23552338 0)
(2.899593382 -0.2403803337 0)
(2.898505807 -0.245891353 0)
(2.898246327 -0.2495578814 0)
(3 1.986413545e-14 0)
(3 2.559794122e-14 0)
(3 2.286980924e-14 0)
(3 1.624030538e-14 0)
(3 1.255477118e-14 0)
(3 9.12313935e-15 0)
(3 -9.339332989e-16 0)
(3 -4.976975051e-15 0)
(3 -3.706864122e-16 0)
(3 2.369966076e-15 0)
(3 7.639535851e-15 0)
(3 2.45584243e-14 0)
(3 3.422148281e-14 0)
(3 3.060659477e-14 0)
(3 -4.559224474e-14 0)
(3 -5.477792216e-12 0)
(3 -3.435474118e-10 0)
(2.999999995 -1.386115044e-08 0)
(2.99999984 -4.165517638e-07 0)
(2.999996695 -8.889475845e-06 0)
(2.999956564 -0.000111616071 0)
(2.999545651 -0.001235844525 0)
(2.997421139 -0.006573903965 0)
(2.986232588 -0.03347782259 0)
(2.970569037 -0.08122180689 0)
(2.933677035 -0.1707929397 0)
(2.928099878 -0.1822966829 0)
(2.905904082 -0.2267674767 0)
(2.901652512 -0.2504377198 0)
(2.898673852 -0.2478000775 0)
(2.895687124 -0.247546784 0)
(2.894599201 -0.2475157282 0)
(3 1.570673655e-14 0)
(3 2.155610444e-14 0)
(3 1.960208457e-14 0)
(3 1.343714807e-14 0)
(3 9.861895189e-15 0)
(3 2.951121605e-15 0)
(3 -5.411167424e-15 0)
(3 -1.162760465e-14 0)
(3 -1.02895226e-14 0)
(3 6.400474632e-16 0)
(3 1.017068684e-14 0)
(3 2.349647486e-14 0)
(3 2.660983583e-14 0)
(3 -5.510653499e-14 0)
(3 -6.244844142e-12 0)
(3 -2.985223797e-10 0)
(2.999999994 -1.685767551e-08 0)
(2.999999862 -3.592179618e-07 0)
(2.999996076 -1.043771283e-05 0)
(2.999960891 -0.0001043679843 0)
(2.999511362 -0.001271293742 0)
(2.997274889 -0.00721421634 0)
(2.988439485 -0.02999764779 0)
(2.960586866 -0.09253692883 0)
(2.950174899 -0.144206379 0)
(2.911443953 -0.2381624393 0)
(2.900583925 -0.2336257384 0)
(2.900494602 -0.2412005684 0)
(2.898465435 -0.2469081622 0)
(2.897519731 -0.2496842627 0)
(2.89426378 -0.2482004781 0)
(2.893885019 -0.2470866493 0)
(3 1.779255846e-14 0)
(3 1.946416626e-14 0)
(3 1.572188278e-14 0)
(3 1.422299708e-14 0)
(3 7.569236945e-15 0)
(3 -5.24451704e-15 0)
(3 -7.453456177e-15 0)
(3 -1.757344844e-14 0)
(3 -1.383229296e-14 0)
(3 -2.71286196e-15 0)
(3 1.421868956e-14 0)
(3 2.363941344e-14 0)
(3 -4.485460519e-14 0)
(3 -6.008674908e-12 0)
(3 -3.701515021e-10 0)
(2.999999995 -1.419646222e-08 0)
(2.99999983 -4.384254049e-07 0)
(2.999996614 -9.079697997e-06 0)
(2.999954882 -0.0001164623758 0)
(2.99953835 -0.001266068502 0)
(2.997344792 -0.006736945691 0)
(2.986317032 -0.0342280045 0)
(2.969719501 -0.08198100173 0)
(2.932554139 -0.169370805 0)
(2.9273885 -0.1852029786 0)
(2.906162841 -0.2310031736 0)
(2.901923355 -0.2508248875 0)
(2.898834332 -0.2477666199 0)
(2.895022031 -0.2474994961 0)
(2.894164787 -0.2474714178 0)
(2.893679673 -0.2472253696 0)
(2.893866602 -0.2458023185 0)
(3 2.122614481e-14 0)
(3 1.988966264e-14 0)
(3 1.791080009e-14 0)
(3 1.44529391e-14 0)
(3 2.774941326e-15 0)
(3 -5.877024337e-15 0)
(3 -1.01772751e-14 0)
(3 -1.131784708e-14 0)
(3 -1.005289041e-14 0)
(3 -3.575562561e-16 0)
(3 1.32044845e-14 0)
(3 -6.918976083e-14 0)
(3 -6.577835387e-12 0)
(3 -3.278770771e-10 0)
(2.999999993 -1.722405738e-08 0)
(2.999999854 -3.778465652e-07 0)
(2.999995946 -1.072840486e-05 0)
(2.999960099 -0.0001060607424 0)
(2.999482961 -0.001355997745 0)
(2.997389181 -0.007016536664 0)
(2.987582125 -0.03193148857 0)
(2.961475392 -0.09084151201 0)
(2.947697678 -0.1478677191 0)
(2.910646651 -0.2384266963 0)
(2.903258289 -0.2325159202 0)
(2.901359228 -0.2417271184 0)
(2.898374363 -0.247294159 0)
(2.896894621 -0.2495584417 0)
(2.893858835 -0.2480384336 0)
(2.893341276 -0.247316745 0)
(2.893590105 -0.2460938079 0)
(2.895164929 -0.2433070116 0)
(3 2.37024867e-14 0)
(3 2.074932591e-14 0)
(3 1.747525591e-14 0)
(3 9.966938715e-15 0)
(3 -4.546415934e-15 0)
(3 -1.065607946e-14 0)
(3 -1.027537186e-14 0)
(3 -5.904780086e-15 0)
(3 -9.93059959e-16 0)
(3 3.503375206e-15 0)
(3 -6.337202399e-14 0)
(3 -6.720246543e-12 0)
(3 -4.002562889e-10 0)
(2.999999994 -1.453199435e-08 0)
(2.99999982 -4.635914347e-07 0)
(2.999996549 -9.170807109e-06 0)
(2.999952642 -0.0001219962962 0)
(2.999532132 -0.001285178391 0)
(2.997272458 -0.006899270815 0)
(2.98645337 -0.03487065106 0)
(2.968845846 -0.08246005448 0)
(2.931457879 -0.1682986577 0)
(2.927514117 -0.1878117736 0)
(2.906732014 -0.2356741736 0)
(2.902144065 -0.250608695 0)
(2.897794564 -0.2474301866 0)
(2.894154828 -0.2474270746 0)
(2.893746405 -0.2476004181 0)
(2.893273314 -0.2474992618 0)
(2.89348803 -0.2462729358 0)
(2.894962616 -0.2436462264 0)
(2.897885873 -0.239461082 0)
(3 2.216971466e-14 0)
(3 1.892577341e-14 0)
(3 1.633224012e-14 0)
(3 5.268907291e-15 0)
(3 -3.221919956e-15 0)
(3 -8.877398481e-15 0)
(3 -6.224581474e-15 0)
(3 -3.666891891e-15 0)
(3 -1.581896536e-16 0)
(3 -1.116637843e-13 0)
(3 -6.835609726e-12 0)
(3 -3.589633209e-10 0)
(2.999999993 -1.759754402e-08 0)
(2.999999845 -3.992427238e-07 0)
(2.999995837 -1.093643141e-05 0)
(2.999958597 -0.0001092852662 0)
(2.999458507 -0.001422553337 0)
(2.997473579 -0.006865018243 0)
(2.986748048 -0.03398964032 0)
(2.963177623 -0.08780759871 0)
(2.944146376 -0.1526445884 0)
(2.909763532 -0.2383539459 0)
(2.906282269 -0.2314517102 0)
(2.902022867 -0.2416408498 0)
(2.898034551 -0.247941515 0)
(2.895675824 -0.249151451 0)
(2.89311456 -0.2480144708 0)
(2.892937781 -0.2477284261 0)
(2.893378669 -0.2467511904 0)
(2.895003498 -0.244273079 0)
(2.897796405 -0.2401295949 0)
(2.901679285 -0.2340268905 0)
(3 1.552771021e-14 0)
(3 1.009633975e-14 0)
(3 7.545151949e-15 0)
(3 -2.041562786e-15 0)
(3 -3.383296029e-15 0)
(3 -2.983117048e-15 0)
(3 -5.49105492e-15 0)
(3 -3.662968534e-15 0)
(3 -7.855396775e-14 0)
(3 -7.370282058e-12 0)
(3 -4.257733276e-10 0)
(2.999999994 -1.482400828e-08 0)
(2.999999808 -4.922790575e-07 0)
(2.99999649 -9.242521875e-06 0)
(2.999949408 -0.0001299512786 0)
(2.999525132 -0.00130102892 0)
(2.997163549 -0.00716117738 0)
(2.98666268 -0.03534519479 0)
(2.968154084 -0.08289493296 0)
(2.930763319 -0.1674525174 0)
(2.927329973 -0.1900658732 0)
(2.907142053 -0.2401633143 0)
(2.901778644 -0.250161077 0)
(2.897290549 -0.2471272262 0)
(2.893607431 -0.2473756393 0)
(2.89322555 -0.2476415827 0)
(2.892780872 -0.2480110393 0)
(2.893225295 -0.2471428674 0)
(2.894856643 -0.2449001157 0)
(2.897765829 -0.2407743324 0)
(2.901477547 -0.2348161723 0)
(2.905464001 -0.227505032 0)
(3 1.104975497e-14 0)
(3 4.411821214e-15 0)
(3 -2.464778256e-15 0)
(3 -2.487922662e-15 0)
(3 2.443601396e-17 0)
(3 4.476003855e-16 0)
(3 -9.73754008e-15 0)
(3 -1.41776875e-13 0)
(3 -7.0680526e-12 0)
(3 -3.951752076e-10 0)
(2.999999993 -1.809204767e-08 0)
(2.999999836 -4.22898987e-07 0)
(2.999995737 -1.111608533e-05 0)
(2.999956289 -0.0001145262575 0)
(2.99943252 -0.001482585538 0)
(2.997481561 -0.006883072241 0)
(2.985945959 -0.03620062593 0)
(2.96540166 -0.08451083475 0)
(2.940261828 -0.1587376901 0)
(2.909503328 -0.2373757669 0)
(2.908832564 -0.2297488636 0)
(2.902478916 -0.2405927084 0)
(2.897237099 -0.2484832416 0)
(2.894509592 -0.2488866864 0)
(2.892550209 -0.2482103767 0)
(2.892587028 -0.248070453 0)
(2.893204581 -0.2475664999 0)
(2.894876595 -0.2456139208 0)
(2.897634548 -0.2417164778 0)
(2.90138602 -0.2354309488 0)
(2.905123208 -0.2283466383 0)
(2.908968334 -0.2198443915 0)
(3 1.642237726e-15 0)
(3 1.724529532e-15 0)
(3 -1.711119407e-15 0)
(3 2.559400697e-16 0)
(3 4.211859481e-15 0)
(3 -3.744739649e-15 0)
(3 -8.611868577e-14 0)
(3 -8.298089719e-12 0)
(3 -4.586943321e-10 0)
(2.999999994 -1.549805246e-08 0)
(2.999999794 -5.270450578e-07 0)
(2.99999643 -9.341046085e-06 0)
(2.999945632 -0.0001393102849 0)
(2.999517646 -0.001309817748 0)
(2.996982254 -0.00754251047 0)
(2.986784208 -0.03583684213 0)
(2.967546788 -0.08397294357 0)
(2.930612175 -0.1670513485 0)
(2.928038326 -0.1925141445 0)
(2.906884564 -0.2448160839 0)
(2.900332868 -0.2499336093 0)
(2.896702967 -0.2462581061 0)
(2.893125243 -0.2474522311 0)
(2.89280228 -0.2479823635 0)
(2.89250157 -0.2484389599 0)
(2.89308698 -0.2478334265 0)
(2.89479103 -0.2460426019 0)
(2.897596619 -0.2423671967 0)
(2.901165951 -0.2363639026 0)
(2.904920973 -0.2288269199 0)
(2.908354111 -0.2210487404 0)
(2.912335484 -0.2108534723 0)
(3 -1.526067543e-15 0)
(3 2.711151596e-16 0)
(3 3.752750444e-15 0)
(3 5.137796299e-15 0)
(3 7.301696107e-15 0)
(3 -1.288535476e-13 0)
(3 -7.553056321e-12 0)
(3 -4.478614239e-10 0)
(2.999999993 -1.899081575e-08 0)
(2.999999825 -4.518927458e-07 0)
(2.999995626 -1.13299572e-05 0)
(2.999953641 -0.0001208162898 0)
(2.999410457 -0.001524889914 0)
(2.997426108 -0.00700341784 0)
(2.985173547 -0.03801453488 0)
(2.967592008 -0.08142614547 0)
(2.935730476 -0.167006257 0)
(2.910344892 -0.234693641 0)
(2.912519684 -0.2278855421 0)
(2.901340673 -0.2400649767 0)
(2.896056934 -0.248428442 0)
(2.894209588 -0.2488229895 0)
(2.892468246 -0.2485077279 0)
(2.892602366 -0.2485053656 0)
(2.89326198 -0.2482224674 0)
(2.894896355 -0.2464828429 0)
(2.897515697 -0.2428748311 0)
(2.901013112 -0.236985617 0)
(2.904754099 -0.2293061491 0)
(2.908015871 -0.2217535685 0)
(2.911654504 -0.2123931781 0)
(2.915735341 -0.2014582873 0)
(3 -1.284594896e-15 0)
(3 1.650450786e-15 0)
(3 4.468698243e-15 0)
(3 4.601078544e-15 0)
(3 -7.762664075e-14 0)
(3 -9.486130057e-12 0)
(3 -4.975542453e-10 0)
(2.999999993 -1.655132398e-08 0)
(2.99999978 -5.65121085e-07 0)
(2.999996358 -9.471825881e-06 0)
(2.999941841 -0.0001487331334 0)
(2.999511996 -0.001311366386 0)
(2.99676391 -0.007977487312 0)
(2.986923237 -0.03583070755 0)
(2.966667258 -0.08578004674 0)
(2.930761792 -0.1661456145 0)
(2.927530294 -0.1945989621 0)
(2.907202611 -0.2487102219 0)
(2.899586169 -0.2491727408 0)
(2.896367346 -0.2463261055 0)
(2.892686427 -0.2472723444 0)
(2.892492041 -0.2484169883 0)
(2.892482732 -0.2490624663 0)
(2.893299475 -0.2486471475 0)
(2.89493476 -0.2470027217 0)
(2.89755718 -0.2432095757 0)
(2.900794377 -0.2375921072 0)
(2.904493277 -0.2299024587 0)
(2.907709228 -0.2221651632 0)
(2.911150891 -0.2134780462 0)
(2.915489034 -0.2021987125 0)
(2.919266158 -0.1932033019 0)
(3 -1.783641242e-15 0)
(3 4.798649241e-15 0)
(3 4.908102369e-15 0)
(3 -1.417108189e-13 0)
(3 -8.12598039e-12 0)
(3 -5.063706269e-10 0)
(2.999999992 -1.993268758e-08 0)
(2.999999813 -4.814114263e-07 0)
(2.999995508 -1.158089418e-05 0)
(2.999951084 -0.0001271676773 0)
(2.999393542 -0.001553230073 0)
(2.997330269 -0.007211206697 0)
(2.984548352 -0.03916460179 0)
(2.969332653 -0.07912441365 0)
(2.932100244 -0.1750962017 0)
(2.911491282 -0.229740665 0)
(2.914295927 -0.2265449058 0)
(2.90095277 -0.2397335535 0)
(2.89518559 -0.2488874702 0)
(2.893442373 -0.249114519 0)
(2.89210168 -0.2489016008 0)
(2.892469908 -0.2491797827 0)
(2.89337523 -0.2490067341 0)
(2.894973127 -0.2473704191 0)
(2.897441037 -0.2436814439 0)
(2.900653801 -0.2379557438 0)
(2.904083875 -0.2307543993 0)
(2.907495397 -0.2223440631 0)
(2.910711328 -0.2141237329 0)
(2.91497002 -0.2035917319 0)
(2.919130207 -0.1936261964 0)
(2.923067172 -0.1864242145 0)
(3 -5.765636343e-16 0)
(3 8.418999122e-15 0)
(3 -7.9961243e-14 0)
(3 -1.065084089e-11 0)
(3 -5.34981966e-10 0)
(2.999999993 -1.775643667e-08 0)
(2.999999767 -6.00128489e-07 0)
(2.999996283 -9.628071451e-06 0)
(2.999938282 -0.0001578523369 0)
(2.999507487 -0.001312917454 0)
(2.996528306 -0.00847604419 0)
(2.987015274 -0.03561625605 0)
(2.965614026 -0.08821359353 0)
(2.931889763 -0.1642376193 0)
(2.926591544 -0.1977164665 0)
(2.90671093 -0.2506219666 0)
(2.899515772 -0.2482464452 0)
(2.896183877 -0.2462665297 0)
(2.892202421 -0.2474516042 0)
(2.892036412 -0.2491979317 0)
(2.892559473 -0.2498798633 0)
(2.893389474 -0.2495456132 0)
(2.89500501 -0.2477919219 0)
(2.897450289 -0.2440796085 0)
(2.900445904 -0.2385277997 0)
(2.903724181 -0.2313285055 0)
(2.906986064 -0.2231216915 0)
(2.910393051 -0.2142719216 0)
(2.914291663 -0.204990567 0)
(2.918962765 -0.1942855501 0)
(2.923240801 -0.1860426052 0)
(2.928450896 -0.1763416075 0)
(3 8.359759202e-16 0)
(3 -1.71992894e-13 0)
(3 -8.831123642e-12 0)
(3 -5.682478387e-10 0)
(2.999999992 -2.091322077e-08 0)
(2.9999998 -5.128223456e-07 0)
(2.99999539 -1.187207851e-05 0)
(2.999948719 -0.0001334635787 0)
(2.999379622 -0.001576204785 0)
(2.997209501 -0.007500694755 0)
(2.984018814 -0.0399851053 0)
(2.970125732 -0.07847063637 0)
(2.930171321 -0.1817410069 0)
(2.914092446 -0.2234221891 0)
(2.914935635 -0.2264815085 0)
(2.899830235 -0.2394525417 0)
(2.894918809 -0.2493749679 0)
(2.893269074 -0.2494831418 0)
(2.891376971 -0.2492957317 0)
(2.892819585 -0.2497340403 0)
(2.893398577 -0.2496096842 0)
(2.8949229 -0.2481687292 0)
(2.8973624 -0.244691056 0)
(2.900341122 -0.2391614376 0)
(2.9034097 -0.2319592837 0)
(2.90641345 -0.224061121 0)
(2.909793064 -0.2151302137 0)
(2.913827925 -0.2055081564 0)
(2.91851665 -0.1954678463 0)
(2.923291395 -0.1857825794 0)
(2.928103828 -0.177122192 0)
(2.934264853 -0.1644289571 0)
(3 -8.537609751e-14 0)
(3 -1.209489392e-11 0)
(3 -5.795773566e-10 0)
(2.999999992 -1.924086418e-08 0)
(2.999999755 -6.339562344e-07 0)
(2.999996184 -9.85403912e-06 0)
(2.999935013 -0.0001666091777 0)
(2.999503051 -0.001317500136 0)
(2.996302503 -0.008976869944 0)
(2.987025272 -0.03553611231 0)
(2.964451924 -0.09101472651 0)
(2.933299492 -0.1624773178 0)
(2.925998776 -0.2011022595 0)
(2.906425822 -0.2518772591 0)
(2.899871126 -0.2471448994 0)
(2.895858979 -0.2465339213 0)
(2.891737973 -0.2475038702 0)
(2.891836035 -0.2499682428 0)
(2.892466451 -0.2503385506 0)
(2.893544151 -0.2496244446 0)
(2.894965288 -0.2482035574 0)
(2.897291486 -0.2449569633 0)
(2.900022516 -0.2399431793 0)
(2.903054342 -0.2326660125 0)
(2.905823155 -0.2250016859 0)
(2.909125145 -0.2162898563 0)
(2.913462798 -0.2057946389 0)
(2.918051301 -0.1962360538 0)
(2.923016476 -0.1866625432 0)
(2.928029514 -0.1768576689 0)
(2.933884447 -0.1656588004 0)
(2.939349867 -0.1528001206 0)
(3 -9.608268132e-12 0)
(3 -6.35728222e-10 0)
(2.999999991 -2.209393178e-08 0)
(2.999999786 -5.482986977e-07 0)
(2.999995262 -1.220511315e-05 0)
(2.999946526 -0.0001393004768 0)
(2.999367479 -0.001598465473 0)
(2.997089526 -0.00778925571 0)
(2.983606701 -0.04049334811 0)
(2.970059692 -0.07925634999 0)
(2.929578477 -0.1868428338 0)
(2.917485922 -0.2168504264 0)
(2.915124976 -0.2280688887 0)
(2.898174016 -0.2403538083 0)
(2.89464204 -0.2500603393 0)
(2.893065136 -0.2498088641 0)
(2.891137234 -0.2498058443 0)
(2.892516687 -0.2502276377 0)
(2.893688194 -0.2497013185 0)
(2.894838217 -0.2484311301 0)
(2.897101835 -0.2453481012 0)
(2.899761838 -0.2404667238 0)
(2.902534332 -0.2336794663 0)
(2.905431645 -0.2254683459 0)
(2.908411444 -0.2175793347 0)
(2.912904034 -0.2068938772 0)
(2.917613231 -0.1966895436 0)
(2.92241066 -0.1881878037 0)
(2.928102416 -0.1767128121 0)
(2.933739228 -0.1651685753 0)
(2.939237063 -0.1539247951 0)
(2.943344726 -0.1433727267 0)
(3 -6.185294332e-10 0)
(2.999999992 -2.066509453e-08 0)
(2.999999742 -6.653322355e-07 0)
(2.999996051 -1.015475574e-05 0)
(2.999932163 -0.0001744326633 0)
(2.999497933 -0.001327193489 0)
(2.996110652 -0.009412011814 0)
(2.987097347 -0.03527561601 0)
(2.962999766 -0.09417614428 0)
(2.93428056 -0.1604767774 0)
(2.925957626 -0.2041502 0)
(2.906662183 -0.252245885 0)
(2.900759718 -0.2471145433 0)
(2.893845889 -0.247007178 0)
(2.890964071 -0.2478475666 0)
(2.891390639 -0.2502079955 0)
(2.892297532 -0.2507017248 0)
(2.893784615 -0.2498662824 0)
(2.894975452 -0.2484915393 0)
(2.896958003 -0.2455978217 0)
(2.899355873 -0.2409552244 0)
(2.90195193 -0.2345427446 0)
(2.904923825 -0.2262107663 0)
(2.908032068 -0.2180294447 0)
(2.912091628 -0.2088442299 0)
(2.917473903 -0.1969392503 0)
(2.922205569 -0.1883688833 0)
(2.927801756 -0.178007029 0)
(2.93389864 -0.1641919565 0)
(2.938506408 -0.1546550083 0)
(2.94323228 -0.1447977488 0)
(2.947052576 -0.1330360042 0)
(2.999999991 -2.291365483e-08 0)
(2.999999773 -5.782192017e-07 0)
(2.999995143 -1.250277799e-05 0)
(2.999944449 -0.0001445933168 0)
(2.999354444 -0.001627157839 0)
(2.996988837 -0.008052857373 0)
(2.983287649 -0.04083690235 0)
(2.969929313 -0.08033564845 0)
(2.928870015 -0.1897683898 0)
(2.919593966 -0.2124431665 0)
(2.913362445 -0.2303834203 0)
(2.898382361 -0.2416565119 0)
(2.895079614 -0.2509790573 0)
(2.891717466 -0.2500331015 0)
(2.889975849 -0.2500637923 0)
(2.892517884 -0.2503475179 0)
(2.893252481 -0.2501979322 0)
(2.894765545 -0.2491073459 0)
(2.89685528 -0.2462556257 0)
(2.89911758 -0.2415027093 0)
(2.901425039 -0.235234409 0)
(2.904243236 -0.2273148236 0)
(2.907610498 -0.218538026 0)
(2.911530712 -0.2100613392 0)
(2.917149892 -0.1983722873 0)
(2.922402326 -0.1875153741 0)
(2.927291899 -0.1794604345 0)