/*--------------------------------*- C++ -*----------------------------------*\
  =========                 |
  \\      /  F ield         | OpenFOAM: The Open Source CFD Toolbox
   \\    /   O peration     | Website:  https://openfoam.org
    \\  /    A nd           | Version:  7
     \\/     M anipulation  |
\*---------------------------------------------------------------------------*/
FoamFile
{
    version     2.0;
    format      ascii;
    class       volVectorField;
    location    "2";
    object      U;
}
// * * * * * * * * * * * * * * * * * * * * * * * * * * * * * * * * * * * * * //

dimensions      [0 1 -1 0 0 0 0];

internalField   nonuniform List<vector> 
2222
(
(3 -3.818300804e-15 0)
(3 -3.170933446e-15 0)
(3 -2.049844469e-15 0)
(3 -3.585867404e-16 0)
(3 2.045824557e-16 0)
(3 2.10919401e-15 0)
(3 1.947309941e-15 0)
(3 1.920115551e-15 0)
(3 2.306428389e-15 0)
(3 2.737573689e-15 0)
(3 1.297060274e-15 0)
(3 2.46637055e-16 0)
(3 1.214554335e-15 0)
(3 4.324452637e-16 0)
(3 -9.469263931e-16 0)
(3 -1.147110357e-16 0)
(3 1.247048393e-15 0)
(3 2.391257309e-15 0)
(3 3.602108027e-15 0)
(3 3.385605436e-15 0)
(3 2.628535887e-15 0)
(3 -5.893924061e-17 0)
(3 -1.439067142e-15 0)
(3 -1.428816162e-16 0)
(3 -4.898726919e-16 0)
(3 -1.026125957e-15 0)
(3 -9.231177469e-16 0)
(3 -1.009178936e-15 0)
(3 -7.333147423e-16 0)
(3 3.407705554e-16 0)
(3 1.349286267e-15 0)
(3 1.663926052e-15 0)
(3 5.171456372e-16 0)
(3 8.734463086e-17 0)
(3 6.789364887e-16 0)
(3 -1.1567516e-16 0)
(3 4.39125718e-16 0)
(3 4.209766857e-16 0)
(3 6.830748972e-16 0)
(3 6.135925897e-16 0)
(3 -5.082857215e-16 0)
(3 -2.88827421e-16 0)
(3 1.05381596e-15 0)
(3 2.461688382e-15 0)
(3 2.176117795e-15 0)
(3 -9.109174335e-16 0)
(3 -4.248241589e-15 0)
(3 -3.179901432e-15 0)
(3 -2.85236192e-15 0)
(3 -2.24222364e-15 0)
(3 -8.899453483e-16 0)
(3 -1.36326514e-15 0)
(3 -3.235604592e-15 0)
(3 -3.784830205e-15 0)
(3 -3.945902172e-15 0)
(3 -1.117625728e-15 0)
(3 2.109633286e-15 0)
(3 3.110395886e-15 0)
(3 2.167627435e-15 0)
(3 1.839689241e-17 0)
(3 -1.569682833e-15 0)
(3 -1.028861356e-15 0)
(3 2.707198941e-15 0)
(3 3.597273491e-15 0)
(3 1.051297552e-15 0)
(3 -9.928033542e-16 0)
(3 -2.535022485e-15 0)
(3 -1.7046563e-15 0)
(3 -1.550891046e-15 0)
(3 -1.42094835e-15 0)
(3 -7.234108986e-16 0)
(3 -2.771924616e-16 0)
(3 2.646590645e-15 0)
(3 4.526420391e-15 0)
(3 5.103857783e-15 0)
(3 3.795986103e-15 0)
(3 1.71821552e-15 0)
(3 -1.483914065e-15 0)
(3 -2.243637892e-15 0)
(3 -1.559449384e-15 0)
(3 -2.440066123e-15 0)
(3 -1.608929428e-15 0)
(3 -8.689942539e-16 0)
(3 3.521442351e-17 0)
(3 2.269396394e-15 0)
(3 2.592088651e-15 0)
(3 3.063632219e-15 0)
(3 3.741381709e-15 0)
(3 3.931857492e-15 0)
(3 6.354858693e-16 0)
(3 2.169348859e-16 0)
(3 -8.488950382e-17 0)
(3 -2.341171164e-16 0)
(3 4.340243652e-16 0)
(3 -2.785919758e-16 0)
(3 4.715362783e-16 0)
(3 1.14995808e-15 0)
(3 1.662092696e-15 0)
(3 1.845473596e-15 0)
(3 2.581828335e-15 0)
(3 3.117731468e-15 0)
(3 2.920464737e-15 0)
(3 2.84856012e-15 0)
(3 1.563153038e-15 0)
(3 9.236586995e-16 0)
(3 1.320693334e-16 0)
(3 2.837112648e-16 0)
(3 4.330062753e-16 0)
(3 1.156035215e-15 0)
(3 2.705883773e-15 0)
(3 4.740375509e-15 0)
(3 3.2067212e-15 0)
(3 -1.35442887e-16 0)
(3 -3.023955225e-15 0)
(3 -3.826663045e-15 0)
(3 -3.83187041e-15 0)
(3 -4.113692513e-15 0)
(3 -3.189354369e-15 0)
(3 -1.693141646e-15 0)
(3 -3.269106831e-15 0)
(3 -3.498852947e-15 0)
(3 -4.637526685e-15 0)
(3 -6.60307204e-15 0)
(3 -4.083803669e-15 0)
(3 1.08981618e-16 0)
(3 7.145971239e-16 0)
(3 4.919118656e-16 0)
(3 7.749953171e-16 0)
(3 4.812774396e-15 0)
(3 7.063763738e-15 0)
(3 7.994105045e-15 0)
(3 4.937334544e-15 0)
(3 5.470255733e-15 0)
(3 3.375664586e-15 0)
(3 2.805722317e-15 0)
(3 3.570667035e-15 0)
(3 1.623284589e-15 0)
(3 1.383349199e-15 0)
(3 1.856354426e-15 0)
(3 1.395293546e-15 0)
(3 9.001581643e-16 0)
(3 7.942300776e-16 0)
(3 -4.608408296e-16 0)
(3 -1.814960789e-15 0)
(3 -4.118458999e-15 0)
(3 -5.398434202e-15 0)
(3 -5.895262945e-15 0)
(3 -5.940832046e-15 0)
(3 -3.942576492e-15 0)
(3 -5.508483981e-16 0)
(3 3.094318738e-15 0)
(3 4.294955623e-15 0)
(3 4.36006436e-15 0)
(3 3.495155566e-15 0)
(3 4.167419337e-15 0)
(3 4.711449012e-15 0)
(3 3.698936347e-15 0)
(3 2.046457845e-16 0)
(3 2.78702753e-16 0)
(3 8.05978062e-16 0)
(3 1.673595273e-15 0)
(3 9.824735731e-16 0)
(3 1.589606982e-15 0)
(3 2.026362156e-15 0)
(3 2.303417201e-15 0)
(3 1.973910039e-15 0)
(3 1.441744419e-15 0)
(3 2.013393126e-15 0)
(3 1.359596723e-15 0)
(3 2.027494715e-15 0)
(3 2.458264472e-15 0)
(3 1.240220792e-15 0)
(3 -2.419224467e-17 0)
(3 -9.199175707e-17 0)
(3 1.977999404e-15 0)
(3 3.429287933e-15 0)
(3 1.806189752e-15 0)
(3 -6.11651976e-17 0)
(3 -4.459921986e-16 0)
(3 -4.379040696e-16 0)
(3 -1.513467621e-15 0)
(3 -1.364275586e-15 0)
(3 -1.572670258e-15 0)
(3 -1.117522101e-15 0)
(3 -1.590489132e-15 0)
(3 -1.259626598e-15 0)
(3 -8.365631482e-16 0)
(3 -1.985458994e-15 0)
(3 -4.014209291e-15 0)
(3 -6.444245846e-15 0)
(3 -5.779059221e-15 0)
(3 -3.399682165e-15 0)
(3 2.555625037e-16 0)
(3 2.419189339e-15 0)
(3 4.375022023e-15 0)
(3 4.998518823e-15 0)
(3 5.719179217e-15 0)
(3 6.631137702e-15 0)
(3 7.641520792e-15 0)
(3 7.446091853e-15 0)
(3 7.608936537e-15 0)
(3 7.212456138e-15 0)
(3 5.417185416e-15 0)
(3 3.40661448e-15 0)
(3 3.308246179e-15 0)
(3 2.59061401e-15 0)
(3 -4.820287174e-16 0)
(3 -2.16829094e-15 0)
(3 -2.06111251e-15 0)
(3 -1.405616297e-15 0)
(3 -1.428954273e-15 0)
(3 -2.394590189e-15 0)
(3 -3.088793026e-15 0)
(3 -4.955165026e-15 0)
(3 -4.969907745e-15 0)
(3 -2.953067918e-15 0)
(3 -6.157285043e-16 0)
(3 3.819131216e-15 0)
(3 4.491858222e-15 0)
(3 2.420021304e-15 0)
(3 1.671389652e-15 0)
(3 2.887567827e-15 0)
(3 5.107452258e-15 0)
(3 5.130455023e-15 0)
(3 -1.266003672e-16 0)
(3 2.940729454e-16 0)
(3 4.875692806e-16 0)
(3 1.150421835e-15 0)
(3 2.159454848e-15 0)
(3 9.500171224e-16 0)
(3 2.489434602e-16 0)
(3 2.410280975e-16 0)
(3 1.060320367e-15 0)
(3 2.221718287e-15 0)
(3 3.091137439e-15 0)
(3 2.459504391e-15 0)
(3 1.596032077e-15 0)
(3 1.105473004e-15 0)
(3 6.095780435e-16 0)
(3 1.161402222e-15 0)
(3 1.917227373e-15 0)
(3 1.590986465e-15 0)
(3 1.291494707e-15 0)
(3 -2.103434101e-16 0)
(3 -1.708655661e-15 0)
(3 -1.706071944e-15 0)
(3 2.743839889e-16 0)
(3 1.370490572e-15 0)
(3 2.002640808e-15 0)
(3 3.298313004e-15 0)
(3 2.41070727e-15 0)
(3 7.048187477e-16 0)
(3 -1.266495011e-15 0)
(3 -1.814157106e-15 0)
(3 -4.445393033e-15 0)
(3 -4.696619495e-15 0)
(3 -2.718013039e-15 0)
(3 -3.863227034e-15 0)
(3 -3.599654879e-15 0)
(3 -1.133623285e-15 0)
(3 2.949033258e-16 0)
(3 5.139889037e-16 0)
(3 6.744511709e-16 0)
(3 3.416416171e-15 0)
(3 6.033022859e-15 0)
(3 8.648558182e-15 0)
(3 9.775107374e-15 0)
(3 9.367427487e-15 0)
(3 8.630559203e-15 0)
(3 6.699898741e-15 0)
(3 4.432554687e-15 0)
(3 3.263851309e-15 0)
(3 2.780919152e-15 0)
(3 2.60844561e-15 0)
(3 2.384888636e-15 0)
(3 1.387422515e-15 0)
(3 1.750419782e-15 0)
(3 1.630269723e-15 0)
(3 -4.90990138e-16 0)
(3 -1.974629147e-15 0)
(3 -3.585333871e-15 0)
(3 -3.180417508e-15 0)
(3 -2.354586619e-15 0)
(3 -1.43288935e-15 0)
(3 1.090158429e-15 0)
(3 2.402909675e-15 0)
(3 1.919342181e-15 0)
(3 1.663897293e-15 0)
(3 2.655206308e-15 0)
(3 4.381867063e-15 0)
(3 5.888172139e-15 0)
(3 1.063799813e-17 0)
(3 4.901367411e-16 0)
(3 5.172534649e-16 0)
(3 -1.377309721e-16 0)
(3 -5.674894429e-17 0)
(3 -1.58120821e-16 0)
(3 -4.807996715e-16 0)
(3 -9.955059821e-16 0)
(3 7.175185936e-16 0)
(3 2.864210899e-15 0)
(3 4.139613585e-15 0)
(3 4.826184631e-15 0)
(3 3.821561769e-15 0)
(3 1.6071664e-15 0)
(3 6.859925133e-16 0)
(3 6.678480487e-16 0)
(3 1.02940845e-15 0)
(3 7.198110748e-16 0)
(3 1.70395395e-16 0)
(3 -3.373055626e-16 0)
(3 -8.617481598e-16 0)
(3 -4.465025282e-16 0)
(3 2.035074495e-15 0)
(3 4.183151947e-15 0)
(3 3.237004336e-15 0)
(3 1.916283291e-15 0)
(3 -4.730231242e-16 0)
(3 -5.561040977e-16 0)
(3 -8.729185744e-16 0)
(3 -2.50613473e-15 0)
(3 -3.978587729e-15 0)
(3 -3.348569151e-15 0)
(3 -1.608984778e-15 0)
(3 -2.073174772e-15 0)
(3 -1.809143753e-15 0)
(3 -1.46825793e-15 0)
(3 -8.813658748e-16 0)
(3 -7.872722219e-16 0)
(3 7.406177367e-16 0)
(3 1.079937685e-15 0)
(3 4.632010348e-15 0)
(3 8.684762339e-15 0)
(3 1.151213941e-14 0)
(3 1.176961447e-14 0)
(3 9.599657484e-15 0)
(3 7.553857453e-15 0)
(3 4.309443555e-15 0)
(3 5.07498228e-16 0)
(3 1.251874685e-15 0)
(3 2.219795407e-15 0)
(3 2.993419723e-15 0)
(3 2.761374661e-15 0)
(3 2.140239698e-15 0)
(3 5.501807034e-16 0)
(3 -1.256008759e-15 0)
(3 -2.770791115e-15 0)
(3 -3.051384779e-15 0)
(3 -3.13621458e-15 0)
(3 -4.801272196e-15 0)
(3 -5.116526051e-15 0)
(3 -3.790997695e-15 0)
(3 -1.417294612e-15 0)
(3 1.375740344e-15 0)
(3 3.471230592e-15 0)
(3 2.354291818e-15 0)
(3 2.071615863e-15 0)
(3 3.02372288e-15 0)
(3 3.252058323e-16 0)
(3 5.479931465e-16 0)
(3 -3.169681069e-16 0)
(3 -1.566366343e-15 0)
(3 -9.91230234e-16 0)
(3 -3.236408002e-16 0)
(3 8.168541032e-18 0)
(3 -5.480922812e-16 0)
(3 -1.020889134e-15 0)
(3 -1.108044319e-15 0)
(3 -1.213319647e-15 0)
(3 -5.380937007e-16 0)
(3 -1.846369449e-16 0)
(3 -7.556351235e-16 0)
(3 -1.015392904e-15 0)
(3 -7.98161541e-16 0)
(3 7.202548359e-16 0)
(3 2.357885125e-15 0)
(3 2.639031112e-15 0)
(3 2.603366386e-15 0)
(3 1.819771779e-15 0)
(3 1.85658074e-15 0)
(3 2.303714799e-15 0)
(3 2.380435773e-15 0)
(3 5.300932891e-16 0)
(3 -2.161683911e-15 0)
(3 -4.036897524e-15 0)
(3 -3.481407378e-15 0)
(3 -3.699876552e-15 0)
(3 -3.847178804e-15 0)
(3 -3.444710927e-15 0)
(3 1.661738998e-15 0)
(3 2.002205272e-15 0)
(3 2.230420676e-15 0)
(3 1.241831942e-15 0)
(3 1.588342317e-16 0)
(3 2.628863129e-16 0)
(3 1.223218441e-15 0)
(3 2.289616713e-15 0)
(3 1.695561222e-15 0)
(3 3.088310642e-15 0)
(3 6.924256347e-15 0)
(3 1.025802514e-14 0)
(3 1.011644383e-14 0)
(3 8.538112385e-15 0)
(3 7.345784139e-15 0)
(3 4.935309842e-15 0)
(3 1.852789223e-15 0)
(3 5.120491187e-16 0)
(3 -2.900346945e-16 0)
(3 5.827003003e-16 0)
(3 6.235581839e-16 0)
(3 -8.205064883e-17 0)
(3 -3.251146164e-16 0)
(3 -6.891604343e-18 0)
(3 1.803681854e-15 0)
(3 -9.349334343e-17 0)
(3 -4.116214095e-15 0)
(3 -5.743385883e-15 0)
(3 -6.642221881e-15 0)
(3 -6.056866191e-15 0)
(3 -5.365298899e-15 0)
(3 -4.975295817e-15 0)
(3 -2.336089558e-15 0)
(3 -1.429630261e-15 0)
(3 -4.505543359e-16 0)
(3 -2.20012069e-16 0)
(3 -2.075284762e-16 0)
(3 4.109654195e-16 0)
(3 3.304245333e-16 0)
(3 1.013294963e-15 0)
(3 9.783246227e-16 0)
(3 6.158509615e-16 0)
(3 6.249170748e-16 0)
(3 -1.035674993e-16 0)
(3 -1.043669586e-15 0)
(3 -3.761952658e-15 0)
(3 -6.144622744e-15 0)
(3 -6.318133043e-15 0)
(3 -5.51339062e-15 0)
(3 -3.667897162e-15 0)
(3 -2.069071733e-15 0)
(3 -6.109958329e-16 0)
(3 6.945474987e-16 0)
(3 7.949698017e-16 0)
(3 2.426054801e-15 0)
(3 4.360662904e-15 0)
(3 5.363444844e-15 0)
(3 3.6264785e-15 0)
(3 1.800362688e-15 0)
(3 3.812692587e-16 0)
(3 5.622857661e-16 0)
(3 -8.246526245e-16 0)
(3 -3.559953809e-15 0)
(3 -7.295824557e-15 0)
(3 -6.91348521e-15 0)
(3 -4.620171137e-15 0)
(3 1.156846561e-15 0)
(3 2.66969682e-15 0)
(3 2.524374429e-15 0)
(3 2.544149434e-15 0)
(3 1.965865604e-15 0)
(3 1.215593246e-15 0)
(3 1.350991146e-15 0)
(3 2.755000792e-15 0)
(3 2.151084876e-15 0)
(3 1.569095352e-15 0)
(3 1.27732752e-15 0)
(3 2.019156223e-15 0)
(3 4.309037689e-15 0)
(3 7.381647869e-15 0)
(3 9.255453463e-15 0)
(3 8.980062119e-15 0)
(3 8.434204967e-15 0)
(3 5.719195545e-15 0)
(3 2.436042891e-15 0)
(3 1.425366629e-15 0)
(3 2.075869237e-15 0)
(3 2.093628383e-15 0)
(3 1.713000439e-15 0)
(3 1.508475158e-15 0)
(3 2.293386091e-15 0)
(3 2.598490797e-15 0)
(3 2.512781549e-15 0)
(3 1.121058332e-15 0)
(3 -4.265968725e-15 0)
(3 -6.571177227e-15 0)
(3 -6.763404098e-15 0)
(3 -7.409333782e-15 0)
(3 -6.962875074e-15 0)
(3 -5.923407844e-15 0)
(3 -1.653272209e-15 0)
(3 5.77441399e-16 0)
(3 6.687489424e-16 0)
(3 1.252475545e-16 0)
(3 1.762768808e-16 0)
(3 1.760439286e-15 0)
(3 1.913571791e-15 0)
(3 1.14960379e-15 0)
(3 9.265246287e-16 0)
(3 -4.562585127e-16 0)
(3 -9.552289113e-16 0)
(3 -4.677564094e-16 0)
(3 -6.225378431e-16 0)
(3 -3.567112093e-15 0)
(3 -4.376183339e-15 0)
(3 -3.680460066e-15 0)
(3 -1.931384828e-15 0)
(3 -1.205578719e-15 0)
(3 -2.60831169e-16 0)
(3 -2.083382464e-15 0)
(3 -1.219354078e-15 0)
(3 -1.11042856e-15 0)
(3 5.28648442e-16 0)
(3 2.149601095e-15 0)
(3 3.191986352e-15 0)
(3 2.903222991e-15 0)
(3 2.307699997e-15 0)
(3 1.697430115e-15 0)
(3 1.215509638e-15 0)
(3 -1.040238882e-16 0)
(3 -2.99545428e-15 0)
(3 -4.537771175e-15 0)
(3 -4.148616566e-15 0)
(3 -7.618061674e-16 0)
(3 -3.822254872e-16 0)
(3 1.867695066e-16 0)
(3 3.168426873e-16 0)
(3 -8.018902394e-17 0)
(3 2.201178094e-16 0)
(3 6.32882018e-16 0)
(3 2.77945332e-16 0)
(3 -4.905720699e-16 0)
(3 -1.054114328e-15 0)
(3 -1.056062735e-15 0)
(3 -2.776881903e-15 0)
(3 -2.198347982e-15 0)
(3 2.851752152e-16 0)
(3 4.346161874e-15 0)
(3 5.980393674e-15 0)
(3 5.618052407e-15 0)
(3 3.814645637e-15 0)
(3 1.304089648e-15 0)
(3 -9.510971636e-16 0)
(3 -2.801109806e-16 0)
(3 6.523328431e-16 0)
(3 2.533214665e-15 0)
(3 3.730986875e-15 0)
(3 2.249556435e-15 0)
(3 4.13780721e-15 0)
(3 4.88907149e-15 0)
(3 3.414302968e-15 0)
(3 7.84032262e-16 0)
(3 -1.220655362e-15 0)
(3 -5.097100509e-15 0)
(3 -5.220888903e-15 0)
(3 -3.70786842e-15 0)
(3 -3.630855977e-15 0)
(3 -4.539718029e-16 0)
(3 -1.385465676e-16 0)
(3 1.772429401e-15 0)
(3 -2.443184261e-17 0)
(3 -4.626972441e-16 0)
(3 -3.359744927e-16 0)
(3 -1.443086811e-15 0)
(3 -1.974938367e-15 0)
(3 -1.977735426e-15 0)
(3 -2.233441512e-15 0)
(3 -1.863280305e-15 0)
(3 -1.109888403e-15 0)
(3 4.026860943e-16 0)
(3 -2.336973629e-16 0)
(3 -8.08395914e-16 0)
(3 -8.125206503e-16 0)
(3 -1.017766805e-15 0)
(3 -2.584470327e-16 0)
(3 -1.433261897e-15 0)
(3 -3.394114558e-15 0)
(3 -3.683539238e-15 0)
(3 -3.294767515e-15 0)
(3 -2.173561952e-15 0)
(3 -4.458952355e-16 0)
(3 2.528790028e-15 0)
(3 3.97452332e-15 0)
(3 4.013023199e-15 0)
(3 2.679636306e-15 0)
(3 2.782772819e-15 0)
(3 1.33820664e-15 0)
(3 1.154958473e-15 0)
(3 1.052144696e-15 0)
(3 7.868883079e-16 0)
(3 -4.384120962e-16 0)
(3 -9.421713686e-16 0)
(3 -6.765801736e-16 0)
(3 -4.904878363e-16 0)
(3 -5.179804941e-17 0)
(3 -8.58479471e-16 0)
(3 -1.395587732e-15 0)
(3 -1.476125213e-15 0)
(3 -9.628798735e-16 0)
(3 -1.137706378e-15 0)
(3 -1.186786761e-15 0)
(3 -4.060992247e-15 0)
(3 -7.79507941e-15 0)
(3 -8.18824663e-15 0)
(3 -5.427667267e-15 0)
(3 -1.902605369e-15 0)
(3 -7.547338208e-16 0)
(3 -4.936611637e-16 0)
(3 -1.670960923e-15 0)
(3 -3.455465641e-15 0)
(3 -1.980558715e-15 0)
(3 9.116501549e-16 0)
(3 1.805299374e-15 0)
(3 3.681247306e-15 0)
(3 6.330593855e-15 0)
(3 6.450308844e-15 0)
(3 4.590154513e-15 0)
(3 3.314327752e-15 0)
(3 3.287605605e-15 0)
(3 2.78494542e-15 0)
(3 1.19890924e-15 0)
(3 1.198881098e-15 0)
(3 1.097717767e-15 0)
(3 3.197842372e-16 0)
(3 -1.199274536e-15 0)
(3 -2.267587878e-15 0)
(3 -1.53421763e-15 0)
(3 -7.478494624e-16 0)
(3 -5.076687888e-16 0)
(3 -1.286123384e-15 0)
(3 -8.339268604e-16 0)
(3 -1.667691413e-15 0)
(3 -1.743584512e-15 0)
(3 -5.797395525e-16 0)
(3 7.395089347e-17 0)
(3 -1.031270736e-16 0)
(3 -8.017735932e-16 0)
(3 -6.197493242e-16 0)
(3 9.394839254e-16 0)
(3 9.408746715e-16 0)
(3 -8.168231665e-16 0)
(3 -1.87644453e-15 0)
(3 -4.052618091e-15 0)
(3 -5.669251225e-15 0)
(3 -6.228124503e-15 0)
(3 -4.180699343e-15 0)
(3 -1.601433114e-15 0)
(3 3.956304498e-16 0)
(3 3.470897677e-15 0)
(3 2.643162301e-15 0)
(3 1.453016523e-15 0)
(3 -1.277989434e-16 0)
(3 3.168216559e-17 0)
(3 5.208792685e-16 0)
(3 2.352809504e-15 0)
(3 5.577774076e-15 0)
(3 4.224218606e-15 0)
(3 1.071623924e-15 0)
(3 3.242625245e-16 0)
(3 -2.452311583e-16 0)
(3 -7.639209684e-17 0)
(3 -6.690920002e-16 0)
(3 -9.879214535e-16 0)
(3 -1.373174725e-15 0)
(3 -1.262584759e-15 0)
(3 -1.674456489e-15 0)
(3 -1.466667957e-15 0)
(3 -2.195146235e-15 0)
(3 -4.759652595e-15 0)
(3 -6.396033676e-15 0)
(3 -7.03448242e-15 0)
(3 -1.00743093e-14 0)
(3 -8.716910524e-15 0)
(3 -4.982240291e-15 0)
(3 -1.802305048e-15 0)
(3 -6.310220681e-16 0)
(3 -7.26415675e-16 0)
(3 1.68527149e-15 0)
(3 2.651715638e-15 0)
(3 3.780931288e-15 0)
(3 4.980038582e-15 0)
(3 6.846606119e-15 0)
(3 6.52165852e-15 0)
(3 5.009518129e-15 0)
(3 5.723019424e-15 0)
(3 4.27759212e-15 0)
(3 5.365348701e-15 0)
(3 4.903500465e-15 0)
(3 3.172716823e-15 0)
(3 2.085036934e-15 0)
(3 2.578553525e-16 0)
(3 -4.032301983e-15 0)
(3 -4.685574968e-15 0)
(3 -4.957131524e-15 0)
(3 1.208836514e-16 0)
(3 6.901525767e-16 0)
(3 6.523628243e-16 0)
(3 1.23357565e-15 0)
(3 2.043274866e-15 0)
(3 1.780541272e-15 0)
(3 5.506021979e-16 0)
(3 -2.618839478e-16 0)
(3 1.980225984e-16 0)
(3 -2.989231021e-16 0)
(3 5.749567021e-16 0)
(3 -1.80996949e-17 0)
(3 -4.101100415e-16 0)
(3 -1.574403205e-15 0)
(3 -3.653097293e-15 0)
(3 -5.725688352e-15 0)
(3 -5.504238109e-15 0)
(3 -5.157555504e-15 0)
(3 -4.321481815e-15 0)
(3 -3.032241391e-15 0)
(3 -1.326368272e-15 0)
(3 -4.695679661e-16 0)
(3 -1.443386644e-15 0)
(3 -2.49028642e-15 0)
(3 -2.921282512e-15 0)
(3 -2.579561952e-15 0)
(3 -1.153752542e-15 0)
(3 1.873303193e-15 0)
(3 5.088325247e-15 0)
(3 3.789324523e-15 0)
(3 2.391797951e-15 0)
(3 1.72462771e-15 0)
(3 -2.708939737e-16 0)
(3 -2.717424821e-15 0)
(3 -3.644473194e-15 0)
(3 -4.478874624e-15 0)
(3 -3.931024077e-15 0)
(3 -3.238376644e-15 0)
(3 -2.506664598e-15 0)
(3 -1.650756287e-15 0)
(3 -2.466809802e-15 0)
(3 -3.024250529e-15 0)
(3 -4.048341498e-15 0)
(3 -5.832785277e-15 0)
(3 -6.481148765e-15 0)
(3 -7.244070071e-15 0)
(3 -6.711921147e-15 0)
(3 -3.647906228e-15 0)
(3 1.023439058e-15 0)
(3 3.454788235e-15 0)
(3 2.995234314e-15 0)
(3 3.14736045e-15 0)
(3 4.16263332e-15 0)
(3 3.909871873e-15 0)
(3 3.904232962e-15 0)
(3 4.383395682e-15 0)
(3 4.555669214e-15 0)
(3 5.424227339e-15 0)
(3 4.564435288e-15 0)
(3 3.445572382e-15 0)
(3 1.156592424e-15 0)
(3 -1.922517828e-15 0)
(3 -2.284443595e-15 0)
(3 -1.562542259e-15 0)
(3 -2.997026871e-15 0)
(3 -5.803810665e-15 0)
(3 -5.688432615e-15 0)
(3 -1.982520429e-17 0)
(3 -1.283143255e-16 0)
(3 2.036205634e-16 0)
(3 4.294832645e-17 0)
(3 1.10339577e-15 0)
(3 1.101889764e-15 0)
(3 2.336297051e-16 0)
(3 -1.246444486e-15 0)
(3 -2.485420104e-15 0)
(3 -1.606421272e-15 0)
(3 -2.385684837e-16 0)
(3 -1.628984849e-15 0)
(3 -1.96391744e-15 0)
(3 -5.03693773e-16 0)
(3 -4.727316934e-16 0)
(3 -7.368357432e-16 0)
(3 -1.70925013e-16 0)
(3 -6.913338078e-16 0)
(3 -2.683887761e-15 0)
(3 -3.901025273e-15 0)
(3 -4.040901809e-15 0)
(3 -6.817933771e-15 0)
(3 -5.925509922e-15 0)
(3 -5.156263373e-15 0)
(3 -3.025223613e-15 0)
(3 -2.206924801e-15 0)
(3 9.913453561e-16 0)
(3 6.078078476e-15 0)
(3 7.381625185e-15 0)
(3 6.735440736e-15 0)
(3 6.561534844e-15 0)
(3 2.838962072e-15 0)
(3 -4.795515023e-16 0)
(3 -5.498058459e-15 0)
(3 -6.689760053e-15 0)
(3 -7.310445238e-15 0)
(3 -6.884270202e-15 0)
(3 -6.045232112e-15 0)
(3 -5.201301523e-15 0)
(3 -4.511026701e-15 0)
(3 -4.741615572e-15 0)
(3 -3.531912974e-15 0)
(3 -3.397562216e-15 0)
(3 -3.562948861e-15 0)
(3 -3.10420448e-15 0)
(3 -3.627903332e-15 0)
(3 -4.475378636e-15 0)
(3 -5.476080386e-15 0)
(3 -4.37452111e-15 0)
(3 -6.494855844e-16 0)
(3 2.00745935e-15 0)
(3 1.997445972e-15 0)
(3 2.023057731e-15 0)
(3 3.246519112e-15 0)
(3 4.513725714e-15 0)
(3 5.032662822e-15 0)
(3 5.871626658e-15 0)
(3 5.897489834e-15 0)
(3 5.905828241e-15 0)
(3 5.267766299e-15 0)
(3 3.61125112e-15 0)
(3 2.787150413e-15 0)
(3 4.125276796e-16 0)
(3 -3.260364026e-15 0)
(3 -4.589754258e-15 0)
(3 -5.477277692e-15 0)
(3 -7.598216217e-15 0)
(3 -1.357174216e-16 0)
(3 2.11251358e-16 0)
(3 2.229596191e-16 0)
(3 1.001787644e-15 0)
(3 7.296911891e-16 0)
(3 -6.522595114e-17 0)
(3 1.925717458e-16 0)
(3 -3.343265464e-16 0)
(3 -2.82315007e-15 0)
(3 -3.217118422e-15 0)
(3 -3.226291958e-15 0)
(3 -2.879409896e-15 0)
(3 -9.524982678e-16 0)
(3 1.135803595e-15 0)
(3 4.19987593e-15 0)
(3 4.75245696e-15 0)
(3 3.877238611e-15 0)
(3 2.065116803e-15 0)
(3 -1.115983884e-15 0)
(3 -3.633945029e-15 0)
(3 -5.190377857e-15 0)
(3 -6.419175013e-15 0)
(3 -5.263186414e-15 0)
(3 -3.920349933e-15 0)
(3 -1.234183589e-16 0)
(3 1.926210824e-15 0)
(3 4.036057642e-15 0)
(3 6.819603369e-15 0)
(3 6.590426576e-15 0)
(3 3.048738158e-15 0)
(3 2.487657203e-15 0)
(3 -6.76438047e-16 0)
(3 -4.030722596e-15 0)
(3 -3.704363952e-15 0)
(3 -5.172669717e-15 0)
(3 -4.942436935e-15 0)
(3 -5.389247318e-15 0)
(3 -5.292542939e-15 0)
(3 -5.04135319e-15 0)
(3 -4.734845761e-15 0)
(3 -3.393045249e-15 0)
(3 -1.284880241e-15 0)
(3 1.367427661e-15 0)
(3 2.935400595e-15 0)
(3 1.98576344e-15 0)
(3 9.007963e-16 0)
(3 -1.132049483e-15 0)
(3 -2.831535726e-15 0)
(3 -3.558687523e-15 0)
(3 -2.896735022e-15 0)
(3 -1.5277124e-15 0)
(3 -2.263803086e-15 0)
(3 -1.73774785e-15 0)
(3 2.614598276e-15 0)
(3 5.070181295e-15 0)
(3 4.761910011e-15 0)
(3 4.822663516e-15 0)
(3 2.957273429e-15 0)
(3 1.308702644e-15 0)
(3 -1.30860317e-16 0)
(3 -5.709293427e-16 0)
(3 -3.842120624e-16 0)
(3 -1.349762865e-15 0)
(3 -4.480556858e-15 0)
(3 -5.539866525e-15 0)
(3 -7.331938756e-15 0)
(3 -7.465130612e-15 0)
(3 4.356021216e-16 0)
(3 1.098536737e-15 0)
(3 1.571914019e-15 0)
(3 1.517142787e-15 0)
(3 -5.420625704e-17 0)
(3 -4.538730181e-16 0)
(3 -1.007171066e-15 0)
(3 -9.526033918e-16 0)
(3 -1.895528641e-16 0)
(3 -1.23687997e-15 0)
(3 -1.016820492e-15 0)
(3 -7.914146644e-17 0)
(3 1.185963652e-15 0)
(3 1.341248999e-15 0)
(3 1.451378306e-15 0)
(3 1.337154972e-15 0)
(3 6.0269922e-16 0)
(3 2.974295398e-17 0)
(3 -4.62576916e-16 0)
(3 -1.896529077e-15 0)
(3 -2.635084332e-15 0)
(3 -9.245425537e-16 0)
(3 2.914156429e-16 0)
(3 2.167934092e-15 0)
(3 5.490609221e-15 0)
(3 6.902553048e-15 0)
(3 5.828141966e-15 0)
(3 3.422446348e-15 0)
(3 8.462646569e-16 0)
(3 1.34083807e-15 0)
(3 4.629901012e-16 0)
(3 9.993529922e-16 0)
(3 4.153917155e-16 0)
(3 2.302687938e-16 0)
(3 -4.93775123e-16 0)
(3 -7.476857222e-16 0)
(3 -5.429482575e-16 0)
(3 -8.506373032e-16 0)
(3 -1.093034636e-15 0)
(3 -7.367761501e-16 0)
(3 1.040396611e-15 0)
(3 4.561962786e-15 0)
(3 7.316889534e-15 0)
(3 6.934096293e-15 0)
(3 4.448767462e-15 0)
(3 4.16012521e-15 0)
(3 2.347184752e-15 0)
(3 -7.923291153e-16 0)
(3 -2.002912157e-15 0)
(3 -2.062087277e-15 0)
(3 -2.393677475e-15 0)
(3 -3.532220233e-15 0)
(3 -3.261955416e-15 0)
(3 -1.857042791e-15 0)
(3 4.754652689e-16 0)
(3 1.442926924e-15 0)
(3 5.81043112e-16 0)
(3 -1.601225458e-15 0)
(3 -2.548806913e-15 0)
(3 -4.104773446e-15 0)
(3 -4.226275845e-15 0)
(3 -2.73576636e-15 0)
(3 -3.011249744e-15 0)
(3 -3.342308393e-15 0)
(3 -3.742547792e-15 0)
(3 -4.520216771e-15 0)
(3 -3.792347074e-15 0)
(3 3.396791277e-17 0)
(3 5.432087279e-17 0)
(3 5.337199998e-16 0)
(3 -3.874160712e-16 0)
(3 -7.971826662e-16 0)
(3 -4.597712262e-16 0)
(3 1.026315682e-16 0)
(3 4.818644541e-16 0)
(3 1.830385966e-15 0)
(3 3.119825769e-15 0)
(3 4.411609453e-15 0)
(3 5.388135636e-15 0)
(3 5.244804959e-15 0)
(3 2.466732598e-15 0)
(3 -9.071686827e-16 0)
(3 -1.391026232e-15 0)
(3 -1.467698364e-15 0)
(3 -7.59445211e-16 0)
(3 4.262797355e-16 0)
(3 1.194547129e-15 0)
(3 1.78643082e-15 0)
(3 2.729453041e-15 0)
(3 3.20549765e-15 0)
(3 3.801201816e-15 0)
(3 3.986311127e-15 0)
(3 4.397555733e-15 0)
(3 4.532142884e-15 0)
(3 1.622780168e-15 0)
(3 6.943007775e-16 0)
(3 6.880005408e-16 0)
(3 2.913676654e-15 0)
(3 4.08617765e-15 0)
(3 3.94293477e-15 0)
(3 3.853591384e-15 0)
(3 2.41375607e-15 0)
(3 2.421884699e-15 0)
(3 3.140603076e-15 0)
(3 3.009632785e-15 0)
(3 2.216478843e-15 0)
(3 1.47563755e-15 0)
(3 2.513664758e-15 0)
(3 2.001884937e-15 0)
(3 2.468801557e-15 0)
(3 2.240071669e-15 0)
(3 2.781811542e-15 0)
(3 3.45026406e-15 0)
(3 2.755152995e-15 0)
(3 1.663008933e-15 0)
(3 -1.117859895e-15 0)
(3 -2.186797132e-15 0)
(3 -2.872567163e-15 0)
(3 -2.959108488e-15 0)
(3 -2.54606693e-15 0)
(3 -3.514026843e-15 0)
(3 -2.760340509e-15 0)
(3 -8.540181008e-16 0)
(3 2.119155492e-17 0)
(3 2.824329962e-16 0)
(3 -1.251978778e-15 0)
(3 -1.954088004e-15 0)
(3 -2.660303562e-16 0)
(3 3.680939815e-16 0)
(3 -2.4839747e-16 0)
(3 -1.03255477e-15 0)
(3 -8.21891939e-16 0)
(3 -1.11370637e-16 0)
(3 -7.658327446e-16 0)
(3 -1.455002049e-16 0)
(3 -1.202602969e-15 0)
(3 -2.323778801e-15 0)
(3 -2.17898597e-15 0)
(3 -6.805701686e-16 0)
(3 2.15580945e-16 0)
(3 3.213438367e-15 0)
(3 3.689996362e-15 0)
(3 4.014301654e-15 0)
(3 5.566298518e-15 0)
(3 5.441493338e-15 0)
(3 4.411238235e-15 0)
(3 3.334843452e-15 0)
(3 2.015807096e-15 0)
(3 8.539846963e-16 0)
(3 -1.015542667e-15 0)
(3 -1.212610516e-15 0)
(3 -8.152757031e-16 0)
(3 -1.110795051e-16 0)
(3 1.840414641e-15 0)
(3 3.039188864e-15 0)
(3 2.123634053e-15 0)
(3 2.356260109e-15 0)
(3 1.851006081e-15 0)
(3 5.723719674e-16 0)
(3 1.242663345e-16 0)
(3 1.185567335e-15 0)
(3 1.316034763e-15 0)
(3 9.300268328e-16 0)
(3 8.160564678e-16 0)
(3 2.403457559e-15 0)
(3 2.446262465e-15 0)
(3 2.277274203e-15 0)
(3 2.585353229e-15 0)
(3 1.793275609e-15 0)
(3 2.626984338e-15 0)
(3 2.874700849e-15 0)
(3 3.516405008e-15 0)
(3 3.038315331e-15 0)
(3 1.931380168e-15 0)
(3 1.332319918e-15 0)
(3 -3.682232782e-16 0)
(3 -1.501532822e-15 0)
(3 -1.310364629e-15 0)
(3 1.077397971e-15 0)
(3 8.998891704e-16 0)
(3 5.929292261e-16 0)
(3 1.064340407e-15 0)
(3 7.454384883e-16 0)
(3 -8.680947901e-16 0)
(3 -2.776152322e-15 0)
(3 -2.068963129e-15 0)
(3 -1.912337947e-15 0)
(3 -2.045876776e-15 0)
(3 -3.592346387e-16 0)
(3 -9.400470637e-16 0)
(3 1.018004667e-15 0)
(3 3.519228732e-15 0)
(3 2.856741306e-15 0)
(3 3.139286716e-15 0)
(3 2.717681102e-15 0)
(3 2.865132239e-15 0)
(3 1.337936663e-15 0)
(3 6.855989635e-16 0)
(3 4.934961034e-16 0)
(3 7.77613313e-16 0)
(3 -3.488664139e-16 0)
(3 4.300017665e-16 0)
(3 -6.48134257e-16 0)
(3 -2.399319205e-15 0)
(3 -1.199811849e-15 0)
(3 -1.074122999e-15 0)
(3 -1.024522364e-15 0)
(3 1.356017086e-15 0)
(3 2.753864555e-15 0)
(3 3.881336456e-15 0)
(3 3.67375864e-15 0)
(3 3.792133034e-15 0)
(3 2.357520199e-15 0)
(3 1.923063173e-16 0)
(3 8.776432831e-16 0)
(3 8.995771198e-16 0)
(3 4.072773954e-16 0)
(3 1.569456005e-15 0)
(3 1.705652941e-15 0)
(3 1.514130829e-15 0)
(3 2.127003458e-15 0)
(3 3.106021219e-15 0)
(3 2.749200021e-15 0)
(3 2.509046892e-15 0)
(3 3.479539227e-15 0)
(3 3.093348463e-15 0)
(3 9.714093719e-16 0)
(3 -3.787940896e-16 0)
(3 2.861131164e-16 0)
(3 -1.408524978e-16 0)
(3 -7.012873587e-16 0)
(3 -1.427068529e-15 0)
(3 -7.584326269e-16 0)
(3 -1.576140211e-15 0)
(3 -2.233069637e-15 0)
(3 -1.822499509e-15 0)
(3 -4.608030557e-16 0)
(3 6.436388073e-17 0)
(3 3.692875286e-16 0)
(3 -4.194294556e-16 0)
(3 -1.958160763e-15 0)
(3 -4.628223131e-15 0)
(3 -4.529966579e-15 0)
(3 -3.135663862e-15 0)
(3 -2.115985249e-15 0)
(3 -7.62438836e-16 0)
(3 8.246336829e-16 0)
(3 3.023768271e-16 0)
(3 -6.465757906e-16 0)
(3 2.114023155e-16 0)
(3 2.048447009e-16 0)
(3 -8.091199631e-16 0)
(3 5.748102921e-17 0)
(3 1.638347046e-16 0)
(3 8.346626141e-17 0)
(3 5.220593753e-16 0)
(3 1.448584139e-15 0)
(3 2.47153677e-15 0)
(3 4.430525295e-15 0)
(3 6.596972444e-15 0)
(3 7.2411416e-15 0)
(3 5.134780361e-15 0)
(3 4.59324065e-15 0)
(3 1.188214904e-15 0)
(3 -2.732355072e-16 0)
(3 -2.330136785e-15 0)
(3 -4.170550915e-15 0)
(3 -3.554214767e-15 0)
(3 -1.305762127e-16 0)
(3 -4.303581305e-16 0)
(3 -1.621809011e-16 0)
(3 1.736008206e-17 0)
(3 -8.438729066e-16 0)
(3 -3.465018985e-15 0)
(3 -2.768341811e-15 0)
(3 -1.820789681e-15 0)
(3 -1.145534896e-15 0)
(3 -2.977985265e-16 0)
(3 9.241692091e-16 0)
(3 6.746392098e-16 0)
(3 -1.053840082e-16 0)
(3 9.833826239e-17 0)
(3 7.694007749e-16 0)
(3 2.30564276e-15 0)
(3 4.914305812e-15 0)
(3 5.865290885e-15 0)
(3 5.072575377e-15 0)
(3 2.570420324e-15 0)
(3 2.065354749e-15 0)
(3 2.014656612e-15 0)
(3 1.897146704e-15 0)
(3 2.259710014e-15 0)
(3 1.306590691e-15 0)
(3 1.520443997e-15 0)
(3 4.385374522e-16 0)
(3 -2.877419883e-16 0)
(3 4.050398653e-16 0)
(3 1.096326358e-15 0)
(3 1.959965495e-15 0)
(3 2.057693076e-15 0)
(3 3.641285202e-15 0)
(3 3.045342797e-15 0)
(3 2.273987247e-15 0)
(3 1.987409074e-15 0)
(3 6.492634694e-16 0)
(3 -2.025121486e-15 0)
(3 -2.836363412e-15 0)
(3 -4.871711354e-15 0)
(3 -5.005003548e-15 0)
(3 -5.316646026e-15 0)
(3 -4.983226811e-15 0)
(3 -4.358766111e-15 0)
(3 -4.0142262e-15 0)
(3 -3.267849867e-15 0)
(3 -1.365239049e-15 0)
(3 -4.70724537e-16 0)
(3 3.606634425e-16 0)
(3 1.083840315e-15 0)
(3 5.753901845e-16 0)
(3 4.387623194e-16 0)
(3 3.327395564e-16 0)
(3 5.056961439e-16 0)
(3 2.182474625e-16 0)
(3 1.970230656e-15 0)
(3 2.1945108e-15 0)
(3 2.739745433e-15 0)
(3 4.941748275e-15 0)
(3 7.283180137e-15 0)
(3 6.785464362e-15 0)
(3 4.405334958e-15 0)
(3 1.897161177e-15 0)
(3 1.846659314e-16 0)
(3 5.791045416e-17 0)
(3 -1.213083499e-15 0)
(3 -3.019933918e-15 0)
(3 -5.826376797e-16 0)
(3 2.381623418e-16 0)
(3 3.253934019e-17 0)
(3 -1.796361468e-15 0)
(3 -1.213690357e-15 0)
(3 -1.287385836e-15 0)
(3 -2.012207814e-15 0)
(3 -4.181791165e-15 0)
(3 -4.347236244e-15 0)
(3 -3.171326172e-15 0)
(3 -2.424407759e-15 0)
(3 -1.811743938e-15 0)
(3 -4.784329477e-16 0)
(3 2.189627906e-16 0)
(3 2.307165202e-16 0)
(3 6.08895425e-16 0)
(3 1.470205767e-15 0)
(3 2.858099e-15 0)
(3 2.886105706e-15 0)
(3 1.640971186e-15 0)
(3 -7.529405766e-16 0)
(3 -1.677784985e-15 0)
(3 -6.805216852e-16 0)
(3 -6.518555275e-16 0)
(3 -1.632533262e-17 0)
(3 7.884440838e-17 0)
(3 -1.296506925e-15 0)
(3 -8.431356691e-16 0)
(3 9.707159953e-16 0)
(3 2.421166873e-15 0)
(3 3.61996728e-15 0)
(3 3.515251557e-15 0)
(3 4.038000053e-15 0)
(3 4.460118516e-15 0)
(3 3.278137261e-15 0)
(3 1.894682055e-15 0)
(3 -3.275477062e-16 0)
(3 -3.733526442e-15 0)
(3 -5.196978212e-15 0)
(3 -6.204749793e-15 0)
(3 -6.288617463e-15 0)
(3 -6.992845322e-15 0)
(3 -6.903052083e-15 0)
(3 -5.948295693e-15 0)
(3 -6.414187669e-15 0)
(3 -7.305459034e-15 0)
(3 -6.996141249e-15 0)
(3 -4.452734711e-15 0)
(3 -1.388843496e-15 0)
(3 -5.86272492e-16 0)
(3 -5.140559774e-17 0)
(3 -7.190000719e-16 0)
(3 -4.669709986e-16 0)
(3 1.801929871e-15 0)
(3 2.68750383e-15 0)
(3 2.04281028e-15 0)
(3 8.654584769e-16 0)
(3 1.649728565e-15 0)
(3 4.738539905e-15 0)
(3 5.668478081e-15 0)
(3 5.118121229e-15 0)
(3 8.277766998e-16 0)
(3 8.497475902e-16 0)
(3 1.742380044e-15 0)
(3 2.385667693e-15 0)
(3 2.195071004e-15 0)
(3 1.041652991e-15 0)
(3 3.993139307e-16 0)
(3 7.26915179e-16 0)
(3 -5.703298537e-16 0)
(3 -1.560118625e-15 0)
(3 -1.636940418e-15 0)
(3 -1.174999422e-15 0)
(3 -1.614075171e-15 0)
(3 -2.176319113e-15 0)
(3 -2.711767772e-15 0)
(3 -3.248813744e-15 0)
(3 -3.719237734e-15 0)
(3 -2.234875237e-15 0)
(3 -9.874144142e-16 0)
(3 -4.565575456e-16 0)
(3 -1.82747222e-15 0)