/*--------------------------------*- C++ -*----------------------------------*\
  =========                 |
  \\      /  F ield         | OpenFOAM: The Open Source CFD Toolbox
   \\    /   O peration     | Website:  https://openfoam.org
    \\  /    A nd           | Version:  7
     \\/     M anipulation  |
\*---------------------------------------------------------------------------*/
FoamFile
{
    version     2.0;
    format      ascii;
    class       volScalarField;
    location    "4";
    object      rho;
}
// * * * * * * * * * * * * * * * * * * * * * * * * * * * * * * * * * * * * * //

dimensions      [1 -3 0 0 0 0 0];

internalField   nonuniform List<scalar> 
2222
(
1.809052116
1.748211488
1.687500539
1.625240825
1.579936169
1.537861885
1.49643618
1.453098071
1.421320137
1.391432227
1.360537702
1.324267207
1.294983142
1.271743504
1.248441882
3.850044554
3.862824795
3.854572641
3.843514159
3.813014204
3.771489602
3.712809972
3.616307289
3.487420999
3.318629901
3.136205382
2.977741112
2.821645765
2.651335353
2.51681732
2.399594263
2.284181623
2.165396917
2.077717306
1.99746078
1.916831221
1.832944916
1.769289511
1.711006292
1.653464354
1.593436638
1.548568318
1.507313146
1.466644719
1.42487946
1.394117334
1.365406582
1.335879403
1.300631113
1.271089259
1.248757626
1.226173078
3.800457705
3.815034995
3.838419299
3.840651085
3.832307597
3.802778735
3.732952016
3.608806775
3.457123696
3.272521685
3.076908157
2.913609383
2.760257089
2.595416911
2.463849529
2.3508442
2.239929462
2.122801533
2.032538165
1.953254585
1.875393473
1.793461828
1.730142108
1.673763503
1.618524259
1.560989864
1.517614125
1.477964561
1.438702978
1.397457004
1.36597565
1.337660891
1.308649671
1.275037771
1.246161437
1.22477323
1.203143702
3.794256528
3.809143763
3.81374587
3.821174492
3.820665029
3.801902886
3.728166826
3.594467201
3.430429895
3.23544289
3.029653003
2.858753192
2.703991951
2.541457946
2.409651785
2.300818581
2.194319154
2.079911973
1.989004538
1.910510352
1.834476804
1.75404243
1.691580232
1.637987721
1.58586986
1.53110442
1.487679279
1.448553028
1.409580588
1.369069814
1.337888542
1.310867595
1.283421454
1.252164963
1.223648554
1.202779444
1.181801368
3.81312897
3.809448634
3.805516812
3.80707718
3.80427818
3.777806902
3.70174694
3.565106559
3.397598023
3.201449283
2.990138694
2.813564217
2.656794066
2.493801937
2.358712709
2.251335944
2.1471905
2.036672591
1.944840668
1.867408282
1.793017323
1.714636424
1.652550464
1.601200253
1.551198465
1.498446742
1.456682704
1.419557973
1.382263736
1.343043082
1.311032204
1.284099183
1.256693096
1.225935502
1.197956882
1.177751875
1.157757545
3.81653239
3.806005001
3.805488538
3.803012222
3.789489796
3.750484064
3.662494571
3.517894944
3.349885899
3.158439609
2.949518528
2.771773305
2.61333373
2.449923922
2.30984721
2.200941845
2.096523674
1.988408161
1.897555003
1.822758256
1.750501185
1.673767372
1.612549221
1.563916787
1.516691818
1.467310644
1.426199236
1.389926253
1.353107352
1.314424594
1.282686441
1.256893684
1.230743402
1.202190406
1.175624094
1.155552429
1.136239988
3.805436726
3.806206846
3.806860113
3.801306585
3.780260483
3.726730149
3.620940905
3.461868374
3.289932151
3.103253304
2.899325372
2.724360497
2.568111703
2.406843148
2.262586109
2.15151833
2.045493784
1.938431096
1.846355149
1.773909919
1.704972973
1.632233218
1.571911121
1.525483519
1.480186331
1.432549838
1.392929977
1.358775001
1.324029607
1.28751826
1.255541716
1.229927072
1.204548712
1.177040268
1.150877283
1.131840435
1.113655844
3.803124167
3.808925878
3.806877676
3.799259148
3.772035852
3.705771742
3.583223691
3.407480027
3.227177244
3.040442475
2.839533218
2.668814363
2.517696903
2.363003737
2.217585556
2.103833801
1.996610645
1.889202622
1.795638175
1.725172762
1.659390734
1.589852119
1.530824994
1.486710513
1.443523053
1.399336939
1.360876428
1.328350429
1.294811951
1.259118005
1.227574481
1.202882605
1.178191441
1.151649524
1.126716936
1.108789779
1.090947079
3.809913584
3.809165181
3.805869703
3.796805213
3.76279321
3.683927566
3.546241432
3.355840207
3.165563607
2.974909701
2.771997022
2.603664249
2.457742346
2.310653653
2.167436412
2.054939339
1.94944993
1.843081796
1.747388092
1.676880838
1.612939406
1.548469676
1.491623397
1.449592791
1.408497044
1.365728538
1.327858471
1.296252417
1.263583032
1.229669983
1.198620405
1.174539014
1.150940068
1.126292541
1.102364118
1.086203972
1.069996848
3.812038264
3.807351833
3.805018118
3.793745537
3.751312581
3.658982871
3.506913131
3.303529669
3.104945323
2.910310329
2.703720258
2.534190395
2.391791959
2.25299669
2.114150394
2.003566593
1.901748433
1.79909807
1.703984439
1.633498259
1.569991687
1.507697627
1.451775474
1.411811511
1.372912312
1.333361511
1.296764783
1.266638782
1.235733271
1.203404737
1.172574637
1.148478867
1.125389858
1.101484133
1.07781638
1.062469313
1.046918248
3.807607113
3.806813252
3.804587236
3.789680977
3.73731721
3.630203727
3.464025097
3.248889137
3.042871846
2.845659557
2.636555507
2.464442471
2.322655406
2.188241305
2.052962975
1.947839883
1.852486545
1.756227538
1.663453218
1.592935716
1.527939664
1.467629909
1.413246984
1.375434232
1.339459399
1.301674043
1.265155052
1.235241985
1.204985033
1.174009329
1.1438617
1.120847158
1.099142168
1.077111696
1.055408791
1.041717746
1.027150827
3.805453227
3.807468808
3.803885348
3.784348367
3.720322193
3.597475312
3.417030229
3.190353187
2.978174808
2.779654044
2.57009292
2.395319612
2.25347225
2.121990323
1.989582649
1.888172686
1.799422617
1.710712139
1.62284474
1.553993228
1.489850809
1.429796001
1.374816119
1.337910372
1.303903769
1.269109164
1.234639096
1.206020036
1.176816747
1.147083673
1.117931228
1.095265558
1.074146503
1.053142459
1.031736584
1.018273846
1.004648923
3.807806888
3.807735408
3.802503587
3.777572171
3.700027018
3.559968267
3.365648391
3.128541105
2.909751225
2.71045286
2.502393839
2.326478465
2.185806337
2.056012938
1.924238991
1.82601885
1.743501246
1.663225142
1.580897713
1.515263039
1.452303109
1.392259193
1.33734658
1.300760078
1.26813677
1.235016368
1.201154659
1.173671476
1.146232406
1.118589978
1.090579831
1.069764403
1.050926683
1.031800657
1.011606997
0.9986228613
0.9851096572
3.80955764
3.807279344
3.800788728
3.769011602
3.675537094
3.517655688
3.309536291
3.061816326
2.837963838
2.638352159
2.432431469
2.256527999
2.117844046
1.990425475
1.861338092
1.764155483
1.685343779
1.611086423
1.534905524
1.473912005
1.415145145
1.356714248
1.302080594
1.265222743
1.232819742
1.201051353
1.168440024
1.142391584
1.116239293
1.089723256
1.062562762
1.042811634
1.025090173
1.007587658
0.9887711902
0.9768181304
0.9645300772
3.808528705
3.80702164
3.799179164
3.758146383
3.64650027
3.469224389
3.247761372
2.991400283
2.762150293
2.562352421
2.359800747
2.184708857
2.049253651
1.926184086
1.799311178
1.702411111
1.626241275
1.557356842
1.486822997
1.430555999
1.37677872
1.321355149
1.267837697
1.229214299
1.19528824
1.164008776
1.132817806
1.109587045
1.086533812
1.062654443
1.037232316
1.019004639
1.002416913
0.9856504783
0.9675928049
0.9559190207
0.9439333783
3.806969624
3.807793159
3.79715968
3.744354704
3.611880787
3.414755896
3.180463275
2.915355267
2.682352719
2.483372175
2.284677244
2.111466277
1.979437156
1.859903071
1.737942333
1.643339937
1.569327959
1.502692394
1.435197942
1.383090453
1.335566144
1.285523014
1.235087842
1.196531622
1.161293713
1.12938188
1.098637865
1.07647503
1.054736064
1.031814699
1.006783378
0.9897122213
0.9753345583
0.961082242
0.9450630152
0.9345586337
0.9237007775
3.807936146
3.809248697
3.793666698
3.72665093
3.571471556
3.353503014
3.106297006
2.834675458
2.599108656
2.401175581
2.206808919
2.035587387
1.908253619
1.794975541
1.67796806
1.584329196
1.51222769
1.447356902
1.383060855
1.334677049
1.292232837
1.247226043
1.200143115
1.161909478
1.126627729
1.095085486
1.066091342
1.046477602
1.027700826
1.00702809
0.9830128212
0.9661098972
0.9520760657
0.9385274867
0.9232977619
0.9132918977
0.9031446014
3.810640497
3.809986306
3.788104488
3.70414905
3.523968872
3.284706799
3.02669103
2.749130174
2.511042517
2.315622854
2.127173608
1.959887985
1.836617263
1.727266821
1.615727217
1.525953448
1.458120217
1.396008647
1.333876289
1.286726694
1.249077933
1.209774714
1.166602111
1.129738702
1.094986961
1.063052415
1.033466997
1.014069596
0.9971958222
0.9786162164
0.9559859141
0.9401902879
0.9273765812
0.9148687777
0.9007377163
0.8916600508
0.8821906144
3.813060469
3.810561656
3.779788177
3.674957917
3.468324102
3.209194155
2.939486127
2.657835711
2.420941782
2.228463283
2.045338485
1.881300964
1.763494873
1.660796188
1.556699352
1.469284964
1.404324668
1.344243705
1.28215233
1.234944674
1.20021194
1.166121213
1.128467069
1.095179114
1.063298397
1.032135303
1.002709076
0.9839791711
0.9676783731
0.9498792771
0.9285347383
0.9135668509
0.9018344404
0.8907177275
0.8782532081
0.8699233062
0.8612902929
3.815130494
3.811115448
3.76722457
3.638020913
3.403765828
3.124026385
2.846911403
2.563529411
2.326144629
2.137931403
1.962596558
1.804268062
1.691481133
1.593885879
1.494290818
1.410040516
1.35023957
1.294385125
1.237566781
1.191987621
1.158435072
1.127125341
1.09231523
1.061079709
1.031299052
1.002063984
0.9750782907
0.95711971
0.9425365171
0.9271170795
0.9073735099
0.8927594595
0.8815915659
0.8712621653
0.8594875367
0.8513271766
0.8429608669
3.817356608
3.809058649
3.748762066
3.591655348
3.329025116
3.032466527
2.747011881
2.462913511
2.230871359
2.047673494
1.878532818
1.725244261
1.61854786
1.52651581
1.434834191
1.355871789
1.299224245
1.245507984
1.189749787
1.143475526
1.112902182
1.08609941
1.056571486
1.029807966
1.003806352
0.976835962
0.94956187
0.9312915432
0.9168727301
0.9017507728
0.8824001487
0.8688302936
0.8587422505
0.8492169631
0.8382041597
0.83080483
0.8232784078
3.819850741
3.805317588
3.723210088
3.535348878
3.244647394
2.930710296
2.641948501
2.361360908
2.131712697
1.954851172
1.794796062
1.649239194
1.547675453
1.460619975
1.374197576
1.299665506
1.247606967
1.197235642
1.144813885
1.101462314
1.071357954
1.043969684
1.015960552
0.9916113822
0.9682445477
0.9434686856
0.9180276544
0.9016586433
0.8876802393
0.8725998673
0.8550067172
0.8432122877
0.8347213108
0.8266052114
0.81710805
0.8104433171
0.8036554561
3.821246591
3.797489391
3.689182266
3.467727667
3.149751924
2.823728669
2.531603512
2.254665701
2.033436507
1.86384916
1.711639738
1.570794794
1.474873777
1.394777451
1.315397195
1.243958149
1.194638219
1.148175642
1.100446946
1.060106355
1.0334204
1.008764694
0.9838335666
0.9608888093
0.9395045948
0.9179017464
0.8961688641
0.8804820758
0.8666046752
0.8524921116
0.8365254352
0.824481403
0.8160205751
0.8081915911
0.799052555
0.7923604975
0.7861172099
3.821319012
3.784071821
3.644610203
3.388353245
3.045898237
2.70924219
2.417858996
2.148144641
1.933054296
1.771321614
1.628133563
1.495394051
1.406561252
1.333315741
1.259524923
1.191951521
1.145959174
1.102949109
1.057734748
1.018058255
0.993515403
0.9714492552
0.9489029452
0.9280119018
0.9106606896
0.8929414675
0.8730026817
0.8583964815
0.8456275902
0.8314677231
0.8150378122
0.8035268944
0.795975596
0.7887426671
0.7797406318
0.7734181029
0.7679913948
3.817405859
3.761999343
3.588237377
3.297407277
2.933609266
2.590402803
2.301050111
2.038784253
1.834388283
1.680571251
1.545999546
1.42195952
1.338257567
1.265496251
1.195381995
1.133004966
1.093363935
1.056992279
1.016998599
0.9810375287
0.9579023546
0.9345823696
0.9107407305
0.890831207
0.8748740285
0.8585316652
0.8407263417
0.829126179
0.8184270244
0.8046370914
0.7887506897
0.7785888354
0.7721451506
0.7656943042
0.7578084474
0.7522358674
0.7477583397
3.809042807
3.730778063
3.519914654
3.195013239
2.813788199
2.467779068
2.182280894
1.930375369
1.733855803
1.588240685
1.462488773
1.348153253
1.272367235
1.209119531
1.145949607
1.085121442
1.046151117
1.010611239
0.9739648602
0.9413098072
0.9203485262
0.90003776
0.8793932362
0.860293966
0.845279463
0.831520881
0.8171429647
0.8067088434
0.7970208367
0.7845644964
0.7703565582
0.759933016
0.7529775357
0.7464456819
0.7387051161
0.7328444994
0.7288799579
3.795353466
3.691104885
3.440158659
3.082992748
2.687580371
2.339171626
2.062276164
1.819337952
1.630920249
1.499915347
1.386435017
1.275701653
1.201594634
1.141972371
1.08425973
1.02899625
0.9983045477
0.9696644182
0.9376804732
0.9061541211
0.8872131255
0.8694953373
0.8511466233
0.8327263356
0.8205550959
0.8098212947
0.7963267922
0.7867508065
0.7784522048
0.7670754231
0.7533712974
0.7434206924
0.7364312706
0.7295793725
0.7208910478
0.7145050668
0.7110711384
3.777195308
3.644252411
3.350800202
2.960062477
2.553233459
2.207974914
1.937800843
1.707070085
1.531220578
1.409993932
1.305209405
1.206571385
1.140399747
1.085309745
1.031850198
0.9805782894
0.9513961767
0.926044515
0.8970764716
0.8672962541
0.8513406407
0.8357849712
0.8180890533
0.8013680652
0.7906898154
0.7807362268
0.7687269217
0.761640019
0.7550908347
0.7451038012
0.7320430188
0.7229755321
0.7162694398
0.7091386298
0.7008520545
0.6951933803
0.6924338817
3.75529776
3.590400631
3.249350364
2.826860054
2.411311113
2.068556672
1.806041805
1.593194581
1.435026972
1.320287541
1.221984467
1.131472229
1.071021122
1.024514941
0.9787831577
0.932491664
0.9070571621
0.8835721192
0.8573781029
0.8321722358
0.8184777867
0.8042209744
0.787546815
0.772022558
0.7611191663
0.7510588202
0.7406691385
0.7346651105
0.7295858905
0.7216599083
0.7109531978
0.7033608029
0.6970199845
0.6897693414
0.681712612
0.6749658773
0.6719950472
3.735404373
3.529133069
3.134274525
2.680286681
2.254072708
1.920471948
1.67732357
1.479295298
1.334728365
1.235643017
1.148782999
1.065078172
1.009059168
0.9663774222
0.9245147239
0.8820698096
0.8604470575
0.8423331489
0.8218254631
0.8001666847
0.7885742402
0.7770092387
0.7630082009
0.7485537538
0.7376683153
0.7282605258
0.7186020227
0.7123802885
0.7085067434
0.702429548
0.6936747781
0.6864590643
0.6802309859
0.6727483834
0.6642403111
0.6569617374
0.654803664
3.716947117
3.453818167
2.996405946
2.516162726
2.086382436
1.76678414
1.546727676
1.358745096
1.221719288
1.135873985
1.064110441
0.9911248588
0.945749384
0.9132107222
0.878256791
0.8409812384
0.8240307337
0.8098060626
0.7910956115
0.7681576608
0.7587516086
0.7499623494
0.738666905
0.7261064504
0.7167012641
0.7082224535
0.6982889611
0.6929423072
0.6896017699
0.6841292537
0.6756785387
0.6685492812
0.6628887343
0.6555609556
0.6477021027
0.6408119711
0.6388642565
3.694108027
3.357904077
2.83508775
2.331573298
1.906534932
1.601947357
1.407751174
1.253769791
1.137736227
1.060639647
0.9933642816
0.9225179122
0.8819818569
0.8562679712
0.82720376
0.7930180646
0.7802599055
0.7699397636
0.7532682186
0.7317636679
0.7263037242
0.7202341179
0.7108301164
0.7002913396
0.6926902897
0.6849567613
0.6755052133
0.6696431709
0.6674087037
0.6637245737
0.6569920697
0.6513154319
0.6465546905
0.640101741
0.6322390093
0.6251643891
0.6235883095
3.664161817
3.236152575
2.643317188
2.116227724
1.724448825
1.446752984
1.261716096
1.121306309
1.022671986
0.9662874199
0.9151017499
0.8542490806
0.828509391
0.8116228938
0.7864607483
0.7526556395
0.7442795375
0.7365435835
0.7207265581
0.6994764058
0.6951375382
0.6908267817
0.6826285377
0.6727862875
0.665691269
0.6580786612
0.6504802025
0.6434969446
0.6430616313
0.641838342
0.6380962981
0.6340987784
0.6297599716
0.6231840168
0.6145573692
0.6063290341
0.6059788055
3.622810894
3.070789684
2.418732287
1.88101739
1.501453477
1.280723627
1.136857356
1.018771321
0.9355806328
0.8896567138
0.8450792986
0.7831541908
0.7699996186
0.7614097951
0.7419051611
0.7133513219
0.7108816718
0.706972013
0.6938426662
0.673542196
0.6694446262
0.6657866835
0.658642263
0.6499303572
0.6443242049
0.6375766995
0.6285436554
0.6224205772
0.6220050132
0.6210623099
0.6180551785
0.6145531055
0.6109699395
0.6053406331
0.5976402749
0.591381902
0.5911524804
3.56244287
2.845574285
2.128650624
1.627305381
1.283282891
1.098620639
0.991633823
0.9008927267
0.8373921187
0.8136229304
0.7788093299
0.7240844588
0.7204072621
0.7180824312
0.7028305561
0.6771905669
0.6761377271
0.6739690395
0.6640209438
0.6473495825
0.6440379838
0.641710239
0.6368276192
0.630326449
0.6267610628
0.6217048236
0.6127411738
0.6046228567
0.6031216021
0.6017300945
0.5985851096
0.596390504
0.5940993564
0.5895736636
0.5828980956
0.5775642267
0.5777381296
3.4467813
2.52845706
1.780542411
1.34699056
1.091074433
0.953197332
0.8794530084
0.7904738383
0.7511168517
0.7416111838
0.7144178312
0.6721353523
0.6688978435
0.6690045124
0.6562524396
0.6356787144
0.6370488457
0.6372007742
0.6306660569
0.6189725493
0.6166224902
0.6153648607
0.6116344097
0.6057551536
0.6046107542
0.6017814831
0.5946126211
0.5864334567
0.5857836596
0.5848385387
0.5828204221
0.5821764008
0.5808291198
0.5770066962
0.5703908094
0.566592921
0.5662042601
3.198981594
2.136344677
1.392950888
1.030397948
0.848006207
0.7916841504
0.7597198078
0.6861365634
0.6752767716
0.6773106192
0.661205116
0.6316122799
0.6290492258
0.6286795748
0.6191069186
0.6045769954
0.6041926534
0.6042365632
0.5994844834
0.5900163502
0.5891259444
0.5878710447
0.5828905984
0.5765546164
0.5771911086
0.5762078505
0.5720556756
0.5663827197
0.5661878122
0.566186258
0.5655440912
0.5659113326
0.5656600008
0.5629843676
0.556664583
0.5538402652
0.5536348396
2.777328102
1.462141293
1.039814557
0.846112036
0.6823635582
0.6635697141
0.6408977637
0.5974203441
0.5907447894
0.5936196151
0.577901393
0.5673238321
0.5737020859
0.5818682619
0.5774549175
0.5719595523
0.5733041716
0.574545677
0.5712239298
0.5625590132
0.562592025
0.5622059818
0.5582386657
0.5541895994
0.5553373706
0.5551520994
0.5522323889
0.5482251697
0.548040712
0.5483987482
0.5478973426
0.548989237
0.5495633348
0.5478926268
0.5430515268
0.5409692736
0.5405759014
1.875786993
0.8029013085
0.6482425138
0.6012105451
0.5458201504
0.5499235995
0.5382090481
0.519089823
0.5200709317
0.5244067492
0.5322426386
0.53537493
0.5413668147
0.5481470478
0.5464393716
0.5420388853
0.5426588883
0.5450514477
0.5430843381
0.5381843246
0.5389807706
0.5396611183
0.5379084752
0.5354956555
0.5361237561
0.5363479774
0.5346033015
0.5321228057
0.5320947019
0.5322269127
0.5315348934
0.5318454834
0.5324700055
0.5319555284
0.5302568277
0.5297509743
0.5297413777
0.4618415083
0.487818429
0.5178244859
0.5204375783
0.5065770194
0.5190437112
0.5082571888
0.4966273315
0.498386162
0.5090186464
0.507011276
0.510921114
0.5172541648
0.5235652572
0.5221587368
0.5214493022
0.5245579911
0.5261866865
0.5237814064
0.5232579071
0.5242774811
0.5245797861
0.5227343589
0.5217935133
0.5222590809
0.5222106136
0.5200528975
0.519193073
0.519987512
0.5202797258
0.5202860001
0.5210722098
0.5221751974
0.5217568864
0.5206249314
0.520534929
0.2984041702
0.3638924933
0.4771084211
0.4894823456
0.4910069491
0.5075452894
0.4971826075
0.4899059401
0.4923619369
0.5027994802
0.5029781582
0.5062318559
0.5114469024
0.5155722505
0.5149140745
0.5151641159
0.518568912
0.5202510979
0.5176294157
0.5166887092
0.5173947042
0.5201643575
0.5186841746
0.5184261664
0.5189903965
0.5183232041
0.5158718012
0.5146289556
0.5145737781
0.5147221522
0.5151652597
0.5170066849
0.518738745
0.5187940355
0.5181998027
0.5182684178
0.2960516713
0.33926313
0.4285647074
0.4522450236
0.4691655535
0.4891307606
0.4786393449
0.4742905839
0.4772661484
0.491151711
0.4970939582
0.5006902596
0.5055965821
0.5077173751
0.5066660873
0.5061607596
0.5098387275
0.5117775172
0.50943439
0.5084178064
0.5103397306
0.5122644372
0.513035626
0.5144097934
0.5159683595
0.5155727281
0.5133417803
0.512448672
0.5119486301
0.5107053384
0.5096251575
0.5108637012
0.5135067745
0.5148420374
0.5152545148
0.5163067409
0.2955408156
0.3392255881
0.3824702447
0.4193942422
0.4514036742
0.4707448388
0.461826881
0.460282387
0.4689934704
0.4836624045
0.4895004084
0.490559147
0.4955526522
0.4976236199
0.4959900221
0.4982943483
0.5016199287
0.5030123166
0.5034078712
0.5041909624
0.5039216584
0.5058702803
0.5050076337
0.5075997683
0.5108817429
0.5113778614
0.5097100308
0.5098803642
0.509896848
0.5086696203
0.5073064719
0.507190229
0.5081292635
0.5089779541
0.5101106643
0.5129060998
0.2989444673
0.3416967724
0.3739096287
0.4100194841
0.4450084315
0.4616094913
0.4539661547
0.4546079493
0.4621208948
0.473842144
0.4744849968
0.4753313394
0.4809148815
0.4860180479
0.4887570506
0.4934139825
0.4970287125
0.4994252942
0.5001706684
0.5012350652
0.5017271137
0.502779705
0.5010782183
0.5014455445
0.5036021184
0.5040816428
0.5030078445
0.5050793732
0.5066447205
0.5063725757
0.5059166013
0.5056070952
0.5055284326
0.5054160631
0.5060692527
0.507965897
0.3107844562
0.3482675749
0.3654405679
0.4030255843
0.4360767512
0.4499790726
0.4438516805
0.4463808952
0.4504651877
0.4576034831
0.4628510118
0.4686335609
0.4747474635
0.4798384929
0.4851379242
0.490081973
0.4945239049
0.4963193873
0.4970621759
0.4986930541
0.499534124
0.5005464292
0.4997519997
0.4990917887
0.4996003685
0.4983297419
0.4966554016
0.4977732572
0.5001284738
0.5016108895
0.5035388523
0.5042661512
0.5046293492
0.5042238703
0.5043315841
0.5050561403
0.3361122904
0.346584911
0.3569668434
0.3899714307
0.4185234521
0.4289765314
0.4268705753
0.4311017627
0.4415766783
0.4503421167
0.4601385363
0.4658985387
0.4716155465
0.4757014788
0.4811003453
0.4858019434
0.4903829441
0.4914550236
0.4918728116
0.4933197406
0.4953843382
0.497366329
0.4976814582
0.498065001
0.4980440588
0.496279178
0.4944745023
0.4941618814
0.4939056318
0.4942713167
0.4982840345
0.5013975757
0.5028813703
0.5033115563
0.5037484567
0.5039948908
0.3539398613
0.3428339142
0.348482169
0.3727705026
0.405288473
0.4153363767
0.4124001426
0.4173122245
0.4364859036
0.4477018433
0.4579359249
0.4626397642
0.4668853058
0.4699396566
0.4734436719
0.4772030853
0.4819498302
0.4823850073
0.4831618224
0.4838049269
0.4875088237
0.4906061328
0.4930929854
0.4957915387
0.4965915511
0.4949875771
0.4934829943
0.4929255359
0.4918949165
0.4906071385
0.4916475645
0.4954050659
0.4991560955
0.5013014592
0.5026911242
0.5035463901
0.3534785669
0.3320024523
0.3433882186
0.369632209
0.4031965275
0.4120171295
0.409017424
0.4130648751
0.4320949628
0.4442966827
0.4530394365
0.4544634887
0.456474962
0.459210507
0.4599043577
0.4644601335
0.4703057456
0.47356069
0.4772249405
0.4774332461
0.479412724
0.4811838945
0.4846504536
0.4899525323
0.4929143686
0.492376801
0.4917178293
0.4919516393
0.4912779807
0.4895011831
0.4891300668
0.4902549043
0.4932021411
0.4967792764
0.4998086882
0.5019210044
0.350916294
0.3154844366
0.3447394899
0.3693745033
0.403476604
0.4091049494
0.4069117599
0.4116805486
0.4278972299
0.4372278787
0.4403831257
0.4384667453
0.4424178353
0.4472141533
0.4524025496
0.4585459168
0.4652099584
0.4704740517
0.4744972565
0.4749338818
0.4766441641
0.477109619
0.478065119
0.481686988
0.4851090025
0.486338522
0.4872588302
0.4892830911
0.4898910267
0.4889459391
0.4883375891
0.4885619521
0.4898315331
0.4912730355
0.4943321533
0.3363450409
0.3128655182
0.3490806833
0.3706998161
0.402103949
0.4034982361
0.4016884966
0.4083477896
0.4227317373
0.4228526149
0.4229765168
0.428803584
0.4374008782
0.4433480489
0.450452567
0.4566495444
0.4635184955
0.4686906375
0.4726429071
0.4737554341
0.4752372174
0.4756366583
0.475885765
0.4783023462
0.4787601862
0.4783639217
0.4793725858
0.4831093812
0.485977458
0.4867181033
0.4875289472
0.488049923
0.4887912237
0.4890960988
0.4902451259
0.3148283535
0.313859751
0.3519834042
0.3741167905
0.396344675
0.3923781043
0.3903328401
0.3997707762
0.4140150279
0.4126318183
0.4184845853
0.4266415131
0.4359400126
0.4419984503
0.4500851022
0.4563789078
0.4618355626
0.4660559156
0.4696866571
0.4714422908
0.4730997707
0.4741933687
0.4751545869
0.4770538309
0.4767957222
0.475246339
0.4748469435
0.4760236879
0.4785299486
0.4813065592
0.4848004346
0.4869158015
0.4881756696
0.4883968526
0.4887742902
0.3114944625
0.3156817927
0.3528923166
0.3760642258
0.3888277688
0.3829037951
0.3810757583
0.388334128
0.4035427532
0.4101120683
0.4175545907
0.4259912843
0.4346055454
0.440381472
0.4477069061
0.4537463969
0.4576225737
0.4602925959
0.4633660611
0.4657049122
0.4679431261
0.4706211894
0.4733901011
0.4761206449
0.4757942842
0.4740728901
0.4733332863
0.4736518635
0.4738345992
0.4748895209
0.4789750407
0.4836248224
0.4864514914
0.4878371413
0.488500995
0.3120801767
0.3190723984
0.3518444321
0.3757599972
0.3870335076
0.3818368206
0.3803172834
0.3857502332
0.3989237261
0.4082437258
0.4152098593
0.4226415194
0.4304156501
0.4360452131
0.4412938877
0.4468677042
0.4486512303
0.4493952425
0.4516345271
0.455034683
0.4579275861
0.46257805
0.4687043373
0.4733653437
0.473992094
0.4730328291
0.4727767682
0.4729319846
0.4725450296
0.4727110891
0.4738640727
0.4774664807
0.4822651805
0.485727947
0.4875091765
0.3167999972
0.3236522076
0.342799169
0.3751492267
0.3868236171
0.3818740657
0.3806025912
0.3856320437
0.3961641509
0.4045807137
0.4085034952
0.4140152764
0.4206217296
0.4265558422
0.4298565956
0.436356507
0.4399277946
0.4422711483
0.4442795784
0.4489569359
0.4515447468
0.4540872949
0.4597941836
0.4668254516
0.4696132525
0.4702517076
0.4710496279
0.4721613052
0.4723276598
0.4721900097
0.4722547108
0.4734081388
0.4758099705
0.4806719815
0.4843667232
0.3178466646
0.3270008124
0.3381411674
0.3740194136
0.3880108999
0.3848784495
0.3837779553
0.3870398254
0.3929719512
0.3979253631
0.3971412195
0.4034047721
0.4101692951
0.4172781931
0.4241649595
0.4319372156
0.4374181065
0.4403966395
0.442405659
0.4473893789
0.4498815575
0.4515567151
0.4542181735
0.4578021248
0.4608215871
0.4636231193
0.466657834
0.4694060446
0.4709141513
0.4717301155
0.4719236897
0.4721419203
0.4727257931
0.4743628918
0.4782062666
0.3175084131
0.3286561815
0.3380809816
0.3733265992
0.3889372417
0.3865232193
0.3851413688
0.3869705979
0.3880740202
0.3873309285
0.3925435289
0.400520678
0.4077651375
0.4151654563
0.4228401732
0.430816248
0.4367749538
0.4401859894
0.4423442403
0.4470864083
0.4495807855
0.4508309606
0.4526761129
0.4544390609
0.4540284807
0.4551426938
0.4585316351
0.463357711
0.4671139008
0.4694493878
0.4711950275
0.4718765584
0.471776291
0.4720800409
0.4741416714
0.3155011201
0.3291602606
0.3386882998
0.3721884128
0.3882839603
0.3866596504
0.3840561694
0.384056801
0.3801496878
0.3835255947
0.3919180804
0.4000186323
0.4075020214
0.4149985849
0.4233755539
0.4307233907
0.4359996771
0.4390422486
0.4412759591
0.4455737209
0.4484641443
0.4503503452
0.4525773624
0.4534259428
0.4522319995
0.4523478681
0.4538298377
0.4569402568
0.4601710501
0.4640791025
0.468588004
0.4708392686
0.4715497475
0.4714394256
0.3099260625
0.3283802736
0.3412374676
0.3700482282
0.3874336936
0.3857209997
0.3808081289
0.3794878059
0.3770080685
0.3831226885
0.3927947328
0.4004103167
0.4075317774
0.4149340043
0.422681999
0.4285446809
0.4330119717
0.4352733791
0.4375044888
0.4415879905
0.445149898
0.448055438
0.4516227127
0.4530930865
0.4520051214
0.4515939442
0.4526269882
0.4549471659
0.456064811
0.457617426
0.4627308098
0.4678554364
0.4701841565
0.4712146943
0.3086700843
0.3205886029
0.3423058899
0.367254504
0.385494001
0.3837947662
0.3809686271
0.3787656003
0.3767759541
0.3838051957
0.3910594189
0.3984445366
0.4054049064
0.4123333901
0.4189295006
0.4231536146
0.4257429844
0.426723099
0.4292470308
0.4328497304
0.4375544618
0.4424327127
0.4481287423
0.450947603
0.4511540146
0.4515923072
0.4526479764
0.4545089588
0.454876705
0.4555401179
0.4567524542
0.461384115
0.4665377712
0.4693635214
0.3143491194
0.3118272211
0.3416970662
0.36561593
0.3846095512
0.3844694851
0.3821838434
0.3793840064
0.377331318
0.3831640993
0.3865480006
0.3946891834
0.4008799662
0.4064250727
0.4111687669
0.4139368182
0.4153935954
0.4175641175
0.421131527
0.4252155715
0.4291872813
0.4335648366
0.4404037864
0.4458301925
0.4479616275
0.4497523302
0.4517390319
0.4540458811
0.4548729104
0.4551203968
0.4550592631
0.4557399947
0.4595118973
0.464821634
0.3317273834
0.3099201498
0.3392849855
0.3642787973
0.3850166182
0.3871619324
0.3843753742
0.3808760739
0.3784936141
0.3802034179
0.3824428891
0.3891349522
0.39405401
0.3994593291
0.4051488899
0.4092582612
0.4120037662
0.4150920255
0.4189894124
0.4235576466
0.4269529871
0.4300343199
0.4337442536
0.4372043182
0.4408013918
0.4450286774
0.4485887799
0.4518578502
0.4541159259
0.4554190373
0.4547673687
0.4541448834
0.4552110634
0.4582800309
0.3375634373
0.3096997312
0.3328267814
0.3635865009
0.3864726802
0.3913450312
0.3878630195
0.3828009963
0.3783882725
0.3766769456
0.3817896848
0.3869073232
0.3919885542
0.3977268866
0.4038502615
0.4083007892
0.4112674616
0.4143917116
0.4184930276
0.423320201
0.4264287489
0.4290775896
0.4321647831
0.4330795518
0.4341579578
0.437156446
0.4419526983
)
;

boundaryField
{
    inlet
    {
        type            calculated;
        value           nonuniform 0();
    }
    outlet
    {
        type            calculated;
        value           nonuniform 0();
    }
    bottom
    {
        type            calculated;
        value           nonuniform 0();
    }
    top
    {
        type            calculated;
        value           nonuniform 0();
    }
    obstacle
    {
        type            calculated;
        value           nonuniform List<scalar> 
23
(
0.4618415083
0.2984041702
0.2960516713
0.2955408156
0.2989444673
0.3107844562
0.3361122904
0.3539398613
0.3534785669
0.350916294
0.3363450409
0.3148283535
0.3114944625
0.3120801767
0.3167999972
0.3178466646
0.3175084131
0.3155011201
0.3099260625
0.3086700843
0.3143491194
0.3317273834
0.3375634373
)
;
    }
    defaultFaces
    {
        type            empty;
    }
    procBoundary9to3
    {
        type            processor;
        value           nonuniform List<scalar> 
38
(
1.848514199
1.785654624
1.72210598
1.657682701
1.611130869
1.567888712
1.525425413
1.481928874
1.450101845
1.419415776
1.386986653
1.34862819
1.318660156
1.294305501
1.270109483
3.863467915
3.884384251
3.858204264
3.802684994
3.760196414
3.737989763
3.705400368
3.633417045
3.525542805
3.372102627
3.199172135
3.040632756
2.879019709
2.703946832
2.568236001
2.449343633
2.33155682
2.212587741
2.125419252
2.043107312
1.959099718
1.873744435
1.873744435
)
;
    }
    procBoundary9to4
    {
        type            processor;