/*--------------------------------*- C++ -*----------------------------------*\
  =========                 |
  \\      /  F ield         | OpenFOAM: The Open Source CFD Toolbox
   \\    /   O peration     | Website:  https://openfoam.org
    \\  /    A nd           | Version:  7
     \\/     M anipulation  |
\*---------------------------------------------------------------------------*/
FoamFile
{
    version     2.0;
    format      ascii;
    class       volScalarField;
    location    "4.6";
    object      T;
}
// * * * * * * * * * * * * * * * * * * * * * * * * * * * * * * * * * * * * * //

dimensions      [0 0 0 1 0 0 0];

internalField   nonuniform List<scalar> 
2222
(
1.156663715
1.156531188
1.156763156
1.156912745
1.156651249
1.155689384
1.154623573
1.154470474
1.154607242
1.15529499
1.155517727
1.155376092
1.154485508
1.153914771
1.15378271
1.154070401
1.154059422
1.151855923
1.152269158
1.152291105
1.152670987
1.15254863
1.152514525
1.153101333
1.153279312
1.153012082
1.152150688
1.151741393
1.152207766
1.153004769
1.153526374
1.153698635
1.153251474
1.153075976
1.153836444
1.154778124
1.155304032
1.155526582
1.155249285
1.154198505
1.153265269
1.153136422
1.153405167
1.153780638
1.153733037
1.153232755
1.152175302
1.151823081
1.152109949
1.152985414
1.153555852
1.153659616
1.153029272
1.152163599
1.151962691
1.151991247
1.141667595
1.14223593
1.142744615
1.143250071
1.143277461
1.143282186
1.143898726
1.144407363
1.144557482
1.144346558
1.144033889
1.144210312
1.144953676
1.145819368
1.146531368
1.146908972
1.146997801
1.147660781
1.148607642
1.149466387
1.14995205
1.15010132
1.149727677
1.148677653
1.148047864
1.148105949
1.148496525
1.148760889
1.14893771
1.148681759
1.148233638
1.148493168
1.149315666
1.150163365
1.150607519
1.150457545
1.14952619
1.148899389
1.12738906
1.128684249
1.129442414
1.130228057
1.130926732
1.131229077
1.131383197
1.131824755
1.132472994
1.132953306
1.13323089
1.133313772
1.133535307
1.134250177
1.135605595
1.137037037
1.138153977
1.138798889
1.139324369
1.140011138
1.14088413
1.141735636
1.142250043
1.142370117
1.141735501
1.140641062
1.140326475
1.140815673
1.14160858
1.142319133
1.142893707
1.142985777
1.143093525
1.143829504
1.144838558
1.145553824
1.145947748
1.145504866
1.110850576
1.11239126
1.113429522
1.114431516
1.115469014
1.116386196
1.116818786
1.117067622
1.117404648
1.117965552
1.118640562
1.119345043
1.119976741
1.120697788
1.121743118
1.123259459
1.125052083
1.126748617
1.128106017
1.129005912
1.12964504
1.130231482
1.130844104
1.131296866
1.131406531
1.131293073
1.130931204
1.130746077
1.131107537
1.1320613
1.133207063
1.134367012
1.135316446
1.13583342
1.136415542
1.13746379
1.138429851
1.138865358
1.093157125
1.094659391
1.095887649
1.097285657
1.098473554
1.099330329
1.09995443
1.100486589
1.101002097
1.101499443
1.10212698
1.10289518
1.103804108
1.104912005
1.106156974
1.107578906
1.10938931
1.11147128
1.113429814
1.115064719
1.116339671
1.117078483
1.11729054
1.117343398
1.117617319
1.117995344
1.118309562
1.118578687
1.118883317
1.119432135
1.120463242
1.121968028
1.123641791
1.125238778
1.126568167
1.127465738
1.127971261
1.128548324
1.075606081
1.077303337
1.078757834
1.080137201
1.081174869
1.081863956
1.082580296
1.083352889
1.084057227
1.08459997
1.085166869
1.085860128
1.086806754
1.088069802
1.089574973
1.091274079
1.093188091
1.095202559
1.097146023
1.098941598
1.100459866
1.10153591
1.102142879
1.102436974
1.102578709
1.102758088
1.103061714
1.10350724
1.104177889
1.105125191
1.10634842
1.107770227
1.109504179
1.111536338
1.113515521
1.114999585
1.115680587
1.116103542
1.060097767
1.061594392
1.06272509
1.063786089
1.064811581
1.06576828
1.066596174
1.067146311
1.06756815
1.068101589
1.068845521
1.069786948
1.070767465
1.071822541
1.073106057
1.074816684
1.076871908
1.079029665
1.081038401
1.08279465
1.084207761
1.085228789
1.085907481
1.086372495
1.086688569
1.086961113
1.087229543
1.087621128
1.088311602
1.089372705
1.090781775
1.092485223
1.094471441
1.096595663
1.098563588
1.10016666
1.101119156
1.101975733
1.046811711
1.047783806
1.048823152
1.050021801
1.051186223
1.051939846
1.052264839
1.052558604
1.05306374
1.053944789
1.05488662
1.055550568
1.056060632
1.056886305
1.058221444
1.060109611
1.062293369
1.064329299
1.06604447
1.067463579
1.068628618
1.069555897
1.070250333
1.070804508
1.071252888
1.071584218
1.071847863
1.072177478
1.072782438
1.073758665
1.075129918
1.076976154
1.07922043
1.081493706
1.083364949
1.084768802
1.085686202
1.086695726
1.035993658
1.03707767
1.038502694
1.039607371
1.040050511
1.040217674
1.040479137
1.04106701
1.041955435
1.042572285
1.042823964
1.043066819
1.043644646
1.044777796
1.046576482
1.048334245
1.049761418
1.051003362
1.052252375
1.053493561
1.054644535
1.055743341
1.056729964
1.0573308
1.05748322
1.057390688
1.057483369
1.057909517
1.058664695
1.059747899
1.061138378
1.062875731
1.06475839
1.066573838
1.068302045
1.069884069
1.071030868
1.072136888
1.028818124
1.030315422
1.030970431
1.031119837
1.031236908
1.031553719
1.032375156
1.032941611
1.033027767
1.032952406
1.033114601
1.033678744
1.034922281
1.0363794
1.037335456
1.03796415
1.038714383
1.03980594
1.04115839
1.042626905
1.044068854
1.045032348
1.045343764
1.045235563
1.045099429
1.045179131
1.045585664
1.046424776
1.04718378
1.047916996
1.048893574
1.050110394
1.051492196
1.053107743
1.054958699
1.05690171
1.058233723
1.058957713
1.024665978
1.025037605
1.024903903
1.025017805
1.025495999
1.026258533
1.02643288
1.026200251
1.025999592
1.026111766
1.026763055
1.027996215
1.028811288
1.029122108
1.029283298
1.029732721
1.030606071
1.032042536
1.033736668
1.034932859
1.035433215
1.035535504
1.035344088
1.035270448
1.035490769
1.036234213
1.037097956
1.037405619
1.037471972
1.037695545
1.03838348
1.03942994
1.040813657
1.042758631
1.044866739
1.046199204
1.046563115
1.046742862
1.021192858
1.020925569
1.021003113
1.021538198
1.022203578
1.022160272
1.021699235
1.021454958
1.021576969
1.022252569
1.023064749
1.023488012
1.023562552
1.023499513
1.023751229
1.024492241
1.025802607
1.027074133
1.027658609
1.028043662
1.028043851
1.027965386
1.028092587
1.02851187
1.029340878
1.029836615
1.029886685
1.029640077
1.029692309
1.03008173
1.030813466
1.032006868
1.033659786
1.035211205
1.036145079
1.036490036
1.036608856
1.037008439
1.018562174
1.018537813
1.019099612
1.019712298
1.019584959
1.019038288
1.018755283
1.018831092
1.01946179
1.019923087
1.020031494
1.01996912
1.019958016
1.020146645
1.020825476
1.021775203
1.022376086
1.022594968
1.022833239
1.022711326
1.022845232
1.023125384
1.023801275
1.024517035
1.02462601
1.024509281
1.024119094
1.024134739
1.024554766
1.0254379
1.026306689
1.027068575
1.027834068
1.028416507
1.028703902
1.029085221
1.029578235
1.030547043
1.017568043
1.018224983
1.018055257
1.017588888
1.017266587
1.017363682
1.017837114
1.017967219
1.017947569
1.017780447
1.017812918
1.018061133
1.018749149
1.019275638
1.019361631
1.019454306
1.019386481
1.019355484
1.019523014
1.019952974
1.020765545
1.021254197
1.021167535
1.021004285
1.02058995
1.020529843
1.02095708
1.021839223
1.022343047
1.022589359
1.02290742
1.023094487
1.023303493
1.023680116
1.024396502
1.025247552
1.025505741
1.017186715
1.017082759
1.016717722
1.016401004
1.016536036
1.016916335
1.016819811
1.016668899
1.016457558
1.016498105
1.016820521
1.01743483
1.017635811
1.017635522
1.017611371
1.017299606
1.017352244
1.017503432
1.018153037
1.018843969
1.019047463
1.018986753
1.018822639
1.018451129
1.018342132
1.018766548
1.019526893
1.019684908
1.01969945
1.019665004
1.019738968
1.019951198
1.020239461
1.020972582
1.021643592
1.021665469
1.021627326
1.016312902
1.016079568
1.015778982
1.015844968
1.01624085
1.016104962
1.015881275
1.015606699
1.015608328
1.016001819
1.016514958
1.016577857
1.016559456
1.016393927
1.016208817
1.016204056
1.016441154
1.017133364
1.017541804
1.017535196
1.017554228
1.017365563
1.017193156
1.017120546
1.01760532
1.018136146
1.018071533
1.017986422
1.017786593
1.017857096
1.017975297
1.018310594
1.018909805
1.019261183
1.01924967
1.019122197
1.018909273
1.015478862
1.015205862
1.015195115
1.015591067
1.015534262
1.015320585
1.015020879
1.014979876
1.01536441
1.015802238
1.015830268
1.015790632
1.01556606
1.015504789
1.015491205
1.015842174
1.016431434
1.016605507
1.01655485
1.016521014
1.016375363
1.016402725
1.016439185
1.016959378
1.01729531
1.01712439
1.016936877
1.016720651
1.016737767
1.017008826
1.017413325
1.017714357
1.017768891
1.017729828
1.017501478
1.017375649
1.017469101
1.014669147
1.014628682
1.014957625
1.014988564
1.014804235
1.014543274
1.014469636
1.014779657
1.015159668
1.015173888
1.015142526
1.014963344
1.014961091
1.015016081
1.015452805
1.015858712
1.015852425
1.015789955
1.015667125
1.015643535
1.015739238
1.015971375
1.016514046
1.016718744
1.016492721
1.016215663
1.016033658
1.016034128
1.016478744
1.016863956
1.016933375
1.016866978
1.016777503
1.016523788
1.016451141
1.016505323
1.017185926
1.014105872
1.014383838
1.014535044
1.014318669
1.014075303
1.014001476
1.01424567
1.014555153
1.014515552
1.014498192
1.014400591
1.014438382
1.014619788
1.015092746
1.015350703
1.015232491
1.015132493
1.014968657
1.015016009
1.01513706
1.015535465
1.016106092
1.016237662
1.016012359
1.015710549
1.015539591
1.015513181
1.015957013
1.016297196
1.01624976
1.016194043
1.016051689
1.015894583
1.01579949
1.015940154
1.016447168
1.016702958
1.013852054
1.014095869
1.013943635
1.013692385
1.013553778
1.013745975
1.013988039
1.013900051
1.013820304
1.013727026
1.013854174
1.014181522
1.01465042
1.014808996
1.014696191
1.014549277
1.014385939
1.014417487
1.014571456
1.015103102
1.015639462
1.015732938
1.015580414
1.015298221
1.01512681
1.015077597
1.015437193
1.015709437
1.015651052
1.015549205
1.015463278
1.015410354
1.015324086
1.015490916
1.015877809
1.015991077
1.015957956
1.013588151
1.013508046
1.013311803
1.013181753
1.013298964
1.01346958
1.013355743
1.013238736
1.01305712
1.013147034
1.013514856
1.014078005
1.014184161
1.01413522
1.014017433
1.013886422
1.013873065
1.014069168
1.014605957
1.015052548
1.015127555
1.015070916
1.014857833
1.014718321
1.014653273
1.014954116
1.0152079
1.01512998
1.014991065
1.014961518
1.014933966
1.014949585
1.015125056
1.0153415
1.01535054
1.01528738
1.015204745
1.013036671
1.012900882
1.01284173
1.012963026
1.013057505
1.01291707
1.012763072
1.012535891
1.012549594
1.012807172
1.013314253
1.013513374
1.01354257
1.013456241
1.013406079
1.013403293
1.013618901
1.01405404
1.01434298
1.014428056
1.014455511
1.0143256
1.014259844
1.014235195
1.014484204
1.014653393
1.014584358
1.014524723
1.014470255
1.014466995
1.01459152
1.014761395
1.014839831
1.01476551
1.014696105
1.014557926
1.01461311
1.012527692
1.012441227
1.012611624
1.012744333
1.012609537
1.012420849
1.01211552
1.01209178
1.012289441
1.01264203
1.012788619
1.012910639
1.01287648
1.012877112
1.012948579
1.013203951
1.013496816
1.013619192
1.013687557
1.01375678
1.013714335
1.013743329
1.013803251
1.014035101
1.014118039
1.014021344
1.013922734
1.013875706
1.013971573
1.01420023
1.014348183
1.014350028
1.014239908
1.014145587
1.013976198
1.013954462
1.014154589
1.012045012
1.012136273
1.012387247
1.012363706
1.012200257
1.011848745
1.011760327
1.011888664
1.012139752
1.012221474
1.012292479
1.012325837
1.012407305
1.012505774
1.012796683
1.012988358
1.013001513
1.013041225
1.013048504
1.01305598
1.01316285
1.013318523
1.013558645
1.013598996
1.013494869
1.013365483
1.013282592
1.013391636
1.013705075
1.013874561
1.013843044
1.013754821
1.013641327
1.013473967
1.01345981
1.013532034
1.01394271
1.011748575
1.011977352
1.012079953
1.012002593
1.011694266
1.01155854
1.011622319
1.011764605
1.011793857
1.011821202
1.011815739
1.011957632
1.012164609
1.01242511
1.012538703
1.012536815
1.012499628
1.012440863
1.012443858
1.012568981
1.01280612
1.0130522
1.013095721
1.013012587
1.01285027
1.012732093
1.012811198
1.013118186
1.013312469
1.01332201
1.013283325
1.01314575
1.013043064
1.013017612
1.013072956
1.013455768
1.013706542
1.011721964
1.011720958
1.01154172
1.011408661
1.011449993
1.011519377
1.011512235
1.011455234
1.01142275
1.011539405
1.011841829
1.012119414
1.012183734
1.012162276
1.012082909
1.011979681
1.011968612
1.012055451
1.012309423
1.012544011
1.012599947
1.012546814
1.012393388
1.01226216
1.012304742
1.012580146
1.012772713
1.012790427
1.012753947
1.012648448
1.012630318
1.012636485
1.012734256
1.0130622
1.0132865
1.013278033
1.011430998
1.011264829
1.011229894
1.011343974
1.011380973
1.011332066
1.011214348
1.011128681
1.011229789
1.011514843
1.011789937
1.0118895
1.011862855
1.011758655
1.011640946
1.011634961
1.011696222
1.011872733
1.012070547
1.012172537
1.012116195
1.011961195
1.011898211
1.011908571
1.012152026
1.012335868
1.012334047
1.012264577
1.012166254
1.012205185
1.012284894
1.012517914
1.012753984
1.012859499
1.012805527
1.012857167
1.011073423
1.010981893
1.011067774
1.011193457
1.011179499
1.011002408
1.010870929
1.0109664
1.011207693
1.01146463
1.011575254
1.011569532
1.011495517
1.01141969
1.011381961
1.011400498
1.011499943
1.011629606
1.011747404
1.011767391
1.011665428
1.011633698
1.011633356
1.011849634
1.011995553
1.011956252
1.011851769
1.011779346
1.011843619
1.011968234
1.012272255
1.012473724
1.012466278
1.012414243
1.012372466
1.012470804
1.01084235
1.010929634
1.011020476
1.011017333
1.010860175
1.01068454
1.010707637
1.010850368
1.011095701
1.011252077
1.011249532
1.011228077
1.011231248
1.011214464
1.011207078
1.011223368
1.011268281
1.011301088
1.011332854
1.011348252
1.011430474
1.011465402
1.011655896
1.011778654
1.011702593
1.011547133
1.011465384
1.011538952
1.011724824
1.012029745
1.012158142
1.012150575
1.012109635
1.012049093
1.012015496
1.012128514
1.010847267
1.010952884
1.010941641
1.010780281
1.010603123
1.010586175
1.010684192
1.010803101
1.010866411
1.010854174
1.010917661
1.01103283
1.011074433
1.011051519
1.011018315
1.010975019
1.010932602
1.010910349
1.010999286
1.011186394
1.01129211
1.011527673
1.011605915
1.011547628
1.011367566
1.011242441
1.011289332
1.011484044
1.011747727
1.011822612
1.01181056
1.011780778
1.01174599
1.011714329
1.011729318
1.01182842
1.010923149
1.010936279
1.010772575
1.010575584
1.010563109
1.010611645
1.010670629
1.010638394
1.010507887
1.010528445
1.010753519
1.010901335
1.010900589
1.010814933
1.010725753
1.010657181
1.010626502
1.010736359
1.01090749
1.011107242
1.01135275
1.011429346
1.011373751
1.011187269
1.011079898
1.011102525
1.011251704
1.011460394
1.011545382
1.011540268
1.011483134
1.011420039
1.011427315
1.01144932
1.011470724
1.011473773
1.010926374
1.010805671
1.010604048
1.010583512
1.010625606
1.010641693
1.010528619
1.01033943
1.010312281
1.01047481
1.010660632
1.010701356
1.010636182
1.010541299
1.010486552
1.010506617
1.010573028
1.010676214
1.010937056
1.011168491
1.011261966
1.011216347
1.011021925
1.010894525
1.010929035
1.011060156
1.011189202
1.011251524
1.011217202
1.011201676
1.011216388
1.011198807
1.011196523
1.011208502
1.011159014
1.011032007
1.010797248
1.010666867
1.010640984
1.010668593
1.010673389
1.010505544
1.01024387
1.010201604
1.010339604
1.010470183
1.01051756
1.010481152
1.010428767
1.010437068
1.01047911
1.010504338
1.010602902
1.010761491
1.010944804
1.01109954
1.011037468
1.010858402
1.010769142
1.010805389
1.010882174
1.010977297
1.01101362
1.010943956
1.010927483
1.011010545
1.011075432
1.011070219
1.010996456
1.010900719
1.010759869
1.010689672
1.0106705
1.01071942
1.010745959
1.010700729
1.010525288
1.010220407
1.010140583
1.010244756
1.010397816
1.010423991
1.010370417
1.010396887
1.010427311
1.010461315
1.010517474
1.010620751
1.010685667
1.010804887
1.010886937
1.010857983
1.010734783
1.010688084
1.010717226
1.010781222
1.010842552
1.010829368
1.010729
1.010706768
1.010829763
1.010935692
1.010977176
1.01094636
1.010783733
1.010592837
1.01052012
1.010599175
1.010678245
1.010803768
1.010784733
1.01054807
1.010223672
1.010143316
1.010183086
1.010300678
1.010382852
1.010355564
1.010387126
1.010460624
1.01051226
1.010562743
1.010663198
1.010687962
1.0107074
1.010683123
1.010608105
1.01059983
1.010659442
1.010703156
1.010735085
1.010735546
1.010675561
1.010564231
1.010537165
1.010665075
1.010809839
1.010871487
1.010852679
1.010762573
1.010590776
1.010497826
1.010481174
1.010590044
1.010696239
1.010782729
1.01063585
1.010254098
1.010143557
1.01016663
1.010219419
1.010261702
1.01028449
1.010387534
1.010473062
1.010581147
1.010694511
1.01073866
1.01071655
1.010665441
1.010544118
1.010417744
1.010439537
1.010585239
1.010691702
1.01073934
1.010714691
1.010584138
1.010430512
1.010415506
1.010524134
1.010675493
1.010757894
1.010748283
1.010683364
1.010607592
1.010552137
1.010495369
1.010540706
1.010849489
1.010600649
1.010556053
1.010317698
1.010158762
1.010144732
1.010165954
1.010146974
1.010144635
1.010285032
1.010441274
1.010620001
1.010757873
1.010808866
1.01076855
1.010685317
1.010508312
1.010336382
1.010325503
1.010440758
1.010615262
1.010716857
1.010700787
1.010568888
1.010404531
1.010375182
1.0104245
1.01055938
1.010642752
1.010613592
1.01057272
1.010571251
1.010565832
1.010547964
1.010584829
1.010696185
1.010879171
1.01037701
1.010252847
1.010177917
1.010154354
1.010110729
1.010045062
1.010011789
1.010112753
1.010280252
1.010567408
1.010729562
1.010819911
1.010832635
1.010732571
1.010552652
1.010332766
1.01023869
1.010287381
1.01042911
1.010575651
1.010619507
1.010540831
1.010410844
1.010386595
1.010399731
1.010494721
1.010546744
1.010517185
1.010505491
1.010536733
1.010559124
1.010589018
1.010619467
1.010643789
1.010687762
1.010781138
1.010177119
1.010204619
1.01016561
1.010127877
1.009995708
1.009923287
1.00996972
1.010097382
1.010336226
1.010546864
1.010719128
1.010796959
1.010758319
1.010590969
1.010332811
1.010176612
1.010145418
1.01019767
1.010308179
1.010390535
1.010411503
1.010415788
1.010415799
1.010405668
1.010475103
1.010509369
1.010444017
1.010407996
1.010489466
1.010565408
1.010610984
1.010617306
1.010625986
1.010610141
1.010536649
1.010580784
1.010188455
1.010176821
1.010042739
1.009912524
1.009902976
1.009955536
1.010104463
1.010272451
1.010392762
1.010532874
1.010622643
1.010565502
1.010336338
1.010099394
1.010044091
1.010036162
1.01006544
1.010131183
1.010210905
1.01030455
1.01036943
1.010428377
1.010470731
1.010479366
1.0104239
1.010358959
1.01041121
1.010511136
1.010594745
1.010612756
1.010561442
1.010493816
1.010403428
1.010384972
1.010450353
1.010210076
1.010152607
1.009975175
1.009889605
1.009899551
1.009963773
1.010047428
1.010104576
1.010162099
1.010321425
1.010392536
1.010290772
1.010063715
1.009966325
1.009962077
1.009973005
1.010003991
1.010082706
1.010187998
1.010271576
1.010369234
1.01043588
1.010447261
1.010371678
1.010300983
1.010352865
1.010452045
1.010533175
1.010555117
1.0104944
1.010386791
1.010291599
1.010285881
1.010337667
1.010361735
1.010200452
1.010122133
1.00995146
1.009894022
1.009915194
1.009911476
1.009874138
1.009884809
1.009997832
1.010145896
1.01013116
1.010039411
1.009943262
1.009934136
1.009942171
1.009955611
1.009989641
1.01006815
1.010183518
1.010284975
1.010325325
1.010337403
1.010285509
1.010218594
1.010254325
1.010370788
1.010468762
1.010475235
1.01039358
1.010308654
1.010268144
1.010237982
1.010263108
1.010280008
1.010224216
1.010171038
1.010116941
1.00997827
1.009924944
1.009869393
1.009761527
1.009682257
1.009783877
1.009909086
1.009961112
1.009962956
1.009954012
1.009913116
1.009901495
1.00992905
1.009964253
1.010005798
1.010093712
1.010187091
1.010226472
1.010197736
1.01013424
1.010097022
1.010138209
1.010240393
1.010343713
1.010376756
1.010292847
1.01023361
1.010243301
1.010238562
1.010235306
1.010225129
1.010165347
1.0100922
1.010140359
1.010131054
1.010041039
1.009891838
1.00972238
1.009570739
1.009602317
1.009734853
1.009831664
1.009863519
1.009923202
1.009929578
1.009900726
1.009950576
1.009959698
1.009962447
1.009989357
1.010068002
1.010142446
1.010111342
1.010051825
1.010034335
1.010043236
1.010103119
1.010181409
1.010221815
1.010166907
1.010141617
1.010192976
1.010222538
1.010236164
1.010206963
1.010126362
1.010017479
1.010046741
1.010131306
1.010128635
1.010020899
1.009786539
1.009533762
1.009488436
1.00954434
1.009665409
1.009758354
1.009830169
1.009891389
1.009939974
1.009968559
1.009935907
1.009902035
1.009884258
1.009904119
1.009973707
1.010026173
1.010018706
1.010008053
1.009999552
1.010020981
1.010049719
1.010053161
1.010005491
1.010008416
1.010092949
1.010157862
1.010237028
1.010208634
1.010116307
1.009987141
1.009951289
1.010022402
1.01009551
1.010084932
1.009961326
1.009613817
1.009464376
1.009445808
1.009489987
1.009587184
1.009711703
1.009801273
1.009901146
1.009987969
1.009935722
1.009861518
1.009781418
1.009734285
1.009744263
1.009814475
1.009947232
1.010033613
1.010046636
1.010020064
1.009999106
1.0099606
1.009881146
1.009878445
1.009965687
1.01005652
1.010184629
1.010202806
1.010133426
1.009984877
1.009924197
1.009922712
1.010039656
1.010014213
1.009974401
1.009790464
1.009570014
1.009461298
1.009418717
1.009448443
1.009548244
1.009671999
1.009826938
1.009940286
1.009943609
1.009856509
1.009727968
1.009637161
1.009623993
1.009653716
1.009752669
1.009896886
1.010048003
1.010095102
1.010071696
1.009960493
1.009857892
1.009822517
1.009847374
1.00993862
1.010094971
1.010147291
1.010120999
1.010016059
1.009922063
1.009894035
1.009918973
1.010049062
1.009882995
1.009784759
1.00968074
1.009544971
1.009476601
1.009432425
1.009437624
1.009525916
1.009698373
1.009866907
1.009922072
1.009886502
1.009776663
1.009638518
1.009575297
1.009574261
1.009607031
1.009710163
1.00990342
1.010031517
1.010065492
1.010042273
1.009980112
1.009863659
1.009818676
1.009851108
1.009980691
1.010075126
1.010075301
1.010013277
1.009951074
1.009892194
1.009886674
1.009916921
1.009977154
1.009700259
1.009674142
1.009619415
1.009505672
1.009441951
1.00943119
1.009458656
1.009588296
1.009753802
1.009847345
1.009879847
1.009845007
1.009732543
1.009592485
1.009528584
1.00953855
1.009592659
1.009694574
1.009847733
1.009955903
1.009989862
1.00997046
1.009915879
1.00985512
1.009839182
1.009904017
1.009963529
1.009985798
1.0099773
1.009957744
1.00991652
1.009885376
1.009873028
1.009858674
1.009868065
1.009621802
1.009629849
1.009575736
1.009451932
1.009397515
1.009421746
1.009496945
1.009663669
1.009765657
1.009808565
1.009853657
1.009819434
1.009694251
1.009558533
1.009526962
1.009524939
1.00954492
1.009624921
1.009768528
1.009869609
1.009896703
1.009894099
1.009863218
1.009860748
1.009881719
1.009894231
1.009896945
1.00989151
1.009912903
1.009918593
1.009904138
1.009887752
1.009838927
1.009795704
1.009798351
1.009615728
1.009630681
1.009565984
1.00942857
1.009401433
1.009446902
1.00953888
1.00967175
1.009763686
1.009801274
1.00986378
1.009815833
1.009684446
1.009560565
1.009509983
1.009463841
1.009469861
1.009543489
1.009689618
1.009816982
1.009854178
1.009856724
1.009871627
1.009871262
1.009851871
1.009834849
1.009825994
1.009845283
1.009871329
1.009890889
1.009899959
1.009878448
1.00981702
1.009759164
1.009754545
1.00961423
1.009631264
1.009574393
1.009452302
1.009435921
1.009465675
1.009523088
1.009637118
1.009747658
1.009815488
1.009882283
1.009831647
1.009706274
1.009548135
1.009456861
1.009403133
1.009413657
1.009482089
1.00962926
1.00977794
1.009844025
1.009876797
1.009879265
1.009840693
1.009789289
1.009773395
1.009778072
1.009813117
1.009867668
1.009909833
1.009903637
1.009862957
1.009803774
1.009755993
1.009732849
1.009599343
1.009611339
1.009581354
1.009516177
1.009477161
1.009456925
1.009483305
1.009583018
1.009718019
1.00981502
1.009873966
1.009831132
1.009711436
1.009546687
1.009438873
1.009367835
1.009371291
1.009434564
1.00957753
1.009766779
1.009871215
1.009876639
1.009856629
1.009813142
1.009752156
1.009732588
1.009745847
1.009809448
1.009886487
1.009921186
1.009906029
1.009865815
1.009821121
1.009776737
1.00971283
1.009633455
1.009637987
1.00957428
1.00949961
1.009462059
1.009470556
1.009558654
1.009686417
1.009783987
1.009851696
1.009834619
1.00972477
1.009579867
1.009454646
1.009369226
1.009358507
1.009418592
1.009565409
1.009761616
1.009857703
1.009865955
1.009845807
1.009814098
1.009779892
1.009737356
1.009742863
1.009799306
1.009878571
1.00990796
1.009915483
1.009910357
1.009858072
1.009749774
1.009679662
1.009692275
1.009701069
1.009601972
1.009506611
1.009461575
1.009468061
1.009551293
1.009645789
1.00972893
1.009825274
1.009851778
1.009766033
1.009617002
1.009502214
1.009425638
1.009403401
1.00945604
1.009594529
1.009731743
1.009810216
1.009851939
1.009848989
1.009832825
1.009831378
1.009775298
1.009770192
1.009803282
1.009893076
1.009980544
1.009999766
1.00994569
1.009837708
1.009698185
1.00963774
1.009745684
1.009722171
1.009613989
1.009494028
1.009439197
1.009440828
1.009518764
1.009618574
1.009697827
1.009809869
1.009904401
1.009840649
1.00970189
1.009624114
1.009590539
1.009524691
1.009519469
1.009590582
1.009682961
1.009773502
1.009840914
1.009865587
1.009867317
1.0098796
1.009845779
1.009828802
1.009882674
1.009986311
1.010084905
1.010082235
1.009943148
1.009769963
1.009603394
1.009596354
1.009764184
1.009730631
1.009624271
1.009460176
1.009381422
1.009387741
1.009472119
1.00960847
1.009708229
1.009864069
1.010006346
1.009966593
1.009835525
1.009789091
1.009757006
1.009646054
1.00958817
1.009579058
1.009646366
1.009773223
1.009864623
1.009897209
1.009892459
1.009892134
1.009898132
1.009885909
1.009973019
1.010121421
1.010137011
1.010060802
1.009891689
1.009655694
1.009547373
1.009566565
1.009751589
1.009751839
1.009627513
1.009404964
1.009325825
1.009341654
1.009440554
1.009608184
1.009749979
1.009958856
1.010034496
1.009977677
1.009858136
1.009777138
1.009734043
1.00967165
1.009632509
1.009630848
1.009678735
1.009796846
1.009879403
1.009893621
1.009860452
1.009857362
1.009889187
1.009967055
1.010122966
1.010174602
1.010126103
1.009996154
1.00979411
1.009621561
1.009504974
1.009543832
1.0097366
1.009743774
1.009612423
1.009374527
1.00930533
1.009324776
1.009442646
1.009623193
1.009799484
1.009984495
1.010015231
1.009929283
1.009815288
1.009723693
1.009678525
1.009635134
1.009638842
1.00971034
1.009756212
1.009812549
1.009853268
1.009848081
1.009816554
1.009828077
1.009911526
1.010073142
1.010151536
1.010146373
1.010069603
1.009885956
1.009631047
1.009542072
1.00948497
1.009528578
1.009712125
1.009698411
1.009564181
1.009386056
1.009328691
1.009343139
1.009458934
1.009633862
1.009828758
1.00997225
1.009972805
1.009868739
1.009738672
1.009649698
1.009591276
1.009564425
1.009614399
1.009757828
1.009849311
1.009841268
1.009833244
1.009813024
1.009801901
1.009831647
1.009935763
1.010049664
1.010105049
1.010080671
1.009978483
1.00978528
1.009640495
1.009511869
1.009520102
1.00957734
1.009668136
1.009635986
1.009528671
1.009403805
1.009368731
1.009380035
1.009475339
1.009650992
1.009845216
1.009947371
1.009922774
1.009806323
1.009638143
1.009532649
1.009476735
1.00947261
1.009543923
1.00971902
1.009878189
1.009875564
1.00985231
1.009830451
1.0098223
1.009833828
1.009891151
1.009977861
1.009991244
1.009925586
1.009770905
1.009639535
1.009618355
1.009600731
1.009540683
1.009439898
)
;

boundaryField
{
    inlet
    {
        type            fixedValue;
        value           nonuniform 0();
    }
    outlet
    {
        type            inletOutlet;
        inletValue      uniform 1;
        value           nonuniform List<scalar> 
61
(
1.152190434
1.148925303
1.145277576
1.138887178
1.128592546
1.116031323
1.101970493
1.086741353
1.072190279
1.058875283
1.04663963
1.037048947
1.030697333
1.025450605
1.021473976
1.018884059
1.017553709
1.017301631
1.01664451
1.01591587
1.015150325
1.014599811
1.014203869
1.014038821
1.013728837
1.013270885
1.012850217
1.012458984
1.012112635
1.011803497
1.011419692
1.010976957
1.010704633
1.010610901
1.0106802
1.010901053
1.010882998
1.010740428
1.010547072
1.010434615
1.010346598
1.010206836
1.010091934
1.0100588
1.010036941
1.010071159
1.01005601
1.009971792
1.009860123
1.009801874
1.009757585
1.009735942
1.009706103
1.00967023
1.009629991
1.009593123
1.009567568
1.009550388
1.00953897
1.009592493
1.154128787
)
;
    }
    bottom
    {
        type            slip;
    }
    top
    {
        type            slip;
    }
    obstacle
    {
        type            zeroGradient;
    }
    defaultFaces
    {
        type            empty;
    }
    procBoundary23to17
    {
        type            processor;
        value           nonuniform List<scalar> 
40
(
1.158713931
1.158973218
1.158849146
1.158399871
1.157197883
1.156345386
1.156160011
1.156387576
1.1567319
1.156802039
1.156292678
1.155255416
1.154797587
1.154888516
1.155183866
1.155257486
1.154884667
1.159243585
1.159041852
1.159687467
1.159742331
1.159429861
1.159503738
1.159416375
1.158544187
1.157221419
1.157142867
1.157570062
1.158272025
1.158502287
1.158260571
1.157354196
1.157307274
1.157891569
1.158730947
1.158922437
1.158683845
1.157857278
1.156979727
1.156979727
)
;
    }
    procBoundary23to22
    {
        type            processor;
        value           nonuniform List<scalar> 
65
(
1.150804565
1.140483694
1.140483694
1.125899409
1.109157771
1.091405718
1.073814775
1.058335858
1.045898055
1.035301374
1.027663397
1.023388739
1.020931158
1.018721565
1.017103312
1.017103312
1.016621251
1.016427601
1.015659889
1.014881597
1.014077215
1.013512394
1.013231918
1.012967354
1.012499474
1.012035218
1.011565495
1.01161014
1.01161014
1.011410187
1.011162199
1.010855743
1.010678895
1.010740437
1.01085732
1.010855773
1.010677138
1.010508954
1.010478943
1.010494451
1.010412202
1.010180372
1.010150965
1.010150965
1.010138606
1.010176734
1.010172997
1.010132079
1.010098513
1.010058842
1.009989928
1.009898438
1.00973843
1.009569203
1.009521808
1.009505021
1.009508326
1.009615204
1.009615204
1.009656913
1.0097253
1.009753442
1.009747405
1.00972807
1.009683115
)
;
    }
    procBoundary23to28
    {
        type            processor;
        value           nonuniform List<scalar> 2(1.009627317 1.009573967);
    }
    procBoundary23to29
    {