/*--------------------------------*- C++ -*----------------------------------*\
  =========                 |
  \\      /  F ield         | OpenFOAM: The Open Source CFD Toolbox
   \\    /   O peration     | Website:  https://openfoam.org
    \\  /    A nd           | Version:  7
     \\/     M anipulation  |
\*---------------------------------------------------------------------------*/
FoamFile
{
    version     2.0;
    format      ascii;
    class       volVectorField;
    location    "1.1";
    object      U;
}
// * * * * * * * * * * * * * * * * * * * * * * * * * * * * * * * * * * * * * //

dimensions      [0 1 -1 0 0 0 0];

internalField   nonuniform List<vector> 
555
(
(3 -5.816258134e-15 0)
(3 -1.084483832e-14 0)
(3 -1.512460978e-14 0)
(3 -1.928812684e-14 0)
(3 -1.899131371e-14 0)
(3 -1.945234313e-14 0)
(3 -1.85075153e-14 0)
(3 -1.796868213e-14 0)
(3 -1.642931909e-14 0)
(3 -9.779421945e-15 0)
(3 -4.027095201e-15 0)
(3 -6.374500563e-16 0)
(3 1.224935643e-14 0)
(3 8.736787352e-15 0)
(3 2.668108171e-15 0)
(3 -3.592533324e-15 0)
(3 -7.477324183e-15 0)
(3 -1.21801788e-14 0)
(3 -1.634195745e-14 0)
(3 -1.859991439e-14 0)
(3 -1.821989341e-14 0)
(3 -1.649024202e-14 0)
(3 -1.679539299e-14 0)
(3 -1.525460079e-14 0)
(3 -1.459218794e-14 0)
(3 -1.334852768e-14 0)
(3 -1.062634937e-14 0)
(3 -6.45999409e-15 0)
(3 -1.497612085e-15 0)
(3 1.062951265e-14 0)
(3 9.096662781e-15 0)
(3 8.881154895e-15 0)
(3 5.645981969e-15 0)
(3 2.250362624e-15 0)
(3 -7.50141689e-16 0)
(3 5.871535925e-16 0)
(3 -4.752837509e-16 0)
(3 -3.209713012e-15 0)
(3 -6.167165214e-15 0)
(3 -9.291263053e-15 0)
(3 -1.05300146e-14 0)
(3 -8.174780374e-15 0)
(3 -6.917527736e-15 0)
(3 -7.919797844e-15 0)
(3 -7.723717632e-15 0)
(3 -6.63158389e-15 0)
(3 3.440401127e-15 0)
(3 6.24891159e-15 0)
(3 9.515006456e-15 0)
(3 1.302464392e-14 0)
(3 1.166472002e-14 0)
(3 8.43285705e-15 0)
(3 1.324039091e-14 0)
(3 1.564319725e-14 0)
(3 1.31650977e-14 0)
(3 7.918173803e-15 0)
(3 4.107194593e-15 0)
(3 -1.094936669e-15 0)
(3 -6.895940306e-15 0)
(3 -9.220382629e-15 0)
(3 -1.326692248e-14 0)
(3 -1.064222655e-14 0)
(3 -1.233257491e-14 0)
(3 6.775079619e-15 0)
(3 8.36445314e-15 0)
(3 1.254243454e-14 0)
(3 1.534112636e-14 0)
(3 1.447515179e-14 0)
(3 1.052927501e-14 0)
(3 6.645449279e-15 0)
(3 7.7776533e-15 0)
(3 8.279635194e-15 0)
(3 6.930577701e-15 0)
(3 2.898056943e-15 0)
(3 -1.058080949e-15 0)
(3 -1.061894202e-14 0)
(3 -1.895775909e-14 0)
(3 -2.034300882e-14 0)
(3 -1.703953965e-14 0)
(3 -1.615017915e-14 0)
(3 7.953097423e-15 0)
(3 9.577432099e-15 0)
(3 1.210847392e-14 0)
(3 1.135938443e-14 0)
(3 9.238167248e-15 0)
(3 4.983523464e-15 0)
(3 -1.320151679e-15 0)
(3 -3.896636362e-15 0)
(3 -4.154895497e-15 0)
(3 -5.846515602e-15 0)
(3 -5.360685909e-15 0)
(3 -5.144937071e-15 0)
(3 -6.637046949e-15 0)
(3 -1.129434547e-14 0)
(3 -1.206104655e-14 0)
(3 -1.705936473e-14 0)
(3 -1.519575973e-14 0)
(3 7.704087839e-15 0)
(3 6.084654757e-15 0)
(3 4.768998117e-15 0)
(3 3.173352656e-15 0)
(3 -5.298656466e-16 0)
(3 -4.730214148e-15 0)
(3 -7.271593121e-15 0)
(3 -1.051932026e-14 0)
(3 -1.100266306e-14 0)
(3 -9.765063563e-15 0)
(3 -7.729965483e-15 0)
(3 -7.459811071e-15 0)
(3 -3.484478986e-15 0)
(3 -1.887231738e-15 0)
(3 -3.473426123e-15 0)
(3 -1.215693122e-14 0)
(3 -1.340190327e-14 0)
(3 4.79366402e-15 0)
(3 -2.612066359e-16 0)
(3 -6.307240312e-15 0)
(3 -8.123987793e-15 0)
(3 -6.645991149e-15 0)
(3 -6.247975224e-15 0)
(3 -3.690042064e-15 0)
(3 -3.435309612e-15 0)
(3 -7.82899266e-15 0)
(3 -1.136103387e-14 0)
(3 -1.033329246e-14 0)
(3 -8.533518491e-15 0)
(3 -6.185969234e-15 0)
(3 -3.37894983e-15 0)
(3 -3.850707272e-15 0)
(3 -3.94562062e-15 0)
(3 -6.850656044e-15 0)
(3 -7.913229422e-17 0)
(3 5.640717512e-17 0)
(3 -1.738986798e-16 0)
(3 -6.731563298e-15 0)
(3 -9.142830483e-15 0)
(3 -8.329900629e-15 0)
(3 -6.720477707e-15 0)
(3 -5.182900097e-15 0)
(3 -4.512600162e-15 0)
(3 -6.470839463e-15 0)
(3 -3.591520668e-15 0)
(3 -2.439545876e-15 0)
(3 8.68291923e-16 0)
(3 2.38496537e-15 0)
(3 3.093367343e-15 0)
(3 3.91098295e-15 0)
(3 1.786046243e-15 0)
(3 -6.057164443e-15 0)
(3 -2.050115295e-15 0)
(3 -4.540122823e-16 0)
(3 -1.303865031e-15 0)
(3 -2.290508526e-15 0)
(3 -9.86223142e-16 0)
(3 -1.602323231e-15 0)
(3 2.977626802e-15 0)
(3 5.243528997e-15 0)
(3 9.374617744e-15 0)
(3 9.570240761e-15 0)
(3 9.615726363e-15 0)
(3 1.140210643e-14 0)
(3 1.315058305e-14 0)
(3 1.267273597e-14 0)
(3 1.071396733e-14 0)
(3 7.908969147e-15 0)
(3 2.190739616e-16 0)
(3 1.675986374e-15 0)
(3 5.802813929e-16 0)
(3 1.87807294e-15 0)
(3 2.670832219e-15 0)
(3 4.654617447e-15 0)
(3 5.691574917e-15 0)
(3 6.533008738e-15 0)
(3 9.49472988e-15 0)
(3 1.412925078e-14 0)
(3 1.771905432e-14 0)
(3 1.395425331e-14 0)
(3 1.077413511e-14 0)
(3 1.155762529e-14 0)
(3 1.450735639e-14 0)
(3 1.759686471e-14 0)
(3 2.331589554e-14 0)
(3 5.168464607e-15 0)
(3 4.320945173e-15 0)
(3 3.232410796e-15 0)
(3 3.753522306e-15 0)
(3 3.115782878e-15 0)
(3 1.357168141e-15 0)
(3 1.892167682e-15 0)
(3 1.660115282e-15 0)
(3 1.231778838e-15 0)
(3 -9.219405405e-17 0)
(3 6.77438825e-17 0)
(3 1.910911547e-17 0)
(3 -1.794820591e-16 0)
(3 4.338317082e-15 0)
(3 8.391461322e-15 0)
(3 1.206595377e-14 0)
(3 1.551746926e-14 0)
(3 1.384614058e-15 0)
(3 1.732094173e-15 0)
(3 1.229679342e-15 0)
(3 7.381145189e-16 0)
(3 9.220740182e-16 0)
(3 5.121411232e-16 0)
(3 -6.902493737e-17 0)
(3 -3.393843676e-15 0)
(3 -7.14829621e-15 0)
(3 -1.272907401e-14 0)
(3 -1.385573747e-14 0)
(3 -1.270105235e-14 0)
(3 -7.157832175e-15 0)
(3 -1.91805992e-15 0)
(3 5.376142265e-16 0)
(3 1.449182061e-15 0)
(3 6.567521398e-15 0)
(3 -4.269584286e-16 0)
(3 -2.014347519e-15 0)
(3 -1.561622979e-15 0)
(3 -1.657010356e-15 0)
(3 1.522617338e-15 0)
(3 -1.581240477e-15 0)
(3 -4.487346471e-15 0)
(3 -9.99418768e-15 0)
(3 -1.691817729e-14 0)
(3 -2.002509753e-14 0)
(3 -1.959866093e-14 0)
(3 -1.364262546e-14 0)
(3 -8.492197732e-15 0)
(3 -4.977231412e-15 0)
(3 -3.265212021e-15 0)
(3 -3.400062847e-15 0)
(3 4.203502975e-15 0)
(3 -6.698562322e-15 0)
(3 -4.421237861e-15 0)
(3 -2.387292221e-15 0)
(3 1.800852979e-15 0)
(3 3.024525821e-15 0)
(3 1.072068213e-15 0)
(3 -2.236594691e-15 0)
(3 -5.760249361e-15 0)
(3 -5.301671165e-15 0)
(3 -3.386300921e-15 0)
(3 -2.025522921e-15 0)
(3 2.433193763e-16 0)
(3 9.308366396e-16 0)
(3 4.457677858e-15 0)
(3 5.296062392e-15 0)
(3 3.041589383e-15 0)
(3 3.364482879e-15 0)
(3 -1.033223999e-14 0)
(3 -9.868011428e-15 0)
(3 -9.150924277e-15 0)
(3 -5.058821576e-15 0)
(3 -3.653657619e-15 0)
(3 6.623960433e-16 0)
(3 2.407741834e-15 0)
(3 3.725104081e-15 0)
(3 6.800796302e-15 0)
(3 1.057013062e-14 0)
(3 1.372335369e-14 0)
(3 1.250431e-14 0)
(3 1.12230803e-14 0)
(3 1.116845893e-14 0)
(3 1.06144359e-14 0)
(3 9.453842653e-15 0)
(3 7.501836722e-15 0)
(3 -2.986024763e-15 0)
(3 -3.76253313e-15 0)
(3 -4.685225819e-15 0)
(3 -4.417406663e-15 0)
(3 -5.044542067e-15 0)
(3 -3.218138287e-15 0)
(3 2.653812499e-15 0)
(3 5.803687772e-15 0)
(3 6.394760674e-15 0)
(3 6.504050218e-15 0)
(3 9.084244993e-15 0)
(3 1.125413882e-14 0)
(3 1.231488777e-14 0)
(3 1.143213651e-14 0)
(3 1.156760461e-14 0)
(3 1.176843371e-14 0)
(3 2.796816077e-15 0)
(3 3.835851624e-15 0)
(3 4.760625162e-15 0)
(3 7.45770828e-15 0)
(3 1.010290623e-14 0)
(3 1.250978199e-14 0)
(3 1.282741053e-14 0)
(3 1.274221796e-14 0)
(3 1.125595017e-14 0)
(3 9.261402715e-15 0)
(3 8.394767167e-15 0)
(3 6.729320834e-15 0)
(3 4.581023053e-15 0)
(3 2.511590715e-15 0)
(3 7.868021039e-16 0)
(3 -7.71250278e-16 0)
(3 1.957682086e-15 0)
(3 -6.018363848e-15 0)
(3 -2.114578284e-15 0)
(3 -8.646856776e-17 0)
(3 5.074098847e-15 0)
(3 7.879820504e-15 0)
(3 9.774918106e-15 0)
(3 9.74135124e-15 0)
(3 8.493334865e-15 0)
(3 5.302403977e-15 0)
(3 1.719972757e-15 0)
(3 2.756264259e-16 0)
(3 -1.909708443e-16 0)
(3 -6.424182106e-16 0)
(3 -4.346707745e-16 0)
(3 8.271783134e-17 0)
(3 1.152752625e-15 0)
(3 1.558041277e-15 0)
(3 -1.28564602e-14 0)
(3 -1.21575892e-14 0)
(3 -1.047584578e-14 0)
(3 -8.708754191e-15 0)
(3 -7.648246856e-15 0)
(3 -5.129751993e-15 0)
(3 -2.889405659e-15 0)
(3 -2.773097954e-15 0)
(3 -3.313113327e-15 0)
(3 -2.994867133e-15 0)
(3 -2.467828336e-15 0)
(3 -1.969951888e-15 0)
(3 -1.28744372e-15 0)
(3 -1.536584168e-15 0)
(3 -2.251195809e-15 0)
(3 -2.416817974e-15 0)
(3 -3.194368796e-15 0)
(3 -1.719928733e-14 0)
(3 -1.791688184e-14 0)
(3 -1.831749206e-14 0)
(3 -1.957008139e-14 0)
(3 -1.799337706e-14 0)
(3 -1.789869065e-14 0)
(3 -1.874916208e-14 0)
(3 -1.548908421e-14 0)
(3 -1.258228425e-14 0)
(3 -1.065082288e-14 0)
(3 -8.285663182e-15 0)
(3 -5.9124181e-15 0)
(3 -5.480392245e-15 0)
(3 -5.182041706e-15 0)
(3 -5.602912752e-15 0)
(3 -6.757802882e-15 0)
(3 -7.092419622e-15 0)
(3 -1.543324669e-14 0)
(3 -1.566070332e-14 0)
(3 -1.623028638e-14 0)
(3 -1.674414197e-14 0)
(3 -1.6643626e-14 0)
(3 -1.531692846e-14 0)
(3 -1.278739523e-14 0)
(3 -1.194512156e-14 0)
(3 -7.275516415e-15 0)
(3 -3.269205251e-15 0)
(3 -1.196045151e-15 0)
(3 -3.275552447e-16 0)
(3 -1.362532787e-16 0)
(3 4.955427297e-16 0)
(3 1.140296364e-15 0)
(3 1.589836504e-15 0)
(3 2.734887985e-15 0)
(3 -1.303056923e-14 0)
(3 -1.183121566e-14 0)
(3 -1.202551785e-14 0)
(3 -1.148773302e-14 0)
(3 -1.258429768e-14 0)
(3 -1.334615272e-14 0)
(3 -1.506083134e-14 0)
(3 -1.545642762e-14 0)
(3 -1.252714956e-14 0)
(3 -1.010549154e-14 0)
(3 -6.64238346e-15 0)
(3 2.266186633e-15 0)
(3 7.907187743e-15 0)
(3 1.391034628e-14 0)
(3 2.732031697e-14 0)
(3 4.651623489e-14 0)
(3 6.249239033e-14 0)
(3 -6.958786562e-15 0)
(3 -7.572834433e-15 0)
(3 -6.259652954e-15 0)
(3 -4.627726606e-15 0)
(3 -2.849536893e-15 0)
(3 -2.650907566e-15 0)
(3 -4.136234691e-15 0)
(3 -5.222869083e-15 0)
(3 -5.409455987e-15 0)
(3 -3.938174539e-16 0)
(3 7.251912376e-15 0)
(3 2.378988562e-14 0)
(3 4.425586856e-14 0)
(3 8.487161449e-14 0)
(3 1.287389245e-13 0)
(3 1.538763823e-13 0)
(3 1.493635841e-13 0)
(3 -2.664097951e-16 0)
(3 -6.636468308e-16 0)
(3 3.817705238e-16 0)
(3 -7.041092737e-16 0)
(3 2.639498625e-16 0)
(3 2.836937669e-15 0)
(3 1.163509515e-14 0)
(3 2.745749268e-14 0)
(3 5.048838637e-14 0)
(3 7.952739437e-14 0)
(3 1.05669116e-13 0)
(3 1.752963072e-13 0)
(3 1.875245625e-13 0)
(3 1.895600583e-13 0)
(3 1.938908634e-13 0)
(3 3.052689357e-13 0)
(3 4.359218131e-14 0)
(3 5.334914944e-15 0)
(3 6.305898732e-15 0)
(3 4.577548826e-15 0)
(3 6.530535663e-15 0)
(3 2.442185435e-14 0)
(3 6.836539006e-14 0)
(3 8.759083995e-14 0)
(3 1.384320067e-13 0)
(3 3.929765138e-13 0)
(3 3.95679972e-13 0)
(3 2.421991325e-13 0)
(3 2.044064588e-14 0)
(3 2.745814724e-12 0)
(3 -7.631919272e-12 0)
(3 -3.92113327e-11 0)
(3 -2.970098765e-10 0)
(2.999999998 -2.603669559e-09 0)
(3 1.764954706e-14 0)
(3 3.37595795e-14 0)
(3 8.56098916e-14 0)
(3 2.102912903e-13 0)
(3 1.891064219e-13 0)
(3 2.023249723e-13 0)
(3 3.126535253e-13 0)
(3 -4.89904965e-14 0)
(3 2.281199735e-13 0)
(3 2.092439091e-12 0)
(3 -1.37694175e-10 0)
(2.999999999 -1.163296589e-09 0)
(2.999999994 -8.127937092e-09 0)
(2.999999969 -4.733084095e-08 0)
(2.999999858 -2.201483573e-07 0)
(2.999999406 -9.547316193e-07 0)
(2.999997806 -3.557151208e-06 0)
(3 2.117269141e-14 0)
(3 6.198843813e-13 0)
(3 5.793950976e-13 0)
(3 1.29542326e-12 0)
(3 -5.915913605e-12 0)
(3 7.543083896e-13 0)
(3 -2.034503929e-10 0)
(2.999999998 -2.697781262e-09 0)
(2.999999987 -1.906860465e-08 0)
(2.999999922 -1.174133459e-07 0)
(2.999999635 -5.691601453e-07 0)
(2.99999855 -2.323407788e-06 0)
(2.999994787 -8.633598711e-06 0)
(2.999983702 -2.729110732e-05 0)
(2.999952598 -8.189169761e-05 0)
(2.999874115 -0.0002213179671 0)
(2.999695948 -0.000544538539 0)
(3 -9.710970103e-13 0)
(3 3.038959286e-12 0)
(3 -4.912681062e-11 0)
(2.999999998 -2.246329944e-09 0)
(2.999999982 -2.553004918e-08 0)
(2.999999871 -1.945546482e-07 0)
(2.999999311 -1.110383248e-06 0)
(2.99999715 -4.760547832e-06 0)
(2.999989821 -1.760186311e-05 0)
(2.999967397 -5.696452525e-05 0)
(2.999909267 -0.0001633122916 0)
(2.99977057 -0.0004312577312 0)
(2.999479612 -0.000993730173 0)
(2.998917176 -0.002183017377 0)
(2.997868862 -0.004349531067 0)
(2.996054075 -0.008128532125 0)
(2.993228802 -0.01507085578 0)
(2.999999995 -7.71539682e-09 0)
(2.999999926 -1.177960482e-07 0)
(2.999999351 -1.04981683e-06 0)
(2.999996427 -6.398596481e-06 0)
(2.999985094 -2.777501471e-05 0)
(2.999945872 -9.782878181e-05 0)
(2.999841287 -0.0003064880312 0)
(2.999616608 -0.0008097668563 0)
(2.999173803 -0.001793398737 0)
(2.99830528 -0.003751460172 0)
(2.996763441 -0.007508419505 0)
(2.994643669 -0.01280012376 0)
(2.991208538 -0.02220205476 0)
(2.987076245 -0.03529582389 0)
(2.982022664 -0.04975524698 0)
(2.972498808 -0.07694566179 0)
(2.968997099 -0.09882407035 0)
(2.999991092 -1.426492644e-05 0)
(2.999947847 -8.532160229e-05 0)
(2.999778161 -0.0004011852199 0)
(2.999415623 -0.001163902509 0)
(2.998778625 -0.002617803256 0)
(2.997288378 -0.005858811697 0)
(2.995072642 -0.01115272195 0)
(2.992854517 -0.01839531555 0)
(2.989599771 -0.02775769717 0)
(2.984549745 -0.04220254246 0)
(2.979941007 -0.05747801308 0)
(2.974590868 -0.07546372818 0)
(2.968713001 -0.1013743428 0)
(2.966805039 -0.1141729109 0)
(2.960729316 -0.1354510787 0)
(2.951364707 -0.1730115537 0)
(2.951736857 -0.1821604425 0)
(2.998612956 -0.002142620811 0)
(2.995308437 -0.007913281715 0)
(2.99042533 -0.01723545589 0)
(2.982925764 -0.03420023344 0)
(2.973935416 -0.05674185009 0)
(2.967455022 -0.07332299774 0)
(2.952638518 -0.1086761092 0)
(2.943788272 -0.1402725028 0)
(2.937350873 -0.1626675808 0)
(2.919340857 -0.2024792928 0)
(2.915638905 -0.2220272955 0)
(2.904500006 -0.250959544 0)
(2.889752648 -0.285851244 0)
(2.887326987 -0.2905635551 0)
(2.877249678 -0.3054620764 0)
(2.871618127 -0.3202554319 0)
(2.864637718 -0.3147515727 0)
(2.987340338 -0.002109987368 0)
(2.974102152 -0.004538897063 0)
(2.959787218 -0.02371240036 0)
(2.946772397 -0.03238631227 0)
(2.938600664 -0.03191067743 0)
(2.925893383 -0.06213590684 0)
(2.915859876 -0.08948178357 0)
(2.911852087 -0.08492317376 0)
(2.903467523 -0.1024682918 0)
(2.889656352 -0.1350192062 0)
(2.890237779 -0.1424106587 0)
(2.881849978 -0.1621164353 0)
(2.871998834 -0.1751880594 0)
(2.872030647 -0.1910800199 0)
(2.868501575 -0.2066829193 0)
(2.862008671 -0.2229677932 0)
(2.855897022 -0.2360995209 0)
)
;

boundaryField
{
    inlet
    {
        type            fixedValue;
        value           nonuniform 0();
    }
    outlet
    {
        type            inletOutlet;
        inletValue      nonuniform 0();
        value           nonuniform 0();
    }
    bottom
    {
        type            slip;
    }
    top
    {
        type            slip;
    }
    obstacle
    {
        type            slip;
    }
    defaultFaces
    {
        type            empty;
    }
    procBoundary13to7
    {
        type            processor;
        value           nonuniform List<vector> 
35
(
(3 -2.6162627e-15 0)
(3 -5.577470302e-15 0)
(3 -7.426215668e-15 0)
(3 -8.388845681e-15 0)
(3 -1.167447403e-14 0)
(3 -1.275411534e-14 0)
(3 -1.301544379e-14 0)
(3 -1.15249348e-14 0)
(3 -1.108612228e-14 0)
(3 -1.032008747e-14 0)
(3 -1.049016876e-14 0)
(3 -1.070053803e-14 0)
(3 6.98931171e-15 0)
(3 2.355572146e-15 0)
(3 -3.807861585e-16 0)
(3 -2.279952486e-16 0)
(3 -4.691875414e-15 0)
(3 -4.691875414e-15 0)
(3 -4.798173644e-16 0)
(3 -4.798173644e-16 0)
(3 -1.228286174e-15 0)
(3 -8.172489442e-16 0)
(3 -5.364042532e-16 0)
(3 7.911368354e-16 0)
(3 1.605175264e-15 0)
(3 2.290617722e-15 0)
(3 3.853966169e-15 0)
(3 5.149185465e-15 0)
(3 6.331730969e-15 0)
(3 6.190692824e-15 0)
(3 3.906220719e-15 0)
(3 4.163946468e-15 0)
(3 4.342792222e-15 0)
(3 4.79293138e-15 0)
(3 4.888539631e-15 0)
)
;
    }
    procBoundary13to12
    {
        type            processor;
        value           nonuniform List<vector> 
16
(
(3 1.331656165e-14 0)
(3 1.060094161e-14 0)
(3 3.533716704e-15 0)
(3 3.378413142e-15 0)
(3 8.398624574e-15 0)
(3 1.053199391e-14 0)
(3 5.343543954e-15 0)
(3 -2.843210397e-15 0)
(3 -1.188813596e-14 0)
(3 -2.207982291e-15 0)
(3 6.333985044e-15 0)
(3 2.299199832e-15 0)
(3 -1.577781599e-15 0)
(3 -5.918683193e-15 0)
(3 -8.410017499e-15 0)
(3 -1.430459159e-15 0)
)
;
    }
    procBoundary13to14
    {
        type            processor;
        value           nonuniform List<vector> 
16
(
(3 9.533203466e-15 0)
(3 4.343067873e-15 0)
(3 4.13307959e-16 0)
(3 -4.248024658e-15 0)
(3 -7.127026781e-15 0)
(3 4.992142267e-15 0)
(3 9.600819897e-14 0)
(3 2.016332303e-13 0)
(3 -3.5293373e-12 0)
(2.999999991 -1.447832848e-08 0)
(2.999992677 -1.214214343e-05 0)
(2.999300585 -0.001289596458 0)
(2.989346376 -0.0239710494 0)
(2.961448496 -0.1288001667 0)
(2.946530442 -0.1977565853 0)
(2.861094306 -0.3018650264 0)
)
;
    }
    procBoundary13to19
    {
        type            processor;
        value           nonuniform List<vector> 
19
(
(3 1.169858415e-14 0)
(3 1.213259074e-15 0)
(3 2.394231126e-15 0)
(3 8.401010525e-16 0)
(3 -4.408054301e-16 0)
(3 -1.865033276e-15 0)
(3 -1.468900348e-15 0)
(3 -9.459204745e-16 0)
(3 1.128229096e-15 0)
(3 1.168578933e-15 0)
(3 -1.749419675e-16 0)
(3 -1.655249079e-16 0)
(3 1.103188132e-15 0)
(3 2.850648781e-15 0)
(3 4.776954488e-15 0)
(3 6.550100368e-15 0)
(3 1.169858415e-14 0)
(3 6.195356573e-15 0)
(3 1.169858415e-14 0)
)
;
    }
    procBoundary13to20
    {
        type            processor;
        value           uniform (2.853311806 -0.2434096695 0);
    }
}


// ************************************************************************* //
