/*--------------------------------*- C++ -*----------------------------------*\
  =========                 |
  \\      /  F ield         | OpenFOAM: The Open Source CFD Toolbox
   \\    /   O peration     | Website:  https://openfoam.org
    \\  /    A nd           | Version:  7
     \\/     M anipulation  |
\*---------------------------------------------------------------------------*/
FoamFile
{
    version     2.0;
    format      ascii;
    class       volScalarField;
    location    "3.1";
    object      p;
}
// * * * * * * * * * * * * * * * * * * * * * * * * * * * * * * * * * * * * * //

dimensions      [1 -1 -2 0 0 0 0];

internalField   nonuniform List<scalar> 5(0.8365925748 0.8175525323 0.820427639 0.8366533265 0.8229876942);

boundaryField
{
    inlet
    {
        type            fixedValue;
        value           nonuniform 0();
    }
    outlet
    {
        type            zeroGradient;
    }
    bottom
    {
        type            slip;
    }
    top
    {
        type            slip;
    }
    obstacle
    {
        type            zeroGradient;
    }
    defaultFaces
    {
        type            empty;
    }
    procBoundary21to15
    {
        type            processor;
        value           uniform 0.8244537478;
    }
    procBoundary21to16
    {
        type            processor;
        value           nonuniform List<scalar> 3(0.9508263283 0.9919601324 0.9926237487);
    }
    procBoundary21to22
    {
        type            processor;
        value           nonuniform List<scalar> 2(0.9561123908 0.9337495727);
    }
    procBoundary21to27
    {
        type            processor;
        value           uniform 0.8077404141;
    }
}


// ************************************************************************* //
