/*--------------------------------*- C++ -*----------------------------------*\
  =========                 |
  \\      /  F ield         | OpenFOAM: The Open Source CFD Toolbox
   \\    /   O peration     | Website:  https://openfoam.org
    \\  /    A nd           | Version:  7
     \\/     M anipulation  |
\*---------------------------------------------------------------------------*/
FoamFile
{
    version     2.0;
    format      ascii;
    class       volVectorField;
    location    "5";
    object      U;
}
// * * * * * * * * * * * * * * * * * * * * * * * * * * * * * * * * * * * * * //

dimensions      [0 1 -1 0 0 0 0];

internalField   nonuniform List<vector> 
2222
(
(2.665611316 1.182140788 0)
(2.565011115 1.266193087 0)
(2.570039144 1.278554133 0)
(2.577476561 1.261552522 0)
(2.569757878 1.264788272 0)
(2.551325061 1.275660163 0)
(2.528243619 1.294355149 0)
(2.499181635 1.316604018 0)
(2.471727705 1.295565274 0)
(3.131409304 0.8438964788 0)
(3.095478969 0.7840675542 0)
(2.97619555 0.7395632624 0)
(2.835220064 0.6929715732 0)
(2.783046631 0.6882745579 0)
(2.819310465 0.7033339507 0)
(2.874323963 0.7254220388 0)
(2.926795658 0.7313743817 0)
(2.960153425 0.7464573436 0)
(2.974514802 0.7505127418 0)
(2.978750057 0.7536866622 0)
(2.980565588 0.7566317277 0)
(2.982827712 0.759414274 0)
(2.983676917 0.7646496311 0)
(2.987210606 0.767020311 0)
(2.989731403 0.7690071882 0)
(2.991816939 0.7700903818 0)
(2.994214894 0.7706908573 0)
(2.994647681 0.7720101121 0)
(2.995671236 0.7749397674 0)
(2.997205705 0.7746215752 0)
(2.996536903 0.7762074418 0)
(2.977008003 0.7945521964 0)
(2.87429612 0.9243130094 0)
(2.727648805 1.123315867 0)
(2.661925194 1.189283855 0)
(2.563989283 1.267033894 0)
(2.571887314 1.277871202 0)
(2.578542398 1.263070719 0)
(2.569104738 1.266442585 0)
(2.54908341 1.278408254 0)
(2.526294598 1.300132274 0)
(2.493995837 1.310722868 0)
(2.447405322 0.9307493513 0)
(3.139539715 0.8453151114 0)
(3.098391443 0.784989668 0)
(2.976772332 0.7381116786 0)
(2.835186131 0.6925544644 0)
(2.780010861 0.6867160062 0)
(2.814533568 0.701731227 0)
(2.871478813 0.7239766929 0)
(2.926493288 0.7332344905 0)
(2.961731277 0.7482523856 0)
(2.977061065 0.7522256331 0)
(2.980712586 0.7555158584 0)
(2.981270531 0.7581647193 0)
(2.982396347 0.7612884517 0)
(2.983265377 0.7667858488 0)
(2.98724348 0.7694308902 0)
(2.990097585 0.7707354648 0)
(2.992117023 0.7706545832 0)
(2.994366087 0.7704797639 0)
(2.995075382 0.7716692879 0)
(2.996408841 0.7748208628 0)
(2.997587593 0.7749236637 0)
(2.996124626 0.7768252314 0)
(2.972352318 0.799885231 0)
(2.859266602 0.9452005942 0)
(2.722917583 1.130670909 0)
(2.659160867 1.195885668 0)
(2.562814432 1.269353946 0)
(2.573165835 1.277890655 0)
(2.578743203 1.265011934 0)
(2.567614536 1.269650697 0)
(2.547328873 1.284144036 0)
(2.519671869 1.304471701 0)
(2.477475177 1.160421189 0)
(2.430440258 0.7061377038 0)
(3.136701157 0.8467728872 0)
(3.095127532 0.7847390958 0)
(2.974243432 0.7373191228 0)
(2.833885511 0.6933375179 0)
(2.776578514 0.6865600041 0)
(2.809310103 0.7021270892 0)
(2.866778537 0.7248475381 0)
(2.923044416 0.7354329874 0)
(2.960400597 0.7501109969 0)
(2.977819147 0.7539718558 0)
(2.98182505 0.7572460719 0)
(2.982039351 0.7590110109 0)
(2.98302113 0.7618707694 0)
(2.984458639 0.7676916789 0)
(2.988300119 0.7705833555 0)
(2.991275479 0.7714322646 0)
(2.99291474 0.7713351181 0)
(2.994555426 0.7714482438 0)
(2.995040747 0.7720625342 0)
(2.996211123 0.7743544994 0)
(2.997294899 0.7754282022 0)
(2.995450293 0.7779167023 0)
(2.966845279 0.8066301551 0)
(2.846639568 0.9635273435 0)
(2.713706732 1.143803705 0)
(2.655502883 1.203033815 0)
(2.563401283 1.269979406 0)
(2.574391042 1.277389812 0)
(2.578197195 1.266601608 0)
(2.565215009 1.271626949 0)
(2.547552567 1.286477568 0)
(2.512063079 1.295430985 0)
(2.456191892 0.8199905319 0)
(3.128034773 0.8500962656 0)
(3.087151386 0.7843523366 0)
(2.970984428 0.7366085405 0)
(2.833041333 0.6942894198 0)
(2.773872954 0.6875959155 0)
(2.803735015 0.7025284997 0)
(2.86043865 0.7247275481 0)
(2.916870457 0.736809406 0)
(2.956349526 0.7513709557 0)
(2.976089517 0.7548309055 0)
(2.981368493 0.7583654655 0)
(2.981875816 0.7593187477 0)
(2.98339339 0.7620528934 0)
(2.985638492 0.7676808105 0)
(2.989451411 0.7708410554 0)
(2.992429312 0.7720388828 0)
(2.993864803 0.772905279 0)
(2.994595583 0.7731370425 0)
(2.994909028 0.7735974359 0)
(2.995952768 0.7756035691 0)
(2.996911671 0.7768637281 0)
(2.994252395 0.7792022882 0)
(2.960420101 0.8147037568 0)
(2.83034431 0.9855873208 0)
(2.709357003 1.149869479 0)
(2.653097735 1.208971392 0)
(2.563973004 1.271276987 0)
(2.574409769 1.277376409 0)
(2.576158415 1.268823251 0)
(2.563278843 1.274188516 0)
(2.540666607 1.293371049 0)
(2.495377465 1.06715503 0)
(2.42990958 0.7354266848 0)
(3.116514653 0.8522236472 0)
(3.078305058 0.7845982989 0)
(2.969214405 0.7373101678 0)
(2.834693029 0.6961362661 0)
(2.773244871 0.6905530882 0)
(2.800205706 0.7046497044 0)
(2.854779217 0.7247620403 0)
(2.909871459 0.7360934439 0)
(2.949761188 0.7510890589 0)
(2.970666405 0.7548036392 0)
(2.978620036 0.7586141696 0)
(2.980886574 0.7606068074 0)
(2.983735897 0.7638793208 0)
(2.986962496 0.7691423069 0)
(2.991077165 0.7723789991 0)
(2.993721287 0.7735536623 0)
(2.994268952 0.7745000511 0)
(2.994340708 0.7749034869 0)
(2.99445248 0.7755306326 0)
(2.995365666 0.7771313689 0)
(2.996135464 0.7781014073 0)
(2.992723515 0.7807871561 0)
(2.952807252 0.8243624176 0)
(2.816346637 1.004667226 0)
(2.701789788 1.160113194 0)
(2.649512473 1.215544734 0)
(2.565139151 1.271699106 0)
(2.574174204 1.277188805 0)
(2.574819262 1.269647718 0)
(2.562856301 1.27830144 0)
(2.530809224 1.275532633 0)
(2.482422715 0.8460230895 0)
(2.412813667 0.654463715 0)
(3.103765394 0.8494881575 0)
(3.071417652 0.7864363117 0)
(2.970713992 0.7379956353 0)
(2.838719483 0.6995256768 0)
(2.775719761 0.6939332294 0)
(2.799014741 0.7075464422 0)
(2.852774927 0.7259918336 0)
(2.905515254 0.7363052307 0)
(2.94363044 0.7506493493 0)
(2.964388126 0.756457754 0)
(2.974682212 0.7601380891 0)
(2.979597028 0.7631698065 0)
(2.983811868 0.766481422 0)
(2.988041083 0.771322137 0)
(2.992262955 0.7743896216 0)
(2.994490744 0.7751349435 0)
(2.994880196 0.7755192353 0)
(2.994782145 0.7757692847 0)
(2.994196925 0.7767773843 0)
(2.994863157 0.7781730507 0)
(2.995608187 0.7786209418 0)
(2.99071709 0.7827626048 0)
(2.944315377 0.8349274036 0)
(2.800546604 1.025802464 0)
(2.698030457 1.164512116 0)
(2.646145334 1.221162249 0)
(2.565131556 1.273344615 0)
(2.571476255 1.278899279 0)
(2.571975688 1.272387813 0)
(2.555499651 1.285516807 0)
(2.521956383 1.049828442 0)
(2.423500943 0.663595628 0)
(2.401734151 0.6278087156 0)
(3.099698581 0.8387958205 0)
(3.07214042 0.7868074621 0)
(2.977557892 0.7384454484 0)
(2.843403672 0.7036405591 0)
(2.779083839 0.6966937655 0)
(2.800225392 0.7104407947 0)
(2.852611638 0.7274564245 0)
(2.903563457 0.7378733482 0)
(2.940015175 0.7521344449 0)
(2.959600821 0.75877304 0)
(2.971007391 0.7626742291 0)
(2.977638137 0.7659329387 0)
(2.98331612 0.7690967791 0)
(2.988609556 0.7734517135 0)
(2.992989338 0.7761708991 0)
(2.995277586 0.7761808893 0)
(2.995609333 0.7756086074 0)
(2.995144132 0.7754864562 0)
(2.994418258 0.776826783 0)
(2.994632658 0.7782584198 0)
(2.994866368 0.7783704574 0)
(2.98840156 0.7852022009 0)
(2.935409198 0.8458508532 0)
(2.78495755 1.045726029 0)
(2.691076398 1.172847605 0)
(2.64266357 1.226483281 0)
(2.566275724 1.273361515 0)
(2.57036512 1.27905617 0)
(2.572693076 1.277336376 0)
(2.543146328 1.263787735 0)
(2.465213291 0.7398375688 0)
(2.427186383 0.5911976298 0)
(2.400764517 0.6022345382 0)
(3.105718352 0.8315488772 0)
(3.082489968 0.7871919063 0)
(2.987199145 0.740905549 0)
(2.848896401 0.7077992905 0)
(2.78092045 0.7002199294 0)
(2.803293719 0.7125560398 0)
(2.85402706 0.7290365742 0)
(2.902375688 0.7401149361 0)
(2.936671605 0.7542987773 0)
(2.955326869 0.7607035091 0)
(2.967337463 0.7647021211 0)
(2.975522965 0.7675737757 0)
(2.982943858 0.7707700072 0)
(2.989427051 0.7747495402 0)
(2.994019 0.7769478799 0)
(2.996038112 0.776452323 0)
(2.995745188 0.775525032 0)
(2.995027059 0.7755198167 0)
(2.994139794 0.7763401571 0)
(2.994096248 0.7783018763 0)
(2.993929705 0.7790699983 0)
(2.98597565 0.7878288853 0)
(2.924884811 0.8584778457 0)
(2.770936802 1.064774355 0)
(2.687575999 1.175497353 0)
(2.637973164 1.231502756 0)
(2.566398632 1.274970547 0)
(2.567605935 1.279689673 0)
(2.562573365 1.282403824 0)
(2.517540804 0.9740742029 0)
(2.452087517 0.6364181826 0)
(2.41191154 0.5996073988 0)
(2.399771524 0.6029288285 0)
(3.115597406 0.8299207375 0)
(3.093614011 0.7869145061 0)
(2.994430738 0.7437872867 0)
(2.85202469 0.7123612773 0)
(2.78586387 0.7033289483 0)
(2.807696636 0.7151331064 0)
(2.856956777 0.7308379606 0)
(2.901886198 0.7420225359 0)
(2.93367109 0.7560755126 0)
(2.952127396 0.7618885643 0)
(2.964304651 0.765554987 0)
(2.973622581 0.7673366453 0)
(2.982276046 0.7706851987 0)
(2.989566425 0.7746831316 0)
(2.994092421 0.7767871008 0)
(2.99592424 0.7764224282 0)
(2.995815309 0.7765099074 0)
(2.995094837 0.7766033505 0)
(2.994113636 0.7772594971 0)
(2.993796545 0.7794224523 0)
(2.993406105 0.7803002243 0)
(2.983001709 0.7908905156 0)
(2.915250941 0.870023947 0)
(2.754264947 1.085440423 0)
(2.681102009 1.182925212 0)
(2.635347248 1.235692672 0)
(2.56761263 1.274433863 0)
(2.566090465 1.283168651 0)
(2.553731576 1.248474467 0)
(2.494115516 0.7500171489 0)
(2.437824609 0.6434630231 0)
(2.407292612 0.6336380951 0)
(2.397569733 0.6215405576 0)
(3.125058205 0.8290652335 0)
(3.102214654 0.7861104519 0)
(2.998094625 0.7460788174 0)
(2.855273843 0.7167738074 0)
(2.79199448 0.7063467288 0)
(2.813179802 0.7173207072 0)
(2.86001237 0.7322444466 0)
(2.902421148 0.7430879028 0)
(2.931769019 0.7565549197 0)
(2.94959187 0.7625707067 0)
(2.961634819 0.7657356087 0)
(2.971188509 0.7675667561 0)
(2.980622177 0.770544961 0)
(2.988422265 0.7747742628 0)
(2.993362515 0.7773969774 0)
(2.995585999 0.7772643747 0)
(2.995621574 0.7777449332 0)
(2.995044501 0.7780173124 0)
(2.994099857 0.7786467959 0)
(2.993366921 0.7806754542 0)
(2.992532698 0.7817063828 0)
(2.979752231 0.7939142314 0)
(2.902684502 0.8855687083 0)
(2.741578155 1.10166547 0)
(2.676411783 1.186077941 0)
(2.630672932 1.240755791 0)
(2.568730541 1.275783399 0)
(2.563386358 1.283508369 0)
(2.537580542 0.9566373529 0)
(2.469801362 0.6954823791 0)
(2.426548563 0.6446244661 0)
(2.403784906 0.6502329929 0)
(2.395335777 0.6536277326 0)
(3.131024959 0.8278326207 0)
(3.10506435 0.7863011412 0)
(2.99665652 0.7478118841 0)
(2.857634756 0.7207165274 0)
(2.798152762 0.7093318119 0)
(2.819119402 0.7192963586 0)
(2.863781046 0.7335349372 0)
(2.903312031 0.7440249529 0)
(2.930481649 0.7564795275 0)
(2.946783624 0.7637772801 0)
(2.958710917 0.7664884486 0)
(2.968932869 0.7695852542 0)
(2.97901717 0.7722831423 0)
(2.987194029 0.7762146563 0)
(2.992516928 0.7784798061 0)
(2.995058959 0.7781655805 0)
(2.995239023 0.7787623884 0)
(2.994787474 0.7793118515 0)
(2.993876634 0.7801295156 0)
(2.993028155 0.7816234832 0)
(2.991750166 0.7824666102 0)
(2.975526337 0.7981812386 0)
(2.891472256 0.8996283359 0)
(2.727792802 1.119904566 0)
(2.671439727 1.190157914 0)
(2.626283347 1.244731965 0)
(2.568840621 1.277977929 0)
(2.552471793 1.207541858 0)
(2.515182235 0.7716831536 0)
(2.45107429 0.6354289525 0)
(2.421833384 0.6437144002 0)
(2.40227757 0.6520262809 0)
(3.130802744 0.8223934226 0)
(3.102960529 0.7867918012 0)
(2.992432922 0.7487564785 0)
(2.859798386 0.7239989454 0)
(2.804622985 0.7115974092 0)
(2.824667944 0.7213934914 0)
(2.867228386 0.7352759742 0)
(2.903658887 0.746086469 0)
(2.927771858 0.7582745129 0)
(2.943163172 0.7660812694 0)
(2.955599297 0.7677637416 0)
(2.966618705 0.7715725879 0)
(2.977309846 0.7740199502 0)
(2.985755494 0.7774819744 0)
(2.99140531 0.7792856225 0)
(2.994389312 0.7787311799 0)
(2.995083569 0.7792086286 0)
(2.99512893 0.7798815489 0)
(2.994200864 0.7809635479 0)
(2.993014837 0.7819469171 0)
(2.99116535 0.7823657682 0)
(2.971176977 0.8029442499 0)
(2.880423061 0.9158523823 0)
(2.711675944 1.13906273 0)
(2.665627656 1.193967106 0)
(2.619886868 1.249671046 0)
(2.564927714 1.268594507 0)
(2.541754664 0.9012666297 0)
(2.469056907 0.6133920257 0)
(2.440744971 0.6178020917 0)
(2.415418188 0.638204248 0)
(2.401253236 0.649931946 0)
(3.12261751 0.8113346813 0)
(3.096269599 0.7888158273 0)
(2.989429588 0.7504757887 0)
(2.862945582 0.7267650019 0)
(2.810778354 0.7131727023 0)
(2.829834945 0.723095494 0)
(2.869875382 0.7373877974 0)
(2.902287388 0.7494262593 0)
(2.923985828 0.7615042692 0)
(2.938905628 0.7687858154 0)
(2.952359044 0.7689023521 0)
(2.964598359 0.7726190431 0)
(2.975878515 0.7750134485 0)
(2.984374097 0.7778622798 0)
(2.990133622 0.7792371189 0)
(2.993574642 0.7784193196 0)
(2.99471008 0.7786440117 0)
(2.995117687 0.7792841169 0)
(2.994442006 0.7808293828 0)
(2.99274227 0.7817165717 0)
(2.990609889 0.7828929506 0)
(2.966595253 0.8085912033 0)
(2.863950664 0.9368477912 0)
(2.704581921 1.147949525 0)
(2.662189384 1.200315353 0)
(2.610251095 1.262418619 0)
(2.555255977 1.107974269 0)
(2.500788517 0.6201627619 0)
(2.472915052 0.5568029795 0)
(2.434650439 0.5865559187 0)
(2.414073058 0.6123166732 0)
(2.402322988 0.6350957564 0)
(3.110901146 0.8070691643 0)
(3.087062512 0.7907889757 0)
(2.988403816 0.7535903315 0)
(2.867066426 0.7293733756 0)
(2.813994792 0.7152336778 0)
(2.831214464 0.7244799771 0)
(2.870125531 0.7384556664 0)
(2.899109787 0.7516851738 0)
(2.918650582 0.7643856183 0)
(2.934005892 0.7705786881 0)
(2.949624616 0.7693757541 0)
(2.963738146 0.7717960574 0)
(2.975316174 0.7744406229 0)
(2.983280461 0.7769975237 0)
(2.988742108 0.778487925 0)
(2.992502967 0.7778126794 0)
(2.993982403 0.7784115857 0)
(2.994310096 0.778811943 0)
(2.993736322 0.7803327859 0)
(2.992473045 0.7818596707 0)
(2.990569996 0.7833863645 0)
(2.960957999 0.8164463837 0)
(2.859345558 0.948940862 0)
(2.690927218 1.169509085 0)
(2.661696187 1.206453728 0)
(2.599947059 1.256305749 0)
(2.525800416 0.7103893765 0)
(2.496252824 0.5707071884 0)
(2.460687749 0.5614163631 0)
(2.432123204 0.5808476959 0)
(2.413779015 0.5965810787 0)
(2.404035012 0.6114566009 0)
(3.098725576 0.8072766932 0)
(3.078009157 0.792102873 0)
(2.988401099 0.7565131698 0)
(2.871814701 0.7317010869 0)
(2.814386056 0.7178651842 0)
(2.828239085 0.7277577174 0)
(2.86459028 0.7406332809 0)
(2.893982569 0.7519905246 0)
(2.913266702 0.7653771753 0)
(2.930650277 0.7711453477 0)
(2.948482251 0.7689964003 0)
(2.96365013 0.7708077216 0)
(2.975130899 0.7736292424 0)
(2.982587973 0.7771727906 0)
(2.987779272 0.7790375232 0)
(2.991552372 0.778541212 0)
(2.993150726 0.7793245348 0)
(2.993525261 0.7797634712 0)
(2.993137472 0.7811182044 0)
(2.992384231 0.7825256249 0)
(2.990226419 0.7844044748 0)
(2.955508082 0.822866057 0)
(2.83531316 0.9769266693 0)
(2.690336316 1.162341999 0)
(2.648007649 1.244773903 0)
(2.576436783 0.9498458005 0)
(2.514028176 0.6545447936 0)
(2.483714184 0.5993440254 0)
(2.452684042 0.5909009944 0)
(2.429119481 0.5886178422 0)
(2.413114662 0.5976499832 0)
(2.404906107 0.6081072201 0)
(3.090068488 0.8098209365 0)
(3.072656259 0.7931126609 0)
(2.992328186 0.7584785575 0)
(2.876631995 0.7327687125 0)
(2.812413978 0.7197919554 0)
(2.822658087 0.7303808529 0)
(2.857181475 0.7438355932 0)
(2.886750614 0.7526896476 0)
(2.910333566 0.7633905764 0)
(2.930452355 0.7700892595 0)
(2.949361142 0.7678633588 0)
(2.963988732 0.7716254373 0)
(2.975082448 0.7743701901 0)
(2.982171088 0.7781259237 0)
(2.987106615 0.7800434182 0)
(2.990608361 0.7796134325 0)
(2.992074217 0.7804695125 0)
(2.992679493 0.7811349091 0)
(2.992666913 0.7822838405 0)
(2.992319614 0.78329553 0)
(2.989712979 0.7856563849 0)
(2.950828599 0.8305427608 0)
(2.821238176 0.997088793 0)
(2.687868534 1.176163467 0)
(2.634420138 1.18414681 0)
(2.563711367 0.764544365 0)
(2.500389124 0.6109851204 0)
(2.474301018 0.6094278892 0)
(2.447980588 0.6243195292 0)
(2.424321244 0.6203752682 0)
(2.411855121 0.6117074074 0)
(2.406223136 0.6119643869 0)
(3.090846518 0.8126822134 0)
(3.074167785 0.7927370488 0)
(3.000132405 0.7611776612 0)
(2.879374776 0.7330147607 0)
(2.809433518 0.7224168626 0)
(2.816138516 0.7314986311 0)
(2.848954517 0.7455386877 0)
(2.881243101 0.7550096088 0)
(2.909343008 0.7624626136 0)
(2.932394853 0.7684350983 0)
(2.95121051 0.7674891376 0)
(2.964196216 0.7728112003 0)
(2.974774658 0.7755191907 0)
(2.981608372 0.7789779541 0)
(2.986440982 0.7808533769 0)
(2.989520306 0.7805134042 0)
(2.990742141 0.7814224513 0)
(2.991409446 0.7823974204 0)
(2.991837947 0.783496771 0)
(2.992176831 0.7841934281 0)
(2.989163196 0.7870151526 0)
(2.938736868 0.8456558881 0)
(2.820334314 1.002207608 0)
(2.671082644 1.225246357 0)
(2.625641112 0.92440501 0)
(2.515208589 0.6310766962 0)
(2.495238546 0.5924585192 0)
(2.469260912 0.6080614967 0)
(2.443399858 0.6292723423 0)
(2.421281814 0.640950573 0)
(2.41106528 0.6406147911 0)
(2.407374403 0.6332853202 0)
(3.095643325 0.814205928 0)
(3.083928691 0.7913262906 0)
(3.007943857 0.7645305648 0)
(2.880671594 0.7353968633 0)
(2.807922017 0.7255628503 0)
(2.812820009 0.7334020228 0)
(2.844319167 0.7462458011 0)
(2.878042822 0.7565527786 0)
(2.909749715 0.763505708 0)
(2.934969558 0.7675543526 0)
(2.952863883 0.7677720958 0)
(2.96429341 0.7740133589 0)
(2.974389961 0.7763801425 0)
(2.981400714 0.7793137743 0)
(2.986081141 0.7810074817 0)
(2.988772564 0.7807254751 0)
(2.989819603 0.7816086612 0)
(2.990494303 0.7829188137 0)
(2.991167187 0.7841433123 0)
(2.992092951 0.7847022819 0)
(2.988276726 0.7893608263 0)
(2.935634709 0.8552820986 0)
(2.810290146 1.063094084 0)
(2.658427172 1.152972589 0)
(2.548509402 0.6554054791 0)
(2.506505876 0.5638237588 0)
(2.485290008 0.5784064597 0)
(2.462386336 0.6041582275 0)
(2.437855924 0.6287453041 0)
(2.41980821 0.6418338472 0)
(2.411314799 0.6486605976 0)
(3.10383314 0.8148321805 0)
(3.093855031 0.7908084791 0)
(3.013139521 0.7679705143 0)
(2.880919695 0.7388342557 0)
(2.807664737 0.7288119738 0)
(2.812234043 0.735250434 0)
(2.844066858 0.7473829192 0)
(2.87765318 0.7573259429 0)
(2.910727088 0.7643785182 0)
(2.937186228 0.7673031305 0)
(2.954476045 0.7680779148 0)
(2.964854735 0.7746255502 0)
(2.974170617 0.7766336712 0)
(2.981033106 0.7787187601 0)
(2.985544076 0.7800589692 0)
(2.988284619 0.7797776522 0)
(2.989279593 0.780591147 0)
(2.990117016 0.7822181252 0)
(2.991072797 0.7839324134 0)
(2.992364149 0.7847795973 0)
(2.985544556 0.7937094218 0)
(2.936527567 0.8716248056 0)
(2.794813564 1.087537217 0)
(2.623987565 0.7588415268 0)
(2.544484225 0.5286971573 0)
(2.505236043 0.5351210265 0)
(2.484024149 0.5506795343 0)
(2.458687288 0.5819109163 0)
(2.433743018 0.616588612 0)
(2.418320597 0.6373391136 0)
(2.412054563 0.6481606969 0)
(3.111251186 0.8171661593 0)
(3.10041196 0.7909945791 0)
(3.01454005 0.7710870843 0)
(2.881230953 0.7425034867 0)
(2.808741163 0.7319256851 0)
(2.812758459 0.7370008725 0)
(2.844857165 0.7482985173 0)
(2.878632758 0.7574341422 0)
(2.912250657 0.7649395373 0)
(2.939158549 0.76709049 0)
(2.955850332 0.7678521431 0)
(2.964952273 0.7742242935 0)
(2.973482012 0.7760389328 0)
(2.980110155 0.7780911401 0)
(2.984837185 0.7798153586 0)
(2.987862284 0.7797239964 0)
(2.989056105 0.7803577367 0)
(2.989953638 0.7815707133 0)
(2.99122235 0.7830834709 0)
(2.992612541 0.7845012122 0)
(2.988087879 0.7959492454 0)
(2.926994304 0.9012622901 0)
(2.760306842 0.8217431026 0)
(2.607506255 0.6026809698 0)
(2.532908466 0.5418760077 0)
(2.497972744 0.5394526758 0)
(2.480650225 0.5468148397 0)
(2.455159943 0.5645873945 0)
(2.432267882 0.5927830125 0)
(2.418486997 0.6172550311 0)
(2.4134628 0.6400682775 0)
(3.115053999 0.8220190493 0)
(3.102484653 0.7922314999 0)
(3.012297598 0.7747686567 0)
(2.882507304 0.7461927803 0)
(2.811323632 0.7348999431 0)
(2.814826585 0.7385444469 0)
(2.846507995 0.7491413652 0)
(2.879602601 0.7575150288 0)
(2.913642241 0.7649931827 0)
(2.940775196 0.7669647071 0)
(2.956743978 0.7672499934 0)
(2.964929714 0.773811826 0)
(2.972938249 0.7758835924 0)
(2.979553244 0.77865811 0)
(2.984535029 0.7805234007 0)
(2.987714358 0.7805691924 0)
(2.989108316 0.7810319941 0)
(2.990065056 0.7820420147 0)
(2.991521766 0.7831304729 0)
(2.993097028 0.7844294653 0)
(2.986232747 0.8015536084 0)
(2.909390339 0.8200061343 0)
(2.728865723 0.6762183622 0)
(2.587379061 0.6065369344 0)
(2.529455531 0.5768555511 0)
(2.493799897 0.570303157 0)
(2.475318966 0.5554443449 0)
(2.451989021 0.5642559937 0)
(2.431017013 0.5871523665 0)
(2.419324039 0.5998417831 0)
(2.415442034 0.6180667903 0)
(3.113156076 0.8234487545 0)
(3.098862227 0.7939656165 0)
(3.009822677 0.7789362094 0)
(2.884750063 0.7500620499 0)
(2.815923766 0.7377163315 0)
(2.818340839 0.7401602457 0)
(2.848835932 0.7498115444 0)
(2.880520326 0.7572807239 0)
(2.914733211 0.7646638642 0)
(2.942047672 0.7670915464 0)
(2.957879073 0.7680191148 0)
(2.96565577 0.7748252937 0)
(2.973076267 0.776570867 0)
(2.979272779 0.7794759206 0)
(2.984302811 0.7813560484 0)
(2.987692673 0.781526974 0)
(2.989253258 0.7818010492 0)
(2.99024915 0.7826591492 0)
(2.991791367 0.7834842773 0)
(2.993374621 0.7847163584 0)
(2.983423397 0.7998133808 0)
(2.888648485 0.717987431 0)
(2.689372102 0.6003662928 0)
(2.571044971 0.579445757 0)
(2.525000966 0.5793816625 0)
(2.49259533 0.5932766111 0)
(2.469127172 0.585780449 0)
(2.447634742 0.573635865 0)
(2.429920885 0.589132833 0)
(2.420112876 0.599350457 0)
(2.41742089 0.6100873394 0)
(3.108295428 0.8249594108 0)
(3.090994401 0.7949084065 0)
(3.006605558 0.7834333453 0)
(2.888879529 0.7538594673 0)
(2.821968174 0.7409508103 0)
(2.822586791 0.7421832992 0)
(2.851218329 0.7510004059 0)
(2.881140988 0.7568247622 0)
(2.914987463 0.7629429897 0)
(2.943018299 0.7673895799 0)
(2.958919754 0.769584674 0)
(2.966657406 0.7763099739 0)
(2.97358862 0.777326243 0)
(2.979344224 0.7802827806 0)
(2.98421091 0.7818941582 0)
(2.987564017 0.7824080773 0)
(2.989373419 0.7827612083 0)
(2.990593967 0.7833721078 0)
(2.992027236 0.7839165064 0)
(2.993198978 0.7852234176 0)
(2.974153703 0.7588666913 0)
(2.82360675 0.5072219303 0)
(2.641604266 0.4853081364 0)
(2.562606216 0.5416377891 0)
(2.521974705 0.5743242061 0)
(2.492069603 0.5943766276 0)
(2.464107055 0.6045012544 0)
(2.444118164 0.6043496583 0)
(2.429062584 0.6026562311 0)
(2.422103934 0.6049472225 0)
(2.419066594 0.6117897049 0)
(3.099001703 0.8274726348 0)
(3.082146678 0.7948545607 0)
(3.004421903 0.7882001788 0)
(2.894642244 0.7585006406 0)
(2.827995994 0.7456602515 0)
(2.825419827 0.7458321876 0)
(2.852398517 0.7529376885 0)
(2.881542049 0.7557852752 0)
(2.914976583 0.7599866356 0)
(2.943735644 0.7673179083 0)
(2.95996527 0.7711312434 0)
(2.968007032 0.7776703465 0)
(2.974667587 0.7778168248 0)
(2.979827671 0.7806763998 0)
(2.984565199 0.7819302339 0)
(2.987930255 0.7827604601 0)
(2.989686432 0.7833049935 0)
(2.990744914 0.7840529017 0)
(2.992180087 0.7846508302 0)
(2.992565676 0.7847699548 0)
(2.955290283 0.6606825644 0)
(2.787005255 0.356298791 0)
(2.631867939 0.402188495 0)
(2.550040893 0.5093349788 0)
(2.516568848 0.5666900548 0)
(2.490769773 0.5929931778 0)
(2.461462489 0.6057634717 0)
(2.441184676 0.6209848505 0)
(2.428574065 0.6297132898 0)
(2.423616871 0.6273042875 0)
(2.421609518 0.6220429586 0)
(3.090395338 0.8297330459 0)
(3.076854028 0.7966028771 0)
(3.005002032 0.7927508401 0)
(2.901277334 0.764281921 0)
(2.832915983 0.7494103767 0)
(2.826686796 0.7479626428 0)
(2.852519102 0.7537534881 0)
(2.882056859 0.7547218623 0)
(2.915377022 0.7589725971 0)
(2.944116573 0.7665934244 0)
(2.961415354 0.7717724722 0)
(2.969925271 0.7783804715 0)
(2.976000199 0.777875314 0)
(2.980314447 0.7803322351 0)
(2.984753722 0.7814970637 0)
(2.98826516 0.7825689406 0)
(2.990134167 0.7834516453 0)
(2.991102076 0.7845148318 0)
(2.992247235 0.785212646 0)
(2.990290743 0.7801277407 0)
(2.920702395 0.5534231594 0)
(2.739089823 0.3404905941 0)
(2.607275239 0.3832585569 0)
(2.544323268 0.4809329718 0)
(2.511573543 0.5411977344 0)
(2.488103558 0.5815023875 0)
(2.458298606 0.6022166758 0)
(2.439394816 0.6214171262 0)
(2.428663505 0.6366652458 0)
(2.42512513 0.6451012134 0)
(2.422976415 0.6473725279 0)
(3.084850303 0.8295070347 0)
(3.075982086 0.799428238 0)
(3.007718239 0.797189271 0)
(2.906562344 0.7679648562 0)
(2.838026302 0.7509756445 0)
(2.828709094 0.7492444237 0)
(2.852433182 0.7544484689 0)
(2.882673224 0.7550518052 0)
(2.915781375 0.7589567277 0)
(2.944266526 0.7651300942 0)
(2.962332568 0.7717768724 0)
(2.971469614 0.7781168905 0)
(2.976813899 0.7774111345 0)
(2.980421206 0.7799295207 0)
(2.984772973 0.7810299558 0)
(2.988316897 0.7820714492 0)
(2.990261708 0.7829477387 0)
(2.99133226 0.7846353604 0)
(2.992099703 0.7851153449 0)
(2.982517659 0.7376029806 0)
(2.862430912 0.3936740083 0)
(2.703461809 0.3591695752 0)
(2.582326693 0.4222311321 0)
(2.534664162 0.4808433526 0)
(2.506186804 0.5298464264 0)
(2.48439221 0.5585375484 0)
(2.456378249 0.5840794515 0)
(2.437248616 0.6153089279 0)
(2.42900969 0.6359210252 0)
(2.426590856 0.6471179388 0)
(3.085839618 0.825318016 0)
(3.077548052 0.8020358182 0)
(3.011421875 0.8007797701 0)
(2.912140337 0.7691496365 0)
(2.842895555 0.7523784059 0)
(2.830123586 0.7501662829 0)
(2.85193793 0.7547864911 0)
(2.883026263 0.7557489816 0)
(2.916068284 0.7590059224 0)
(2.943942862 0.7645854945 0)
(2.962503885 0.7721422516 0)
(2.971491898 0.7778163583 0)
(2.976660821 0.7775950112 0)
(2.980257398 0.780128215 0)
(2.984893635 0.7814258364 0)
(2.988573508 0.7823915153 0)
(2.990563866 0.7829390122 0)
(2.991362716 0.7840972738 0)
(2.991473441 0.7837234863 0)
(2.969394757 0.6498347271 0)
(2.822628356 0.2614778944 0)
(2.685649705 0.3209583022 0)
(2.56547903 0.4754284206 0)
(2.524032111 0.504918893 0)
(2.500499912 0.5317749745 0)
(2.479922248 0.5538359323 0)
(2.454468547 0.5668577211 0)
(2.436839531 0.5950211852 0)
(2.429820797 0.6254558129 0)
(2.429204825 0.6444046316 0)
(3.090943004 0.8245513155 0)
(3.080962309 0.8044473254 0)
(3.015306968 0.8024546365 0)
(2.91674891 0.7703188358 0)
(2.845281053 0.7537435341 0)
(2.830019623 0.7507006845 0)
(2.851362199 0.7539401343 0)
(2.883510369 0.7565867163 0)
(2.916235183 0.7597460832 0)
(2.943124839 0.7652718296 0)
(2.961653102 0.7736127252 0)
(2.970571598 0.7786713388 0)
(2.97588392 0.7784420249 0)
(2.980084914 0.7805815005 0)
(2.985086501 0.7823603345 0)
(2.988894645 0.7828732448 0)
(2.990785081 0.7834881753 0)
(2.991022139 0.7842751264 0)
(2.98872373 0.7729370445 0)
(2.945324942 0.5161288337 0)
(2.806319179 0.1960679703 0)
(2.674523066 0.2829684711 0)
(2.554115413 0.4861579879 0)
(2.515602675 0.5474647058 0)
(2.492982974 0.5465498937 0)
(2.475298112 0.5562123556 0)
(2.452506076 0.5663240813 0)
(2.436799496 0.5855573998 0)
(2.431334041 0.6054938596 0)
(2.430866763 0.6288866044 0)
(3.094231612 0.8257519963 0)
(3.084742617 0.8068412035 0)
(3.019084989 0.8031617479 0)
(2.918767773 0.7712415807 0)
(2.845457124 0.754106449 0)
(2.82914611 0.7494554431 0)
(2.851070642 0.752020113 0)
(2.884262655 0.7582131835 0)
(2.915866078 0.761471825 0)
(2.941761597 0.7660730235 0)
(2.95957514 0.7753085335 0)
(2.968792743 0.7798263721 0)
(2.974483 0.7792179966 0)
(2.979735498 0.781268876 0)
(2.98509 0.783503972 0)
(2.989200145 0.7833029843 0)
(2.990839172 0.7841613554 0)
(2.990894714 0.7847168179 0)
(2.98120119 0.7255226853 0)
(2.89510646 0.3098742308 0)
(2.801953321 0.1564730523 0)
(2.662348803 0.256465321 0)
(2.546930131 0.4817781853 0)
(2.50774383 0.5619313572 0)
(2.486736674 0.5765664791 0)
(2.469896884 0.5701935707 0)
(2.450534034 0.5703337222 0)
(2.437018791 0.586399237 0)
(2.432794628 0.6018850351 0)
(2.4321879 0.6154050298 0)
(3.09566133 0.8276498787 0)
(3.08602574 0.8098178612 0)
(3.020387126 0.8036037983 0)
(2.917683922 0.7709787674 0)
(2.844081701 0.7518361531 0)
(2.827921309 0.7455118288 0)
(2.851214765 0.7523990778 0)
(2.885243425 0.759715784 0)
(2.915738972 0.7622264453 0)
(2.939833808 0.7666736821 0)
(2.956387314 0.7761965341 0)
(2.966013807 0.7804733545 0)
(2.972795166 0.7793359956 0)
(2.979266658 0.7822035763 0)
(2.985229981 0.7840770992 0)
(2.989654037 0.783793947 0)
(2.990936773 0.7854458943 0)
(2.990140204 0.7814455186 0)
(2.966159069 0.5823815746 0)
(2.866431649 0.2155962025 0)
(2.797483833 0.148587339 0)
(2.647614174 0.2607180342 0)
(2.538100986 0.4663368502 0)
(2.501689581 0.5612919206 0)
(2.482017642 0.5866866771 0)
(2.465994912 0.5939756724 0)
(2.449171389 0.590421308 0)
(2.43839162 0.5922017491 0)
(2.434694297 0.6042803002 0)
(2.433158056 0.6161573535 0)
(3.095957801 0.8301345581 0)
(3.085767387 0.8122464839 0)
(3.018957526 0.803521159 0)
(2.914677125 0.7684518164 0)
(2.841652624 0.7437735834 0)
(2.82727624 0.740677818 0)
(2.851723301 0.7530815294 0)
(2.885811486 0.7598987182 0)
(2.915566821 0.7626014618 0)
(2.937878039 0.7675802225 0)
(2.953265534 0.7760783116 0)
(2.963168284 0.7802187788 0)
(2.971561582 0.7789987694 0)
(2.97906073 0.7825280309 0)
(2.986751296 0.783811156 0)
(2.990641856 0.7844626684 0)
(2.991661741 0.7861923014 0)
(2.987180581 0.7594262562 0)
(2.951181139 0.474415009 0)
(2.845444357 0.1777511589 0)
(2.784252884 0.1519273191 0)
(2.639541344 0.292538197 0)
(2.533722453 0.4472729741 0)
(2.495133032 0.5487997435 0)
(2.478546231 0.5860228802 0)
(2.46431834 0.5997278051 0)
(2.448992924 0.6113092276 0)
(2.440684457 0.614761583 0)
(2.437183242 0.6167650992 0)
(2.434379581 0.6203550198 0)
(3.092808515 0.834262332 0)
(3.082058326 0.8142296302 0)
(3.01592485 0.8015143087 0)
(2.910704889 0.7621429715 0)
(2.840086953 0.7356142746 0)
(2.828533836 0.7397334643 0)
(2.852229695 0.7534120671 0)
(2.886289551 0.7597245759 0)
(2.915589495 0.7624644988 0)
(2.936389469 0.7681366244 0)
(2.951786837 0.7763540192 0)
(2.962266566 0.7794709558 0)
(2.971286995 0.7788481722 0)
(2.979586824 0.7829118723 0)
(2.987295435 0.7831601402 0)
(2.991681504 0.7852262854 0)
(2.991988048 0.7861067573 0)
(2.979120615 0.7016903699 0)
(2.901510281 0.3079992151 0)
(2.82298654 0.09856412284 0)
(2.769030137 0.1600761022 0)
(2.631950915 0.3402975651 0)
(2.527305191 0.446748003 0)
(2.492150025 0.5256440818 0)
(2.475478331 0.5749552131 0)
(2.463182797 0.5987768929 0)
(2.450339109 0.614224676 0)
(2.443579707 0.6292599263 0)