/*--------------------------------*- C++ -*----------------------------------*\
  =========                 |
  \\      /  F ield         | OpenFOAM: The Open Source CFD Toolbox
   \\    /   O peration     | Website:  https://openfoam.org
    \\  /    A nd           | Version:  7
     \\/     M anipulation  |
\*---------------------------------------------------------------------------*/
FoamFile
{
    version     2.0;
    format      ascii;
    class       volVectorField;
    location    "3.9";
    object      U;
}
// * * * * * * * * * * * * * * * * * * * * * * * * * * * * * * * * * * * * * //

dimensions      [0 1 -1 0 0 0 0];

internalField   nonuniform List<vector> 
2222
(
(2.955169223 0.001062104901 0)
(2.958537262 -0.002487949499 0)
(2.958656081 -0.002530759902 0)
(2.958838924 -0.002529880856 0)
(2.95891522 -0.002640021974 0)
(2.959141263 -0.002653668984 0)
(2.959299105 -0.002337318155 0)
(2.959311671 -0.002270595354 0)
(2.959266547 -0.001958468234 0)
(2.959244184 0.0002290852094 0)
(2.958944511 0.002132980357 0)
(2.958789472 0.002738898818 0)
(2.959159341 0.002413381606 0)
(2.959174874 0.002295312269 0)
(2.959095166 0.002022374675 0)
(2.959120541 0.001599992918 0)
(2.959124285 0.0004554156214 0)
(2.959116196 -0.0001758660145 0)
(2.959016799 -0.001687761973 0)
(2.958810232 -0.002186121636 0)
(2.957849108 -0.003060131997 0)
(2.957248506 -0.00259485322 0)
(2.957015957 -0.001287239699 0)
(2.95732034 3.218913014e-05 0)
(2.957185692 0.001517126829 0)
(2.957611963 0.001950678624 0)
(2.957533016 0.001858205982 0)
(2.957309544 0.001362522589 0)
(2.961635581 0.001707189124 0)
(2.961724479 0.002739924216 0)
(2.96170902 0.002029966011 0)
(2.961474956 0.0001305542919 0)
(2.961348123 -0.001544932321 0)
(2.961252475 -0.003017782061 0)
(2.961312792 -0.003437133082 0)
(2.961537071 -0.002516841304 0)
(2.961451471 -0.002153956907 0)
(2.961594728 -0.002592193799 0)
(2.961770329 -0.002542337556 0)
(2.961986958 -0.002261864248 0)
(2.962147284 -0.001797436104 0)
(2.962076576 -0.0006090625829 0)
(2.961784383 0.001273780465 0)
(2.961310926 0.002428718775 0)
(2.961169367 0.003078444803 0)
(2.961510171 0.002699700596 0)
(2.961889666 0.002130163597 0)
(2.962065058 0.001799645507 0)
(2.962322017 0.001561905772 0)
(2.962363061 0.000548688825 0)
(2.962282257 -0.0007550212973 0)
(2.961881634 -0.001672477163 0)
(2.961160472 -0.002974801612 0)
(2.960969827 -0.003367248369 0)
(2.960676894 -0.001842996052 0)
(2.960223244 -0.0006974378646 0)
(2.959827619 0.001110598335 0)
(2.959388068 0.002094826985 0)
(2.959307375 0.002399363084 0)
(2.959755981 0.002025053107 0)
(2.96004744 0.001667584836 0)
(2.960350623 0.0009074223337 0)
(2.964161886 0.001211727941 0)
(2.964322568 0.00221111059 0)
(2.964220509 0.001366816774 0)
(2.963753755 -6.058304299e-05 0)
(2.963487303 -0.001324931203 0)
(2.963493596 -0.002200430746 0)
(2.9639792 -0.00265261523 0)
(2.964377201 -0.00233363784 0)
(2.964412622 -0.002164778064 0)
(2.964630248 -0.002096105073 0)
(2.964653639 -0.00191492347 0)
(2.964746468 -0.001133483594 0)
(2.965041701 0.0002582118856 0)
(2.964850681 0.00184782217 0)
(2.964322648 0.002762927012 0)
(2.963714078 0.003045794912 0)
(2.963961848 0.002601327072 0)
(2.964361434 0.001940007763 0)
(2.96487545 0.001901126214 0)
(2.964953145 0.001485635482 0)
(2.964846185 0.0004968780489 0)
(2.964819704 -0.0004157235494 0)
(2.964837253 -0.001377079012 0)
(2.964599949 -0.001991184509 0)
(2.964180743 -0.001833557249 0)
(2.963971361 -0.001686144932 0)
(2.963823147 -0.0007075497688 0)
(2.963125746 0.001990133927 0)
(2.962398305 0.002414017244 0)
(2.961682287 0.002804924174 0)
(2.961708034 0.002399476736 0)
(2.96232509 0.001722408732 0)
(2.962729993 0.0008072153027 0)
(2.962668855 -0.0002308763497 0)
(2.966561888 0.0007239988121 0)
(2.966728842 0.001881068647 0)
(2.966470242 0.001162176584 0)
(2.965898636 -0.0004863427333 0)
(2.965625366 -0.001443856241 0)
(2.9657797 -0.001804033518 0)
(2.966080558 -0.001275116878 0)
(2.966479122 -0.0008382722403 0)
(2.966620281 -0.0008945949129 0)
(2.966742146 -0.001160009836 0)
(2.967214261 -0.0008900484352 0)
(2.967469976 5.962013088e-05 0)
(2.967513965 0.001097256504 0)
(2.967464191 0.001907758374 0)
(2.9671946 0.002367675583 0)
(2.966836686 0.002262871007 0)
(2.966898717 0.001806972009 0)
(2.966849049 0.001227270351 0)
(2.96710669 0.0008118026946 0)
(2.967163138 0.0005748785688 0)
(2.967172186 -0.0001194029015 0)
(2.966990969 -0.0004650978618 0)
(2.967328576 -0.001324960579 0)
(2.967582836 -0.001300489024 0)
(2.967223559 -0.001396560084 0)
(2.967079894 -5.948859567e-05 0)
(2.966572743 0.001554882542 0)
(2.966101897 0.002669089961 0)
(2.965048107 0.002423505646 0)
(2.964778837 0.002375333841 0)
(2.964875885 0.001842567974 0)
(2.965220502 0.001188681149 0)
(2.96538873 -5.815159739e-05 0)
(2.9648744 -0.001225512168 0)
(2.968876598 0.0007396181495 0)
(2.969079823 0.001836590681 0)
(2.969091702 0.001604383273 0)
(2.968637373 0.0004101605672 0)
(2.96825062 -0.0002718199744 0)
(2.968117375 -0.0004202556016 0)
(2.968204426 0.0002681926057 0)
(2.968427404 5.316366869e-05 0)
(2.968610573 -0.0002800180459 0)
(2.968763648 -0.0005194468026 0)
(2.969333343 -0.0008706375016 0)
(2.969801825 -0.0001437076612 0)
(2.969700228 0.0007751691064 0)
(2.969772771 0.001191859251 0)
(2.970009271 0.001310781175 0)
(2.969819246 0.001100920906 0)
(2.969737294 0.0008877985347 0)
(2.969445004 0.0004873284027 0)
(2.969113389 -0.0003388171924 0)
(2.969156738 -0.0004474913684 0)
(2.969477482 -0.0002968982239 0)
(2.96966366 -0.0004765310504 0)
(2.970095431 -0.0006656257454 0)
(2.970204243 -0.0001321092742 0)
(2.96969478 0.00047677399 0)
(2.969406946 0.001052422958 0)
(2.969117363 0.001734810269 0)
(2.968692699 0.002186846282 0)
(2.96814436 0.001821089713 0)
(2.967860904 0.001404730075 0)
(2.96742081 0.000943882566 0)
(2.96757107 0.0002082986697 0)
(2.9678245 -0.0005395480274 0)
(2.967216465 -0.001674420673 0)
(2.971547059 0.0009153045377 0)
(2.971432218 0.002295519458 0)
(2.971340231 0.002316302696 0)
(2.970939526 0.00125277934 0)
(2.970432674 0.0002551732333 0)
(2.970273056 -0.0001520789873 0)
(2.970645916 0.0002882299266 0)
(2.970913363 0.0001482420131 0)
(2.971120108 -0.0003560551105 0)
(2.971251265 -0.0009429229172 0)
(2.971729714 -0.0008868074703 0)
(2.972074423 -0.000566179576 0)
(2.97211407 -5.194699262e-05 0)
(2.972096068 0.0001658835978 0)
(2.972211233 -5.241087323e-05 0)
(2.971872081 -0.0002485213588 0)
(2.971612539 -0.0004689570002 0)
(2.97126795 -0.0007844088715 0)
(2.971244058 -0.001138422163 0)
(2.971523733 -0.001057836247 0)
(2.971481753 -0.001036257556 0)
(2.971866566 -0.001215796833 0)
(2.972484474 -0.0009323456771 0)
(2.972601864 0.0001185267678 0)
(2.972058774 0.0004953637001 0)
(2.971509226 0.0009812084487 0)
(2.971801425 0.001293159071 0)
(2.971208938 0.001225752218 0)
(2.97053313 0.0007312039755 0)
(2.969829306 8.252263176e-05 0)
(2.970022043 -0.0002786542236 0)
(2.969651261 -0.000806502134 0)
(2.969752796 -0.001156611819 0)
(2.969724417 -0.0015817963 0)
(2.97375827 0.0008289352235 0)
(2.973585454 0.002084685453 0)
(2.973360231 0.001937545593 0)
(2.9726858 0.0004048192227 0)
(2.971980349 -0.0008837128772 0)
(2.971862131 -0.001383913028 0)
(2.972369342 -0.001027886916 0)
(2.973065869 -0.0008072145779 0)
(2.973608532 -0.001083157973 0)
(2.97380446 -0.001449218051 0)
(2.974528386 -0.001329834443 0)
(2.974835726 -0.001147072354 0)
(2.974916788 -0.001011774003 0)
(2.97491318 -0.001121898318 0)
(2.974398521 -0.0009360636777 0)
(2.97380615 -0.001230216309 0)
(2.973377075 -0.001657605126 0)
(2.97324891 -0.001592800453 0)
(2.973470428 -0.00134719464 0)
(2.973704033 -0.001831128362 0)
(2.974319288 -0.001501352966 0)
(2.974599766 -0.001307432637 0)
(2.97499197 -0.0009042873769 0)
(2.97504538 -0.000153646468 0)
(2.974218377 0.0005352848017 0)
(2.974143522 0.0006743813101 0)
(2.973891976 -6.155594919e-05 0)
(2.973025501 -2.108536098e-05 0)
(2.972583482 -0.0004810684725 0)
(2.972089934 -0.001001080091 0)
(2.972065396 -0.001262186023 0)
(2.97191727 -0.001640020788 0)
(2.971977421 -0.001651300904 0)
(2.972349475 -0.0009180048537 0)
(2.975848653 0.001544057508 0)
(2.975586612 0.00147440536 0)
(2.975043394 0.0001120608087 0)
(2.974439153 -0.001103207112 0)
(2.974304351 -0.001719895098 0)
(2.974526129 -0.001867301815 0)
(2.975069984 -0.001837655383 0)
(2.975780294 -0.001838348837 0)
(2.976444167 -0.001706752769 0)
(2.976917215 -0.002142020388 0)
(2.977554422 -0.001733449775 0)
(2.977650747 -0.001515821888 0)
(2.977560627 -0.001715941159 0)
(2.976645516 -0.002313383858 0)
(2.976054863 -0.002279480529 0)
(2.975851474 -0.002361741166 0)
(2.975873667 -0.002141245978 0)
(2.975829292 -0.001971889321 0)
(2.976146959 -0.002054997073 0)
(2.976754789 -0.002899537251 0)
(2.977152889 -0.00250253901 0)
(2.977273635 -0.001593496366 0)
(2.977166805 -0.0005449721759 0)
(2.976474789 -4.822311063e-05 0)
(2.976113067 -0.0005187346737 0)
(2.97558128 -0.001006189168 0)
(2.975237875 -0.001179652421 0)
(2.974853986 -0.001389406743 0)
(2.974614471 -0.001626942027 0)
(2.97468109 -0.001715162398 0)
(2.974591801 -0.001523714416 0)
(2.974764352 -0.0007836895637 0)
(2.974728458 0.0007924647728 0)
(2.978360086 0.001234740471 0)
(2.978166878 0.001192436748 0)
(2.977826151 -0.0001879247388 0)
(2.977243998 -0.001313671374 0)
(2.977034269 -0.001907379356 0)
(2.976977023 -0.002654425162 0)
(2.97749909 -0.002660741799 0)
(2.978109268 -0.002220536363 0)
(2.978684992 -0.00208877737 0)
(2.979028899 -0.002611266504 0)
(2.979549522 -0.002415906257 0)
(2.979663424 -0.002413947796 0)
(2.97948398 -0.002480566294 0)
(2.978764393 -0.002938465949 0)
(2.978593666 -0.002975903467 0)
(2.97836663 -0.002042018931 0)
(2.978117993 -0.001663653641 0)
(2.978084993 -0.001961837566 0)
(2.978437747 -0.001800528861 0)
(2.978564393 -0.001255172683 0)
(2.978798158 -0.0008606818654 0)
(2.978887466 -0.000141494631 0)
(2.978896903 -0.0002505340636 0)
(2.97857904 -0.0006347567455 0)
(2.977922491 -0.001153237989 0)
(2.977892931 -0.001205078078 0)
(2.97778575 -0.002291019299 0)
(2.977585007 -0.002008965713 0)
(2.977501489 -0.002391151096 0)
(2.977645524 -0.002012797356 0)
(2.977195812 -0.0008558662306 0)
(2.977105684 0.001121790467 0)
(2.976990286 0.001748506076 0)
(2.976631213 0.001640113035 0)
(2.980834691 0.001463314521 0)
(2.980643441 0.001512454258 0)
(2.980220854 0.0001298744816 0)
(2.979575348 -0.001087810768 0)
(2.979364787 -0.001990329062 0)
(2.979654317 -0.002743017379 0)
(2.980308058 -0.002745588414 0)
(2.980820588 -0.002439922342 0)
(2.981001391 -0.002617143498 0)
(2.981441021 -0.002388125612 0)
(2.981596196 -0.002775574363 0)
(2.981540038 -0.002918589763 0)
(2.981405463 -0.002770826835 0)
(2.981317427 -0.002232820718 0)
(2.980963642 -0.001886479045 0)
(2.980684797 -0.001847871274 0)
(2.980262213 -0.00142976706 0)
(2.980402338 -0.0008959766661 0)
(2.980506553 -0.0005166588061 0)
(2.980755463 -9.111681811e-05 0)
(2.980796137 0.0005840701179 0)
(2.980700755 0.0008464162385 0)
(2.980632859 0.0001197653041 0)
(2.980618287 -0.000764085918 0)
(2.980019559 -0.001565803102 0)
(2.980238507 -0.001803314056 0)
(2.980246594 -0.001960623947 0)
(2.980144239 -0.001973245323 0)
(2.979834386 -0.001228447324 0)
(2.979586646 5.559807949e-05 0)
(2.979243119 0.001429349669 0)
(2.979204816 0.00192921955 0)
(2.978923677 0.001683942408 0)
(2.978839301 0.001146426946 0)
(2.983195922 0.001922342601 0)
(2.983152791 0.001975333641 0)
(2.982601904 0.0004473142028 0)
(2.981908188 -0.001144794555 0)
(2.981633654 -0.001972176312 0)
(2.98215462 -0.002223212308 0)
(2.982725965 -0.001711839929 0)
(2.983271809 -0.001088942022 0)
(2.983464423 -0.001019614385 0)
(2.983859023 -0.001620060501 0)
(2.984075477 -0.002094575737 0)
(2.984050843 -0.001995362182 0)
(2.983868262 -0.00178513093 0)
(2.98366536 -0.001153742459 0)
(2.983036775 -0.0002331049207 0)
(2.982685783 0.0004441038492 0)
(2.982345582 0.0009665327227 0)
(2.982225209 0.001411201868 0)
(2.982265206 0.001636618893 0)
(2.98238368 0.001443019617 0)
(2.982469715 0.001093413806 0)
(2.982505767 0.0008404211194 0)
(2.982518536 0.0001358551083 0)
(2.98245394 -0.001114708951 0)
(2.982150846 -0.001628520377 0)
(2.982219173 -0.002736491448 0)
(2.982290669 -0.001780712297 0)
(2.982131198 -0.0002710890423 0)
(2.981551705 0.001159954703 0)
(2.981464303 0.002032276928 0)
(2.980951503 0.002015160412 0)
(2.980949412 0.00176431193 0)
(2.980942117 0.001225919877 0)
(2.980789091 0.0002507292649 0)
(2.985319944 0.002233210881 0)
(2.985320562 0.002479514127 0)
(2.984893117 0.0009285460571 0)
(2.98432817 -0.000142110121 0)
(2.984101942 -0.0006835659647 0)
(2.984408359 -0.0006848739018 0)
(2.984868962 0.0002975513184 0)
(2.985347286 0.0004409996406 0)
(2.985708004 6.530424371e-05 0)
(2.985977406 -0.0006217283128 0)
(2.986246628 -0.001099618895 0)
(2.986452245 -0.0007389011657 0)
(2.986150405 0.0002325147176 0)
(2.985595684 0.001316215104 0)
(2.984947266 0.001952715857 0)
(2.984541821 0.002060383602 0)
(2.984342987 0.002214520922 0)
(2.984103092 0.002443420233 0)
(2.984071995 0.002351401723 0)
(2.98408716 0.001821284363 0)
(2.983991475 0.0009526815447 0)
(2.984032548 0.000402710542 0)
(2.984155484 -0.0005314884447 0)
(2.984231888 -0.001218777232 0)
(2.984107875 -0.002035839778 0)
(2.984032381 -0.0009097132145 0)
(2.983801722 0.0005750860309 0)
(2.983568614 0.001632259555 0)
(2.983287802 0.002267252049 0)
(2.983112877 0.002041101193 0)
(2.982559252 0.001976797517 0)
(2.982816697 0.00133901849 0)
(2.98284519 0.0005738192065 0)
(2.982610355 -0.0003348460355 0)
(2.987403332 0.002012965456 0)
(2.987486175 0.002457479048 0)
(2.987096807 0.0006627872127 0)
(2.986529721 0.000127272123 0)
(2.986391188 -3.986207819e-05 0)
(2.986532395 0.0003637904345 0)
(2.987034678 0.00114221873 0)
(2.987300455 0.0007202134957 0)
(2.987714022 2.816964288e-05 0)
(2.987877743 -0.0004597419635 0)
(2.988179414 -0.0004493124899 0)
(2.988294047 9.123019341e-05 0)
(2.987997897 0.001081941652 0)
(2.987421974 0.001958114135 0)
(2.986755788 0.002215500013 0)
(2.986211329 0.002101289416 0)
(2.985934454 0.001861986802 0)
(2.985701701 0.001660490047 0)
(2.985515764 0.00137775039 0)
(2.985513894 0.00106718687 0)
(2.985655267 0.000540141108 0)
(2.985698812 9.109594421e-05 0)
(2.985505637 -0.001089366893 0)
(2.985896782 -0.001644867435 0)
(2.985835026 -0.0008943106909 0)
(2.985576579 0.0006725407677 0)
(2.985292993 0.001622049635 0)
(2.985100799 0.002050139599 0)
(2.985143943 0.002046492038 0)
(2.9847703 0.001799623781 0)
(2.984642808 0.001487056953 0)
(2.984956672 0.001018636864 0)
(2.984873996 -0.0002142533729 0)
(2.98449542 -0.0009211665293 0)
(2.98951911 0.001570125836 0)
(2.989652778 0.001954841182 0)
(2.989308556 0.0005547092991 0)
(2.988733475 9.418358785e-05 0)
(2.988591618 -0.000131655292 0)
(2.988673091 -6.38159507e-05 0)
(2.988836718 0.0002966624929 0)
(2.989111345 0.0001346939448 0)
(2.989488402 -0.000365536692 0)
(2.989701432 -0.0004336808042 0)
(2.990038222 -0.0004100744543 0)
(2.990101962 0.0003054234482 0)
(2.989889843 0.001022028045 0)
(2.989333979 0.001690960217 0)
(2.98863603 0.001844750409 0)
(2.987967862 0.001636352974 0)
(2.98744965 0.001316280834 0)
(2.987154892 0.0008350005659 0)
(2.987103448 0.0004634540112 0)
(2.986914337 0.0001788114188 0)
(2.986946045 -0.0003400648831 0)
(2.987089143 -0.0005461288396 0)
(2.987082125 -0.0008150561208 0)
(2.987370383 -0.0008326820245 0)
(2.987289791 3.359458918e-05 0)
(2.987137256 0.0008080159615 0)
(2.987086943 0.001348522434 0)
(2.987016785 0.001581769389 0)
(2.987068741 0.001341834358 0)
(2.986742124 0.001435072945 0)
(2.986416918 0.0007586989336 0)
(2.986789815 -0.0003478059234 0)
(2.9865707 -0.000864169529 0)
(2.986268662 -0.001687610079 0)
(2.991341908 0.001041606217 0)
(2.991574176 0.001736257258 0)
(2.991436603 0.0004171671035 0)
(2.990837238 -8.219915066e-05 0)
(2.990658188 -0.0005948816246 0)
(2.990565916 -0.0008860525039 0)
(2.990675637 -0.0007928658972 0)
(2.990926961 -0.0009441249303 0)
(2.991264263 -0.0008418858596 0)
(2.991590108 -0.0008965261494 0)
(2.991920315 -0.000790451093 0)
(2.991878535 -0.0004799110355 0)
(2.991738471 0.0001658866951 0)
(2.991443264 0.0008884799746 0)
(2.990555566 0.001126265046 0)
(2.989682714 0.0009127055307 0)
(2.989101876 0.0007647423593 0)
(2.988705267 0.0002814682917 0)
(2.988478187 -0.0004243495004 0)
(2.988581796 -0.0009363617062 0)
(2.988529407 -0.001028834835 0)
(2.988611469 -0.001127812872 0)
(2.988812797 -0.0009039649321 0)
(2.989001178 -5.655933718e-05 0)
(2.988841065 0.0003883152473 0)
(2.988621528 0.0004830584227 0)
(2.988942065 0.0005721734193 0)
(2.988984823 0.0006647604943 0)
(2.988700932 0.0005703926351 0)
(2.988425903 0.0005465809228 0)
(2.988341513 -0.00028219124 0)
(2.98791755 -0.001098360752 0)
(2.988148983 -0.001550914874 0)
(2.987980933 -0.00244407854 0)
(2.993467267 0.002038825992 0)
(2.993310211 0.001179510878 0)
(2.992881043 -7.768289466e-06 0)
(2.992588638 -0.001044337998 0)
(2.992291358 -0.001430111443 0)
(2.992526806 -0.001826036171 0)
(2.99282656 -0.001704801084 0)
(2.992989944 -0.001158744609 0)
(2.993194532 -0.001210426788 0)
(2.993390621 -0.001405977635 0)
(2.993509455 -0.00149127261 0)
(2.993236144 -0.001037331524 0)
(2.992731571 -0.0001540306334 0)
(2.992041279 0.0001369389269 0)
(2.99125733 0.0001517071662 0)
(2.99054838 -4.941886468e-05 0)
(2.99016237 -0.0002128098938 0)
(2.990080717 -0.0004035495154 0)
(2.990243819 -0.0005268103023 0)
(2.990126494 -0.0005886559744 0)
(2.99032822 -0.0003653051007 0)
(2.990336245 0.0001548793392 0)
(2.990254769 0.0002949499145 0)
(2.990230874 7.6452635e-05 0)
(2.990278791 1.840905917e-05 0)
(2.990268561 -0.0004182352182 0)
(2.990153111 -0.0004835551153 0)
(2.990196939 -0.0001429742029 0)
(2.989730492 -0.0009125674287 0)
(2.989817675 -0.0008014112002 0)
(2.989468311 -0.001307417905 0)
(2.989601192 -0.002280015848 0)
(2.989824539 -0.002018484051 0)
(2.995093089 0.002822172422 0)
(2.994578569 0.001874464296 0)
(2.994451697 7.853781912e-05 0)
(2.994183852 -0.001182447046 0)
(2.9940122 -0.001851545043 0)
(2.994233935 -0.002357337176 0)
(2.994513502 -0.001841917189 0)
(2.994666833 -0.001037278954 0)
(2.994636103 -0.001476662576 0)
(2.994831901 -0.001949847472 0)
(2.995118315 -0.002357244593 0)
(2.995020329 -0.001891233958 0)
(2.994154328 -0.001135843734 0)
(2.993323577 -0.0007734723737 0)
(2.992540905 -0.0004490527447 0)
(2.991784379 -0.0001776311469 0)
(2.991355396 7.261179612e-06 0)
(2.991315318 6.666077027e-05 0)
(2.991134468 -1.192900844e-05 0)
(2.991164489 -3.058825221e-05 0)
(2.99129843 6.586989685e-05 0)
(2.991429462 0.0002177394021 0)
(2.991347392 0.0001457490929 0)
(2.991470105 -0.0004430220521 0)
(2.991624806 -0.0007042689409 0)
(2.991380821 -0.001148542928 0)
(2.991395712 -0.00127634216 0)
(2.991425587 -0.001550300921 0)
(2.991045162 -0.00162322007 0)
(2.99103207 -0.001574582189 0)
(2.990964988 -0.001604817099 0)
(2.991148414 -0.001734623893 0)
(2.991574984 -0.001533768991 0)
(2.996228891 0.003289038569 0)
(2.995759243 0.002087095679 0)
(2.995764401 -8.849775003e-05 0)
(2.995517455 -0.001350411354 0)
(2.995363382 -0.002072126183 0)
(2.995555445 -0.002095688682 0)
(2.995736078 -0.00117918697 0)
(2.995893408 -0.0011322582 0)
(2.996073146 -0.00131776325 0)
(2.996374585 -0.002319417467 0)
(2.996773902 -0.002763168358 0)
(2.996709482 -0.002371513595 0)
(2.995973522 -0.001799254782 0)
(2.994997895 -0.001160864139 0)
(2.993874594 -0.0005944504308 0)
(2.993120307 0.0001336328384 0)
(2.992563726 0.000813186986 0)
(2.992037743 0.001049464156 0)
(2.991875661 0.0006279050721 0)
(2.992052892 0.0001537695011 0)
(2.992160307 0.0001942244101 0)
(2.992416138 -2.345680038e-05 0)
(2.992754206 -0.0002905768204 0)
(2.992809899 -0.00081339672 0)
(2.992697345 -0.001818257201 0)
(2.992719877 -0.00204975291 0)
(2.992772326 -0.001775540503 0)
(2.992658592 -0.002317775585 0)
(2.992455816 -0.001406172001 0)
(2.992559836 -0.00197475806 0)
(2.992454877 -0.002130511012 0)
(2.992800522 -0.001264032469 0)
(2.993036821 0.0005629103895 0)
(2.997332689 0.003220488816 0)
(2.997223513 0.001809392835 0)
(2.997037714 -0.0005037200196 0)
(2.996567859 -0.001508211427 0)
(2.99646379 -0.001870949718 0)
(2.99666736 -0.001486940906 0)
(2.996823086 -0.0006136841574 0)
(2.99693931 -0.0004416342917 0)
(2.99740871 -0.001533504104 0)
(2.997640199 -0.001896812203 0)
(2.997899018 -0.002088766324 0)
(2.997791982 -0.001596184003 0)
(2.997192638 -0.001039410705 0)
(2.996530558 -0.0006930746026 0)
(2.995367537 5.995978237e-05 0)
(2.994416657 0.0009278565759 0)
(2.993612036 0.001358153838 0)
(2.993126664 0.001314034446 0)
(2.993157711 0.0008890635119 0)
(2.993336598 4.342963277e-05 0)
(2.993508591 4.42883752e-05 0)
(2.993695832 -0.0003938833148 0)
(2.993768784 -0.001158668775 0)
(2.993802478 -0.001886964661 0)
(2.993822701 -0.002627180614 0)
(2.994237605 -0.003028236509 0)
(2.994279061 -0.00253133715 0)
(2.994223854 -0.001594603479 0)
(2.994083017 -0.00175536584 0)
(2.994092436 -0.001174926481 0)
(2.99397696 -0.0002484849396 0)
(2.994012795 0.0008480710125 0)
(2.994222809 0.001322844159 0)
(2.998420805 0.002832615458 0)
(2.998157212 0.00133555176 0)
(2.997895933 -0.0009312515327 0)
(2.997520049 -0.00172445069 0)
(2.997544925 -0.001629517735 0)
(2.997601832 -0.0008200918064 0)
(2.997766835 -0.0002016798603 0)
(2.998013323 -0.0006273792916 0)
(2.998260616 -0.0005878934591 0)
(2.998548743 -0.0009529082117 0)
(2.998688854 -0.001106995505 0)
(2.99847879 -0.0009489147285 0)
(2.997957651 -0.0006613509116 0)
(2.997293551 -0.0003329712999 0)
(2.996355118 0.0003567107563 0)
(2.995578144 0.0008390469256 0)
(2.99476122 0.001244873033 0)
(2.994444422 0.001071454453 0)
(2.994394112 0.0004592738167 0)
(2.99457603 -0.0002928033532 0)
(2.994663967 -0.0004245479998 0)
(2.994883704 -0.0008350848908 0)
(2.994736486 -0.001811495869 0)
(2.994696309 -0.002634798393 0)
(2.995037608 -0.002089311284 0)
(2.995495181 -0.002054561209 0)
(2.995616631 -0.001424172487 0)
(2.995517963 -0.0006284071738 0)
(2.995420061 0.0001097753684 0)
(2.995167375 0.0006148416259 0)
(2.994974462 0.001067877529 0)
(2.994961096 0.001336449915 0)
(2.995194846 0.001248624522 0)
(2.999071141 0.002336730502 0)
(2.99875807 0.0008892616766 0)
(2.998535845 -0.0008088183961 0)
(2.998363776 -0.000823711 0)
(2.998332579 -0.0005348938937 0)
(2.998425221 -2.668800263e-05 0)
(2.998627426 -1.508624147e-05 0)
(2.998733104 0.000312648405 0)
(2.999045975 0.0003401670303 0)
(2.999185025 -9.864494001e-05 0)
(2.999406592 -0.0005154663919 0)
(2.999365034 -0.000658684404 0)
(2.998821085 -0.000527602105 0)
(2.99801197 -0.0002846287526 0)
(2.997162362 7.400884681e-05 0)
(2.996416146 0.0002750093585 0)
(2.995743726 0.0005515927624 0)
(2.995373927 0.0004881963373 0)
(2.995172642 -0.0001150313952 0)
(2.995232836 -0.001008865802 0)
(2.995328636 -0.001009072528 0)
(2.995593748 -0.001157385648 0)
(2.995633471 -0.001575967689 0)
(2.995837793 -0.001856606397 0)
(2.996179453 -0.001545378318 0)
(2.996430971 -0.0005361539508 0)
(2.996442638 0.0005330748034 0)
(2.996368005 0.001140602838 0)
(2.99619465 0.001080427245 0)
(2.995953153 0.001361657065 0)
(2.995815028 0.00147165799 0)
(2.995962513 0.001360307311 0)
(2.996321888 0.0009144183656 0)
(2.999518247 0.002171440035 0)
(2.999215657 0.001083263208 0)
(2.999172265 -0.0002062829104 0)
(2.998985653 9.148351733e-05 0)
(2.999008381 0.0001217137361 0)
(2.999180555 0.0001933796329 0)
(2.999351836 0.0004774681077 0)
(2.999522857 0.001198975575 0)
(2.999797587 0.0007336998522 0)
(2.999919331 0.0001885658877 0)
(3.000363044 -0.0004947690795 0)
(3.000503454 -0.0008220548748 0)
(3.000009217 -0.0007278159243 0)
(2.999147632 -0.0003263054079 0)
(2.998148107 -0.0002942802556 0)
(2.997199576 -0.000336725634 0)
(2.99639266 -0.0003042163888 0)
(2.995966374 -0.000475343184 0)
(2.995851247 -0.0005178435019 0)
(2.995882995 -0.001378313235 0)
(2.996085179 -0.0009883854904 0)
(2.996269016 -0.001227447093 0)
(2.996485883 -0.00112698925 0)
(2.996720876 -0.0005276307533 0)
(2.99686896 0.0005893116173 0)
(2.997010609 0.001263677587 0)
(2.997106347 0.001478890434 0)
(2.997036482 0.001266572296 0)
(2.996882817 0.001349717524 0)
(2.996784037 0.001265036752 0)
(2.996766528 0.00134105777 0)
(2.996933355 0.001237469892 0)
(2.997161448 0.0004422227546 0)
(2.999854051 0.002586401923 0)
(2.999594005 0.001882439418 0)
(2.999493082 0.0009140190897 0)
(2.999476776 0.0003872293558 0)
(2.999486042 2.151602795e-05 0)
(2.999640409 -8.12550055e-05 0)
(2.99998597 0.0005996982899 0)
(3.000290701 0.001137544218 0)
(3.000516461 0.0005368665004 0)
(3.000836112 -0.0002469289324 0)
(3.001114997 -0.0009133485423 0)
(3.001254196 -0.001298328072 0)
(3.00087726 -0.001148458627 0)
(3.000154714 -0.0007328184306 0)
(2.999084375 -0.0007715733412 0)
(2.99802167 -0.0009338381301 0)
(2.997315086 -0.001042448771 0)
(2.996810932 -0.001232546055 0)
(2.99665139 -0.001070391991 0)
(2.996761446 -0.001136269327 0)
(2.996999328 -0.0009076825682 0)
(2.997036103 -0.0004690206175 0)
(2.9971413 0.0002956338866 0)
(2.9971923 0.001227765861 0)
(2.997373343 0.001332328871 0)
(2.997647076 0.001312626978 0)
(2.997778646 0.001323786934 0)
(2.997744597 0.001270928616 0)
(2.997721349 0.00123088023 0)
(2.997774894 0.000851923289 0)
(2.997742952 0.0006659752978 0)
(2.997657006 0.0005127915791 0)
(2.997730903 -0.0002446876086 0)
(2.999880037 0.00321489308 0)
(2.99986724 0.001688656215 0)
(3.000017449 0.0005449663401 0)
(2.999995439 -0.000133985596 0)
(3.00004712 -0.0003180828935 0)
(3.000379691 0.0001918891687 0)
(3.000714392 0.000603926637 0)
(3.000980831 -0.0001211071342 0)
(3.001177493 -0.001120693204 0)
(3.001387803 -0.001791534051 0)
(3.001620024 -0.0019924233 0)
(3.001364711 -0.001635403046 0)
(3.000659812 -0.001159086995 0)
(2.999703858 -0.001115508834 0)
(2.998669205 -0.001151949202 0)
(2.998028323 -0.000921051525 0)
(2.997549576 -0.0007398619177 0)
(2.997349556 -0.0005326841263 0)
(2.997349415 -0.0002628380914 0)
(2.997512456 0.0001604508058 0)
(2.997601493 0.0006423522956 0)
(2.997675023 0.001274687622 0)
(2.99780782 0.001386474102 0)
(2.997949586 0.001465782895 0)
(2.998289512 0.001177218036 0)
(2.998519537 0.0009873291415 0)
(2.998541487 0.001370579543 0)
(2.998530695 0.0003760797445 0)
(2.998386646 0.0006452421912 0)
(2.998207733 0.0002064699763 0)
(2.998072526 -0.0002227672718 0)
(2.998078552 -0.001024038727 0)
(3.00028045 0.00374374664 0)
(3.000198522 0.001873394896 0)
(3.000413432 0.0005530077616 0)
(3.0004666 -0.0002560004484 0)
(3.000548711 -0.0004607983425 0)
(3.000811462 -0.0001079337397 0)
(3.00108164 5.663417114e-05 0)
(3.001255982 -0.0008096753702 0)
(3.001389836 -0.001829903114 0)
(3.001671982 -0.002227274016 0)
(3.002004481 -0.002371824371 0)
(3.001837571 -0.001884077162 0)
(3.001094007 -0.001168562921 0)
(3.000137036 -0.000922132311 0)
(2.999184739 -0.0008591296392 0)
(2.998572313 -0.0003247439904 0)
(2.998022862 0.0001445647588 0)
(2.997803428 0.0001668654271 0)
(2.997693683 0.0001348458664 0)
(2.997847743 0.0003343324731 0)
(2.997998337 0.0006946445424 0)
(2.998151606 0.001110186695 0)
(2.998291042 0.001167320716 0)
(2.998483913 0.001498460032 0)
(2.998755762 0.00121440146 0)
(2.998983363 0.0009112756473 0)
(2.999000417 0.0002023208684 0)
(2.998705148 -0.0002192258107 0)
(2.998569469 -0.0007367064045 0)
(2.998411501 -0.001066536571 0)
(2.998304898 -0.00110275084 0)
(2.998296212 -0.001424221333 0)
(2.998117708 -0.001514290432 0)
(3.00075172 0.003700617451 0)
(3.000470841 0.001333070978 0)
(3.000746732 0.0001269932923 0)
(3.000885466 -0.0004919642247 0)
(3.001016481 -0.0006099229361 0)
(3.001387085 -0.00026224864 0)
(3.001566001 -0.0002582116919 0)
(3.00166297 -0.001245544617 0)
(3.001863068 -0.001911862799 0)
(3.002128774 -0.002175040332 0)
(3.002417449 -0.001994610781 0)
(3.002279248 -0.001476790714 0)
(3.001565061 -0.0009920547636 0)
(3.000601285 -0.0006611616185 0)
(2.999594027 -0.0001597792981 0)
(2.998864962 0.0003283774131 0)
(2.998323821 0.000323902229 0)
(2.998050639 -7.034760955e-06 0)
(2.997943141 1.463619067e-05 0)
(2.998040464 0.0001788372205 0)
(2.998191101 0.0004772456354 0)
(2.998374819 0.0007240636508 0)
(2.998533459 0.000926446964 0)
(2.998708315 0.0006258127468 0)
(2.998830473 0.0001287622374 0)
(2.998922976 -0.0006122721309 0)
(2.998785537 -0.001172752688 0)
(2.998483577 -0.001746156378 0)
(2.998536355 -0.001879854534 0)
(2.998498161 -0.001639296941 0)
(2.998283013 -0.001351667938 0)
(2.998180681 -0.00175989243 0)
(2.998122407 -0.001745494302 0)
(3.001330361 0.003216431282 0)
(3.000908368 0.0007481670823 0)
(3.001052513 2.510082642e-05 0)
(3.001200653 -0.0004027655477 0)
(3.001353442 -0.0004839103662 0)
(3.00169493 -0.0001701429289 0)
(3.001888536 -0.0001952474431 0)
(3.001961388 -0.0009711477343 0)
(3.002145838 -0.001494933741 0)
(3.002321867 -0.001630686097 0)
(3.002541672 -0.001581586072 0)
(3.002440378 -0.001403092363 0)
(3.001790398 -0.0009098033229 0)
(3.00087881 -0.0004851712489 0)
(2.999934259 0.0002680773513 0)
(2.999256261 0.0006805155837 0)
(2.998624032 0.0003354483309 0)
(2.998137035 -0.0001717326217 0)
(2.998069407 -0.0001554700721 0)
(2.998048324 -1.34009526e-08 0)
(2.998090212 0.0002369932087 0)
(2.998221728 0.0002718443577 0)
(2.998349136 0.0001550517913 0)
(2.998323855 -0.0005089877715 0)
(2.998357422 -0.00155466409 0)
(2.998486373 -0.002266651643 0)
(2.998395531 -0.002199833463 0)
(2.998159714 -0.00209370165 0)
(2.998064604 -0.002187439847 0)
(2.998022275 -0.002170385075 0)
(2.997817195 -0.001717404858 0)
(2.997597266 -0.001198537185 0)
(2.997630991 -0.0008330016429 0)
(3.001968144 0.0028542374 0)
(3.001347424 0.0006187134823 0)
(3.001437594 -0.0002883287631 0)
(3.001553123 -0.0004302984515 0)
(3.001587089 -0.0003564140842 0)
(3.00182514 -0.0001026032345 0)
(3.002018677 8.090614059e-05 0)
(3.002057616 0.0001255262174 0)
(3.002145766 -0.000328801455 0)
(3.002274486 -0.001184469983 0)
(3.002483219 -0.001581889982 0)
(3.002438116 -0.001293850581 0)
(3.001905896 -0.0007330321993 0)
(3.00108293 -0.0004975221662 0)
(3.000259101 8.235665835e-05 0)
(2.999365676 0.0003613644195 0)
(2.998727048 0.0003114651613 0)
(2.998014388 -0.0002636023586 0)
(2.997964863 -0.0001378868495 0)
(2.997840178 -8.059842986e-05 0)
(2.997713162 2.558815623e-05 0)
(2.997770466 -0.000208555915 0)
(2.997653357 -0.0008764375559 0)