/*--------------------------------*- C++ -*----------------------------------*\
  =========                 |
  \\      /  F ield         | OpenFOAM: The Open Source CFD Toolbox
   \\    /   O peration     | Website:  https://openfoam.org
    \\  /    A nd           | Version:  7
     \\/     M anipulation  |
\*---------------------------------------------------------------------------*/
FoamFile
{
    version     2.0;
    format      ascii;
    class       volScalarField;
    location    "0.2";
    object      T;
}
// * * * * * * * * * * * * * * * * * * * * * * * * * * * * * * * * * * * * * //

dimensions      [0 0 0 1 0 0 0];

internalField   nonuniform List<scalar> 5(0.9831181973 1.01648461 1.010373033 0.9872410439 0.9936359163);

boundaryField
{
    inlet
    {
        type            fixedValue;
        value           nonuniform 0();
    }
    outlet
    {
        type            inletOutlet;
        inletValue      nonuniform 0();
        value           nonuniform 0();
    }
    bottom
    {
        type            slip;
    }
    top
    {
        type            slip;
    }
    obstacle
    {
        type            zeroGradient;
    }
    defaultFaces
    {
        type            empty;
    }
    procBoundary28to22
    {
        type            processor;
        value           nonuniform List<scalar> 2(0.9952413076 1.020735208);
    }
    procBoundary28to27
    {
        type            processor;
        value           nonuniform List<scalar> 4(0.9545871893 0.9696033265 0.9696033265 0.982532147);
    }
    procBoundary28to34
    {
        type            processor;
        value           nonuniform List<scalar> 2(0.9833032012 0.9874743783);
    }
    procBoundary28to35
    {
        type            processor;
        value           nonuniform List<scalar> 4(1.011379923 1.009369742 1.009369742 0.9979967634);
    }
}


// ************************************************************************* //
