/*--------------------------------*- C++ -*----------------------------------*\
  =========                 |
  \\      /  F ield         | OpenFOAM: The Open Source CFD Toolbox
   \\    /   O peration     | Website:  https://openfoam.org
    \\  /    A nd           | Version:  7
     \\/     M anipulation  |
\*---------------------------------------------------------------------------*/
FoamFile
{
    version     2.0;
    format      ascii;
    class       volVectorField;
    location    "3";
    object      U;
}
// * * * * * * * * * * * * * * * * * * * * * * * * * * * * * * * * * * * * * //

dimensions      [0 1 -1 0 0 0 0];

internalField   nonuniform List<vector> 5((3 8.860204002e-16 0) (3 1.556853586e-15 0) (3 -4.128340166e-17 0) (3 -7.347691814e-17 0) (3 1.748833058e-17 0));

boundaryField
{
    inlet
    {
        type            fixedValue;
        value           uniform (3 0 0);
    }
    outlet
    {
        type            inletOutlet;
        inletValue      nonuniform 0();
        value           nonuniform 0();
    }
    bottom
    {
        type            slip;
    }
    top
    {
        type            slip;
    }
    obstacle
    {
        type            slip;
    }
    defaultFaces
    {
        type            empty;
    }
    procBoundary12to6
    {
        type            processor;
        value           nonuniform List<vector> 4((3 1.626412647e-15 0) (3 1.481633638e-15 0) (3 6.46726964e-16 0) (3 6.46726964e-16 0));
    }
    procBoundary12to13
    {
        type            processor;
        value           nonuniform List<vector> 2((3 1.228015601e-15 0) (3 5.836064374e-17 0));
    }
    procBoundary12to18
    {
        type            processor;
        value           nonuniform List<vector> 3((3 -1.7088061e-16 0) (3 5.837566169e-17 0) (3 4.70784444e-17 0));
    }
}


// ************************************************************************* //
