/*--------------------------------*- C++ -*----------------------------------*\
  =========                 |
  \\      /  F ield         | OpenFOAM: The Open Source CFD Toolbox
   \\    /   O peration     | Website:  https://openfoam.org
    \\  /    A nd           | Version:  7
     \\/     M anipulation  |
\*---------------------------------------------------------------------------*/
FoamFile
{
    version     2.0;
    format      ascii;
    class       volVectorField;
    location    "3.4";
    object      U;
}
// * * * * * * * * * * * * * * * * * * * * * * * * * * * * * * * * * * * * * //

dimensions      [0 1 -1 0 0 0 0];

internalField   nonuniform List<vector> 
22
(
(3 -1.27668908e-15 0)
(3 7.18264006e-17 0)
(3 -1.188184584e-15 0)
(3 -1.652191134e-15 0)
(3 1.007288378e-15 0)
(3 -1.742784246e-16 0)
(3 6.322226976e-17 0)
(3 7.778934613e-16 0)
(3 1.31017102e-15 0)
(3 1.068483261e-15 0)
(3 4.996688566e-15 0)
(3 5.263629474e-15 0)
(3.000000021 2.423273114e-08 0)
(2.999992708 -1.178332084e-05 0)
(2.999943133 -9.526015941e-05 0)
(2.999781343 -0.000400428059 0)
(2.998600708 -0.00218379501 0)
(2.995398356 -0.00767541377 0)
(2.989855404 -0.01881328733 0)
(2.9875556 0.0003442702877 0)
(2.973399269 -0.01244619636 0)
(2.960851489 -0.01191061029 0)
)
;

boundaryField
{
    inlet
    {
        type            fixedValue;
        value           nonuniform 0();
    }
    outlet
    {
        type            inletOutlet;
        inletValue      nonuniform 0();
        value           nonuniform 0();
    }
    bottom
    {
        type            slip;
    }
    top
    {
        type            slip;
    }
    obstacle
    {
        type            slip;
    }
    defaultFaces
    {
        type            empty;
    }
    procBoundary13to6
    {
        type            processor;
        value           uniform (3 -1.497660956e-15 0);
    }
    procBoundary13to7
    {
        type            processor;
        value           nonuniform List<vector> 8((3 -1.256090877e-15 0) (3 -3.502501444e-16 0) (3 -5.476570386e-16 0) (3 -1.439408836e-16 0) (3.000000002 2.560929297e-09 0) (2.999999947 -1.263660133e-07 0) (2.999999947 -1.263660133e-07 0) (2.99999956 -5.961048611e-07 0));
    }
    procBoundary13to12
    {
        type            processor;
        value           nonuniform List<vector> 4((3 2.010918183e-15 0) (3 2.010918183e-15 0) (3 2.023774798e-15 0) (3 3.916626941e-15 0));
    }
    procBoundary13to14
    {
        type            processor;
        value           nonuniform List<vector> 2((2.999341876 -0.00128486913 0) (2.98244473 -0.03478946498 0));
    }
    procBoundary13to19
    {
        type            processor;
        value           nonuniform List<vector> 5((3 3.288525993e-15 0) (3 6.515593019e-15 0) (3 3.288525993e-15 0) (3 5.979699096e-15 0) (3 3.288525993e-15 0));
    }
    procBoundary13to20
    {
        type            processor;
        value           uniform (2.946388575 -0.03522019173 0);
    }
}


// ************************************************************************* //
