/*--------------------------------*- C++ -*----------------------------------*\
  =========                 |
  \\      /  F ield         | OpenFOAM: The Open Source CFD Toolbox
   \\    /   O peration     | Website:  https://openfoam.org
    \\  /    A nd           | Version:  7
     \\/     M anipulation  |
\*---------------------------------------------------------------------------*/
FoamFile
{
    version     2.0;
    format      ascii;
    class       volScalarField;
    location    "1";
    object      p;
}
// * * * * * * * * * * * * * * * * * * * * * * * * * * * * * * * * * * * * * //

dimensions      [1 -1 -2 0 0 0 0];

internalField   nonuniform List<scalar> 
2222
(
1
1
1
1
1
1
1
1
1
1
1
1
1
1
1
1
1
1.000000001
1.000000209
1.000007633
1.00035652
1.006731892
1.068647823
1.394553312
2.082281176
2.924305709
3.449405918
3.500826733
3.475310937
3.385760875
3.256936542
3.131916079
1
1
1
1
1
1
1
1
1
1
1
1
1
1
1
1
1.000000001
1.000000051
1.000006077
1.000141161
1.00412975
1.04163834
1.239897188
1.587073977
1.958033813
2.368981255
2.915407923
3.187555664
3.377964215
3.345255103
3.244796826
3.139477166
1
1
1
1
1
1
1
1
1
1
1
1
1
1
1
1
1.000000042
1.000001379
1.000113203
1.001673342
1.030439096
1.167087744
1.518881547
1.830361173
1.922877137
2.051001541
2.425594107
2.936113986
3.267359139
3.263135377
3.23542079
3.161338756
1
1
1
1
1
1
1
1
1
1
1
1
1
1
1
1.000000007
1.000001215
1.000027745
1.001411007
1.014092839
1.133477643
1.452457015
1.743337681
1.905086691
1.912410088
1.926197588
2.016645283
2.337402944
2.837084491
3.053610721
3.182318065
3.169564412
1
1
1
1
1
1
1
1
1
1
1
1
1
1
1.000000007
1.000000243
1.000025014
1.000417772
1.0117374
1.079566213
1.36103843
1.743525599
1.92557004
1.94053774
1.92679264
1.908919211
1.907605058
1.971925372
2.257680789
2.733443404
3.122738942
3.114937757
1
1
1
1
1
1
1
1
1
1
1
1
1
1.000000001
1.000000221
1.00000643
1.000354974
1.004621907
1.06360717
1.286210274
1.637315599
1.861226257
1.952094165
1.95157696
1.94114252
1.914393012
1.866112122
1.849260372
1.905213747
2.186449935
2.694454521
2.898043834
1
1
1
1
1
1
1
1
1
1
1
1
1.000000001
1.000000037
1.00000495
1.000119764
1.00360245
1.034454167
1.223846364
1.597693773
1.885953481
1.913167058
1.930512298
1.937563311
1.923363935
1.889068584
1.841672891
1.799507583
1.79193472
1.851609562
2.134268079
2.601196058
1
1
1
1
1
1
1
1
1
1
1
1
1.000000035
1.000001126
1.000078032
1.001623976
1.024620086
1.16742332
1.492312798
1.822091103
1.954088451
1.952454493
1.941537871
1.92574445
1.898313326
1.860360127
1.819034996
1.78017246
1.746025764
1.739578876
1.799401334
2.084897279
1
1
1
1
1
1
1
1
1
1
1
1.000000006
1.000000875
1.000026068
1.000913936
1.014612554
1.116912237
1.450319288
1.775669424
1.888754257
1.936660216
1.95191368
1.93681835
1.904095915
1.867784213
1.830793255
1.79173799
1.761456818
1.730238085
1.693309106
1.68690232
1.754795171
1
1
1
1
1
1
1
1
1
1
1.000000006
1.000000212
1.000016737
1.00043292
1.008054131
1.083246734
1.355441134
1.724455122
1.928713534
1.960561218
1.951399361
1.944646644
1.91800594
1.876040949
1.841922515
1.804529512
1.768073333
1.738241996
1.713156285
1.67720445
1.639064431
1.639654566
1
1
1
1
1
1
1
1
1
1.000000001
1.000000159
1.000005708
1.000234082
1.005003664
1.049739416
1.280980671
1.702255702
1.854820687
1.925985795
1.966359629
1.959978007
1.934156076
1.892802731
1.849198826
1.816672851
1.782537903
1.745794381
1.718301893
1.692113704
1.661054485
1.621841627
1.592253843
1
1
1
1
1
1
1
1
1.000000001
1.000000025
1.000003094
1.000106518
1.002511154
1.036183017
1.202956843
1.571168297
1.918902294
1.946574561
1.948071732
1.954289588
1.941536793
1.912453843
1.86701948
1.825547524
1.793940389
1.760725066
1.726405587
1.698657096
1.672953385
1.639979585
1.606635398
1.575404164
1
1
1
1
1
1
1
1
1.00000002
1.000000811
1.000048081
1.001436608
1.019314925
1.160711388
1.50909262
1.78496578
1.954258748
1.979412241
1.970714587
1.948613992
1.918986686
1.885034146
1.840525578
1.803411558
1.774327966
1.739467119
1.704846361
1.677046161
1.651688633
1.618743561
1.584203191
1.559865414
1
1
1
1
1
1
1
1.000000004
1.00000049
1.000021687
1.000625497
1.013147876
1.101968287
1.419390537
1.817197433
1.895355941
1.937738587
1.969696236
1.963489552
1.93238968
1.894227904
1.855626935
1.812125706
1.780977547
1.753823305
1.718173606
1.680869345
1.654269119
1.628903206
1.595460621
1.561031716
1.537777955
1
1
1
1
1
1
1.000000003
1.00000015
1.00000987
1.000406651
1.006370473
1.077736837
1.333225215
1.694063991
1.938756605
1.973431114
1.96177948
1.961530943
1.944340935
1.903620621
1.866617477
1.827059458
1.78447547
1.756017826
1.730420891
1.694800868
1.657540803
1.630842558
1.606897883
1.571634923
1.538660805
1.514975058
1
1
1
1
1
1
1.000000065
1.000004656
1.000157698
1.004859262
1.044466166
1.270438547
1.680986599
1.867411264
1.936576732
1.977506661
1.971953353
1.952277239
1.917960599
1.873874457
1.840153476
1.801688942
1.760776459
1.732576318
1.707220392
1.671826374
1.634540354
1.608237384
1.583822973
1.548691543
1.516129336
1.494955434
1
1
1
1
1
1.000000022
1.000001557
1.000101366
1.001900422
1.034919354
1.195372765
1.556177499
1.914716461
1.989897086
1.970960188
1.963788907
1.949809901
1.927583562
1.89046264
1.847972643
1.815070729
1.778026014
1.738849845
1.711061566
1.685823551
1.650362101
1.612764789
1.586248118
1.561750878
1.527027591
1.496608758
1.475064586
1
1
1
1
1.00000001
1.000000872
1.000031765
1.001451746
1.016030379
1.152830947
1.51058437
1.781430968
1.962865974
1.999217869
1.987843154
1.958933125
1.92758885
1.901259001
1.862505013
1.823180726
1.7916614
1.755356888
1.715848661
1.688299678
1.663927709
1.628859202
1.591587592
1.564988873
1.540976601
1.506726366
1.476901587
1.45570489
1
1
1
1.000000003
1.000000259
1.000023151
1.000487614
1.013080905
1.090503877
1.39955199
1.831777701
1.923345792
1.955918727
1.980779175
1.974819555
1.946308988
1.908181475
1.875480844
1.833444419
1.797542448
1.768856416
1.732841669
1.692125041
1.664937121
1.641694506
1.607329886
1.570070691
1.543647273
1.519613671
1.485695462
1.456071216
1.435695988
1
1
1.000000001
1.000000131
1.000005816
1.000399583
1.005299749
1.074001749
1.315441654
1.673309057
1.949924672
1.996318099
1.986067536
1.980152358
1.961968113
1.924449685
1.885189623
1.849943633
1.805703408
1.77052331
1.743215824
1.707646375
1.666985333
1.640815147
1.618495565
1.584350655
1.546966897
1.520990344
1.497303402
1.46366382
1.434931896
1.415118886
1
1
1.000000033
1.000004316
1.000106127
1.004501037
1.038644521
1.253990179
1.667582149
1.866698069
1.946146246
1.991650684
1.989010177
1.971892044
1.942258887
1.900239452
1.863435374
1.827551002
1.78092685
1.744045328
1.716733795
1.681627809
1.641448465
1.615512014
1.593375033
1.559089973
1.522354773
1.497729883
1.475158098
1.442361868
1.414212984
1.394986086
1
1.00000002
1.000000983
1.000097101
1.001459217
1.032167298
1.178729832
1.534110859
1.899060215
2.001087989
1.99022654
1.987545898
1.976386104
1.950984309
1.916970766
1.875056359
1.840264795
1.804002423
1.755872842
1.718567244
1.69211144
1.657890232
1.617819314
1.59085155
1.568038349
1.533647611
1.498456671
1.47563496
1.454351215
1.422520022
1.394339218
1.375046185
1.000000006
1.00000084
1.000023281
1.001384918
1.013591641
1.143210968
1.487761019
1.790286633
1.939081488
2.011692222
2.007598171
1.993656959
1.960926685
1.925778662
1.888463592
1.847562841
1.815213586
1.779918851
1.731793791
1.694741688
1.669053451
1.635332458
1.595003543
1.567119692
1.543803759
1.509901839
1.476556652
1.455142617
1.434680282
1.403284772
1.374663679
1.3549894
1.000000176
1.000021106
1.000381163
1.012146405
1.081560342
1.384766292
1.805708038
1.980042089
1.9734859
1.981457515
1.988538665
1.974307415
1.937783025
1.899892269
1.858976767
1.817878885
1.788841951
1.756309875
1.709658712
1.672972761
1.647098122
1.613171182
1.572500707
1.544259103
1.520725519
1.487417735
1.45542011
1.434893593
1.414916947
1.383672079
1.354736467
1.335102821
1.000004275
1.000344224
1.004268372
1.067166779
1.299361844
1.660331075
1.941538191
2.020032706
2.009285524
1.986675996
1.97542307
1.950959161
1.909959734
1.873426626
1.830451489
1.78802914
1.760670094
1.730076125
1.685064863
1.649673525
1.623948353
1.590015431
1.549203342
1.52123898
1.497741643
1.464670181
1.433240163
1.413293846
1.393791837
1.362844895
1.334178612
1.31538772
1.000080694
1.003779973
1.032551771
1.231873543
1.65660291
1.86666936
1.949917622
2.006042401
2.005436431
1.991682168
1.963254169
1.922823404
1.88127089
1.848681539
1.80533934
1.761067794
1.732730707
1.701778497
1.657595208
1.623895363
1.59878052
1.565125736
1.52418756
1.496932902
1.473853113
1.440822506
1.409495316
1.390160371
1.371363175
1.341169524
1.313272804
1.295641197
1.001139591
1.027383252
1.15834215
1.50814689
1.892135734
2.011428831
2.003569507
2.00180145
1.995461595
1.971859118
1.940688446
1.89720574
1.85738987
1.824949552
1.779754012
1.734421192
1.705723634
1.674368904
1.630894407
1.598324188
1.573449233
1.539860226
1.498769155
1.472231191
1.44974398
1.416895148
1.38565575
1.366910799
1.348877216
1.319634605
1.292537711
1.275858237
1.011101728
1.126008763
1.457511698
1.785797183
1.927451699
2.022149302
2.022050717
2.011390321
1.984051821
1.9494532
1.915693641
1.871676588
1.833583431
1.800466814
1.753411989
1.707789225
1.679282952
1.647942919
1.605222929
1.573429669
1.548702759
1.515377674
1.474615278
1.448714046
1.42680271
1.394413597
1.363348944
1.344798272
1.327207977
1.298828163
1.272424332
1.256186758
1.070139464
1.357925811
1.783088785
1.99154857
1.984297275
1.994664193
2.007221559
1.997776985
1.966393615
1.926559937
1.888587946
1.842885677
1.806816112
1.7747765
1.727543745
1.682291596
1.653750997
1.622402343
1.580289216
1.549291989
1.524898022
1.492153896
1.452198615
1.4267727
1.405262825
1.373567126
1.342779971
1.324100864
1.30666192
1.278902081
1.252930242
1.23664458
1.272395548
1.644340532
1.938156712
2.030569616
2.026143196
2.008611646
1.997589195
1.977764594
1.938944655
1.899819981
1.860505096
1.812817846
1.77774498
1.746945772
1.700110272
1.655753567
1.627644677
1.596828987
1.555524321
1.525462162
1.501527894
1.469377369
1.430209235
1.405200925
1.384006184
1.353099915
1.322466941
1.303541092
1.286206584
1.259025233
1.233674088
1.217421112
1.622487855
1.871630377
1.954558783
2.006226053
2.024591165
2.013180304
1.98687635
1.951880881
1.907172344
1.87216003
1.833994508
1.785192222
1.749655756
1.718433023
1.670993328
1.627727109
1.600421949
1.570397292
1.529548733
1.500173091
1.476745154
1.444961754
1.406375702
1.382150555
1.361591636
1.331544728
1.300992431
1.282182848
1.265302219
1.239001079
1.214557743
1.198681282
1.869663804
2.018745364
2.017234197
2.015503497
2.012004152
1.993279058
1.965253289
1.92636007
1.8808622
1.847444628
1.808580254
1.758211563
1.72205958
1.690117088
1.642428333
1.600493088
1.573526549
1.543538562
1.502039088
1.472909287
1.450100906
1.418891786
1.381212432
1.358183634
1.33859719
1.309452782
1.278893299
1.260267983
1.243962575
1.218700641
1.195480684
1.180403599
1.91755641
2.015946549
2.031089323
2.025898179
2.005165241
1.973855017
1.94263202
1.900991087
1.856631768
1.823545668
1.782341416
1.730026464
1.693788956
1.6618487
1.615135141
1.574698096
1.547567764
1.516914906
1.474239557
1.445523537
1.423688475
1.39374095
1.357622121
1.335421623
1.316458771
1.287761571
1.25702535
1.23846427
1.222591511
1.198444232
1.176315119
1.161932489
1.999408319
2.008709249
2.021005721
2.014261076
1.990878796
1.954444413
1.919264051
1.874028198
1.829492907
1.796254326
1.753332089
1.70062666
1.665561375
1.634470646
1.58928578
1.550000191
1.522507239
1.491279492
1.44806834
1.420167888
1.39938944
1.370980283
1.336316006
1.314114302
1.295151761
1.266666522
1.236090978
1.21738759
1.201572117
1.178086501
1.156559372
1.142593437
2.041273008
2.029438672
2.015798605
1.996612617
1.965061531
1.927786738
1.892067148
1.843516456
1.797507783
1.764290302
1.721265199
1.670243785
1.6374028
1.607456447
1.563317228
1.524842595
1.497405378
1.466329024
1.423610699
1.396600965
1.37652292
1.349187189
1.315328976
1.292852879
1.273837415
1.245721308
1.215618526
1.196907451
1.181136372
1.158279484
1.137073886
1.123181208
2.031234453
2.025415948
2.004804887
1.975631113
1.93514044
1.89776006
1.862485981
1.811720263
1.765236503
1.732557877
1.689973555
1.640592483
1.609086045
1.579513642
1.535432024
1.497598099
1.470854827
1.440602535
1.39883925
1.372542879
1.352975766
1.326272562
1.292681463
1.270204298
1.251557145
1.224428521
1.195555474
1.17738554
1.161966124
1.139685708
1.118544793
1.104403267
2.019562942
2.011542004
1.988142354
1.954490345
1.908879671
1.87016921
1.833426127
1.780837566
1.735412561
1.703483393
1.660950919
1.612246726
1.580754629
1.550743032
1.506072432
1.468812029
1.442988297
1.413731646
1.372971679
1.347235903
1.328247409
1.302022759
1.268683157
1.246846691
1.229096131
1.203459748
1.175870323
1.158277831
1.143251894
1.121505901
1.100504797
1.086388629
2.026330227
1.999071956
1.968565533
1.932593779
1.884797359
1.844676963
1.805264588
1.75032577
1.705888335
1.674540508
1.631886085
1.58363781
1.552162291
1.522052599
1.477388006
1.441002285
1.416070617
1.387698623
1.347808126
1.322295463
1.303754211
1.278122339
1.245443449
1.224152832
1.206957151
1.182332738
1.155696587
1.138726529
1.124191975
1.103028639
1.082272713
1.068378291
2.01472637
1.983651676
1.948822062
1.908156029
1.857108583
1.81638828
1.775351256
1.718968949
1.675696674
1.644900577
1.602132232
1.554767022
1.524138054
1.494743427
1.450903808
1.415507712
1.391065495
1.363215505
1.324071644
1.298559023
1.280197471
1.255001162
1.222959778
1.202110972
1.185245464
1.161484072
1.135562543
1.118891248
1.104605271
1.083692004
1.063047437
1.049728234
1.995021701
1.960161455
1.923548911
1.878637711
1.824336338
1.784128668
1.743138811
1.686951238
1.645056301
1.614516078
1.571472612
1.525192736
1.495938468
1.467668467
1.424886524
1.390437452
1.366495862
1.339080452
1.300462402
1.274809036
1.256547301
1.231923178
1.201047434
1.18095989
1.164506646
1.141385474
1.115802453
1.099036469
1.084773666
1.064083416
1.043840354
1.031249688
1.968086466
1.929476172
1.893773464
1.84718492
1.791811363
1.752356497
1.711300625
1.655262229
1.61415809
1.583369873
1.539545551
1.494146391
1.466406887
1.439405392
1.397772088
1.364344765
1.341117502
1.314146693
1.27595124
1.250561909
1.232766392
1.209030149
1.179353699
1.160086719
1.144129323
1.121709617
1.096531234
1.079812557
1.065665377
1.045330181
1.025360507
1.013181641
1.943143377
1.900442974
1.86355484
1.815458549
1.760730718
1.722410924
1.681022468
1.624641597
1.583671842
1.552336024
1.507700108
1.463084029
1.436420797
1.41042007
1.369777999
1.337324151
1.315138233
1.288964596
1.251578579
1.226430011
1.208840258
1.185688587
1.157048837
1.138883201
1.123753541
1.102272749
1.077638625
1.06102006
1.046981809
1.026903697
1.007358182
0.9956052063
1.918353985
1.872374255
1.833415997
1.78273391
1.728627292
1.691752735
1.650431023
1.594101414
1.553752494
1.522334825
1.477402266
1.433738761
1.407739234
1.382482675
1.342966719
1.311397361
1.289949666
1.26434681
1.227574112
1.202731517
1.185309903
1.162744433
1.134955342
1.117501318
1.102954331
1.08204126
1.05768034
1.041600608
1.028084597
1.00880211
0.9899039136
0.978538587
1.888179303
1.840832127
1.801227938
1.748245889
1.694768247
1.659438722
1.618542977
1.562872581
1.523915571
1.493053404
1.448510836
1.40602873
1.380589117
1.355861175
1.317032112
1.285823832
1.264830761
1.239893024
1.204491078
1.180331105
1.163006792
1.140622403
1.113071624
1.09584924
1.081659933
1.061313456
1.037742233
1.022534785
1.009702312
0.9910778695
0.9725032185
0.9611273429
1.853258718
1.805521913
1.766606724
1.712616023
1.660441362
1.626232498
1.585301707
1.53032831
1.493344843
1.463518766
1.419652607
1.378192646
1.35307637
1.328604461
1.290245299
1.259829524
1.239760102
1.215873865
1.181901703
1.158336592
1.141075134
1.118886073
1.091723965
1.074881797
1.061131207
1.041524276
1.018601335
1.00382821
0.9913047134
0.9729774185
0.9546760196
0.9436066686
1.818567045
1.770844349
1.732206019
1.677272107
1.626156055
1.592412649
1.551023483
1.496980619
1.461994989
1.433204073
1.389831567
1.349147602
1.324780851
1.300971649
1.263463947
1.233796184
1.214444581
1.19137346
1.158725482
1.136159824
1.119428337
1.097860753
1.071310599
1.054652788
1.041127999
1.02193169
0.9996935098
0.9854090092
0.973277818
0.9554591168
0.937559768
0.9263185901
1.78483237
1.737513826
1.698532191
1.64239546
1.592330467
1.558994181
1.517166958
1.464292065
1.430913933
1.402965998
1.360251199
1.32053104
1.296695932
1.273326119
1.23639841
1.207681247
1.189255312
1.167106958
1.135657366
1.113753388
1.097348877
1.076131786
1.049908253
1.033952241
1.021104118
1.002913264
0.9817421554
0.9679164807
0.956060275
0.9385377494
0.9208173751
0.9095732597
1.748851062
1.703024699
1.664367057
1.607651336
1.558980544
1.526311738
1.48452505
1.433506408
1.40146552
1.374083267
1.331839144
1.292623094
1.269215474
1.246377886
1.210740778
1.18311859
1.1651127
1.143181479
1.112028988
1.090474926
1.074428427
1.053872229
1.028723418
1.013749097
1.001689389
0.9842383358
0.9635890537
0.9497963566
0.9380135965
0.920739228
0.9034980163
0.8924828628
1.711144509
1.66705562
1.628769432
1.571721028
1.525108962
1.493679524
1.452424211
1.403232265
1.372053503
1.345034279
1.303436566
1.265334199
1.242699444
1.220457493
1.185710914
1.158811807
1.141041612
1.119397542
1.088957014
1.068085252
1.052544323
1.032703024
1.008172789
0.9936008861
0.9818678048
0.9647103194
0.9445956399
0.9315638762
0.9204259439
0.9040580352
0.8875227752
0.8767656864
1.673436161
1.630608492
1.59221544
1.535032416
1.490669703
1.460472535
1.419480105
1.371709225
1.341813429
1.315695971
1.275306915
1.238007317
1.215898432
1.194009042
1.160186646
1.13454764
1.117498776
1.096703726
1.067321542
1.04676343
1.031314941
1.01166597
0.9877699816
0.9736876859
0.9623737807
0.945694224
0.9262685892
0.9134118412
0.9024162955
0.8863554678
0.8701020252
0.859609438
1.636555269
1.594560468
1.555472319
1.498082709
1.455916596
1.426927581
1.386525824
1.34042884
1.311493379
1.28601155
1.246365507
1.210058002
1.188983607
1.167763818
1.134895847
1.110220349
1.093687487
1.073572321
1.045011977
1.025262835
1.010424108
0.9915695895
0.9686615147
0.9549232556
0.9437862203
0.9273349788
0.9083054272
0.8958005765
0.8850415526
0.8694572463
0.853760681
0.8434953643
1.600087176
1.558905627
1.519230631
1.462400574
1.422361991
1.394278683
1.354351876
1.309360743
1.2812651
1.256497522
1.218145529
1.182974373
1.162447228
1.141365202
1.108798287
1.085058902
1.069286572
1.050274253
1.023275416
1.004453326
0.9901999146
0.9717159612
0.9492201858
0.9354522358
0.9243216821
0.9080687054
0.8897364424
0.8777118465
0.8673960249
0.8524535283
0.8371628262
0.827028889
1.56337326
1.523761196
1.483973631
1.428034919
1.38951853
1.361935656
1.322788708
1.27948921
1.252292957
1.228053511
1.190204128
1.155921136
1.136009928
1.115352879
1.083774365
1.061188728
1.046028609
1.027710334
1.001294831
0.9829819409
0.9692014753
0.9511358098
0.9294007133
0.9164479347
0.9059089263
0.8904973288
0.8730001287
0.8612573915
0.8510928837
0.83640663
0.8213692236
0.8112126799
1.525942094
1.488215655
1.448374194
1.393383061
1.356619142
1.329922865
1.291903124
1.249567252
1.222965762
1.19915312
1.162240706
1.129644388
1.110696802
1.090754777
1.060160626
1.03800459
1.022808798
1.004609013
0.9789969721
0.9615667671
0.9485012448
0.9310241766
0.9100024097
0.8971048315
0.8866634799
0.871540677
0.8544632582
0.8431700169
0.8334466171
0.8192763336
0.8048017472
0.7951139201
1.487773186
1.452230438
1.41271776
1.359045462
1.323542089
1.297404131
1.260055213
1.218990966
1.193848932
1.171018635
1.135153772
1.103864053
1.08540218
1.065886358
1.035950492
1.014760741
1.000240705
0.9828609305
0.9584434803
0.9416169852
0.9288499841
0.911602166
0.8909927584
0.8784379579
0.8681988108
0.8534040354
0.8369208773
0.8260212342
0.8165841047
0.8027732019
0.7887697238
0.7794739983
1.450730102
1.416983995
1.377464239
1.3243458
1.290012164
1.264784773
1.228797704
1.189196637
1.165130368
1.142812662
1.107378882
1.0773271
1.059741274
1.041174572
1.012758156
0.9925567886
0.9785117045
0.9613618185
0.93741618
0.9206941584
0.9079975408
0.8909506906
0.8709640543
0.8588786618
0.8491538514
0.8350309819
0.8192459874
0.8087877164
0.7996634303
0.7861861434
0.7727119706
0.7639558069
1.414248265
1.38169132
1.342429926
1.29067053
1.257570108
1.233066092
1.197553318
1.159129926
1.136438023
1.11498351
1.080544695
1.051943678
1.034934771
1.016905752
0.9890214745
0.969591748
0.9562239482
0.9396309018
0.9166984605
0.9008851615
0.888724427
0.8722501207
0.85293698
0.8411448936
0.8316421601
0.8178548311
0.8025762952
0.7922788036
0.78318314
0.7697865258
0.7566926765
0.7483409185
1.377884933
1.346856682
1.308253899
1.257215547
1.225038206
1.201226282
1.16664614
1.130230749
1.108991512
1.088335046
1.054614059
1.02675259
1.009883307
0.9921270586
0.9652318732
0.9467954082
0.9341567858
0.9180131676
0.8957051944
0.8800110849
0.8679972089
0.8518590205
0.8331652971
0.8220927202
0.813233347
0.8001266995
0.7856212952
0.7758068631
0.7669834887
0.753840581
0.7412207135
0.7332432626
1.311785527
1.273673472
1.223908305
1.193426602
1.17063855
1.136560567
1.101443127
1.081151348
1.061126642
1.028141538
1.001780235
0.9858777941
0.9689729746
0.943084034
0.925311377
0.9130738845
0.8971313395
0.8752800944
0.8601409879
0.8484451849
0.8327028738
0.8147409424
0.8041541021
0.7956726626
0.7829579252
0.7690180328
0.7596046036
0.7510685418
0.7382812547
0.726207736
0.7185440781
1.276932629
1.240096588
1.191687336
1.162263854
1.139817964
1.105581999
1.071938725
1.053259858
1.034566453
1.003495961
0.9783988108
0.9626596667
0.945569058
0.9197532774
0.9022238334
0.8903282472
0.8747582338
0.8538113262
0.8395434186
0.8285399476
0.8135123706
0.7963457057
0.7862394321
0.7780970244
0.7657198561
0.7524349826
0.7436126992
0.7354971834
0.7231949116
0.7116536394
0.7041989782
1.242956495
1.206174107
1.15860095
1.130877716
1.109363167
1.075714009
1.043958629
1.026397521
1.008440654
0.9779789898
0.9539761786
0.9390861288
0.9225177763
0.8975961935
0.8811090057
0.8698215644
0.8547836981
0.8346634271
0.8209134303
0.8101758303
0.7953797447
0.778736775
0.7687761815
0.7606917059
0.7484150323
0.7356529139
0.7273885302
0.7197364529
0.7079361031
0.6969748974
0.6898692067
1.208393484
1.17217114
1.126591969
1.100841147
1.080167133
1.046841767
1.016197715
0.9992413561
0.9817575335
0.952481547
0.9297675036
0.9155096493
0.8991469625
0.8746672529
0.8586037746
0.8477727187
0.8332618353
0.8140314672
0.8012516944
0.7912248315
0.7770309264
0.7611956084
0.751632841
0.7437440525
0.7316615927
0.7194862159
0.7117216393
0.7044828898
0.6932351553
0.682861579
0.6760389875
1.174917026
1.138847747
1.094811123
1.070733913
1.050824536
1.017936599
0.9891806281
0.9734960958
0.95692161
0.9286954277
0.9070355022
0.8932969252
0.8769943907
0.8529282443
0.8376396235
0.8271479383
0.8128846676
0.7943201141
0.7822429965
0.7727545451
0.7590049752
0.7439251816
0.7348079847
0.7272007419
0.7154709382
0.7039062427
0.6964990409
0.6895589192
0.6787120608
0.6687200153
0.6620980609
1.141016398
1.104690926
1.062640754
1.040980309
1.022408396
0.9909252515
0.9635170233
0.9478229303
0.9308777585
0.9026770195
0.8818314727
0.8689240035
0.8531943462
0.8302133868
0.8159651149
0.8061089471
0.7923478548
0.7745993176
0.7633631839
0.7544783994
0.7412650155
0.727066955
0.7184881922
0.7111876049
0.6997917398
0.6887120337
0.6815298756
0.674767062
0.6641814463
0.6546498836
0.6483554342
1.107701969
1.071632112
1.031997325
1.012030218
0.9941273013
0.9627348352
0.9367196453
0.9221834131
0.905944392
0.8788726048
0.8595495494
0.8473806128
0.8319366654
0.8097095195
0.7960603799
0.7863871842
0.7726646634
0.7554370026
0.744702745
0.7361837739
0.7233073899
0.7098544448
0.7018489598
0.6949183208
0.6838623754
0.6733429437
0.6665488639
0.6600868613
0.6498954839
0.6408219286
0.6348342182
1.075659035
1.039231534
1.001090989
0.9823444472
0.9649002348
0.9343446249
0.9099536835
0.8962137774
0.8803360968
0.8539919914
0.8356947066
0.8242697175
0.8092907132
0.7881148857
0.7755802206
0.7665185483
0.7531998159
0.7367906387
0.7266557336
0.7184715211
0.7058948552
0.6931738598
0.6856761212
0.679086297
0.6684178041
0.6584799659
0.6520424994
0.645841772
0.6359693885
0.627399562
0.6217911683
1.043188315
1.006449536
0.9709464211
0.9543535308
0.9380607511
0.908536144
0.885655497
0.8724793159
0.8565583754
0.8305628419
0.8133432675
0.8023517244
0.787416088
0.7670173932
0.7554361939
0.7469967963
0.734142007
0.7186631526
0.7091559964
0.7013185897
0.6890374524
0.6769357158
0.6697683067
0.6633959303
0.6529910876
0.6436126677
0.6375732112
0.6316509999
0.6221762265
0.6140132828
0.6086207669
1.011767274
0.9758178519
0.9426060798
0.9263412791
0.9097095926
0.8802639347
0.8585875815
0.8463749505
0.8309325174
0.8060536586
0.7903890335
0.7802037404
0.7656821757
0.7464192871
0.735930047
0.7281206927
0.715813489
0.7012829255
0.6922939069
0.6846904859
0.6725817568
0.6609917995
0.6541015254
0.6479068847
0.6378072788
0.6291017224
0.6234999076
0.617861215
0.6086834425
0.60097697
0.5959305773
0.9808608792
0.9448674526
0.9141952535
0.8994670721
0.8833606807
0.8545589407
0.834420196
0.8227872385
0.8073263892
0.7833073188
0.7688632583
0.7591515177
0.7447337132
0.7263586861
0.7165169885
0.7090690831
0.6970212206
0.6832780482
0.6749818739
0.667780052
0.6559745743
0.6450439719
0.638549596
0.6326092114
0.6228924012
0.6147915716
0.6095714924
0.6041356475
0.5952813107
0.5878266104
0.5828867602
0.9484697718
0.9130932637
0.8848183939
0.8710876764
0.8552223588
0.8270160409
0.8085095201
0.7978936519
0.7829705485
0.7604844308
0.7475820123
0.7384877881
0.7242654819
0.7068338021
0.697600555
0.690421867
0.678596477
0.6656958613
0.6580990024
0.6513301198
0.6399052879
0.6296266395
0.6234845391
0.6177728663
0.6084397116
)
;

boundaryField
{
    inlet
    {
        type            fixedValue;
        value           nonuniform 0();
    }
    outlet
    {
        type            zeroGradient;
    }
    bottom
    {
        type            slip;
    }
    top
    {
        type            slip;
    }
    obstacle
    {
        type            zeroGradient;
    }
    defaultFaces
    {
        type            empty;
    }
    procBoundary4to3
    {
        type            processor;
        value           nonuniform List<scalar> 
62
(
1
1
1
1
1
1
1
1
1
1
1
1
1
1
1
1
1
1
1
1
1
1
1
1.000000003
1.000000122
1.000003773
1.000079646
1.001110807
1.009940168
1.057156086
1.208654372
1.483053929
1.782951316
1.991757325
2.037415895
2.00348918
2.022747651
2.039588551
2.029769208
2.015533537
1.999628334
1.981066876
1.960678529
1.935790851
1.906674237
1.876410392
1.846030069
1.812797075
1.776735697
1.739546073
1.702398687
1.665369169
1.627375517
1.587897702
1.547184248
1.506933662
1.467654822
1.428099125
1.341688826
1.341688826
1.305045353
1.269907723
)
;
    }
    procBoundary4to5
    {
        type            processor;
        value           nonuniform List<scalar> 
69
(
3.037449795
3.051201174
3.072147761
3.107395961
3.051833285
3.000328479
2.950813328
2.589329122
2.052574043
1.713027186
1.595625048
1.550789603
1.532788482
1.516450254
1.496678457
1.474998388
1.455657792
1.435374175
1.415555513
1.396148105
1.376115928
1.35588925
1.335634176
1.315892885
1.29688523
1.278104561
1.259160431
1.23992756
1.220465468
1.201335273
1.182974002
1.165385099
1.147517714
1.128620984
1.109415015
1.09062322
1.07279135
1.055077218
1.037052452
1.019319249
1.001747463
0.9847180206
0.9680802755
0.9508168489
0.9336472296
0.9162638111
0.8995590245
0.8827758783
0.8672924966
0.850497554
0.8345712253
0.8182506469
0.802374185
0.786617649
0.7713126069
0.7562205067
0.7409842395
0.7262187661
0.7118121928
0.6976053826
0.6835293457
0.6698701588
0.6560176217
0.6424735781
0.6291538647
0.6164056036
0.6033700358
0.5909591607
0.5779517331
)
;
    }
    procBoundary4to9
    {
        type            processor;
        value           nonuniform List<scalar> 9(1.234224959 1.199339848 1.164784387 1.130237346 1.097394312 1.06425072 1.03160188 0.9999471322 0.9672778751);
    }
    procBoundary4to10
    {
        type            processor;
        value           nonuniform List<scalar> 
32
(
0.6010069451
0.5961670905
0.5910093189
0.5824439369
0.5754653421
0.5708144755
0.9189614827
0.8843614015
0.8584337288
0.8453589209
0.8292059667
0.801285643
0.7842576725
0.7741464809
0.7591966223
0.7378402534
0.7263225307
0.7179496876
0.7040946457
0.687806724
0.6791513306
0.6721995561
0.6604850183
0.6483037565
0.6412951379
0.6348968675
0.6238752428
0.6143246429
0.6086018662
0.6031070221
0.6010069451
0.5941182088
)
;
    }
}


// ************************************************************************* //
