/*--------------------------------*- C++ -*----------------------------------*\
  =========                 |
  \\      /  F ield         | OpenFOAM: The Open Source CFD Toolbox
   \\    /   O peration     | Website:  https://openfoam.org
    \\  /    A nd           | Version:  7
     \\/     M anipulation  |
\*---------------------------------------------------------------------------*/
FoamFile
{
    version     2.0;
    format      ascii;
    class       volVectorField;
    location    "0.7";
    object      U;
}
// * * * * * * * * * * * * * * * * * * * * * * * * * * * * * * * * * * * * * //

dimensions      [0 1 -1 0 0 0 0];

internalField   nonuniform List<vector> 
138
(
(3 1.566422921e-15 0)
(3 1.712512426e-15 0)
(3 1.692072932e-15 0)
(3 1.136929451e-15 0)
(3 6.474485058e-16 0)
(3 1.614887505e-15 0)
(3 1.973619764e-15 0)
(3 9.535396445e-16 0)
(3 4.477412778e-16 0)
(3 9.294191913e-16 0)
(3 2.06298065e-15 0)
(3 2.696291233e-15 0)
(3 3.723371448e-15 0)
(3 5.242937329e-15 0)
(3 7.617102705e-15 0)
(3 5.293433555e-15 0)
(3 3.682605943e-15 0)
(3 2.916910503e-15 0)
(3 1.84224538e-15 0)
(3 2.246709245e-15 0)
(3 3.255991321e-15 0)
(3 4.330018313e-15 0)
(3 4.318812207e-15 0)
(3 3.805138099e-15 0)
(3 4.03783503e-15 0)
(3 4.772559166e-15 0)
(3 5.845735607e-15 0)
(3 7.212657575e-15 0)
(3 8.330854941e-15 0)
(3 9.35698967e-15 0)
(3 9.327712803e-15 0)
(3 4.729353584e-15 0)
(3 4.909819163e-15 0)
(3 4.92941483e-15 0)
(3 5.221109769e-15 0)
(3 4.398137251e-15 0)
(3 3.467745307e-15 0)
(3 2.727476027e-15 0)
(3 3.511670378e-15 0)
(3 4.124874744e-15 0)
(3 4.125805818e-15 0)
(3 4.435840743e-15 0)
(3 4.735662097e-15 0)
(3 5.880529742e-15 0)
(3 7.572643926e-15 0)
(3 7.900058045e-15 0)
(3 1.121784246e-14 0)
(3 1.223584372e-14 0)
(3 -1.81043769e-15 0)
(3 -1.508947821e-15 0)
(3 -1.436192314e-15 0)
(3 -1.731462313e-15 0)
(3 -1.492747598e-15 0)
(3 6.728968685e-16 0)
(3 1.591347253e-15 0)
(3 1.417415452e-15 0)
(3 1.428868701e-15 0)
(3 1.399210416e-15 0)
(3 2.042065037e-15 0)
(3 2.446173662e-15 0)
(3 5.801015083e-15 0)
(3 1.551083075e-14 0)
(3 3.481912546e-14 0)
(3 1.324460646e-13 0)
(3 1.263183041e-13 0)
(3 -3.488539736e-15 0)
(3 -3.69241617e-15 0)
(3 -4.471513692e-15 0)
(3 -4.369287417e-15 0)
(3 -3.715385016e-15 0)
(3 -2.35128764e-15 0)
(3 -5.66427489e-16 0)
(3 2.935248892e-15 0)
(3 6.615046673e-15 0)
(3 1.354118755e-14 0)
(3 3.453495122e-14 0)
(3 9.247972181e-14 0)
(3 2.215426347e-13 0)
(3 5.223717147e-13 0)
(3 9.372042791e-13 0)
(3 1.467112346e-12 0)
(3 2.636811177e-12 0)
(3 -2.401487528e-15 0)
(3 -2.232144159e-15 0)
(3 -2.404459386e-15 0)
(3 -8.989096736e-16 0)
(3 -2.157533834e-15 0)
(3 -2.349877854e-15 0)
(3 6.353492752e-15 0)
(3 3.662229366e-14 0)
(3 1.310284149e-13 0)
(3 4.015799135e-13 0)
(3 9.71850534e-13 0)
(3 1.745864566e-12 0)
(3 2.982329342e-12 0)
(3 4.477454004e-12 0)
(3 5.912274595e-12 0)
(3 7.459936252e-12 0)
(3 1.246026852e-10 0)
(3 -2.237663874e-15 0)
(3 -1.093462681e-15 0)
(3 7.704958254e-15 0)
(3 3.970113817e-14 0)
(3 1.436370213e-13 0)
(3 3.141353935e-13 0)
(3 7.242529915e-13 0)
(3 1.538373455e-12 0)
(3 2.967291634e-12 0)
(3 4.897408782e-12 0)
(3 6.261079202e-12 0)
(3 8.291907288e-12 0)
(3 9.661369923e-12 0)
(3 1.021824334e-11 0)
(3 1.616863617e-11 0)
(3 1.502424402e-11 0)
(3.000000006 1.048268638e-08 0)
(3 3.47182707e-14 0)
(3 2.079949439e-13 0)
(3 5.975418275e-13 0)
(3 1.587632394e-12 0)
(3 2.667564194e-12 0)
(3 5.015330466e-12 0)
(3 7.77900509e-12 0)
(3 1.09893281e-11 0)
(3 1.499650685e-11 0)
(3 1.411143943e-11 0)
(3 1.496565658e-11 0)
(3 1.475509945e-11 0)
(3 1.548873361e-11 0)
(3 1.151601995e-11 0)
(3 4.062385396e-11 0)
(2.999999998 -3.272164028e-09 0)
(3.000000127 2.18196215e-07 0)
(2.999999999 -6.060669701e-10 0)
(2.999999991 -1.579816429e-08 0)
(2.999999953 -6.830690617e-08 0)
(2.999999236 -1.807146123e-06 0)
(3.000000714 1.360105782e-06 0)
)
;

boundaryField
{
    inlet
    {
        type            fixedValue;
        value           nonuniform 0();
    }
    outlet
    {
        type            inletOutlet;
        inletValue      nonuniform 0();
        value           nonuniform 0();
    }
    bottom
    {
        type            slip;
    }
    top
    {
        type            slip;
    }
    obstacle
    {
        type            slip;
    }
    defaultFaces
    {
        type            empty;
    }
    procBoundary8to1
    {
        type            processor;
        value           uniform (3 2.078559007e-15 0);
    }
    procBoundary8to2
    {
        type            processor;
        value           nonuniform List<vector> 
18
(
(3 -5.330615703e-15 0)
(3 -5.169470417e-15 0)
(3 -4.685635055e-15 0)
(3 -3.961630743e-15 0)
(3 -2.874975021e-15 0)
(3 -3.407480816e-15 0)
(3 -3.378420448e-15 0)
(3 -2.814132023e-15 0)
(3 -2.053385945e-15 0)
(3 -4.180531047e-16 0)
(3 8.081683189e-16 0)
(3 1.695550179e-15 0)
(3 2.650369097e-15 0)
(3 3.008566698e-15 0)
(3 6.813060725e-15 0)
(3 6.813060725e-15 0)
(3 9.690639768e-15 0)
(3 1.020733646e-14 0)
)
;
    }
    procBoundary8to3
    {
        type            processor;
        value           nonuniform List<vector> 7((3 1.811328734e-13 0) (3 5.675934685e-13 0) (3 1.462808925e-12 0) (3 2.594356374e-12 0) (3 -6.860714343e-11 0) (2.999999969 -7.26241098e-08 0) (2.999996639 -7.485720864e-06 0));
    }
    procBoundary8to7
    {
        type            processor;
        value           nonuniform List<vector> 7((3 1.073333881e-14 0) (3 4.215288219e-15 0) (3 -1.283196284e-15 0) (3 -3.136384856e-15 0) (3 -3.602177261e-15 0) (3 -2.658670909e-15 0) (3 4.913949516e-15 0));
    }
    procBoundary8to9
    {
        type            processor;
        value           uniform (2.999829986 -0.0004034611774 0);
    }
    procBoundary8to14
    {
        type            processor;
        value           nonuniform List<vector> 
18
(
(3 2.386634596e-12 0)
(3 4.5939312e-12 0)
(3 7.865285649e-12 0)
(3 1.01009131e-11 0)
(3 1.239241795e-11 0)
(3 2.045765792e-11 0)
(3 2.06471783e-11 0)
(3 2.008957426e-11 0)
(3 2.419481366e-11 0)
(3 -5.873271804e-12 0)
(3 1.255289857e-10 0)
(3 -5.860039553e-10 0)
(3 -5.860039553e-10 0)
(2.999997771 -3.97579498e-06 0)
(2.999993231 -1.101015591e-05 0)
(2.999971638 -5.126320891e-05 0)
(2.999930569 -0.0001858803217 0)
(2.999862345 -0.0002781969375 0)
)
;
    }
}


// ************************************************************************* //
