/*--------------------------------*- C++ -*----------------------------------*\
  =========                 |
  \\      /  F ield         | OpenFOAM: The Open Source CFD Toolbox
   \\    /   O peration     | Website:  https://openfoam.org
    \\  /    A nd           | Version:  7
     \\/     M anipulation  |
\*---------------------------------------------------------------------------*/
FoamFile
{
    version     2.0;
    format      ascii;
    class       volScalarField;
    location    "2.2";
    object      rho;
}
// * * * * * * * * * * * * * * * * * * * * * * * * * * * * * * * * * * * * * //

dimensions      [1 -3 0 0 0 0 0];

internalField   nonuniform List<scalar> 
2222
(
1.323210607
1.306662348
1.28953731
1.271356191
1.25184283
1.232642623
1.214750098
1.198174904
1.18594402
1.177117983
1.165769672
1.153181314
1.138900888
1.124291297
1.110177335
1.09671903
1.086323974
1.067217665
1.590903948
1.566237332
1.543324493
1.526609497
1.512571754
1.497255848
1.480048222
1.460649217
1.440496029
1.418751904
1.395656065
1.374187824
1.355616262
1.338545527
1.320452074
1.301237194
1.282850171
1.264043165
1.245425372
1.227471657
1.21121514
1.195609131
1.181903033
1.168672778
1.1558876
1.14393047
1.130541633
1.117715427
1.105105979
1.092110079
1.081478024
1.061639344
1.573557371
1.552517213
1.533150527
1.515897017
1.500232975
1.485165773
1.470852471
1.454832022
1.435573915
1.414503571
1.393123408
1.372763566
1.350946569
1.332197755
1.314380938
1.297996004
1.280912255
1.262795282
1.245412097
1.227521761
1.20973203
1.193321834
1.178636729
1.164069993
1.148883801
1.135337769
1.123241711
1.113524704
1.10260351
1.090450938
1.078686496
1.057229234
1.569701391
1.541928105
1.51823633
1.503088463
1.489986157
1.475509756
1.459513023
1.44248087
1.423081456
1.402722129
1.38314995
1.364550644
1.34681938
1.330534328
1.313545661
1.293867506
1.274124585
1.256019527
1.239337451
1.224324698
1.210291895
1.194470289
1.178578938
1.162525252
1.146399306
1.132743087
1.119714143
1.107527593
1.095952008
1.084538893
1.075228928
1.055849431
1.554819494
1.5334946
1.513346593
1.496639465
1.481900609
1.468278619
1.453199302
1.435329904
1.416599087
1.398471988
1.380921746
1.363594377
1.34435494
1.32319735
1.303313741
1.286556016
1.270623813
1.254364275
1.238831333
1.223367738
1.206437505
1.189708514
1.172565838
1.15541638
1.138889817
1.124376884
1.110514626
1.100712121
1.092481255
1.082913138
1.072137498
1.051339446
1.540056609
1.521093817
1.5050523
1.489119465
1.47408847
1.456925479
1.439513624
1.423037908
1.407308298
1.390612945
1.373330894
1.355459264
1.334469078
1.314270025
1.297562317
1.28061954
1.263377925
1.247472647
1.232562245
1.218134114
1.203246235
1.18710649
1.169442585
1.151945631
1.135594366
1.121959999
1.109168156
1.096913589
1.086074467
1.076085172
1.067753637
1.049041257
1.535626272
1.514900639
1.496344955
1.476351476
1.457235743
1.442725557
1.427873519
1.410992708
1.396739722
1.383838046
1.369744836
1.352059249
1.330317242
1.308957953
1.288668345
1.270634717
1.257035093
1.244589828
1.231585003
1.218430625
1.203007733
1.186300729
1.168901788
1.151381705
1.134251691
1.119455257
1.105915644
1.094359566
1.084517041
1.073874492
1.061142038
1.041020812
1.537541361
1.514882904
1.4869881
1.463752061
1.445120777
1.422945665
1.40916555
1.402281657
1.392269194
1.380041467
1.363334773
1.344652474
1.323938867
1.302652143
1.281480173
1.265710265
1.251455179
1.237297265
1.22361092
1.210618366
1.198381515
1.186869786
1.171706819
1.154098557
1.135577294
1.120079226
1.10681489
1.092608339
1.0799355
1.065544131
1.051226487
1.038733262
1.523704182
1.50487263
1.483907994
1.458066793
1.432565831
1.415852994
1.399447468
1.387583757
1.378357977
1.367734837
1.355657695
1.340604309
1.322535092
1.30121654
1.279171665
1.259873478
1.244643751
1.234097402
1.222526845
1.21005191
1.19679228
1.181948808
1.1658415
1.149449789
1.133328808
1.117599357
1.103283205
1.089997937
1.076507504
1.060561845
1.049843183
1.056693223
1.513595398
1.492503763
1.470945397
1.452124028
1.432671287
1.407668616
1.392708885
1.382532993
1.371090449
1.357467711
1.34404503
1.329877096
1.313206515
1.294017814
1.277647348
1.259576706
1.2431503
1.226593889
1.213267615
1.20038525
1.187607825
1.172992033
1.159215432
1.145430595
1.133372087
1.118325829
1.102598827
1.086527446
1.07324504
1.061311438
1.066911512
1.220388085
1.500563316
1.485551422
1.467424857
1.446470559
1.422972267
1.401675165
1.380552615
1.365452169
1.356091597
1.34854332
1.337290367
1.323000105
1.306554503
1.288217442
1.270264699
1.249858919
1.234360523
1.222267396
1.210417952
1.197355917
1.18465137
1.170700502
1.15871172
1.142904429
1.129774566
1.112765653
1.103577304
1.084772322
1.085829001
1.136990263
1.267246232
1.482588789
1.478724844
1.465762236
1.451711114
1.434055206
1.414544518
1.393241488
1.375619115
1.360869597
1.346678862
1.331672343
1.320867908
1.311605816
1.298969555
1.282793657
1.267129794
1.247215566
1.231184846
1.215384203
1.202063084
1.187628209
1.17535382
1.160168649
1.149827497
1.134970132
1.127704856
1.113657336
1.109558418
1.146518067
1.265160069
1.461859546
1.61619908
1.637683586
1.47098226
1.457417997
1.44453021
1.428873737
1.411161903
1.389485569
1.367481824
1.347168978
1.338221629
1.326395141
1.313693611
1.298634102
1.285615243
1.271345519
1.257958032
1.244245958
1.230831584
1.213695881
1.199126159
1.183688934
1.170810405
1.15343828
1.143732891
1.135471699
1.129285738
1.157770661
1.273603804
1.462386925
1.615447923
1.665781452
1.699913526
1.685257171
1.450153276
1.441061736
1.433872456
1.420366973
1.40405034
1.38448014
1.365515746
1.342099898
1.325695645
1.312198675
1.30003646
1.290311827
1.27896503
1.265820561
1.255356865
1.240909784
1.226184624
1.209250228
1.193496676
1.176093689
1.161120831
1.15225463
1.144829229
1.166829578
1.264186134
1.447400478
1.62275871
1.675662042
1.711568917
1.705704399
1.704785623
1.686272524
1.440370981
1.423471114
1.412277427
1.404086865
1.392581773
1.377152754
1.358672841
1.341094512
1.321931993
1.303432349
1.289095281
1.274007198
1.26727554
1.25745294
1.24528271
1.23636165
1.223449743
1.206619749
1.190861948
1.173578299
1.160931482
1.180072725
1.272988524
1.458645417
1.626365176
1.744620914
1.785594749
1.772131818
1.743915981
1.71563609
1.700325287
1.682279637
1.426512142
1.415155581
1.406351925
1.399666157
1.388725874
1.372522822
1.351788144
1.333321439
1.31228012
1.294994306
1.27879535
1.266409154
1.253129947
1.248534113
1.242477376
1.229637366
1.217507995
1.203463234
1.186820152
1.207223674
1.301954417
1.488638694
1.66017859
1.783735694
1.818271052
1.818000107
1.810133302
1.796814284
1.765790338
1.72823687
1.705773577
1.682814827
1.411491086
1.393824876
1.384285502
1.379140655
1.374372286
1.365053281
1.349542832
1.330690782
1.307988402
1.285656676
1.267880797
1.258063768
1.249558461
1.235136956
1.22968408
1.223439491
1.214751041
1.243014114
1.352567729
1.556016103
1.738083776
1.842602707
1.862216251
1.860649611
1.840850452
1.819722829
1.806026045
1.791600275
1.772343202
1.743237297
1.716105172
1.687632516
1.407228189
1.388594815
1.376491005
1.371004483
1.361640009
1.348236885
1.33752439
1.322117821
1.304277133
1.279668245
1.259827072
1.245877848
1.240715395
1.229731459
1.232403823
1.284528619
1.420557576
1.617685103
1.778193125
1.87249019
1.884155707
1.88220497
1.874855432
1.86117835
1.836673265
1.813102181
1.792941254
1.78240778
1.769012937
1.754806347
1.734583251
1.701427695
1.3959014
1.374861976
1.360753971
1.351800999
1.348888658
1.341884966
1.329265637
1.313423671
1.295685658
1.277614606
1.255459448
1.240872287
1.257822096
1.348924011
1.525565399
1.737119116
1.882034637
1.94012776
1.936012448
1.927919993
1.902190021
1.881690649
1.869333921
1.851975213
1.830042476
1.810079745
1.788325504
1.774141183
1.764080896
1.7575326
1.749386511
1.72169272
1.39162916
1.370875592
1.353048643
1.342787219
1.328101328
1.322136713
1.316085123
1.3080219
1.283246903
1.282963907
1.329780306
1.461703081
1.651419976
1.829566994
1.931542853
1.959066074
1.974603071
1.973054712
1.953697582
1.931002965
1.907830039
1.884607884
1.869138169
1.849480908
1.82834796
1.808143165
1.792170363
1.774055516
1.761924636
1.756812463
1.754955999
1.739193162
1.383389208
1.362802703
1.343754981
1.332512715
1.322353948
1.309645281
1.300196207
1.332253296
1.449179268
1.638985239
1.838119828
1.971634223
2.000329432
2.003732507
2.008320648
1.990128219
1.974086541
1.970402824
1.957717341
1.937157517
1.916014698
1.891445238
1.869693507
1.851632812
1.833953455
1.818992379
1.805204247
1.786385535
1.768927134
1.759040561
1.757217557
1.744833273
1.378347183
1.357565444
1.336377576
1.318701128
1.352018411
1.450573392
1.625861295
1.826218204
1.992157575
2.035881762
2.060549517
2.071750434
2.058850206
2.028339976
2.012275525
2.004666079
1.985972555
1.975876522
1.963085833
1.942116387
1.921298798
1.900952444
1.881631376
1.868175922
1.854955321
1.840698849
1.828533532
1.807662703
1.783860912
1.766487346
1.759953886
1.745349196
1.382299202
1.446971851
1.57753075
1.756756945
1.932424026
2.059408809
2.102549446
2.116913683
2.132162081
2.122437089
2.082909447
2.069453546
2.059698861
2.038835129
2.023868997
2.016717611
2.003633902
1.989308034
1.969735141
1.944693092
1.923357615
1.906427256
1.892626951
1.880251997
1.865941847
1.847994801
1.835211753
1.821149666
1.799171433
1.776994888
1.7648622
1.745973803
1.875567169
2.05035278
2.149365932
2.185805466
2.206103815
2.202304139
2.174663868
2.148999243
2.136659396
2.124473921
2.094350669
2.071159702
2.063314185
2.052830261
2.038909777
2.026515199
2.009405243
1.993437827
1.978049607
1.954686794
1.929875821
1.910798219
1.896370144
1.880851302
1.865893589
1.847481574
1.833781631
1.821075924
1.807330157
1.788749073
1.772464321
1.74649233
2.257209807
2.276406847
2.271773882
2.246921225
2.231612477
2.215932517
2.193155351
2.162735953
2.136238657
2.125347758
2.1045043
2.081068424
2.070651012
2.064529648
2.051902822
2.034033505
2.012012644
1.992234463
1.975396673
1.955345534
1.935092677
1.915746024
1.898729163
1.88235777
1.863745484
1.843875991
1.829278195
1.819371541
1.807497512
1.796933944
1.781497602
1.749587646
2.324826781
2.287536563
2.276848895
2.262428006
2.241462123
2.226888958
2.211244576
2.178376125
2.141710007
2.130893154
2.116144089
2.095129632
2.081874222
2.073381397
2.062487346
2.04227768
2.012394364
1.988888782
1.97127222
1.953452926
1.938758688
1.921058257
1.902651838
1.883068957
1.862281595
1.843122605
1.828709113
1.819623905
1.80901873
1.800459987
1.790090447
1.757086802
2.337086797
2.302128148
2.288439567
2.275002583
2.250506256
2.226041902
2.207944444
2.186230714
2.152523662
2.140955029
2.129018303
2.110098791
2.096137876
2.079566054
2.059900386
2.03667389
2.009808706
1.987048886
1.971289101
1.955401751
1.942761175
1.926709919
1.906076042
1.884182585
1.863107568
1.844422781
1.830544111
1.821197757
1.811230574
1.802058675
1.788996322
1.761358736
2.345732366
2.318972215
2.305624671
2.285029264
2.253742477
2.223046392
2.204367845
2.190007569
2.166111096
2.154117714
2.142651093
2.122752274
2.102363647
2.077871083
2.053806309
2.032640838
2.010455203
1.988491663
1.973494454
1.960115363
1.94777346
1.931323195
1.91002678
1.887871964
1.86744316
1.851610477
1.838060799
1.826484806
1.80983525
1.796735302
1.782056318
1.757545988
2.348051076
2.329387443
2.314424004
2.29182044
2.260101549
2.228370435
2.207627059
2.195028578
2.181177646
2.168048979
2.153795277
2.129709085
2.1021636
2.0730751
2.048727812
2.0331971
2.016802875
1.998525743
1.982508484
1.967717006
1.952041905
1.934924
1.915884397
1.897284594
1.880033656
1.867361107
1.854708118
1.840963108
1.814377412
1.7907153
1.775216178
1.755813415
2.343269621
2.331832114
2.313139238
2.293306046
2.26917065
2.241206913
2.220396481
2.206706053
2.195401962
2.182824609
2.164420793
2.134682001
2.099841881
2.07215855
2.051754932
2.039945578
2.030537601
2.013753166
1.994111871
1.974621669
1.95560347
1.939934019
1.925925753
1.912572596
1.897416488
1.881672645
1.863006319
1.83841201
1.80902605
1.783137427
1.774534375
1.758337722
2.334871336
2.3158378
2.298996581
2.293936481
2.282944488
2.264955488
2.240963925
2.221910529
2.205409297
2.183582228
2.157216766
2.124432125
2.097752013
2.075530154
2.059897531
2.053656801
2.045317663
2.028970287
2.007545977
1.985619029
1.962262255
1.947941689
1.937697747
1.92671751
1.907949481
1.882362353
1.856443776
1.829877314
1.807390722
1.784987584
1.778469458
1.770513267
2.333368774
2.308063912
2.292325865
2.289048716
2.289915225
2.277694658
2.251882192
2.229524352
2.20755996
2.181021581
2.151292362
2.11591085
2.090935766
2.078808739
2.066869682
2.061008205
2.047499126
2.028171556
2.005175538
1.983737683
1.9662741
1.953019285
1.94452479
1.929618858
1.90712177
1.878783557
1.851988577
1.825840559
1.807599804
1.787080904
1.785135466
1.780451579
2.333534045
2.306513736
2.290529707
2.288206269
2.289392818
2.277607513
2.253264119
2.230390277
2.206314253
2.178520924
2.1475665
2.113830202
2.091301522
2.081507788
2.069463429
2.061320368
2.047373142
2.027606867
2.005150186
1.984282887
1.967938321
1.954947099
1.945618344
1.929252933
1.905437872
1.876581552
1.850041544
1.825269918
1.80844157
1.789187216
1.787499835
1.782478347
2.334985821
2.306901738
2.290025391
2.287881797
2.289288393
2.278176324
2.254596129
2.231274258
2.205193327
2.175979885
2.145289767
2.114161656
2.092824254
2.084045695
2.071965603
2.061366844
2.046844807
2.027318871
2.005535504
1.985406646
1.969553132
1.956708639
1.945289501
1.928159634
1.903387433
1.874581697
1.848366672
1.824561575
1.808317317
1.791077155
1.789661932
1.784202717
2.336740367
2.307632678
2.290236463
2.287703284
2.288657088
2.278472914
2.25564063
2.231492411
2.20330923
2.173625648
2.143570923
2.114317656
2.0944454
2.086809316
2.074171397
2.060779069
2.045546562
2.026599508
2.005865936
1.986340594
1.971191929
1.958353262
1.944492658
1.926495663
1.900582323
1.871923116
1.846535359
1.824117918
1.808940515
1.793439807
1.792267533
1.786338687
2.338754792
2.309379296
2.290755643
2.287560637
2.288290448
2.278358079
2.25629746
2.231278687
2.201421782
2.171194572
2.140719744
2.113821893
2.097073158
2.08961695
2.075818662
2.060141884
2.04413568
2.025887314
2.006122902
1.987282629
1.973132909
1.959146875
1.943361095
1.924330245
1.897479511
1.868695969
1.844174329
1.824154187
1.810169216
1.796403483
1.795778712
1.78931508
2.341212432
2.311081059
2.29065756
2.287444516
2.287943684
2.278343215
2.257016973
2.230697314
2.198329396
2.167472549
2.138184772
2.114529913
2.09995409
2.092270563
2.077160623
2.059622449
2.042938242
2.025321636
2.006407478
1.988382456
1.974684196
1.959226409
1.942059223
1.921743859
1.894002633
1.865559606
1.841800336
1.824628537
1.8121621
1.800705107
1.801525375
1.793870406
2.342714475
2.313126953
2.290397963
2.286398608
2.287181322
2.278709065
2.257907681
2.229438942
2.195036673
2.164349948
2.137271385
2.115860769
2.10328754
2.094836485
2.078433518
2.059199652
2.041791544
2.024795977
2.006779393
1.989751663
1.975560651
1.95901457
1.940537014
1.918858234
1.890603718
1.862412717
1.839650966
1.825598334
1.8155176
1.805894853
1.807694978
1.799140629
2.344432204
2.314010445
2.289479901
2.284713899
2.286458663
2.279132883
2.258331894
2.228183919
2.193198877
2.162540168
2.137080965
2.11750846
2.106773891
2.097282541
2.07931898
2.058526935
2.040547172
2.023976574
2.007140253
1.990839886
1.976078048
1.95827743
1.938547168
1.915639935
1.886811659
1.859972129
1.838370061
1.827374928
1.819227734
1.810735367
1.812856103
1.804022031
2.344907128
2.313702286
2.288140448
2.283235037
2.285550002
2.278935089
2.25816259
2.226537346
2.190189722
2.160855604
2.13759207
2.119802707
2.110417684
2.099287876
2.079572923
2.057797647
2.039860594
2.023506704
2.007154682
1.991435794
1.976248527
1.957163491
1.936459435
1.912509261
1.883445458
1.857648529
1.838061848
1.829503958
1.822685683
1.81484665
1.816902849
1.808194312
2.344101131
2.311780844
2.286749125
2.28197629
2.284695322
2.278488525
2.25719377
2.223350448
2.18616251
2.15843497
2.138404217
2.122818779
2.113456944
2.100570228
2.079206357
2.057114216
2.039444986
2.023471872
2.007513335
1.992023402
1.976143011
1.956061477
1.934330869
1.909042541
1.880749311
1.855313522
1.838332327
1.831594424
1.825671487
1.818494007
1.820155219
1.811522598
2.341490736
2.309235957
2.285321594
2.281558902
2.284343812
2.277312536
2.254437894
2.218968574
2.18319526
2.157188686
2.139733112
2.12615816
2.115894065
2.101404269
2.078557832
2.056354064
2.03904296
2.023574277
2.008341924
1.99292566
1.97620108
1.955113355
1.932315117
1.905939872
1.878027175
1.853824173
1.839281625
1.833598629
1.828285021
1.821769614
1.823122761
1.81432465
2.338886757
2.308379287
2.285128107
2.281799063
2.284282317
2.275039985
2.249975661
2.213650175
2.180254767
2.157297397
2.141934837
2.129981896
2.118639542
2.10239232
2.077682376
2.055279274
2.038512799
2.023703701
2.00927536
1.993842858
1.976365477
1.95406394
1.930376936
1.903951105
1.876641392
1.852698111
1.840218403
1.835709802
1.830899019
1.824868234
1.826178233
1.816902406
2.337960043
2.308529925
2.286416427
2.283941449
2.284469214
2.271750895
2.243154186
2.205960342
2.177197179
2.157954871
2.144556507
2.13499619
2.12196401
2.103259993
2.07671542
2.054046154
2.037649183
2.02356487
2.009839037
1.994387176
1.976417518
1.953283202
1.92863494
1.901711541
1.875753325
1.852158428
1.841583861
1.838298307
1.833885098
1.828154584
1.829484471
1.819477447
2.337817624
2.308958146
2.290087504
2.288143591
2.284029383
2.267024385
2.235954891
2.199688434
2.175701512
2.159508517
2.147836181
2.140303381
2.124557579
2.103314383
2.075845944
2.05300563
2.036997879
2.023375593
2.010097019
1.994614349
1.976167089
1.952298271
1.926760189
1.899096762
1.874262712
1.852528899
1.843771377
1.84172033
1.837626526
1.832161825
1.83314102
1.822275955
2.33696233
2.311636913
2.294638078
2.292033496
2.283162149
2.262401785
2.230064296
2.195020952
2.175699577
2.162075417
2.152194991
2.143465297
2.125881343
2.103028787
2.075027798
2.052478286
2.036819241
2.023478973
2.01004508
1.994384572
1.975406887
1.950591437
1.923746174
1.896660037
1.87344615
1.853440898
1.846802374
1.846173627
1.842295373
1.836939625
1.836973151
1.825097151
2.336304774
2.314004512
2.298880977
2.294794125
2.281432895
2.257890874
2.222770774
2.189715052
2.176413095
2.165492187
2.156752674
2.146002171
2.126277825
2.102298495
2.07415121
2.052070835
2.036853342
2.023879785
2.010181969
1.993984469
1.974037815
1.948179454
1.920160266
1.894861359
1.873651676
1.85610932
1.851257272
1.851736632
1.847665706
1.842131562
1.840749759
1.827701649
2.360378243
2.336695382
2.316763755
2.302412429
2.295522001
2.278915751
2.252810182
2.215820269
2.186531166
2.177854513
2.169817262
2.161558996
2.147718562
2.126469214
2.101478535
2.073276118
2.051873872
2.037191688
2.024517117
2.010473217
1.992986634
1.971857723
1.944852962
1.916888213
1.893182414
1.874293986
1.859593184
1.856472004
1.857721561
1.853213154
1.847232742
1.843937854
1.830057588
2.361009215
2.337931779
2.318958418
2.304862532
2.294957794
2.275161663
2.24641082
2.211511903
2.185452162
2.179365956
2.174562851
2.165745477
2.149627028
2.127106147
2.101086434
2.072706357
2.052176333
2.038141415
2.02545563
2.010820986
1.991881949
1.969452942
1.941504864
1.913615114
1.891364516
1.875240254
1.863181758
1.86148661
1.863054461
1.858030952
1.851694671
1.846334291
1.831999942
2.361880114
2.340051446
2.321347354
2.306506374
2.292321764
2.270362421
2.23988809
2.207490771
2.185503046
2.181034359
2.178094494
2.169253871
2.150874214
2.126959154
2.100845043
2.072680753
2.052580658
2.03940667
2.026585988
2.010964512
1.99068775
1.966698166
1.938146274
1.910969028
1.890851938
1.87630203
1.866460666
1.865719944
1.86746007
1.862174547
1.855534823
1.848385874
1.833190361
2.362118826
2.342041001
2.323780095
2.307180941
2.289328631
2.264806675
2.234896114
2.203029644
2.186461658
2.182951052
2.180643872
2.170419398
2.150398355
2.12634268
2.100464869
2.073138702
2.053811458
2.040753254
2.027737823
2.01086492
1.988879203
1.963324374
1.93436523
1.908703812
1.890768819
1.87764088
1.869441832
1.869552127
1.871568381
1.866070194
1.858291226
1.850165069
1.833884754
2.362980334
2.344839136
2.325957923
2.306155488
2.284892773
2.259052121
2.229912536
2.200858299
2.188126014
2.185339815
2.183201309
2.170873795
2.149829282
2.125871312
2.100125435
2.073864772
2.055217618
2.0421022
2.028008419
2.010924836
1.986839132
1.960187423
1.931128608
1.906556772
1.891161959
1.879729555
1.872806813
1.873819385
1.875783681
1.868945267
1.860186883
1.851732715
1.834415555
2.363451651
2.347013742
2.326912317
2.303863005
2.279819643
2.254110428
2.223514732
2.200020615
2.19020918
2.189171599
2.184982848
2.170804321
2.149589987
2.126286272
2.100713283
2.074777179
2.056913286
2.04354144
2.028099647
2.009753943
1.98396975
1.956390616
1.928258563
1.905825022
1.891994385
1.882914643
1.877357159
1.879021678
1.880096247
1.870982601
1.862134215
1.853475068
1.835015845
2.362522336
2.348028483
2.326911304
2.301404058
2.275648497
2.248210051
2.217585499
2.201706728
2.193348652
2.191742951
2.185428992
2.170400708
2.149815322
2.127217098
2.102242055
2.076037805
2.058750984
2.044206802
2.028350425
2.008177316
1.980728615
1.952618691
1.925563267
1.905883001
1.893412264
1.887126793
1.883618101
1.8849658
1.884497405
1.87335229
1.86451039
1.85571783
1.835996206
2.361729289
2.34878733
2.325797876
2.298482958
2.270525854
2.240588569
2.215696621
2.20491776
2.196999102
2.192054094
2.183998534
2.16941919
2.149370179
2.127829741
2.103672005
2.077733605
2.060024028
2.04466151
2.029025972
2.006420065
1.978280063
1.94983081
1.923709086
1.906260057
1.895305412
1.892122753
1.890893414
1.891158935
1.889554765
1.877317451
1.867023999
1.858507465
1.837646265
2.362274682
2.348865429
2.32402928
2.29505797
2.263896264
2.236987751
2.215248194
2.208356606
2.201547597
2.192051257
2.181999995
2.167391637
2.148420019
2.12848973
2.104665343
2.079241669
2.060944369
2.044774278
2.027513517
2.00474155
1.975850993
1.947504552
1.92335432
1.907067524
1.897630093
1.896890878
1.89787705
1.897583642
1.896025902
1.883289953
1.868131575
1.859729905
1.839638918
2.363050959
2.348220559
2.322387155
2.291269285
2.260773423
2.23616031
2.217006027
2.21237188
2.205094032
2.192059678
2.179929723
2.165323368
2.147985826
2.129127608
2.105259365
2.080361537
2.061095034
2.044722779
2.026218168
2.00270306
1.973623679
1.94610904
1.923716667
1.908529912
1.900275443
1.901114822
1.905136248
1.90507855
1.903322416
1.888229136
1.868363099
1.859907151
1.841683972
2.36430192
2.347169386
2.320923635
2.288852257
2.259653818
2.235374757
2.218664914
2.21551975
2.205527158
2.192436748
2.17865614
2.164399049
2.148008697
2.129506414
2.105838945
2.080997903
2.061181461
2.043720408
2.024730668
2.000597079
1.971597915
1.945449116
1.92470128
1.910566716
1.903207602
1.90582713
1.914225217
1.913721749
1.90776211
1.890585192
1.868203057
1.859971672
1.843691939
2.365745288
2.346159972
2.318282015
2.285454969
2.256701915
2.233383714
2.222359155
2.217584258
2.205287808
2.191915917
2.177473391
2.16335641
2.147544578
2.130064988
2.106954095
2.081884243
2.061252414
2.042407529
2.022476025
1.997647605
1.969283889
1.945110951
1.926346481
1.912973689
1.907084119
1.912759357
1.924600248
1.92001707
1.909841196
1.892440916
1.868786171
1.860392578
1.845416453
2.365954885
2.344777898
2.314437313
2.279716673
2.252129
2.234822163
2.22725524
2.21973725
2.204876781
2.190166437
2.175435227
2.161480798
2.146931479
2.130742408
2.108122889
2.08293309
2.061198815
2.040866178
2.019348274
1.994252887
1.967580783
1.945170106
1.929119109
1.91637207
1.913645162
1.923571139
1.932178154
1.922817889
1.910987332
1.894475329
1.869931932
1.861090111
1.846777873
2.365953063
2.342782369
2.309471103
2.27396861
2.249697991
2.236832636
2.232943119
2.221842438
2.205354883
2.187763323
2.172952876
2.16005677
2.146972961
2.131510789
2.109478667
2.084273989
2.061680343
2.039972432
2.017346341
1.992713763
1.966185621
1.945581381
1.932992993
1.921920678
1.924086477
1.935047828
1.937787133
1.925247893
1.912550407
1.896590966
1.871747653
1.862064414
1.848112503
2.364242634
2.339804903
2.30420873
2.268543889
2.2489042
2.240767686
2.239159569
2.223253961
2.204115716
2.18549285
2.171445853
2.159538872
2.147372258
2.132264411
2.110880497
2.085778363
2.062448688
2.039337243
2.015767582
1.990760322
1.96481309
1.946637647
1.936842082
1.930177939
1.938289112
1.945624608
1.944204773
1.928684049
1.914523797
1.898208351
1.873757764
1.863444309
1.849714849
2.36058719
2.334476228
2.298090953
2.264791708
2.249540084
2.246194604
2.241645941
2.222608084
2.202067354
2.183808061
2.170483593
2.159713589
2.147716731
2.132912148
2.112196952
2.087036208
2.063215945
2.039130166
2.013583046
1.988136337
1.964627301
1.94833261
1.941508293
1.9418016
1.949638708
1.952674406
1.949519969
1.932355114
1.915946453
1.899354869
1.87583895
1.865414838
1.85177672
2.372546913
2.353855971
2.326500055
2.292361854
2.264435054
2.250932098
2.250441627
2.242224942
2.220886571
2.199700077
2.182371853
2.170138613
2.160325327
2.148142185
2.133466099
2.113288201
2.088289593
2.064102638
2.038969452
2.011483157
1.986585309
1.965417557
1.950912113
1.949239176
1.951797901
1.953867233
1.956988789
1.954195188
1.935677401
1.917258406
1.90067892
1.878320639
1.868047676
1.854129644
2.365807529
2.347045068
2.318209605
2.286941541
2.264276914
2.254654605
2.253520937
2.240881211
2.218829042
2.197926658
2.181158771
2.169394419
2.160138147
2.148479402
2.133921669
2.114229301
2.089953529
2.06529094
2.037360384
2.010519381
1.986718052
1.967508059
1.956368834
1.958427986
1.95678669
1.957860662
1.960744413
1.956820442
1.937285619
1.918274794
1.902436451
1.881207161
1.870665409
1.856251182
2.35998144
2.337542761
2.309304894
2.284120802
2.265059868
2.259699271
2.255868355
2.238888635
2.217429338
2.197110566
2.180120222
2.168040088
2.15908174
2.148369053
2.134380003
2.115269635
2.091853496
2.064055104
2.036178398
2.009386829
1.988137731
1.971321599
1.964400376
1.964293759
1.961274919
1.961599598
1.962430745
1.957412234
1.937442185
1.91895662
1.903993359
1.883389769
1.872441629
1.858061068
2.354023024
2.327687943
2.300663489
2.282316032
2.268497738
2.265130859
2.258959634
2.237740471
2.216452306
2.19649385
2.179091475
2.166392556
2.157922125
2.148380436
2.135087881
2.116866776
2.092286953
2.063273718
2.034176831
2.008254074
1.989988721
1.976831056
1.971139756
1.969949616
1.966184642
1.9641922
1.962963155
1.957014904
1.937792545
1.91944803
1.904925165
1.884954728
1.874005279
1.859901781
2.347369795
2.322535238
2.297071067
2.2817417
2.273756009
2.272234691
2.260689999
2.236568401
2.214393932
2.195412797
2.178314887
2.165648711
2.15752922
2.148939045
2.136265091
2.119387421
2.09264681
2.061364677
2.030465384
2.008635437
1.99240625
1.981613551
1.976720476
1.975970998
1.971039871
1.966916637
1.963828029
1.957220668
1.937909789
1.919711628
1.905733252
1.886539938
1.875830455
1.862030804
2.344181451
2.31599625
2.295475715
2.282526047
2.280645173
2.277714353
2.260802642
2.234325468
2.212230932
2.194624155
2.17801055
2.165805019
2.157510151
2.149730973
2.137896495
2.119053216
2.091374807
2.057366259
2.028796535
2.009707346
1.995222058
1.985205841
1.981986545
1.981450965
1.975435643
1.970401871
1.965276879
1.957461826
1.938615818
1.920086396
1.906618813
1.888466661
1.878171164
1.864589695
)
;

boundaryField
{
    inlet
    {
        type            calculated;
        value           nonuniform 0();
    }
    outlet
    {
        type            calculated;
        value           nonuniform List<scalar> 
69
(
1.780403373
1.782404578
1.784127306
1.786268267
1.789268731
1.793865804
1.799138597
1.803985384
1.808124366
1.811440449
1.814234374
1.81680503
1.819387467
1.822202183
1.825044395
1.827679689
1.830054469
1.832013044
1.833229567
1.833934491
1.834461543
1.835049842
1.836013403
1.837676019
1.839721218
1.841794583
1.843794376
1.845502248
1.846838199
1.84814108
1.849707329
1.851741513
1.854109237
1.856272682
1.858101994
1.859941327
1.86205739
1.864597239
1.067231301
1.061670569
1.05726295
1.055869961
1.051370924
1.049051961
1.041023463
1.038726379
1.056689125
1.220405714
1.482672866
1.637518681
1.685249821
1.686418116
1.682426745
1.682894504
1.68764376
1.70133076
1.721540785
1.739126265
1.744878491
1.745416024
1.746033505
1.746503391
1.749519491
1.756955023
1.761416804
1.757573943
1.755848212
1.758366097
1.770545525
)
;
    }
    bottom
    {
        type            calculated;
        value           nonuniform 0();
    }
    top
    {
        type            calculated;
        value           nonuniform 0();
    }
    obstacle
    {
        type            calculated;
        value           nonuniform 0();
    }
    defaultFaces
    {
        type            empty;
    }
    procBoundary11to5
    {
        type            processor;
        value           nonuniform List<scalar> 
33
(
1.326369279
1.308589154
1.290939478
1.273355836
1.256669987
1.238673344
1.220824102
1.205319567
1.190382566
1.17685861
1.16415073
1.151524011
1.138691626
1.126108555
1.11302178
1.099090435
1.088084614
1.068251487
1.594422247
1.575249169
1.558198821
1.541285863
1.52309295
1.504750584
1.486047436
1.46738815
1.448650108
1.428123436
1.405211846
1.381123273
1.358300151
1.339197155
1.339197155
)
;
    }
    procBoundary11to10
    {
        type            processor;
        value           nonuniform List<scalar> 
70
(
1.614127131
1.598535775
1.59465635
1.578252486
1.562340946
1.558645199
1.555524153
1.53994183
1.532186644
1.509026064
1.493984309
1.482220142
1.464480866
1.457387761
1.439057854
1.434788443
1.426794102
1.418514243
1.414889813
1.406548096
1.397462384
1.376031795
1.652416487
2.209385198
2.365158031
2.369967548
2.364676428
2.354528346
2.3515582
2.358440617
2.367748515
2.368349267
2.36834163
2.367832846
2.367619363
2.369056031
2.370215026
2.3709034
2.370987928
2.370612187
2.369068342
2.366970269
2.365264411
2.363633085
2.361753378
2.360779746
2.360779746
2.39560414
2.393910252
2.392467214
2.391729275
2.390677984
2.388515735
2.387045138
2.386003558
2.383512705
2.380978113
2.379012613
2.379755984
2.382307449
2.38320922
2.381636926
2.378129039
2.378129039
2.392086337
2.386065152
2.380545032
2.376650368
2.372907448
2.371242088
)
;
    }