/*--------------------------------*- C++ -*----------------------------------*\
  =========                 |
  \\      /  F ield         | OpenFOAM: The Open Source CFD Toolbox
   \\    /   O peration     | Website:  https://openfoam.org
    \\  /    A nd           | Version:  7
     \\/     M anipulation  |
\*---------------------------------------------------------------------------*/
FoamFile
{
    version     2.0;
    format      ascii;
    class       volScalarField;
    location    "3.9";
    object      T;
}
// * * * * * * * * * * * * * * * * * * * * * * * * * * * * * * * * * * * * * //

dimensions      [0 0 0 1 0 0 0];

internalField   nonuniform List<scalar> 
558
(
1.106285331
1.11023262
1.113858913
1.113853041
1.112039904
1.107260001
1.099203116
1.088402258
1
1
1.000000001
1.000000079
1.000003544
1.000058118
1.000901903
1.004896162
1.023677407
1.055348979
1.083270874
1.106389915
1.113712656
1.113423675
1.112845983
1.111296387
1.106595721
1.09846676
1
1
1
1.000000002
1.000000135
1.000003792
1.000089637
1.000747842
1.006364035
1.021517626
1.055001936
1.091086273
1.106483938
1.109479741
1.112061968
1.112643376
1.110825068
1.106044857
1
1
1
1
1.000000004
1.000000176
1.000005731
1.000076042
1.001050962
1.005357499
1.024709512
1.056137494
1.083076237
1.104839481
1.112779651
1.112449375
1.111943712
1.110384864
1
1
1
1
1
1.000000006
1.000000246
1.000005306
1.000111621
1.000859331
1.006900145
1.022331005
1.055206106
1.090025058
1.106679672
1.109086698
1.111354068
1.111937574
1
1
1
1
1
1
1.000000007
1.000000269
1.000007756
1.000092245
1.001183991
1.005738042
1.025282028
1.056445744
1.082783933
1.103340067
1.112168386
1.11187112
1
1
1
1
1
1
1
1.00000001
1.000000361
1.000006693
1.000130626
1.000947376
1.007252667
1.022853063
1.055252737
1.089183695
1.10700221
1.108482626
1
1
1
1
1
1
1
1
1.000000011
1.000000341
1.00000933
1.000103831
1.001273974
1.006002514
1.025595508
1.056611304
1.082665201
1.101429497
1
1
1
1
1
1
1
1
1
1.000000012
1.000000442
1.000007571
1.00014328
1.001004307
1.007467733
1.023142847
1.054692735
1.087930844
1
1
1
1
1
1
1
1
1
1
1.000000014
1.000000385
1.000010404
1.000111178
1.001325517
1.006138603
1.025346205
1.056115865
1
1
1
1
1
1
1
1
1
1
1
1.000000014
1.00000051
1.000008211
1.000151412
1.001037174
1.00749495
1.023185276
1
1
1
1
1
1
1
1
1
1
1
1
1.000000017
1.000000429
1.000011332
1.000117856
1.001361206
1.006284489
1
1
1
1
1
1
1
1
1
1
1
1
1
1.000000017
1.000000585
1.000009037
1.000161174
1.001090521
1
1
1
1
1
1
1
1
1
1
1
1
1
1
1.000000021
1.000000483
1.00001239
1.000126641
1
1
1
1
1
1
1
1
1
1
1
1
1
1
1.000000001
1.000000018
1.000000645
1.000009742
1
1
1
1
1
1
1
1
1
1
1
1
1
1
1
1.000000001
1.000000023
1.000000515
1
1
1
1
1
1
1
1
1
1
1
1
1
1
1
1
1.000000001
1.000000019
1
1
1
1
1
1
1
1
1
1
1
1
1
1
1
1
1
1
1
1
1
1
1
1
1
1
1
1
1
1
1
1
1
1
1
1
1
1
1
1
1
1
1
1
1
1
1
1
1
1
1
1
1
1
1
1
1
1
1
1
1
1
1
1
1
1
1
1
1
1
1
1
1
1
1
1
1
1
1
1
1
1
1
1
1
1
1
1
1
1
1
1
1
1
1
1
1
1
1
1
1
1
1
1
1
1
1
1
1
1
1
1
1
1
1
1
1
1
1
1
1
1
1
1
1
1
1
1
1
1
1
1
1
1
1
1
1
1
1
1
1
1
1
1
1
1
1
1
1
1
1
1
1
1
1
1
1
1
1
1
1
1
1
1
1
1
1
1
1
1
1
1
1
1
1
1
1
1
1
1
1
1
1
1
1
1
1
1
1
1
1
1
1
1
1
1
1
1
1
1
1
1
1
1
1
1
1
1
1
1
1
1
1
1
1
1
1
1
1
1
1
1
1
1
1
1
1
1
1
1
1
1
1
1
1
1
1
1
1
1
1
1
1
1
1
1
1
1
1
1
1
1
1
1
1
1
1
1
1
1
1
1
)
;

boundaryField
{
    inlet
    {
        type            fixedValue;
        value           nonuniform 0();
    }
    outlet
    {
        type            inletOutlet;
        inletValue      nonuniform 0();
        value           nonuniform 0();
    }
    bottom
    {
        type            slip;
    }
    top
    {
        type            slip;
    }
    obstacle
    {
        type            zeroGradient;
    }
    defaultFaces
    {
        type            empty;
    }
    procBoundary33to26
    {
        type            processor;
        value           nonuniform List<scalar> 
13
(
1
1
1
1
1
1
1
1
1
1
1
1
1
)
;
    }
    procBoundary33to27
    {
        type            processor;
        value           nonuniform List<scalar> 
19
(
1.114699134
1.114481618
1.114200874
1.112749288
1.108158023
1.100118975
1.089024485
1.076641382
1
1
1.000000038
1.000001917
1.000061955
1.000610223
1.005783146
1.020457468
1.054102038
1.091606666
1.091606666
)
;
    }
    procBoundary33to32
    {
        type            processor;
        value           nonuniform List<scalar> 
17
(
1
1
1
1
1
1
1
1
1
1
1
1
1
1
1
1
1
)
;
    }
    procBoundary33to34
    {
        type            processor;
        value           nonuniform List<scalar> 
32
(
1.076380505
1.087835417
1.097900289
1.105641606
1.110033853
1.111192053
1.11047406
1.111394716
1.107231351
1.083049929
1.05368566
1.024869198
1.007465385
1.001391403
1.000168345
1.000013047
1.000000677
1.000000024
1.000000001
1
1
1
1
1
1
1
1
1
1
1
1
1
)
;
    }
}


// ************************************************************************* //
