/*--------------------------------*- C++ -*----------------------------------*\
  =========                 |
  \\      /  F ield         | OpenFOAM: The Open Source CFD Toolbox
   \\    /   O peration     | Website:  https://openfoam.org
    \\  /    A nd           | Version:  7
     \\/     M anipulation  |
\*---------------------------------------------------------------------------*/
FoamFile
{
    version     2.0;
    format      ascii;
    class       volScalarField;
    location    "2.6";
    object      rho;
}
// * * * * * * * * * * * * * * * * * * * * * * * * * * * * * * * * * * * * * //

dimensions      [1 -3 0 0 0 0 0];

internalField   nonuniform List<scalar> 
22
(
1.562012098
1.490222628
1.577076835
1.572387458
1.52264536
1.629063705
1.618553882
1.518000028
1.360756983
1.664551473
1.520174199
1.294622824
1.196648835
1.559802733
1.206450057
1.142785931
1.187669754
1.02557447
1.027576447
1.152448465
0.99624233
1.0437798
)
;

boundaryField
{
    inlet
    {
        type            calculated;
        value           nonuniform 0();
    }
    outlet
    {
        type            calculated;
        value           nonuniform 0();
    }
    bottom
    {
        type            calculated;
        value           nonuniform 0();
    }
    top
    {
        type            calculated;
        value           nonuniform 0();
    }
    obstacle
    {
        type            calculated;
        value           nonuniform List<scalar> 2(1.02557447 0.99624233);
    }
    defaultFaces
    {
        type            empty;
    }
    procBoundary9to3
    {
        type            processor;
        value           nonuniform List<scalar> 5(1.539664254 1.413867502 1.493563007 1.567005024 1.567005024);
    }
    procBoundary9to4
    {
        type            processor;
        value           nonuniform List<scalar> 2(1.514532941 1.402202297);
    }
    procBoundary9to8
    {
        type            processor;
        value           uniform 1.406520077;
    }
    procBoundary9to10
    {
        type            processor;
        value           nonuniform List<scalar> 5(1.283634272 1.212750099 1.273947225 1.309297122 1.309297122);
    }
    procBoundary9to14
    {
        type            processor;
        value           nonuniform List<scalar> 3(1.479852407 1.665293535 1.930205895);
    }
    procBoundary9to15
    {
        type            processor;
        value           nonuniform List<scalar> 4(1.209613076 1.011212158 1.209613076 1.07082638);
    }
}


// ************************************************************************* //
