/*--------------------------------*- C++ -*----------------------------------*\
  =========                 |
  \\      /  F ield         | OpenFOAM: The Open Source CFD Toolbox
   \\    /   O peration     | Website:  https://openfoam.org
    \\  /    A nd           | Version:  7
     \\/     M anipulation  |
\*---------------------------------------------------------------------------*/
FoamFile
{
    version     2.0;
    format      ascii;
    class       volVectorField;
    location    "4.4";
    object      U;
}
// * * * * * * * * * * * * * * * * * * * * * * * * * * * * * * * * * * * * * //

dimensions      [0 1 -1 0 0 0 0];

internalField   nonuniform List<vector> 
139
(
(2.970743384 -0.0037608593 0)
(2.9696296 -0.003547614153 0)
(2.968832543 -0.0009501243796 0)
(2.968243328 0.0005796298808 0)
(2.969762982 0.0005370233172 0)
(2.968093143 -0.00134377298 0)
(2.964594795 -0.001827126445 0)
(2.929481176 -0.0003578434725 0)
(2.929651986 -0.0010449793 0)
(2.930823718 0.0003122403041 0)
(2.931765876 0.003114590458 0)
(2.931517805 0.003436856622 0)
(2.932456365 0.0002330296065 0)
(2.933743532 -0.002335183554 0)
(2.933740589 -0.002273745773 0)
(2.893360568 0.0008937226545 0)
(2.895498925 0.001877588581 0)
(2.897470898 0.003082749833 0)
(2.898503256 0.00386900701 0)
(2.899933484 0.001751379296 0)
(2.902045655 0.0001208896462 0)
(2.905448209 4.624715882e-05 0)
(2.908886959 0.001083837809 0)
(2.863145762 -0.001118946955 0)
(2.866180754 9.656888087e-05 0)
(2.8681667 0.002753352118 0)
(2.869782492 0.002789228341 0)
(2.873738958 -0.0005047036006 0)
(2.878625356 -0.002131105076 0)
(2.883291496 0.001057876157 0)
(2.888426431 0.003277119845 0)
(2.840571094 -0.005773727231 0)
(2.842306088 -0.003892115047 0)
(2.845983496 -0.003140359581 0)
(2.851452616 -0.003314691312 0)
(2.856991533 -0.003591448212 0)
(2.861292489 -0.001762099339 0)
(2.866041389 0.0003344556957 0)
(2.871213006 0.002585986433 0)
(2.827710258 -0.005016484346 0)
(2.829954041 -0.004531666433 0)
(2.834478549 -0.004703246167 0)
(2.84020162 -0.004046403417 0)
(2.845742124 -0.001611600694 0)
(2.848954379 8.865337524e-05 0)
(2.853276071 -0.0008591513831 0)
(2.858958059 -0.001143601739 0)
(2.820134405 -0.003045468919 0)
(2.823548176 -0.002675004435 0)
(2.826866755 -0.003258763644 0)
(2.830937537 -0.001567572134 0)
(2.836720155 0.001349289066 0)
(2.841430192 0.002661911659 0)
(2.845544512 -0.0007397338735 0)
(2.852693384 -0.003184543232 0)
(2.815965151 -0.0006512144105 0)
(2.818975727 -0.0006794641546 0)
(2.822363168 -0.0007658859302 0)
(2.826968105 0.0016650841 0)
(2.832033368 0.003653214176 0)
(2.836839654 0.002077340448 0)
(2.841552241 -0.0005246277176 0)
(2.848306445 -0.002189455622 0)
(2.816399726 -0.001079312902 0)
(2.819195627 -0.0008067626361 0)
(2.822289261 0.0002255783487 0)
(2.827961126 0.002669615261 0)
(2.832383126 0.002710605801 0)
(2.836772903 0.0002971390599 0)
(2.841119134 -0.001170693225 0)
(2.846662252 4.889679727e-05 0)
(2.819372237 -0.004663417326 0)
(2.821934299 -0.003608654063 0)
(2.824334846 -0.0008555706552 0)
(2.830353513 0.0001785053815 0)
(2.83542469 -0.001933280187 0)
(2.839651534 -0.003287423965 0)
(2.842671356 -0.001995549723 0)
(2.847816323 0.001689798668 0)
(2.85546073 -0.008252302346 0)
(2.856780439 -0.006842210323 0)
(2.858101197 -0.004250406784 0)
(2.860797333 -0.003262891912 0)
(2.863461544 -0.003884257449 0)
(2.865580815 -0.003900955024 0)
(2.868434897 -0.003111878908 0)
(2.872524462 -0.00143267922 0)
(2.924398161 -0.005420804652 0)
(2.923611222 -0.006566650694 0)
(2.923236138 -0.006157901157 0)
(2.922804919 -0.004051472737 0)
(2.922820115 -0.0012969915 0)
(2.921132578 0.0001086593672 0)
(2.921121398 -0.0008644196658 0)
(2.921481469 -0.002390396869 0)
(2.977210335 -0.003368684159 0)
(2.975281611 -0.006301959138 0)
(2.973089974 -0.007595564839 0)
(2.971756419 -0.004735714606 0)
(2.971228111 -0.002721643563 0)
(2.969576779 -0.0005901657853 0)
(2.967038612 -8.799683603e-05 0)
(2.964230799 -0.0008052511017 0)
(3.001607634 -0.002116292459 0)
(3.000540754 -0.003248983541 0)
(2.999549036 -0.004120899829 0)
(2.998909045 -0.003735539684 0)
(2.998306591 -0.003531680747 0)
(2.996696016 -0.002968242287 0)
(2.994925679 -0.003011409955 0)
(2.993104374 -0.002022860971 0)
(3.012342987 -0.001589143582 0)
(3.009473642 0.001295735426 0)
(3.007017322 -0.0008309983562 0)
(3.007316581 -0.003425171742 0)
(3.006692062 -0.003925041892 0)
(3.005836563 -0.003815817691 0)
(3.005805215 -0.004316777607 0)
(3.00499716 -0.002871421654 0)
(3.017526117 -0.01856199618 0)
(3.012194352 0.004987551888 0)
(3.006824894 -0.003599060212 0)
(3.006199892 -0.004080923449 0)
(3.005907731 -0.002835452491 0)
(3.005808862 -0.002898611609 0)
(3.006915244 -0.002823930549 0)
(3.00701777 -0.001903454985 0)
(3.025280859 -0.06458877928 0)
(3.022512898 -0.05529769583 0)
(3.015522068 -0.02903750265 0)
(3.010967762 -0.01547180552 0)
(3.000391152 -0.005886606069 0)
(3.000337465 -0.003427863938 0)
(3.003368467 -0.002649801522 0)
(3.004933016 -0.002204429575 0)
(3.055649038 -0.1988791949 0)
(3.03489292 -0.1200173743 0)
(3.031223886 -0.07174920069 0)
(3.013943375 0.01029778046 0)
)
;

boundaryField
{
    inlet
    {
        type            fixedValue;
        value           nonuniform 0();
    }
    outlet
    {
        type            inletOutlet;
        inletValue      uniform (3 0 0);
        value           nonuniform List<vector> 
17
(
(2.872524462 -0.00143267922 0)
(2.921481469 -0.002390396869 0)
(2.964230799 -0.0008052511017 0)
(2.993104374 -0.002022860971 0)
(3.00499716 -0.002871421654 0)
(3.00701777 -0.001903454985 0)
(3.004933016 -0.002204429575 0)
(2.964594795 -0.001827126445 0)
(2.933740589 -0.002273745773 0)
(2.908886959 0.001083837809 0)
(2.888426431 0.003277119845 0)
(2.871213006 0.002585986433 0)
(2.858958059 -0.001143601739 0)
(2.852693384 -0.003184543232 0)
(2.848306445 -0.002189455622 0)
(2.846662252 4.889679727e-05 0)
(2.847816323 0.001689798668 0)
)
;
    }
    bottom
    {
        type            slip;
    }
    top
    {
        type            slip;
    }
    obstacle
    {
        type            slip;
    }
    defaultFaces
    {
        type            empty;
    }
    procBoundary29to23
    {
        type            processor;
        value           nonuniform List<vector> 9((3.015251213 -0.003299020728 0) (3.012199825 -0.003644153363 0) (3.010506565 -0.001954134308 0) (3.009864855 0.001032185917 0) (3.010618425 0.002067953149 0) (3.007356555 0.001285816748 0) (3.001328407 0.0006105565341 0) (2.971954517 -0.002976268236 0) (2.971954517 -0.002976268236 0));
    }
    procBoundary29to28
    {
        type            processor;
        value           nonuniform List<vector> 
16
(
(2.930183063 -0.0008887123526 0)
(2.8925962 0.0001147747558 0)
(2.860877332 -0.001592760475 0)
(2.838038299 -0.006724060539 0)
(2.825008147 -0.006892211921 0)
(2.816940176 -0.004768376841 0)
(2.813169525 -0.002458422835 0)
(2.814180182 -0.002252858242 0)
(2.817316332 -0.004705602528 0)
(2.854936963 -0.01023133243 0)
(2.927653082 -0.003402653423 0)
(2.977689367 -0.0004873446713 0)
(3.007907603 0.0005774016396 0)
(3.020639085 -0.01276628993 0)
(3.041312213 -0.09422824489 0)
(3.051194545 -0.1644970614 0)
)
;
    }
    procBoundary29to34
    {
        type            processor;
        value           uniform (3.069381279 -0.2370990514 0);
    }
    procBoundary29to35
    {
        type            processor;
        value           nonuniform List<vector> 9((2.994204699 -0.0004737749781 0) (2.993565002 -0.004624029352 0) (3.001979101 -0.0061765063 0) (3.002036006 -0.004964712509 0) (3.068799067 -0.2376027536 0) (3.062585365 -0.2120575463 0) (3.049104754 -0.1552726446 0) (2.994204699 -0.0004737749781 0) (3.032111261 -0.09234494496 0));
    }
}


// ************************************************************************* //
