/*--------------------------------*- C++ -*----------------------------------*\
  =========                 |
  \\      /  F ield         | OpenFOAM: The Open Source CFD Toolbox
   \\    /   O peration     | Website:  https://openfoam.org
    \\  /    A nd           | Version:  7
     \\/     M anipulation  |
\*---------------------------------------------------------------------------*/
FoamFile
{
    version     2.0;
    format      ascii;
    class       volVectorField;
    location    "3.9";
    object      U;
}
// * * * * * * * * * * * * * * * * * * * * * * * * * * * * * * * * * * * * * //

dimensions      [0 1 -1 0 0 0 0];

internalField   nonuniform List<vector> 
555
(
(3.075610563 0.2779370893 0)
(3.07775124 0.2984568781 0)
(3.084785418 0.3048568282 0)
(3.086618381 0.3254213098 0)
(3.088787477 0.3246450374 0)
(3.00345985 0.02158469373 0)
(3.015233618 0.05284569305 0)
(3.022241728 0.07570831563 0)
(3.03302911 0.1183438778 0)
(3.041137132 0.1540970325 0)
(3.048996405 0.1776903993 0)
(3.056719067 0.197809218 0)
(3.062174011 0.2309740294 0)
(3.067084112 0.247388826 0)
(3.070687674 0.2461363685 0)
(3.074662473 0.2742202018 0)
(3.077176634 0.2966434603 0)
(3.081956537 0.3000500388 0)
(3.086519352 0.3147572969 0)
(3.086129762 0.3211060098 0)
(3.084854377 0.320340405 0)
(3.020013555 0.07058245951 0)
(3.032206125 0.1031151065 0)
(3.038942207 0.1298446662 0)
(3.045761417 0.1661303534 0)
(3.053198886 0.1863806463 0)
(3.054847878 0.1952295788 0)
(3.064083617 0.2358513197 0)
(3.068441827 0.2693247352 0)
(3.074342735 0.2823867886 0)
(3.084245555 0.3047527636 0)
(3.085576222 0.3290863968 0)
(3.087716362 0.33853691 0)
(3.092281668 0.3317066906 0)
(3.090676013 0.3286293219 0)
(3.083505266 0.3127601605 0)
(3.070987402 0.2685353151 0)
(3.0343916 0.1124746101 0)
(3.042794514 0.1436092172 0)
(3.052315316 0.188714162 0)
(3.058119742 0.2231045548 0)
(3.067719848 0.2328279142 0)
(3.070844951 0.2472180136 0)
(3.072743557 0.2781529971 0)
(3.076898891 0.2887741157 0)
(3.075470761 0.2909246202 0)
(3.08400573 0.3211679565 0)
(3.087614591 0.332830405 0)
(3.088849569 0.333305851 0)
(3.088335245 0.3271724202 0)
(3.076257936 0.292415399 0)
(3.06577601 0.207252448 0)
(3.03103963 0.08477395801 0)
(3.050227195 0.1576980772 0)
(3.053128223 0.1848897996 0)
(3.058916245 0.2198269838 0)
(3.065274932 0.2383388281 0)
(3.071957174 0.2611113185 0)
(3.081419338 0.3054445355 0)
(3.082591437 0.3275138559 0)
(3.089982456 0.3330037307 0)
(3.091082651 0.349982428 0)
(3.0918147 0.3502052347 0)
(3.090624477 0.344510073 0)
(3.084791001 0.3198747852 0)
(3.072281438 0.2644133222 0)
(3.04674654 0.1641974418 0)
(3.059301056 0.1345182312 0)
(3.021106125 0.05456600626 0)
(3.062793034 0.2186998504 0)
(3.071397189 0.2626900289 0)
(3.077183272 0.2843608272 0)
(3.08181753 0.2801691262 0)
(3.0809122 0.3041510189 0)
(3.083705809 0.3299995186 0)
(3.088730459 0.3363165931 0)
(3.09047392 0.343138984 0)
(3.0895586 0.3476853336 0)
(3.086482781 0.34096996 0)
(3.077074146 0.3005497308 0)
(3.052312659 0.1901716046 0)
(3.055634846 0.1255858812 0)
(3.023219503 -0.007712365274 0)
(2.994619677 0.0017609314 0)
(2.996386672 -0.002745096845 0)
(3.068721597 0.253258278 0)
(3.075710057 0.3003175647 0)
(3.081722006 0.3134971669 0)
(3.089844236 0.3382557745 0)
(3.090424774 0.3628814908 0)
(3.093257322 0.3664648179 0)
(3.096403325 0.3587182312 0)
(3.09434573 0.3532841115 0)
(3.081881863 0.3239658986 0)
(3.065598798 0.2522283869 0)
(3.040288765 0.1459863749 0)
(3.032809288 0.09986002599 0)
(3.028288879 0.05142160553 0)
(3.009934222 0.02492818405 0)
(2.997213023 0.0117375693 0)
(2.993633334 0.006963231273 0)
(3.085448469 0.3255712697 0)
(3.087415607 0.3256510542 0)
(3.086680561 0.3295906808 0)
(3.088077844 0.353357371 0)
(3.090003552 0.362116142 0)
(3.092123799 0.3617983545 0)
(3.089557743 0.3442825281 0)
(3.080395027 0.3023240574 0)
(3.052719903 0.1993861516 0)
(3.047044302 0.1337843152 0)
(3.014858324 0.02383365813 0)
(3.004356936 -0.01946303145 0)
(2.989197797 0.00326797541 0)
(2.989647618 0.007711226559 0)
(2.990604169 0.006386470861 0)
(2.991869298 0.007416504144 0)
(3.088042648 0.3646950514 0)
(3.09663291 0.3685148696 0)
(3.099473946 0.3771742269 0)
(3.097741809 0.3775629777 0)
(3.094220379 0.37070176 0)
(3.083127058 0.331801625 0)
(3.061899617 0.2359903177 0)
(3.053969811 0.13592304 0)
(3.021783499 0.0007504295383 0)
(3.008311464 0.02809379034 0)
(3.002671571 0.01087756936 0)
(2.997898067 0.0002470948002 0)
(2.992808419 0.001491526248 0)
(2.989731211 0.004006973223 0)
(2.989876449 0.003929274503 0)
(2.99084785 0.004509455748 0)
(3.091039026 0.3752667887 0)
(3.094981574 0.3771598547 0)
(3.094798839 0.3787190629 0)
(3.087824777 0.3600501872 0)
(3.073928297 0.2915321477 0)
(3.043489335 0.1701605844 0)
(3.03487014 0.112038737 0)
(3.03186792 0.06591972549 0)
(3.010320593 0.02969072608 0)
(3.005485594 0.02100998438 0)
(2.996501041 0.01002229261 0)
(2.99521211 0.006803375549 0)
(2.994136142 0.0026461295 0)
(2.992031234 0.001167625039 0)
(2.992104283 0.00111049151 0)
(2.99214631 0.001448298283 0)
(3.101114701 0.3891167258 0)
(3.096279508 0.3764538347 0)
(3.084361581 0.3401458533 0)
(3.05190008 0.2299903081 0)
(3.049561694 0.1581956708 0)
(3.014648703 0.02862174614 0)
(3.002248223 -0.02607392984 0)
(2.982606223 0.00534232167 0)
(2.989825262 0.005389790362 0)
(2.996545033 0.005997170865 0)
(2.998236982 0.005069407221 0)
(2.996315963 0.00427074147 0)
(2.99561836 0.003892952476 0)
(2.995058187 0.003199114591 0)
(2.994887586 0.001990954259 0)
(2.994891228 0.0009007749656 0)
(3.091090144 0.3609608034 0)
(3.072935161 0.2813342467 0)
(3.057515252 0.1720663036 0)
(3.023170087 0.02101728266 0)
(3.026498981 0.0488089352 0)
(3.014039238 0.01737041965 0)
(3.006401599 0.004472003764 0)
(3.001747327 0.004617251266 0)
(3.002151709 0.002659898091 0)
(3.002583527 -0.0005237378639 0)
(3.003123784 -0.00153613989 0)
(3.001337973 -4.400887066e-05 0)
(2.998819138 0.002998658191 0)
(2.997943621 0.003305787462 0)
(2.9976008 0.002674020273 0)
(2.997404551 0.001357360992 0)
(3.076733508 0.2333080932 0)
(3.047085867 0.09611522363 0)
(3.047695395 0.07151519 0)
(3.024137466 0.01898556513 0)
(3.02236131 0.004361870224 0)
(3.01405179 0.004395343688 0)
(3.011232746 0.003836460768 0)
(3.009706982 0.003115100619 0)
(3.008872427 0.001963865076 0)
(3.00787563 -0.0002173857147 0)
(3.005765885 -0.0008981001698 0)
(3.004665571 0.0002159356726 0)
(3.002464101 0.003030568066 0)
(3.001071786 0.003810442349 0)
(3.000288574 0.003351798374 0)
(2.999827136 0.002177217309 0)
(3.053846431 0.03614517731 0)
(3.036520711 0.01074556687 0)
(3.021373683 0.01546982551 0)
(3.013842208 0.005456786371 0)
(3.009095965 -0.0007551969408 0)
(3.006837709 0.0002676930197 0)
(3.004469247 0.001540197994 0)
(3.003428128 0.003520406193 0)
(3.002671433 0.004217068721 0)
(3.002443009 0.003386129885 0)
(3.000734853 0.003312665561 0)
(2.99967143 0.003877885672 0)
(2.998225142 0.004626998076 0)
(2.997216561 0.004203201432 0)
(2.996882965 0.002991749192 0)
(2.996867512 0.001708659812 0)
(3.000553725 0.01176347042 0)
(2.995151436 -0.003813369168 0)
(2.988940585 0.0005003956491 0)
(2.987204637 0.002801925109 0)
(2.986342774 0.001728338507 0)
(2.982433144 0.001143229042 0)
(2.981068719 0.001549566704 0)
(2.980311272 0.002565970119 0)
(2.980648263 0.004021560159 0)
(2.981260901 0.004208518897 0)
(2.98116055 0.004262543881 0)
(2.980551276 0.004511388156 0)
(2.980200774 0.004274658509 0)
(2.980207684 0.003695783353 0)
(2.98082447 0.002546541182 0)
(2.981107494 0.0007673555861 0)
(2.934375662 0.0001068208557 0)
(2.939702425 -0.003291889571 0)
(2.939864939 -0.001499857567 0)
(2.9396682 0.002371464602 0)
(2.942653245 0.002054295012 0)
(2.942748987 0.001244757788 0)
(2.943054287 0.0006980831776 0)
(2.943763979 0.001218714244 0)
(2.945183195 0.002218173593 0)
(2.946653713 0.003070060213 0)
(2.947957265 0.003788320134 0)
(2.948979802 0.003872689628 0)
(2.950207013 0.003164811499 0)
(2.952502223 0.002425724831 0)
(2.954944343 0.000532529437 0)
(2.95536389 3.631116908e-05 0)
(2.91944764 0.004193621129 0)
(2.914098935 0.0005576197506 0)
(2.912230103 -0.002133706222 0)
(2.913298851 -1.641902157e-05 0)
(2.918410473 -0.0002881200119 0)
(2.92059274 -0.0004945825836 0)
(2.921689916 -7.177903361e-05 0)
(2.922970694 0.00126354804 0)
(2.924555754 0.002948439913 0)
(2.925808229 0.004029749691 0)
(2.927741787 0.004224036404 0)
(2.929746536 0.003997612833 0)
(2.931773141 0.002969224456 0)
(2.936148458 0.001367624416 0)
(2.93944175 -0.0003115994053 0)
(2.940156339 -0.001150467003 0)
(2.911390311 0.00499877154 0)
(2.909284472 0.002575616724 0)
(2.908474896 -0.0001484489895 0)
(2.909292177 0.002291534637 0)
(2.913902136 0.002369087123 0)
(2.917026682 0.0002640787234 0)
(2.918685148 -0.0001574309709 0)
(2.91984948 0.0001330014864 0)
(2.921585064 0.001274530724 0)
(2.92283896 0.002406260993 0)
(2.924171857 0.00343571692 0)
(2.92619831 0.003274943962 0)
(2.928475606 0.00250154418 0)
(2.932234005 0.001792954826 0)
(2.934948779 0.0008346348809 0)
(2.936413728 -0.0006358282783 0)
(2.904488287 0.00525315649 0)
(2.904991762 0.00304754847 0)
(2.905353673 0.001090988638 0)
(2.905721366 0.003805142719 0)
(2.90905165 0.004274656582 0)
(2.912604959 0.002760897795 0)
(2.914757478 0.001040559449 0)
(2.915912401 0.0001323004499 0)
(2.917318671 0.0003353604567 0)
(2.919139019 0.001325879626 0)
(2.920632015 0.002071866483 0)
(2.922284525 0.001941951342 0)
(2.924244403 0.001060918406 0)
(2.926696595 0.001218956286 0)
(2.92872294 0.00122007027 0)
(2.930628792 0.0004892930456 0)
(2.901777134 0.005379204597 0)
(2.902958604 0.003221923016 0)
(2.903519674 0.002143396751 0)
(2.903555695 0.004708547243 0)
(2.90565478 0.004712583794 0)
(2.907840219 0.003808638082 0)
(2.909716915 0.002876022507 0)
(2.911992581 0.001646035552 0)
(2.913422792 0.001069771359 0)
(2.915035804 0.001025051872 0)
(2.916714568 0.001224560313 0)
(2.917944029 0.001152653337 0)
(2.919178369 0.0003567291784 0)
(2.920607234 0.0006932988118 0)
(2.922067795 0.0004414701252 0)
(2.923122977 0.0003268391997 0)
(2.900667047 0.003823511319 0)
(2.902003017 0.001442301746 0)
(2.902055486 0.002063694325 0)
(2.901905134 0.005020112594 0)
(2.903657307 0.005071499147 0)
(2.904865376 0.00435416819 0)
(2.906265026 0.003468574271 0)
(2.908048579 0.002806676749 0)
(2.909649361 0.002410321786 0)
(2.910902637 0.00206179923 0)
(2.91231141 0.001474743968 0)
(2.913350653 0.0009607232955 0)
(2.914085328 0.0003021507471 0)
(2.914974139 0.0006502780646 0)
(2.915672399 0.000166458017 0)
(2.916143036 -0.0001376032082 0)
(2.900824913 0.00161088466 0)
(2.901480915 -0.001314464411 0)
(2.901054925 -0.000778895583 0)
(2.900478763 0.002679996892 0)
(2.90130303 0.004139896172 0)
(2.902618392 0.004421738484 0)
(2.904104839 0.003867254407 0)
(2.905196722 0.003411693418 0)
(2.90636716 0.003253707343 0)
(2.907254412 0.003046552858 0)
(2.908255922 0.002193527558 0)
(2.909120449 0.001565778782 0)
(2.909535483 0.001061296782 0)
(2.910180564 0.000557298612 0)
(2.910468365 -3.651828929e-05 0)
(2.910462552 -0.000378099834 0)
(2.90139122 0.0007549825838 0)
(2.901501859 -0.002578613992 0)
(2.900778684 -0.003027868593 0)
(2.899686899 -0.0001129971663 0)
(2.899630996 0.001211604247 0)
(2.900343934 0.002335743935 0)
(2.901555737 0.003458221533 0)
(2.902789653 0.003562962993 0)
(2.903835843 0.003533893537 0)
(2.90442488 0.003468455113 0)
(2.905014154 0.002702489017 0)
(2.905519691 0.002092295486 0)
(2.905852475 0.001678334689 0)
(2.906076691 0.000875424279 0)
(2.906160996 1.588519192e-05 0)
(2.906319814 -0.0005049807247 0)
(2.900740568 0.0005971552185 0)
(2.900631081 -0.002511867555 0)
(2.900010838 -0.003047643332 0)
(2.899072919 -0.0007595033494 0)
(2.898725568 -0.000457574866 0)
(2.898800041 -0.0001285063078 0)
(2.899433287 0.00108393765 0)
(2.900358118 0.002325995986 0)
(2.901106492 0.003034487956 0)
(2.901614352 0.003246477245 0)
(2.901900787 0.002774652501 0)
(2.902170065 0.00204535092 0)
(2.902613477 0.001601191472 0)
(2.902790865 0.0008899592035 0)
(2.902839841 0.0001010677225 0)
(2.90301057 -0.0001093968183 0)
(2.899276024 0.001845241492 0)
(2.899230964 0.0004181979102 0)
(2.899153636 -0.002393851817 0)
(2.898835287 -0.002357901164 0)
(2.897694757 -0.0007556234691 0)
(2.897370783 -0.0006497909977 0)
(2.897304855 -0.0009931878878 0)
(2.897853376 -0.0004852287364 0)
(2.898367855 0.0003753840325 0)
(2.898845149 0.001462635201 0)
(2.899118886 0.001969633503 0)
(2.899200535 0.001896369415 0)
(2.899345455 0.001216664158 0)
(2.899596756 0.0005955883394 0)
(2.899828598 0.0003734685626 0)
(2.899922479 3.054618468e-05 0)
(2.899752566 0.0001330131547 0)
(2.897274404 0.002332655143 0)
(2.897471816 0.0005003171115 0)
(2.897759569 -0.001673533917 0)
(2.897482327 -0.001044672819 0)
(2.896468774 0.0003578187491 0)
(2.895809538 -0.0001757130657 0)
(2.895506081 -0.0007920903753 0)
(2.895791489 -0.0006832697567 0)
(2.896256904 -0.0003987000956 0)
(2.896784065 0.0004670605755 0)
(2.896944844 0.001037107597 0)
(2.896841185 0.001237271809 0)
(2.896589084 0.0007882598758 0)
(2.896628152 7.154590388e-06 0)
(2.896931784 -0.000188651259 0)
(2.897089927 -0.0004058018119 0)
(2.896859568 -0.0004393711302 0)
(2.895019986 0.002712051376 0)
(2.895303643 0.000913273804 0)
(2.895621733 -0.0009004256747 0)
(2.895162471 -0.0002844799188 0)
(2.894626339 0.001762865809 0)
(2.894378325 0.001212003758 0)
(2.894032834 0.0005641259372 0)
(2.894015437 0.0003598135417 0)
(2.894042782 0.0001148349736 0)
(2.894357725 0.0003892637738 0)
(2.894475609 0.0008131541723 0)
(2.894237012 0.001155903222 0)
(2.893720672 0.0007825704137 0)
(2.893552369 8.617936728e-05 0)
(2.893760993 -0.0003058888068 0)
(2.893940326 -0.0005754737728 0)
(2.893800206 -0.001090049145 0)
(2.892387712 0.002906568063 0)
(2.892893154 0.001061760698 0)
(2.89321965 -0.0002672523266 0)
(2.892828994 0.000632107213 0)
(2.892195851 0.002722362018 0)
(2.892028893 0.002556920212 0)
(2.891874552 0.001899203532 0)
(2.891988305 0.001619708017 0)
(2.891924152 0.001368322143 0)
(2.891916809 0.001315646144 0)
(2.891765549 0.001422814796 0)
(2.891259793 0.001649481736 0)
(2.890759094 0.001489650367 0)
(2.890472922 0.0009169905402 0)
(2.890398788 5.147363714e-05 0)
(2.890391145 -0.0006142190977 0)
(2.89019184 -0.001691589275 0)
(2.88953013 0.002569897266 0)
(2.889967599 0.0007380164958 0)
(2.890319069 -9.568605601e-05 0)
(2.89013345 0.001435298132 0)
(2.889694179 0.003504482655 0)
(2.889231053 0.003545705704 0)
(2.889193019 0.002771044836 0)
(2.889390008 0.002426879202 0)
(2.889396789 0.002208761152 0)
(2.889161533 0.002051240761 0)
(2.888767439 0.002096767678 0)
(2.88811443 0.002277054886 0)
(2.88729631 0.002234324144 0)
(2.886757042 0.001841049418 0)
(2.886624957 0.0008469264832 0)
(2.886495958 -0.0002438065193 0)
(2.885974617 -0.001460839614 0)
(2.885596186 0.002243364288 0)
(2.885966444 0.0005003260471 0)
(2.886323353 9.72024544e-05 0)
(2.886103409 0.002028585221 0)
(2.885770066 0.004104120674 0)
(2.885636547 0.004004693653 0)
(2.885718095 0.003075307094 0)
(2.886091839 0.002662539381 0)
(2.886104375 0.002323149639 0)
(2.885674686 0.002284194632 0)
(2.885155175 0.002384038568 0)
(2.884384734 0.002496355985 0)
(2.883375519 0.002528337289 0)
(2.882607646 0.002133313305 0)
(2.881949766 0.001424924209 0)
(2.881600451 0.0005225128654 0)
(2.880438524 0.002174844627 0)
(2.880769294 0.000319759951 0)
(2.88100564 0.0002707812363 0)
(2.880596953 0.002689620289 0)
(2.880428072 0.004596249566 0)
(2.880569774 0.004247361595 0)
(2.880784164 0.00317082684 0)
(2.881116483 0.002610605631 0)
(2.881093284 0.002063582268 0)
(2.88078038 0.001922270678 0)
(2.880184315 0.001849009435 0)
(2.87931418 0.001762163525 0)
(2.878229716 0.001969346215 0)
(2.877579235 0.001900538 0)
(2.877006917 0.001434939885 0)
(2.876280653 0.0006231656056 0)
(2.874425449 0.002333282016 0)
(2.874816945 0.0003305727989 0)
(2.874784628 0.000346797557 0)
(2.874127003 0.003019741304 0)
(2.874027071 0.004766361475 0)
(2.874103318 0.004032830898 0)
(2.87431858 0.002434764571 0)
(2.874752973 0.001462292749 0)
(2.874833521 0.0005718769884 0)
(2.874714301 0.000285575511 0)
(2.874287224 5.708869231e-05 0)
(2.873502402 -0.0001203693907 0)
(2.872249159 8.178049123e-05 0)
(2.87149433 0.0004878453349 0)
(2.871170804 0.001060032482 0)
(2.870717871 0.001079483663 0)
(2.869219315 -0.004763909368 0)
(2.867548348 0.002073704628 0)
(2.867993507 5.852764123e-05 0)
(2.86766126 -8.281812593e-05 0)
(2.866975438 0.002594830369 0)
(2.866734108 0.003888264743 0)
(2.866764458 0.002998511217 0)
(2.867061253 0.0011581307 0)
(2.867788003 3.011189387e-05 0)
(2.868034559 -0.00100658397 0)
(2.868048332 -0.00110863675 0)
(2.867760612 -0.001090958099 0)
(2.866929829 -0.001182965852 0)
(2.865725826 -0.001148004358 0)
(2.865058251 -0.001117651711 0)
(2.864612048 -0.0003675340674 0)
(2.864562963 0.0009260311001 0)
(2.862044633 -0.005116936819 0)
(2.860386583 0.0008606544892 0)
(2.860601826 -0.001464470315 0)
(2.860288522 -0.001361962184 0)
(2.85971493 0.001580847199 0)
(2.859509379 0.002771500573 0)
(2.85970888 0.002018806556 0)
(2.859977124 0.0005440206475 0)
(2.860790162 -3.515067717e-05 0)
(2.861285676 -0.0009563875039 0)
(2.861305918 -0.001747015111 0)
(2.860889856 -0.00186257394 0)
(2.860266284 -0.001414099705 0)
(2.859373301 -0.001305546174 0)
(2.859038716 -0.001548995099 0)
(2.858809611 -0.001384365567 0)
(2.85887614 -0.0006319769254 0)
(2.855463337 -0.005145319041 0)
(2.853873385 5.812557775e-05 0)
(2.8539617 -0.002786477571 0)
(2.853925039 -0.002891001568 0)
(2.85335619 0.0002223206087 0)
(2.853441507 0.001746640486 0)
(2.853809516 0.001737688744 0)
(2.854079897 0.0002977998809 0)
(2.854884425 1.878980739e-05 0)
(2.855707653 -0.0006248617128 0)
(2.855998859 -0.001048550937 0)
(2.85581029 -0.001414853177 0)
(2.85510219 -0.001199107148 0)
(2.854502 -0.001087665672 0)
(2.8546491 -0.001096580841 0)
)
;

boundaryField
{
    inlet
    {
        type            fixedValue;
        value           nonuniform 0();
    }
    outlet
    {
        type            inletOutlet;
        inletValue      nonuniform 0();
        value           nonuniform 0();
    }
    bottom
    {
        type            slip;
    }
    top
    {
        type            slip;
    }
    obstacle
    {
        type            slip;
    }
    defaultFaces
    {
        type            empty;
    }
    procBoundary10to4
    {
        type            processor;
        value           nonuniform List<vector> 
17
(
(3.065240899 0.2254720297 0)
(3.067886887 0.2496065164 0)
(3.073594078 0.2630874522 0)
(3.075579618 0.2687130412 0)
(3.081542824 0.293070613 0)
(2.988374656 -0.02264294037 0)
(3.001691046 0.01657540982 0)
(3.011826101 0.04373678503 0)
(3.020935994 0.07381157811 0)
(3.030334649 0.1127521433 0)
(3.038018028 0.1373085792 0)
(3.043107033 0.1457208307 0)
(3.047404035 0.1752112311 0)
(3.05451976 0.2077174887 0)
(3.061249001 0.2259579849 0)
(3.069801611 0.2444240346 0)
(3.069801611 0.2444240346 0)
)
;
    }
    procBoundary10to5
    {
        type            processor;
        value           uniform (3.088443214 0.3179085481 0);
    }
    procBoundary10to9
    {
        type            processor;
        value           nonuniform List<vector> 
27
(
(2.989642524 -0.01802953362 0)
(3.007359598 0.03377192036 0)
(3.022387661 0.07866034308 0)
(3.04146479 0.1409194417 0)
(3.051808902 0.1861284425 0)
(3.060913471 0.2097631125 0)
(3.083445761 0.2901768178 0)
(3.088756961 0.3354647085 0)
(3.09199806 0.3623719159 0)
(3.097876169 0.4010923297 0)
(3.098427264 0.3945040479 0)
(3.093706844 0.3280678405 0)
(3.09193584 0.1644671331 0)
(3.031912604 0.04459647431 0)
(2.92777195 -0.0008775887119 0)
(2.909023093 0.004874269848 0)
(2.900272173 0.003402484407 0)
(2.894435056 0.00446558595 0)
(2.893766685 0.004697979519 0)
(2.89625716 0.004803653471 0)
(2.899821062 0.003949287794 0)
(2.901862803 0.002961144296 0)
(2.9013913 0.002115266226 0)
(2.9013913 0.002115266226 0)
(2.903054277 -0.01169246467 0)
(2.900268241 -0.01050913662 0)
(2.897395414 -0.009187506799 0)
)
;
    }
    procBoundary10to11
    {
        type            processor;
        value           nonuniform List<vector> 
34
(
(3.07785732 0.2883303342 0)
(3.041084217 0.1476020696 0)
(3.02064785 0.06553024618 0)
(3.00468209 0.001045058148 0)
(2.997530833 -0.009402146529 0)
(2.992403671 0.003499901097 0)
(2.990847919 0.007003547024 0)
(2.990624735 0.005487731993 0)
(2.992118524 0.002258424654 0)
(2.995134704 0.000509750933 0)
(2.997676141 0.000697478484 0)
(2.999854996 0.0009360400559 0)
(2.996956942 0.0003818027985 0)
(2.981405537 -0.00060518262 0)
(2.955512253 -0.0004921107035 0)
(2.939738568 -0.001192558387 0)
(2.936157823 -0.001839955754 0)
(2.930710343 -0.001555654304 0)
(2.923522355 -0.0002102719035 0)
(2.916332442 -0.0005106441895 0)
(2.910879476 3.765600335e-05 0)
(2.90657643 0.0003662278238 0)
(2.902823678 0.0009638845726 0)
(2.899404545 0.0007585059742 0)
(2.896563809 -0.0009924416959 0)
(2.89375477 -0.002386991885 0)
(2.889932449 -0.002713901543 0)
(2.885787844 -0.001862749757 0)
(2.881102625 -0.0004801859699 0)
(2.881102625 -0.0004801859699 0)
(2.875719701 0.0002605868248 0)
(2.869959824 0.001132464713 0)
(2.864171333 0.001814533474 0)
(2.858729149 0.0008831118383 0)
)
;
    }
    procBoundary10to15
    {
        type            processor;
        value           nonuniform List<vector> 9((2.894164898 -0.007685405046 0) (2.891097139 -0.00715622479 0) (2.887334577 -0.006647650903 0) (2.882284469 -0.006006208882 0) (2.876155003 -0.005222360807 0) (2.876155003 -0.005222360807 0) (2.870712946 0.002686310317 0) (2.864061105 0.002490622605 0) (2.857672537 0.002288555566 0));
    }
    procBoundary10to16
    {
        type            processor;
        value           nonuniform List<vector> 
18
(
(2.854650278 -0.001197207786 0)
(2.85470881 -0.001282765327 0)
(2.850552199 -0.004238371747 0)
(2.848655769 0.0003539133358 0)
(2.849025977 -0.002472102805 0)
(2.849456144 -0.003262403693 0)
(2.848987251 -0.0002871551289 0)
(2.849439516 0.001677384426 0)
(2.849751462 0.00142968107 0)
(2.850429264 0.0007150513366 0)
(2.851388903 0.0004728112583 0)
(2.852391302 -5.418014366e-07 0)
(2.852723496 -0.0001619534481 0)
(2.852695057 -0.0005984944321 0)
(2.852060847 -0.0006508879642 0)
(2.851713072 -0.0004706294379 0)
(2.854650278 -0.001197207786 0)
(2.851877837 -0.0002608197675 0)
)
;
    }
}


// ************************************************************************* //
