/*--------------------------------*- C++ -*----------------------------------*\
  =========                 |
  \\      /  F ield         | OpenFOAM: The Open Source CFD Toolbox
   \\    /   O peration     | Website:  https://openfoam.org
    \\  /    A nd           | Version:  7
     \\/     M anipulation  |
\*---------------------------------------------------------------------------*/
FoamFile
{
    version     2.0;
    format      ascii;
    class       volScalarField;
    location    "4.6";
    object      T;
}
// * * * * * * * * * * * * * * * * * * * * * * * * * * * * * * * * * * * * * //

dimensions      [0 0 0 1 0 0 0];

internalField   nonuniform List<scalar> 
22
(
1.000272872
1.002455282
1.012212238
1.029602989
1.002161521
1.009847622
1.023663786
1.034036392
1.025905174
1.03275843
1.035190904
1.03920109
1.038244103
1.032598045
1.040364933
1.033858409
1.015567095
1.034932527
1.011471238
0.9874946496
1.0067746
0.9793331305
)
;

boundaryField
{
    inlet
    {
        type            fixedValue;
        value           nonuniform 0();
    }
    outlet
    {
        type            inletOutlet;
        inletValue      nonuniform 0();
        value           nonuniform 0();
    }
    bottom
    {
        type            slip;
    }
    top
    {
        type            slip;
    }
    obstacle
    {
        type            zeroGradient;
    }
    defaultFaces
    {
        type            empty;
    }
    procBoundary4to3
    {
        type            processor;
        value           nonuniform List<scalar> 6(1.000010365 1.000158912 1.009741355 1.009741355 1.025268207 1.040392345);
    }
    procBoundary4to5
    {
        type            processor;
        value           nonuniform List<scalar> 6(1.048065712 1.043074585 1.032355285 1.018170992 0.9945179978 0.9802107528);
    }
    procBoundary4to9
    {
        type            processor;
        value           nonuniform List<scalar> 2(1.047420077 1.038797868);
    }
    procBoundary4to10
    {
        type            processor;
        value           nonuniform List<scalar> 4(0.9708944403 0.9774894511 0.9708944403 0.974386714);
    }
}


// ************************************************************************* //
