/*--------------------------------*- C++ -*----------------------------------*\
  =========                 |
  \\      /  F ield         | OpenFOAM: The Open Source CFD Toolbox
   \\    /   O peration     | Website:  https://openfoam.org
    \\  /    A nd           | Version:  7
     \\/     M anipulation  |
\*---------------------------------------------------------------------------*/
FoamFile
{
    version     2.0;
    format      ascii;
    class       volVectorField;
    location    "3.8";
    object      U;
}
// * * * * * * * * * * * * * * * * * * * * * * * * * * * * * * * * * * * * * //

dimensions      [0 1 -1 0 0 0 0];

internalField   nonuniform List<vector> 
22
(
(2.999995492 -8.125497563e-06 0)
(2.999982349 -3.098587705e-05 0)
(2.999925178 -0.0001480980701 0)
(2.999809757 -0.0003775943522 0)
(2.999341876 -0.001284869175 0)
(2.998498417 -0.003167321078 0)
(2.996993559 -0.006736786733 0)
(2.994758322 -0.01254592192 0)
(2.991598308 -0.02130956576 0)
(2.987486441 -0.0333505492 0)
(2.983709667 -0.04710130703 0)
(2.98244473 -0.03478946522 0)
(2.973587311 -0.05658852363 0)
(2.963216856 -0.08278486141 0)
(2.953342542 -0.1111198641 0)
(2.940836701 -0.1447038984 0)
(2.931972983 -0.1720487677 0)
(2.914078034 -0.2224952096 0)
(2.917043485 -0.0726886106 0)
(2.904773383 -0.09799996484 0)
(2.900471506 -0.1075295013 0)
(2.887004478 -0.1372623013 0)
)
;

boundaryField
{
    inlet
    {
        type            fixedValue;
        value           nonuniform 0();
    }
    outlet
    {
        type            inletOutlet;
        inletValue      nonuniform 0();
        value           nonuniform 0();
    }
    bottom
    {
        type            slip;
    }
    top
    {
        type            slip;
    }
    obstacle
    {
        type            slip;
    }
    defaultFaces
    {
        type            empty;
    }
    procBoundary14to7
    {
        type            processor;
        value           uniform (2.99999956 -5.961044716e-07 0);
    }
    procBoundary14to8
    {
        type            processor;
        value           nonuniform List<vector> 8((3.000000015 1.291226077e-08 0) (2.999999987 -3.263068996e-08 0) (2.999999862 -1.640943876e-07 0) (2.999998956 -1.729767688e-06 0) (2.99944435 -0.00120440096 0) (2.99944435 -0.00120440096 0) (2.998874529 -0.002553077382 0) (2.997978285 -0.004628289561 0));
    }
    procBoundary14to9
    {
        type            processor;
        value           nonuniform List<vector> 3((2.948111684 -0.1226560609 0) (2.917981106 -0.2056443027 0) (2.947090894 -0.06571014754 0));
    }
    procBoundary14to13
    {
        type            processor;
        value           nonuniform List<vector> 2((2.999781343 -0.0004004280451 0) (2.989855404 -0.01881328717 0));
    }
    procBoundary14to20
    {
        type            processor;
        value           nonuniform List<vector> 4((2.946388575 -0.03522019199 0) (2.936932928 -0.03938574702 0) (2.923741019 -0.06514894878 0) (2.923741019 -0.06514894878 0));
    }
}


// ************************************************************************* //
