/*--------------------------------*- C++ -*----------------------------------*\
  =========                 |
  \\      /  F ield         | OpenFOAM: The Open Source CFD Toolbox
   \\    /   O peration     | Website:  https://openfoam.org
    \\  /    A nd           | Version:  7
     \\/     M anipulation  |
\*---------------------------------------------------------------------------*/
FoamFile
{
    version     2.0;
    format      ascii;
    class       volScalarField;
    location    "4.4";
    object      T;
}
// * * * * * * * * * * * * * * * * * * * * * * * * * * * * * * * * * * * * * //

dimensions      [0 0 0 1 0 0 0];

internalField   nonuniform List<scalar> 
80000
(
1
1
1
1
1
1
1
1
1
1
1
1
1
1
1
1
1
1
1
1
1
1
1
1
1
1
1
1
1
1
1
1
1
1
1
1
1
1
1
1
1
1
1
1
1
1
1
1
1
1
1
1
1
1
1
1
1
1
1
1
1
1
1
1
1
1
1
1
1
1
1
1
1
1
1
1
1
1.623382743
2.597720083
2.704425712
2.703950338
2.703164421
2.701531334
2.699302493
2.696805618
2.694335547
2.692051784
2.689919094
2.687895238
2.686004863
2.684337246
2.682973563
2.681936835
2.681206888
2.680694378
2.680291963
2.679898928
2.679451169
2.67890256
2.67825972
1
1
1
1
1
1
1
1
1
1
1
1
1
1
1
1
1
1
1
1
1
1
1
1
1
1
1
1
1
1
1
1
1
1
1
1
1
1
1
1
1
1
1
1
1
1
1
1
1
1
1
1
1
1
1
1
1
1
1
1
1
1
1
1
1
1
1
1
1
1
1
1
1
1
1
1
1
1.623943846
2.598037159
2.704415616
2.703850014
2.703024313
2.701402643
2.699222689
2.696802913
2.694375469
2.692096491
2.689948777
2.687900265
2.685994527
2.684335433
2.683015526
2.682051464
2.681392986
2.680925898
2.680531348
2.680109872
2.679605226
2.678985646
2.678279379
1
1
1
1
1
1
1
1
1
1
1
1
1
1
1
1
1
1
1
1
1
1
1
1
1
1
1
1
1
1
1
1
1
1
1
1
1
1
1
1
1
1
1
1
1
1
1
1
1
1
1
1
1
1
1
1
1
1
1
1
1
1
1
1
1
1
1
1
1
1
1
1
1
1
1
1
1
1.624478131
2.598543855
2.704263522
2.703551493
2.702698021
2.701147639
2.699123124
2.696867847
2.694527899
2.692250469
2.690053318
2.687940339
2.68599271
2.684341837
2.683096444
2.682240819
2.681677531
2.681260201
2.680858632
2.680376754
2.679774083
2.679045516
2.678251798
1
1
1
1
1
1
1
1
1
1
1
1
1
1
1
1
1
1
1
1
1
1
1
1
1
1
1
1
1
1
1
1
1
1
1
1
1
1
1
1
1
1
1
1
1
1
1
1
1
1
1
1
1
1
1
1
1
1
1
1
1
1
1
1
1
1
1
1
1
1
1
1
1
1
1
1
1
1.624954483
2.599184865
2.703934928
2.703034011
2.702152557
2.700735144
2.69897901
2.696978752
2.694795319
2.692534927
2.690265673
2.688055678
2.686043239
2.684408138
2.683260719
2.682528368
2.682065598
2.681692443
2.681267758
2.68070063
2.679973375
2.679115134
2.678219875
1
1
1
1
1
1
1
1
1
1
1
1
1
1
1
1
1
1
1
1
1
1
1
1
1
1
1
1
1
1
1
1
1
1
1
1
1
1
1
1
1
1
1
1
1
1
1
1
1
1
1
1
1
1
1
1
1
1
1
1
1
1
1
1
1
1
1
1
1
1
1
1
1
1
1
1
1
1.625511436
2.599863861
2.703492712
2.702379214
2.701478673
2.700226357
2.698802602
2.697119467
2.695146428
2.692924139
2.690577548
2.688255888
2.686178297
2.684577397
2.683532332
2.682912227
2.682524726
2.682165777
2.681689569
2.681014511
2.680149915
2.679158115
2.678159304
1
1
1
1
1
1
1
1
1
1
1
1
1
1
1
1
1
1
1
1
1
1
1
1
1
1
1
1
1
1
1
1
1
1
1
1
1
1
1
1
1
1
1
1
1
1
1
1
1
1
1
1
1
1
1
1
1
1
1
1
1
1
1
1
1
1
1
1
1
1
1
1
1
1
1
1
1
1.625803462
2.600403859
2.703021562
2.701706544
2.700795476
2.699717484
2.698618238
2.697249234
2.695491543
2.69333077
2.690938055
2.688537712
2.686423945
2.684873411
2.683916741
2.683373005
2.683011742
2.682622078
2.682062148
2.681268562
2.680277882
2.679178059
2.67810023
1
1
1
1
1
1
1
1
1
1
1
1
1
1
1
1
1
1
1
1
1
1
1
1
1
1
1
1
1
1
1
1
1
1
1
1
1
1
1
1
1
1
1
1
1
1
1
1
1
1
1
1
1
1
1
1
1
1
1
1
1
1
1
1
1
1
1
1
1
1
1
1
1
1
1
1
1
1.625784427
2.600661546
2.702520742
2.70106609
2.700174603
2.699279
2.698434317
2.697344641
2.695787664
2.693703946
2.691313783
2.68890225
2.686796909
2.685292061
2.68439132
2.68387469
2.683487492
2.683026167
2.682360152
2.681455134
2.680369793
2.679202488
2.678078371
1
1
1
1
1
1
1
1
1
1
1
1
1
1
1
1
1
1
1
1
1
1
1
1
1
1
1
1
1
1
1
1
1
1
1
1
1
1
1
1
1
1
1
1
1
1
1
1
1
1
1
1
1
1
1
1
1
1
1
1
1
1
1
1
1
1
1
1
1
1
1
1
1
1
1
1
1
1.625147948
2.600485287
2.702011619
2.700523598
2.699686728
2.698973883
2.698298148
2.697410419
2.696025997
2.69401308
2.691701197
2.689328836
2.687283257
2.685794591
2.684901216
2.684356807
2.68389376
2.68332793
2.682553596
2.681572159
2.680447594
2.679269984
2.678146481
1
1
1
1
1
1
1
1
1
1
1
1
1
1
1
1
1
1
1
1
1
1
1
1
1
1
1
1
1
1
1
1
1
1
1
1
1
1
1
1
1
1
1
1
1
1
1
1
1
1
1
1
1
1
1
1
1
1
1
1
1
1
1
1
1
1
1
1
1
1
1
1
1
1
1
1
1
1.623851012
2.599816182
2.701564049
2.700157099
2.699398259
2.698836709
2.69827412
2.697518221
2.696253789
2.694316512
2.692111513
2.68980987
2.68780985
2.686331743
2.68536966
2.684730772
2.684147585
2.683469625
2.682628611
2.681639461
2.680545679
2.679425337
2.678364479
1
1
1
1
1
1
1
1
1
1
1
1
1
1
1
1
1
1
1
1
1
1
1
1
1
1
1
1
1
1
1
1
1
1
1
1
1
1
1
1
1
1
1
1
1
1
1
1
1
1
1
1
1
1
1
1
1
1
1
1
1
1
1
1
1
1
1
1
1
1
1
1
1
1
1
1
1
1.622280191
2.598698883
2.701123328
2.699919478
2.699302383
2.698834693
2.698353034
2.697691059
2.6965266
2.694679971
2.692575671
2.690335781
2.688338713
2.686840189
2.685724641
2.68491501
2.684210038
2.683467089
2.682621846
2.681689978
2.68069544
2.679700278
2.67875997
1
1
1
1
1
1
1
1
1
1
1
1
1
1
1
1
1
1
1
1
1
1
1
1
1
1
1
1
1
1
1
1
1
1
1
1
1
1
1
1
1
1
1
1
1
1
1
1
1
1
1
1
1
1
1
1
1
1
1
1
1
1
1
1
1
1
1
1
1
1
1
1
1
1
1
1
1
1.620529734
2.597220867
2.700651116
2.699730325
2.699269148
2.698923061
2.698526561
2.697902536
2.696809474
2.695080309
2.693068534
2.690892956
2.688874945
2.687278384
2.685956457
2.684926373
2.684100113
2.683332859
2.682541321
2.681737521
2.680917904
2.68011334
2.679340288
1
1
1
1
1
1
1
1
1
1
1
1
1
1
1
1
1
1
1
1
1
1
1
1
1
1
1
1
1
1
1
1
1
1
1
1
1
1
1
1
1
1
1
1
1
1
1
1
1
1
1
1
1
1
1
1
1
1
1
1
1
1
1
1
1
1
1
1
1
1
1
1
1
1
1
1
1
1.618661997
2.595581965
2.70016623
2.699575111
2.699347284
2.699102403
2.698748271
2.698133924
2.697090643
2.69550076
2.693585487
2.691494482
2.689434523
2.687655033
2.686107476
2.684819839
2.683834528
2.683048003
2.682368359
2.681770855
2.681201409
2.680646654
2.680078278
1
1
1
1
1
1
1
1
1
1
1
1
1
1
1
1
1
1
1
1
1
1
1
1
1
1
1
1
1
1
1
1
1
1
1
1
1
1
1
1
1
1
1
1
1
1
1
1
1
1
1
1
1
1
1
1
1
1
1
1
1
1
1
1
1
1
1
1
1
1
1
1
1
1
1
1
1
1.616997591
2.593951953
2.699651569
2.699451641
2.699481665
2.699333356
2.698980986
2.698345318
2.697350126
2.69590408
2.694101756
2.692122037
2.690029844
2.688052419
2.686257815
2.6846767
2.683487657
2.682655784
2.682101729
2.681759157
2.681491285
2.681232936
2.680901724
1
1
1
1
1
1
1
1
1
1
1
1
1
1
1
1
1
1
1
1
1
1
1
1
1
1
1
1
1
1
1
1
1
1
1
1
1
1
1
1
1
1
1
1
1
1
1
1
1
1
1
1
1
1
1
1
1
1
1
1
1
1
1
1
1
1
1
1
1
1
1
1
1
1
1
1
1
1.615959135
2.592598652
2.699033532
2.699395833
2.699664086
2.699534936
2.699161573
2.698508739
2.697570748
2.696270136
2.69461462
2.692760851
2.690668985
2.688523687
2.686483393
2.684623434
2.683222093
2.682278829
2.68179648
2.681703867
2.681734395
2.681774624
2.6816891
1
1
1
1
1
1
1
1
1
1
1
1
1
1
1
1
1
1
1
1
1
1
1
1
1
1
1
1
1
1
1
1
1
1
1
1
1
1
1
1
1
1
1
1
1
1
1
1
1
1
1
1
1
1
1
1
1
1
1
1
1
1
1
1
1
1
1
1
1
1
1
1
1
1
1
1
1
1.615905368
2.591692616
2.698415628
2.699333851
2.699761689
2.69964347
2.699279949
2.69864324
2.697766156
2.69660061
2.695132198
2.693388606
2.691347312
2.689108475
2.68686531
2.684765982
2.683162115
2.682095972
2.681592404
2.681654885
2.681885699
2.682177514
2.682298375
1
1
1
1
1
1
1
1
1
1
1
1
1
1
1
1
1
1
1
1
1
1
1
1
1
1
1
1
1
1
1
1
1
1
1
1
1
1
1
1
1
1
1
1
1
1
1
1
1
1
1
1
1
1
1
1
1
1
1
1
1
1
1
1
1
1
1
1
1
1
1
1
1
1
1
1
1
1.617028816
2.591331459
2.697921167
2.699192824
2.699718282
2.69964073
2.699337071
2.69876613
2.697962518
2.696924641
2.695620013
2.694004491
2.692051791
2.689813496
2.687441634
2.685173234
2.683360501
2.682141834
2.681546616
2.681637482
2.681944331
2.682352371
2.682622739
1
1
1
1
1
1
1
1
1
1
1
1
1
1
1
1
1
1
1
1
1
1
1
1
1
1
1
1
1
1
1
1
1
1
1
1
1
1
1
1
1
1
1
1
1
1
1
1
1
1
1
1
1
1
1
1
1
1
1
1
1
1
1
1
1
1
1
1
1
1
1
1
1
1
1
1
1
1.619383647
2.591608957
2.697565598
2.698968296
2.699531464
2.699520781
2.699321697
2.698863984
2.698163701
2.697251463
2.696083843
2.694614842
2.692776801
2.690616167
2.688220065
2.685862752
2.683855669
2.68242607
2.681645571
2.681674045
2.681926796
2.682328165
2.682660062
1
1
1
1
1
1
1
1
1
1
1
1
1
1
1
1
1
1
1
1
1
1
1
1
1
1
1
1
1
1
1
1
1
1
1
1
1
1
1
1
1
1
1
1
1
1
1
1
1
1
1
1
1
1
1
1
1
1
1
1
1
1
1
1
1
1
1
1
1
1
1
1
1
1
1
1
1
1.622684618
2.592561967
2.697353103
2.698689731
2.699213078
2.699307374
2.699216793
2.698921021
2.698368049
2.697587755
2.696546382
2.695212441
2.69351212
2.691478836
2.689155279
2.686790689
2.684639655
2.682962369
2.68193533
2.681745514
2.681866142
2.682154017
2.682465925
1
1
1
1
1
1
1
1
1
1
1
1
1
1
1
1
1
1
1
1
1
1
1
1
1
1
1
1
1
1
1
1
1
1
1
1
1
1
1
1
1
1
1
1
1
1
1
1
1
1
1
1
1
1
1
1
1
1
1
1
1
1
1
1
1
1
1
1
1
1
1
1
1
1
1
1
1
1.626597832
2.594051653
2.697186576
2.698384488
2.698824005
2.699017579
2.69904376
2.698938583
2.698578672
2.697947398
2.697031786
2.695817576
2.694248747
2.69237171
2.690179502
2.687868347
2.68563001
2.683746322
2.682481673
2.681884348
2.68181092
2.681900544
2.682135893
1
1
1
1
1
1
1
1
1
1
1
1
1
1
1
1
1
1
1
1
1
1
1
1
1
1
1
1
1
1
1
1
1
1
1
1
1
1
1
1
1
1
1
1
1
1
1
1
1
1
1
1
1
1
1
1
1
1
1
1
1
1
1
1
1
1
1
1
1
1
1
1
1
1
1
1
1
1.63113204
2.595826991
2.697428042
2.697948988
2.698320564
2.69863249
2.698860674
2.698939101
2.698787682
2.698329694
2.697539732
2.696429285
2.694966503
2.69324246
2.691207326
2.688989109
2.686709459
2.684694021
2.683242666
2.682235406
2.681810231
2.681737128
2.681867812
1
1
1
1
1
1
1
1
1
1
1
1
1
1
1
1
1
1
1
1
1
1
1
1
1
1
1
1
1
1
1
1
1
1
1
1
1
1
1
1
1
1
1
1
1
1
1
1
1
1
1
1
1
1
1
1
1
1
1
1
1
1
1
1
1
1
1
1
1
1
1
1
1
1
1
1
1
1.636067075
2.59768331
2.697599995
2.697539397
2.697899714
2.698276665
2.698716044
2.698990367
2.69898796
2.698703296
2.69803001
2.697015382
2.695645206
2.69405224
2.692168686
2.690062084
2.687782914
2.685717251
2.684150627
2.682820443
2.682028982
2.681724917
2.681806751
1
1
1
1
1
1
1
1
1
1
1
1
1
1
1
1
1
1
1
1
1
1
1
1
1
1
1
1
1
1
1
1
1
1
1
1
1
1
1
1
1
1
1
1
1
1
1
1
1
1
1
1
1
1
1
1
1
1
1
1
1
1
1
1
1
1
1
1
1
1
1
1
1
1
1
1
1
1.641096527
2.599511135
2.697582675
2.697341352
2.697662962
2.698110813
2.698629646
2.699074984
2.699236102
2.699037943
2.698454034
2.697526397
2.696257197
2.694761207
2.693010823
2.691015855
2.688769788
2.686730736
2.685127593
2.683592642
2.682541498
2.682020682
2.682082743
1
1
1
1
1
1
1
1
1
1
1
1
1
1
1
1
1
1
1
1
1
1
1
1
1
1
1
1
1
1
1
1
1
1
1
1
1
1
1
1
1
1
1
1
1
1
1
1
1
1
1
1
1
1
1
1
1
1
1
1
1
1
1
1
1
1
1
1
1
1
1
1
1
1
1
1
1
1.646058288
2.601293401
2.697629004
2.697365126
2.697589471
2.698056014
2.698660699
2.699190335
2.699487019
2.699330747
2.698815611
2.697968631
2.696788708
2.695369503
2.693718181
2.691804801
2.689618877
2.687673135
2.686069964
2.684482987
2.683331979
2.68275498
2.682852501
1
1
1
1
1
1
1
1
1
1
1
1
1
1
1
1
1
1
1
1
1
1
1
1
1
1
1
1
1
1
1
1
1
1
1
1
1
1
1
1
1
1
1
1
1
1
1
1
1
1
1
1
1
1
1
1
1
1
1
1
1
1
1
1
1
1
1
1
1
1
1
1
1
1
1
1
1
1.650891759
2.602988361
2.697836389
2.697548615
2.697712955
2.698142483
2.69874716
2.699360463
2.699700849
2.699579382
2.699130217
2.698367797
2.69725913
2.695898776
2.694298161
2.692421268
2.690318061
2.688503844
2.686931557
2.68540732
2.684319086
2.683843597
2.684032183
1
1
1
1
1
1
1
1
1
1
1
1
1
1
1
1
1
1
1
1
1
1
1
1
1
1
1
1
1
1
1
1
1
1
1
1
1
1
1
1
1
1
1
1
1
1
1
1
1
1
1
1
1
1
1
1
1
1
1
1
1
1
1
1
1
1
1
1
1
1
1
1
1
1
1
1
1
1.655403958
2.604538946
2.698215463
2.697913037
2.698052295
2.698406984
2.698952412
2.69953298
2.699869629
2.699780021
2.699406816
2.69873052
2.69769189
2.696389765
2.694796702
2.692904857
2.690871458
2.689197381
2.687667748
2.686289833
2.68538544
2.685141677
2.685464303
1
1
1
1
1
1
1
1
1
1
1
1
1
1
1
1
1
1
1
1
1
1
1
1
1
1
1
1
1
1
1
1
1
1
1
1
1
1
1
1
1
1
1
1
1
1
1
1
1
1
1
1
1
1
1
1
1
1
1
1
1
1
1
1
1
1
1
1
1
1
1
1
1
1
1
1
1
1.659465012
2.605879666
2.698708688
2.698439302
2.698540715
2.698830909
2.699272502
2.699742342
2.700028527
2.699941151
2.699643026
2.699053496
2.698104959
2.696870083
2.695275731
2.693336405
2.691334578
2.689779032
2.688277285
2.68709545
2.686442976
2.686460444
2.686972163
1
1
1
1
1
1
1
1
1
1
1
1
1
1
1
1
1
1
1
1
1
1
1
1
1
1
1
1
1
1
1
1
1
1
1
1
1
1
1
1
1
1
1
1
1
1
1
1
1
1
1
1
1
1
1
1
1
1
1
1
1
1
1
1
1
1
1
1
1
1
1
1
1
1
1
1
1
1.663222742
2.607018432
2.699247118
2.699045958
2.699118704
2.699339666
2.699674401
2.699964623
2.700149707
2.700065114
2.699807695
2.699316279
2.69850441
2.697362476
2.69580146
2.693809199
2.691812465
2.690317876
2.68878819
2.687813352
2.687438383
2.687658643
2.688404325
1
1
1
1
1
1
1
1
1
1
1
1
1
1
1
1
1
1
1
1
1
1
1
1
1
1
1
1
1
1
1
1
1
1
1
1
1
1
1
1
1
1
1
1
1
1
1
1
1
1
1
1
1
1
1
1
1
1
1
1
1
1
1
1
1
1
1
1
1
1
1
1
1
1
1
1
1
1.666949073
2.608087
2.699755205
2.699603275
2.699743976
2.699928882
2.700105168
2.700192764
2.700231337
2.700130916
2.699881302
2.699494509
2.698875057
2.69788836
2.696438018
2.69443894
2.6924332
2.690873811
2.689279767
2.688461881
2.688335177
2.688713271
2.689629045
1
1
1
1
1
1
1
1
1
1
1
1
1
1
1
1
1
1
1
1
1
1
1
1
1
1
1
1
1
1
1
1
1
1
1
1
1
1
1
1
1
1
1
1
1
1
1
1
1
1
1
1
1
1
1
1
1
1
1
1
1
1
1
1
1
1
1
1
1
1
1
1
1
1
1
1
1
1.670667883
2.609126662
2.700222855
2.700241794
2.70043117
2.700550767
2.700528463
2.70040224
2.700279504
2.700096237
2.699859778
2.699576577
2.699187796
2.698436856
2.697178593
2.695292068
2.693285279
2.691500589
2.689888115
2.689118298
2.689121636
2.689599861
2.690580219
1
1
1
1
1
1
1
1
1
1
1
1
1
1
1
1
1
1
1
1
1
1
1
1
1
1
1
1
1
1
1
1
1
1
1
1
1
1
1
1
1
1
1
1
1
1
1
1
1
1
1
1
1
1
1
1
1
1
1
1
1
1
1
1
1
1
1
1
1
1
1
1
1
1
1
1
1
1.674549694
2.610198402
2.7005941
2.700986418
2.701179256
2.701141854
2.700940922
2.700565682
2.700268693
2.699973648
2.699753926
2.699582064
2.699438508
2.69897704
2.697977046
2.696335002
2.694348207
2.692377364
2.690671964
2.689846048
2.689855424
2.690342715
2.691268983
1
1
1
1
1
1
1
1
1
1
1
1
1
1
1
1
1
1
1
1
1
1
1
1
1
1
1
1
1
1
1
1
1
1
1
1
1
1
1
1
1
1
1
1
1
1
1
1
1
1
1
1
1
1
1
1
1
1
1
1
1
1
1
1
1
1
1
1
1
1
1
1
1
1
1
1
1
1.678875632
2.611560334
2.701237292
2.701756746
2.701830275
2.701665088
2.701257827
2.7006703
2.700188048
2.699770531
2.699585224
2.69956765
2.699657436
2.699446607
2.698776965
2.697435612
2.695567934
2.693508688
2.691677903
2.690689267
2.690602271
2.690997804
2.691764969
1
1
1
1
1
1
1
1
1
1
1
1
1
1
1
1
1
1
1
1
1
1
1
1
1
1
1
1
1
1
1
1
1
1
1
1
1
1
1
1
1
1
1
1
1
1
1
1
1
1
1
1
1
1
1
1
1
1
1
1
1
1
1
1
1
1
1
1
1
1
1
1
1
1
1
1
1
1.683727584
2.613199938
2.702107018
2.702501337
2.702400947
2.702071541
2.7014991
2.700747721
2.700061446
2.699524056
2.699430528
2.699535125
2.699842924
2.699841724
2.699503915
2.698489102
2.696837514
2.69481152
2.692898637
2.691693898
2.691372193
2.691621001
2.692154566
1
1
1
1
1
1
1
1
1
1
1
1
1
1
1
1
1
1
1
1
1
1
1
1
1
1
1
1
1
1
1
1
1
1
1
1
1
1
1
1
1
1
1
1
1
1
1
1
1
1
1
1
1
1
1
1
1
1
1
1
1
1
1
1
1
1
1
1
1
1
1
1
1
1
1
1
1
1.688920667
2.615085425
2.702979533
2.703073689
2.702851669
2.702384338
2.701702852
2.700799277
2.699949473
2.699344716
2.69932678
2.699573178
2.699994216
2.700281865
2.700130249
2.699417525
2.698049854
2.696164472
2.694245803
2.692854929
2.692229469
2.692261959
2.692504156
1
1
1
1
1
1
1
1
1
1
1
1
1
1
1
1
1
1
1
1
1
1
1
1
1
1
1
1
1
1
1
1
1
1
1
1
1
1
1
1
1
1
1
1
1
1
1
1
1
1
1
1
1
1
1
1
1
1
1
1
1
1
1
1
1
1
1
1
1
1
1
1
1
1
1
1
1
1.694283808
2.617213648
2.7035936
2.703539424
2.703216323
2.702654831
2.701870927
2.700851729
2.699909452
2.699289583
2.699364043
2.699680004
2.700223964
2.700696966
2.700683872
2.700219043
2.69913941
2.697468028
2.695621562
2.694124822
2.693215648
2.692897186
2.692855411
1
1
1
1
1
1
1
1
1
1
1
1
1
1
1
1
1
1
1
1
1
1
1
1
1
1
1
1
1
1
1
1
1
1
1
1
1
1
1
1
1
1
1
1
1
1
1
1
1
1
1
1
1
1
1
1
1
1
1
1
1
1
1
1
1
1
1
1
1
1
1
1
1
1
1
1
1
1.69976545
2.619469369
2.704076645
2.703916105
2.703543627
2.702890056
2.702028532
2.700957491
2.700003989
2.699389603
2.699477037
2.699847546
2.700511193
2.701087579
2.701196749
2.700910628
2.700095685
2.698673227
2.696953389
2.695407998
2.694291156
2.693623784
2.693234447
1
1
1
1
1
1
1
1
1
1
1
1
1
1
1
1
1
1
1
1
1
1
1
1
1
1
1
1
1
1
1
1
1
1
1
1
1
1
1
1
1
1
1
1
1
1
1
1
1
1
1
1
1
1
1
1
1
1
1
1
1
1
1
1
1
1
1
1
1
1
1
1
1
1
1
1
1
1.705407323
2.621849336
2.704511769
2.704231773
2.703820428
2.703100991
2.702220804
2.701168024
2.700261031
2.699751444
2.699736342
2.700148926
2.700838214
2.701489173
2.701657687
2.701514772
2.700927213
2.699765013
2.698200835
2.696620853
2.695358632
2.694438715
2.693751885
1
1
1
1
1
1
1
1
1
1
1
1
1
1
1
1
1
1
1
1
1
1
1
1
1
1
1
1
1
1
1
1
1
1
1
1
1
1
1
1
1
1
1
1
1
1
1
1
1
1
1
1
1
1
1
1
1
1
1
1
1
1
1
1
1
1
1
1
1
1
1
1
1
1
1
1
1
1.711050711
2.624341362
2.704925636
2.70448957
2.704049477
2.703298273
2.70243864
2.701460838
2.700691347
2.700216501
2.700189879
2.700556776
2.701267137
2.701957766
2.702144911
2.702077211
2.701682681
2.700760806
2.699368385
2.697745781
2.69635925
2.695298046
2.6943956
1
1
1
1
1
1
1
1
1
1
1
1
1
1
1
1
1
1
1
1
1
1
1
1
1
1
1
1
1
1
1
1
1
1
1
1
1
1
1
1
1
1
1
1
1
1
1
1
1
1
1
1
1
1
1
1
1
1
1
1
1
1
1
1
1
1
1
1
1
1
1
1
1
1
1
1
1
1.716725468
2.626927497
2.705266415
2.704682109
2.704241954
2.703476242
2.7026459
2.701789766
2.70118838
2.700785317
2.700825207
2.701123097
2.701830681
2.702513466
2.702681423
2.702635277
2.702391936
2.70165813
2.700421288
2.69880201
2.697287998
2.696128685
2.695116105
1
1
1
1
1
1
1
1
1
1
1
1
1
1
1
1
1
1
1
1
1
1
1
1
1
1
1
1
1
1
1
1
1
1
1
1
1
1
1
1
1
1
1
1
1
1
1
1
1
1
1
1
1
1
1
1
1
1
1
1
1
1
1
1
1
1
1
1
1
1
1
1
1
1
1
1
1
1.72224945
2.629477718
2.705528944
2.70484702
2.70438621
2.703570077
2.702759628
2.70210528
2.701621759
2.701393845
2.701591994
2.701864901
2.702538767
2.703157549
2.703292686
2.703239387
2.703085521
2.702479092
2.701361712
2.699790861
2.69817723
2.696902839
2.695872868
1
1
1
1
1
1
1
1
1
1
1
1
1
1
1
1
1
1
1
1
1
1
1
1
1
1
1
1
1
1
1
1
1
1
1
1
1
1
1
1
1
1
1
1
1
1
1
1
1
1
1
1
1
1
1
1
1
1
1
1
1
1
1
1
1
1
1
1
1
1
1
1
1
1
1
1
1
1.727048592
2.631856902
2.705764146
2.70497773
2.70444567
2.703509922
2.70274953
2.702324503
2.701963433
2.701998871
2.702422474
2.702761289
2.70337765
2.703876174
2.70396675
2.703895323
2.703783991
2.703252966
2.702216177
2.700690405
2.699018991
2.697634902
2.696620609
1
1
1
1
1
1
1
1
1
1
1
1
1
1
1
1
1
1
1
1
1
1
1
1
1
1
1
1
1
1
1
1
1
1
1
1
1
1
1
1
1
1
1
1
1
1
1
1
1
1
1
1
1
1
1
1
1
1
1
1
1
1
1
1
1
1
1
1
1
1
1
1
1
1
1
1
1
1.730888401
2.634065523
2.705989404
2.705024203
2.70436441
2.703296228
2.702706441
2.702414766
2.70231431
2.702645321
2.703304597
2.703761015
2.70429319
2.704645415
2.704702635
2.704612504
2.704507169
2.704011374
2.703023391
2.701517881
2.69981828
2.698363383
2.697312447
1
1
1
1
1
1
1
1
1
1
1
1
1
1
1
1
1
1
1
1
1
1
1
1
1
1
1
1
1
1
1
1
1
1
1
1
1
1
1
1
1
1
1
1
1
1
1
1
1
1
1
1
1
1
1
1
1
1
1
1
1
1
1
1
1
1
1
1
1
1
1
1
1
1
1
1
1
1.733951862
2.63621288
2.706178478
2.704969485
2.70411056
2.702972938
2.70266993
2.702498144
2.702736453
2.703470888
2.70431282
2.704820369
2.705236272
2.705435883
2.705462452
2.705386152
2.705272855
2.704785753
2.703810092
2.702291992
2.700566297
2.699075668
2.697949219
1
1
1
1
1
1
1
1
1
1
1
1
1
1
1
1
1
1
1
1
1
1
1
1
1
1
1
1
1
1
1
1
1
1
1
1
1
1
1
1
1
1
1
1
1
1
1
1
1
1
1
1
1
1
1
1
1
1
1
1
1
1
1
1
1
1
1
1
1
1
1
1
1
1
1
1
1
1.736479345
2.638218411
2.706293352
2.704793755
2.703756551
2.702708703
2.702625859
2.702690691
2.703360927
2.704479549
2.705417254
2.705864328
2.706144531
2.706219796
2.706215039
2.706185053
2.706064611
2.70558787
2.704605611
2.703042874
2.701272366
2.699764933
2.698564364
1
1
1
1
1
1
1
1
1
1
1
1
1
1
1
1
1
1
1
1
1
1
1
1
1
1
1
1
1
1
1
1
1
1
1
1
1
1
1
1
1
1
1
1
1
1
1
1
1
1
1
1
1
1
1
1
1
1
1
1
1
1
1
1
1
1
1
1
1
1
1
1
1
1
1
1
1
1.738463819
2.639869126
2.706339329
2.704560607
2.703417609
2.70255783
2.702577985
2.703025176
2.704181605
2.705569324
2.706542871
2.706861898
2.707005157
2.707001736
2.706992652
2.707001733
2.706861542
2.706390896
2.705414805
2.703774557
2.701964189
2.700452378
2.699211665
1
1
1
1
1
1
1
1
1
1
1
1
1
1
1
1
1
1
1
1
1
1
1
1
1
1
1
1
1
1
1
1
1
1
1
1
1
1
1
1
1
1
1
1
1
1
1
1
1
1
1
1
1
1
1
1
1
1
1
1
1
1
1
1
1
1
1
1
1
1
1
1
1
1
1
1
1
1.739791303
2.641044205
2.706355372
2.704349906
2.703150545
2.702470715
2.702595099
2.703482194
2.705095024
2.706659235
2.707587467
2.707792473
2.707827246
2.707764688
2.707767123
2.707787841
2.707643759
2.707179558
2.706189913
2.704523527
2.702705827
2.701186975
2.699932341
1
1
1
1
1
1
1
1
1
1
1
1
1
1
1
1
1
1
1
1
1
1
1
1
1
1
1
1
1
1
1
1
1
1
1
1
1
1
1
1
1
1
1
1
1
1
1
1
1
1
1
1
1
1
1
1
1
1
1
1
1
1
1
1
1
1
1
1
1
1
1
1
1
1
1
1
1
1.740205518
2.64162055
2.706401972
2.704238738
2.702987559
2.702419015
2.702700019
2.70402853
2.706045021
2.707724012
2.708532334
2.708655973
2.708627393
2.708501156
2.708493415
2.708520221
2.708382478
2.707933008
2.706926459
2.705325603
2.703551534
2.702031998
2.700759112
1
1
1
1
1
1
1
1
1
1
1
1
1
1
1
1
1
1
1
1
1
1
1
1
1
1
1
1
1
1
1
1
1
1
1
1
1
1
1
1
1
1
1
1
1
1
1
1
1
1
1
1
1
1
1
1
1
1
1
1
1
1
1
1
1
1
1
1
1
1
1
1
1
1
1
1
1
1.740118975
2.641724342
2.706378087
2.704152974
2.702911778
2.702434147
2.702944566
2.704672676
2.706986566
2.708681845
2.709367185
2.70943541
2.709358153
2.709162675
2.709141962
2.709164135
2.709039366
2.708614048
2.70765648
2.706186241
2.704529712
2.703011393
2.701700266
1
1
1
1
1
1
1
1
1
1
1
1
1
1
1
1
1
1
1
1
1
1
1
1
1
1
1
1
1
1
1
1
1
1
1
1
1
1
1
1
1
1
1
1
1
1
1
1
1
1
1
1
1
1
1
1
1
1
1
1
1
1
1
1
1
1
1
1
1
1
1
1
1
1
1
1
1
1.738869553
2.6412153
2.706237953
2.704118213
2.702914153
2.702585713
2.703386622
2.705460925
2.707935454
2.709529271
2.710109829
2.71011588
2.709971575
2.70972512
2.709711073
2.70972105
2.709612146
2.709250654
2.708415176
2.707108977
2.705660483
2.704117523
2.702746748
1
1
1
1
1
1
1
1
1
1
1
1
1
1
1
1
1
1
1
1
1
1
1
1
1
1
1
1
1
1
1
1
1
1
1
1
1
1
1
1
1
1
1
1
1
1
1
1
1
1
1
1
1
1
1
1
1
1
1
1
1
1
1
1
1
1
1
1
1
1
1
1
1
1
1
1
1
1.735521445
2.63960566
2.706108851
2.704182967
2.703114138
2.703092606
2.704249235
2.706545453
2.708899627
2.710249393
2.71071932
2.71065905
2.710451044
2.710196264
2.710187834
2.710208673
2.710132823
2.709870774
2.709232113
2.70811578
2.706870827
2.705305833
2.70386791
1
1
1
1
1
1
1
1
1
1
1
1
1
1
1
1
1
1
1
1
1
1
1
1
1
1
1
1
1
1
1
1
1
1
1
1
1
1
1
1
1
1
1
1
1
1
1
1
1
1
1
1
1
1
1
1
1
1
1
1
1
1
1
1
1
1
1
1
1
1
1
1
1
1
1
1
1
1.731126066
2.636715562
2.706050214
2.704424546
2.703743475
2.704004464
2.705473105
2.707747636
2.709735805
2.710799831
2.711156333
2.711052947
2.71082637
2.710594944
2.710600287
2.710676232
2.710673989
2.710542127
2.710130683
2.70922533
2.708076799
2.706502523
2.70502217
1
1
1
1
1
1
1
1
1
1
1
1
1
1
1
1
1
1
1
1
1
1
1
1
1
1
1
1
1
1
1
1
1
1
1
1
1
1
1
1
1
1
1
1
1
1
1
1
1
1
1
1
1
1
1
1
1
1
1
1
1
1
1
1
1
1
1
1
1
1
1
1
1
1
1
1
1
1.726852534
2.632814806
2.706065246
2.704727329
2.704783631
2.705275975
2.706827109
2.708849345
2.710407746
2.711224237
2.711469923
2.71132802
2.711099024
2.71090316
2.710947839
2.711132385
2.711290532
2.71128377
2.711085144
2.710360461
2.709245497
2.707657804
2.706178316
1
1
1
1
1
1
1
1
1
1
1
1
1
1
1
1
1
1
1
1
1
1
1
1
1
1
1
1
1
1
1
1
1
1
1
1
1
1
1
1
1
1
1
1
1
1
1
1
1
1
1
1
1
1
1
1
1
1
1
1
1
1
1
1
1
1
1
1
1
1
1
1
1
1
1
1
1
1.722022576
2.629081946
2.70610205
2.705244522
2.705896616
2.706602604
2.708055946
2.709732279
2.710947314
2.711591325
2.711747099
2.711563279
2.711318583
2.711174061
2.711295549
2.711632464
2.711988996
2.712117684
2.712047319
2.711442666
2.710327084
2.708733534
2.707324892
1
1
1
1
1
1
1
1
1
1
1
1
1
1
1
1
1
1
1
1
1
1
1
1
1
1
1
1
1
1
1
1
1
1
1
1
1
1
1
1
1
1
1
1
1
1
1
1
1
1
1
1
1
1
1
1
1
1
1
1
1
1
1
1
1
1
1
1
1
1
1
1
1
1
1
1
1
1.71650863
2.625626734
2.706576069
2.705890711
2.706734121
2.707563207
2.70897301
2.710416297
2.711441094
2.711983592
2.712054568
2.711801479
2.71151191
2.711443353
2.711685076
2.712211809
2.712768217
2.713009891
2.71298782
2.712424096
2.711289538
2.709715045
2.708462486
1
1
1
1
1
1
1
1
1
1
1
1
1
1
1
1
1
1
1
1
1
1
1
1
1
1
1
1
1
1
1
1
1
1
1
1
1
1
1
1
1
1
1
1
1
1
1
1
1
1
1
1
1
1
1
1
1
1
1
1
1
1
1
1
1
1
1
1
1
1
1
1
1
1
1
1
1
1.709567816
2.622190258
2.707085738
2.706547688
2.707363233
2.708193326
2.70965248
2.711010472
2.711964635
2.712427633
2.712403773
2.712047769
2.711711434
2.711737702
2.712151827
2.712875287
2.713598124
2.713898091
2.713868086
2.713285393
2.712129945
2.710616501
2.709598504
1
1
1
1
1
1
1
1
1
1
1
1
1
1
1
1
1
1
1
1
1
1
1
1
1
1
1
1
1
1
1
1
1
1
1
1
1
1
1
1
1
1
1
1
1
1
1
1
1
1
1
1
1
1
1
1
1
1
1
1
1
1
1
1
1
1
1
1
1
1
1
1
1
1
1
1
1
1.70093397
2.618689922
2.707638677
2.707092579
2.707753099
2.708621933
2.710219683
2.711606421
2.712545492
2.712902884
2.712758429
2.712291109
2.711933906
2.712072266
2.712691908
2.713594272
2.714436022
2.714737663
2.714663343
2.714040607
2.712878755
2.711486541
2.710753572
1
1
1
1
1
1
1
1
1
1
1
1
1
1
1
1
1
1
1
1
1
1
1
1
1
1
1
1
1
1
1
1
1
1
1
1
1
1
1
1
1
1
1
1
1
1
1
1
1
1
1
1
1
1
1
1
1
1
1
1
1
1
1
1
1
1
1
1
1
1
1
1
1
1
1
1
1
1.691076767
2.61530176
2.708099907
2.70741418
2.707949167
2.708991685
2.710769317
2.712216921
2.713133958
2.713354955
2.713088517
2.712548515
2.712219026
2.712481244
2.713301633
2.7143388
2.715242354
2.715501707
2.715369057
2.714728415
2.713598284
2.712409883
2.711958291
1
1
1
1
1
1
1
1
1
1
1
1
1
1
1
1
1
1
1
1
1
1
1
1
1
1
1
1
1
1
1
1
1
1
1
1
1
1
1
1
1
1
1
1
1
1
1
1
1
1
1
1
1
1
1
1
1
1
1
1
1
1
1
1
1
1
1
1
1
1
1
1
1
1
1
1
1
1.681102292
2.612221417
2.70824386
2.707459336
2.708091119
2.709387803
2.711309007
2.712770478
2.713630384
2.71373237
2.71338544
2.712831516
2.712580094
2.712960356
2.713947747
2.7150662
2.715987149
2.716198256
2.716022864
2.715418087
2.714387288
2.713496165
2.71325124
1
1
1
1
1
1
1
1
1
1
1
1
1
1
1
1
1
1
1
1
1
1
1
1
1
1
1
1
1
1
1
1
1
1
1
1
1
1
1
1
1
1
1
1
1
1
1
1
1
1
1
1
1
1
1
1
1
1
1
1
1
1
1
1
1
1
1
1
1
1
1
1
1
1
1
1
1
1.671325933
2.609422834
2.708022024
2.707328478
2.708298836
2.709835507
2.711779508
2.713158987
2.713927181
2.713958851
2.713616432
2.713130214
2.713010611
2.713498681
2.714598859
2.715747325
2.71666526
2.716871024
2.716695565
2.71619669
2.715367198
2.714827087
2.714682091
1
1
1
1
1
1
1
1
1
1
1
1
1
1
1
1
1
1
1
1
1
1
1
1
1
1
1
1
1
1
1
1
1
1
1
1
1
1
1
1
1
1
1
1
1
1
1
1
1
1
1
1
1
1
1
1
1
1
1
1
1
1
1
1
1
1
1
1
1
1
1
1
1
1
1
1
1
1.660940425
2.606260408
2.707487924
2.707103079
2.708577402
2.710280509
2.71211788
2.713333368
2.714015993
2.714024552
2.713766328
2.713421859
2.713456654
2.71405846
2.71521064
2.716357716
2.717295077
2.717592081
2.717486599
2.717165356
2.716660027
2.716411656
2.716303004
1
1
1
1
1
1
1
1
1
1
1
1
1
1
1
1
1
1
1
1
1
1
1
1
1
1
1
1
1
1
1
1
1
1
1
1
1
1
1
1
1
1
1
1
1
1
1
1
1
1
1
1
1
1
1
1
1
1
1
1
1
1
1
1
1
1
1
1
1
1
1
1
1
1
1
1
1
1.648086981
2.602106314
2.706318272
2.706775604
2.708928579
2.710718723
2.712370092
2.713381558
2.713916969
2.713950537
2.713808827
2.713660516
2.713873572
2.714595027
2.715760657
2.716906434
2.717918537
2.718421472
2.718507699
2.718431635
2.71833284
2.718243977
2.718161555
1
1
1
1
1
1
1
1
1
1
1
1
1
1
1
1
1
1
1
1
1
1
1
1
1
1
1
1
1
1
1
1
1
1
1
1
1
1
1
1
1
1
1
1
1
1
1
1
1
1
1
1
1
1
1
1
1
1
1
1
1
1
1
1
1
1
1
1
1
1
1
1
1
1
1
1
1
1.630660941
2.596752809
2.705001318
2.70667001
2.70918466
2.710912245
2.712330295
2.71315587
2.713593806
2.713759834
2.713763345
2.713834439
2.714256285
2.715056848
2.716218567
2.717409675
2.718594845
2.719425293
2.719882845
2.720131289
2.720342987
2.720315919
2.720227348
1
1
1
1
1
1
1
1
1
1
1
1
1
1
1
1
1
1
1
1
1
1
1
1
1
1
1
1
1
1
1
1
1
1
1
1
1
1
1
1
1
1
1
1
1
1
1
1
1
1
1
1
1
1
1
1
1
1
1
1
1
1
1
1
1
1
1
1
1
1
1
1
1
1
1
1
1
1.609300029
2.591141615
2.704013342
2.706257199
2.708899826
2.710712423
2.711964501
2.71268542
2.713147469
2.713470049
2.713674598
2.713967938
2.714564523
2.715403187
2.716576268
2.717882881
2.719357578
2.720641755
2.721626418
2.722262187
2.722595071
2.722617097
2.722480186
1
1
1
1
1
1
1
1
1
1
1
1
1
1
1
1
1
1
1
1
1
1
1
1
1
1
1
1
1
1
1
1
1
1
1
1
1
1
1
1
1
1
1
1
1
1
1
1
1
1
1
1
1
1
1
1
1
1
1
1
1
1
1
1
1
1
1
1
1
1
1
1
1
1
1
1
1
1.58675855
2.585572119
2.704039718
2.705899622
2.708321849
2.710116307
2.711369347
2.712134155
2.712758838
2.713239313
2.71361039
2.714058598
2.714722306
2.715564521
2.716790593
2.718342449
2.720247231
2.722081499
2.72375292
2.724671247
2.725042247
2.72509401
2.724855338
1
1
1
1
1
1
1
1
1
1
1
1
1
1
1
1
1
1
1
1
1
1
1
1
1
1
1
1
1
1
1
1
1
1
1
1
1
1
1
1
1
1
1
1
1
1
1
1
1
1
1
1
1
1
1
1
1
1
1
1
1
1
1
1
1
1
1
1
1
1
1
1
1
1
1
1
1
1.562891013
2.579623315
2.70460495
2.705470793
2.707468237
2.709210224
2.710645767
2.711739931
2.712568807
2.713153237
2.71358486
2.714078471
2.714712204
2.715558145
2.71690131
2.718806301
2.721225319
2.723722999
2.726075038
2.727261741
2.727660243
2.727685905
2.727335299
1
1
1
1
1
1
1
1
1
1
1
1
1
1
1
1
1
1
1
1
1
1
1
1
1
1
1
1
1
1
1
1
1
1
1
1
1
1
1
1
1
1
1
1
1
1
1
1
1
1
1
1
1
1
1
1
1
1
1
1
1
1
1
1
1
1
1
1
1
1
1
1
1
1
1
1
1
1.537165559
2.572535855
2.705004095
2.704819928
2.706249801
2.708179401
2.710071905
2.711545967
2.712559214
2.713183306
2.713623691
2.714058935
2.714629844
2.715499338
2.716985977
2.719230935
2.722182942
2.725511925
2.728370495
2.729962308
2.730383721
2.730358556
2.729900745
1
1
1
1
1
1
1
1
1
1
1
1
1
1
1
1
1
1
1
1
1
1
1
1
1
1
1
1
1
1
1
1
1
1
1
1
1
1
1
1
1
1
1
1
1
1
1
1
1
1
1
1
1
1
1
1
1
1
1
1
1
1
1
1
1
1
1
1
1
1
1
1
1
1
1
1
1
1.508206427
2.563259154
2.704287223
2.703415021
2.705166879
2.707326358
2.709649339
2.711446748
2.712580882
2.713220758
2.713692628
2.714056829
2.714605373
2.71553832
2.717161111
2.719707455
2.723212026
2.727233719
2.730560649
2.732628751
2.733131936
2.733059067
2.732535981
1
1
1
1
1
1
1
1
1
1
1
1
1
1
1
1
1
1
1
1
1
1
1
1
1
1
1
1
1
1
1
1
1
1
1
1
1
1
1
1
1
1
1
1
1
1
1
1
1
1
1
1
1
1
1
1
1
1
1
1
1
1
1
1
1
1
1
1
1
1
1
1
1
1
1
1
1
1.474644907
2.550938073
2.702648134
2.701698099
2.704125073
2.706637247
2.709376627
2.71144631
2.712669057
2.713343448
2.713796853
2.714202914
2.714795363
2.71577884
2.717451306
2.720205199
2.72419366
2.728688795
2.732550962
2.735116733
2.735846169
2.735759741
2.735248467
1
1
1
1
1
1
1
1
1
1
1
1
1
1
1
1
1
1
1
1
1
1
1
1
1
1
1
1
1
1
1
1
1
1
1
1
1
1
1
1
1
1
1
1
1
1
1
1
1
1
1
1
1
1
1
1
1
1
1
1
1
1
1
1
1
1
1
1
1
1
1
1
1
1
1
1
1
1.43587669
2.535630634
2.701268524
2.700598412
2.703518986
2.706199916
2.709096249
2.711317068
2.7126507
2.713467343
2.714072313
2.714570031
2.715256053
2.716298525
2.717976258
2.720812608
2.724996902
2.729777149
2.734150588
2.737275494
2.73842997
2.738453109
2.73806732
1
1
1
1
1
1
1
1
1
1
1
1
1
1
1
1
1
1
1
1
1
1
1
1
1
1
1
1
1
1
1
1
1
1
1
1
1
1
1
1
1
1
1
1
1
1
1
1
1
1
1
1
1
1
1
1
1
1
1
1
1
1
1
1
1
1
1
1
1
1
1
1
1
1
1
1
1
1.392017586
2.517380974
2.700628976
2.700323603
2.703129424
2.705700827
2.708485295
2.710839953