/*--------------------------------*- C++ -*----------------------------------*\
  =========                 |
  \\      /  F ield         | OpenFOAM: The Open Source CFD Toolbox
   \\    /   O peration     | Website:  https://openfoam.org
    \\  /    A nd           | Version:  7
     \\/     M anipulation  |
\*---------------------------------------------------------------------------*/
FoamFile
{
    version     2.0;
    format      ascii;
    class       volVectorField;
    location    "4.4";
    object      U;
}
// * * * * * * * * * * * * * * * * * * * * * * * * * * * * * * * * * * * * * //

dimensions      [0 1 -1 0 0 0 0];

internalField   nonuniform List<vector> 
80000
(
(3 -3.003294037e-16 0)
(3 -2.473125318e-15 0)
(3 -2.368026357e-15 0)
(3 -1.873953683e-15 0)
(3 -1.670182784e-15 0)
(3 -1.554399944e-15 0)
(3 -6.199835873e-16 0)
(3 -7.980760109e-16 0)
(3 -1.006866016e-15 0)
(3 -1.317353991e-15 0)
(3 -2.597645564e-16 0)
(3 6.259144569e-16 0)
(3 1.481248368e-15 0)
(3 1.57158272e-15 0)
(3 5.045232555e-16 0)
(3 2.249643606e-16 0)
(3 -5.927143824e-16 0)
(3 -7.155056352e-16 0)
(3 -5.858254732e-16 0)
(3 -2.219781483e-16 0)
(3 1.223256002e-15 0)
(3 2.352186158e-15 0)
(3 2.587221814e-15 0)
(3 3.283832391e-15 0)
(3 2.830055599e-15 0)
(3 6.548272106e-16 0)
(3 1.368131706e-15 0)
(3 6.65851632e-16 0)
(3 2.002548846e-15 0)
(3 1.061365835e-15 0)
(3 1.495283656e-15 0)
(3 2.011291294e-15 0)
(3 -3.308220929e-16 0)
(3 -7.176807329e-16 0)
(3 -1.105259711e-15 0)
(3 -2.522136171e-15 0)
(3 -1.927283822e-15 0)
(3 -2.330556637e-15 0)
(3 -1.988916412e-15 0)
(3 -1.535928161e-15 0)
(3 -2.19182197e-15 0)
(3 -1.682582084e-15 0)
(3 -1.770469454e-15 0)
(3 -1.386968898e-15 0)
(3 -1.485028945e-15 0)
(3 -2.175934684e-15 0)
(3 -1.701871206e-15 0)
(3 -1.581110607e-15 0)
(3 2.621146107e-16 0)
(3 1.174562925e-15 0)
(3 2.235870942e-15 0)
(3 1.415566341e-15 0)
(3 7.534671475e-16 0)
(3 2.646760034e-16 0)
(3 -1.422519595e-15 0)
(3 -9.91785382e-16 0)
(3 7.65563865e-17 0)
(3 -7.166679787e-16 0)
(3 -7.873572367e-16 0)
(3 -1.002485478e-15 0)
(3 -3.672516183e-15 0)
(3 -4.287555581e-15 0)
(3 -6.224744416e-15 0)
(3 -5.939760117e-15 0)
(3 -5.778126628e-15 0)
(3 -6.178712277e-15 0)
(3 -5.956993164e-15 0)
(3 -5.787962429e-15 0)
(3 -5.185910566e-15 0)
(3 -3.197900884e-15 0)
(3 -1.761376509e-15 0)
(3 -2.190881377e-15 0)
(3 -1.931217711e-15 0)
(3 -2.209648151e-15 0)
(3 -2.78864765e-15 0)
(3 -1.922173731e-15 0)
(3 -3.876422014e-15 0)
(2.285553817 0.0001597069071 0)
(0.8660457541 0.0005789517029 0)
(0.7649196549 -8.215656889e-05 0)
(0.7661287233 -0.0001511995743 0)
(0.7671958942 -0.0003642110708 0)
(0.7689863817 -0.0005910083274 0)
(0.7713556815 -0.0007406824357 0)
(0.7739266246 -0.0006306125421 0)
(0.7761689636 -0.0003924230575 0)
(0.777991487 -0.0002656174089 0)
(0.7797119797 -0.0002951862647 0)
(0.781634647 -0.0004205802689 0)
(0.7839560932 -0.0005871340455 0)
(0.7867031216 -0.0007250853385 0)
(0.7896930183 -0.0007598039534 0)
(0.7926003088 -0.0006953027488 0)
(0.7951945549 -0.0006421977447 0)
(0.7974697077 -0.000667453683 0)
(0.799531685 -0.0007679001556 0)
(0.8015222149 -0.0009104678721 0)
(0.8035967228 -0.001077350607 0)
(0.805898636 -0.001232441125 0)
(0.808507428 -0.001366500066 0)
(3 -9.945403793e-16 0)
(3 -2.548445677e-15 0)
(3 -2.385224082e-15 0)
(3 -2.867241089e-15 0)
(3 -2.668355308e-15 0)
(3 -8.891936511e-16 0)
(3 8.460235959e-16 0)
(3 -1.702898667e-16 0)
(3 -2.354456982e-15 0)
(3 -2.483002199e-15 0)
(3 -8.846313845e-18 0)
(3 1.23340308e-15 0)
(3 2.369435866e-15 0)
(3 1.177827304e-15 0)
(3 2.384272711e-16 0)
(3 1.199317656e-15 0)
(3 2.932285268e-16 0)
(3 -7.312770051e-16 0)
(3 1.422420101e-15 0)
(3 2.622896647e-15 0)
(3 3.533663825e-15 0)
(3 3.704930249e-15 0)
(3 3.468812169e-15 0)
(3 3.154023581e-15 0)
(3 1.362103626e-15 0)
(3 7.276162139e-16 0)
(3 1.636209052e-15 0)
(3 2.088686013e-15 0)
(3 1.977067507e-15 0)
(3 2.17796443e-15 0)
(3 1.921547141e-15 0)
(3 1.938667123e-15 0)
(3 -5.235228234e-16 0)
(3 -4.544779484e-16 0)
(3 -7.842450929e-16 0)
(3 -1.075294412e-15 0)
(3 -7.271867281e-16 0)
(3 -9.105856822e-16 0)
(3 -7.375091134e-16 0)
(3 1.178315349e-16 0)
(3 -1.919839208e-15 0)
(3 -2.130502443e-15 0)
(3 -2.19016138e-15 0)
(3 -1.993707428e-15 0)
(3 -2.637203731e-15 0)
(3 -4.566948468e-15 0)
(3 -3.702598212e-15 0)
(3 -2.573556038e-15 0)
(3 -1.817679362e-15 0)
(3 -1.392042655e-16 0)
(3 2.558980214e-16 0)
(3 -7.404543022e-16 0)
(3 -9.192085951e-16 0)
(3 -1.883237613e-15 0)
(3 -2.998564144e-15 0)
(3 -2.711616773e-15 0)
(3 -4.690865512e-16 0)
(3 -2.485719729e-15 0)
(3 -3.608259551e-15 0)
(3 -3.675352995e-15 0)
(3 -7.021188496e-15 0)
(3 -7.990901682e-15 0)
(3 -9.979811364e-15 0)
(3 -1.003997744e-14 0)
(3 -7.911724354e-15 0)
(3 -6.705766707e-15 0)
(3 -6.025117913e-15 0)
(3 -5.198575918e-15 0)
(3 -4.562719403e-15 0)
(3 -3.761636545e-15 0)
(3 -4.355849295e-15 0)
(3 -5.425083887e-15 0)
(3 -3.149517607e-15 0)
(3 -1.820452337e-15 0)
(3 -5.83015119e-16 0)
(3 -1.27849772e-15 0)
(3 -7.177457876e-16 0)
(2.284760155 0.0002748897702 0)
(0.8657631262 0.001455642252 0)
(0.7649228737 -0.0003737750428 0)
(0.7663319448 -0.0005146543662 0)
(0.7675109053 -0.001038151997 0)
(0.7693632059 -0.001631028395 0)
(0.7716748786 -0.001971149036 0)
(0.7740538866 -0.001718334101 0)
(0.7761705772 -0.001157213449 0)
(0.778016701 -0.0008242771669 0)
(0.7798009711 -0.000902406347 0)
(0.781773344 -0.00125760427 0)
(0.784110276 -0.001748619835 0)
(0.7868251194 -0.002162129743 0)
(0.789729507 -0.002315774456 0)
(0.7925331537 -0.00223398476 0)
(0.7950699219 -0.002186537986 0)
(0.7973386689 -0.002331297491 0)
(0.7994228339 -0.002646673283 0)
(0.801457832 -0.003034924295 0)
(0.8035812677 -0.003450838345 0)
(0.8059221943 -0.003802864666 0)
(0.8085331179 -0.004093242595 0)
(3 1.408475136e-16 0)
(3 1.56912007e-15 0)
(3 7.077403573e-16 0)
(3 3.123682113e-16 0)
(3 5.565982376e-16 0)
(3 9.459860307e-16 0)
(3 5.432717917e-16 0)
(3 -1.514043413e-16 0)
(3 -5.320212902e-16 0)
(3 -6.913016715e-16 0)
(3 -2.266000986e-15 0)
(3 -1.539791655e-15 0)
(3 -9.831830004e-16 0)
(3 -4.343031381e-16 0)
(3 -1.291651271e-15 0)
(3 -3.496426858e-16 0)
(3 -5.376158707e-17 0)
(3 -2.181865427e-16 0)
(3 6.15376689e-16 0)
(3 2.469394219e-15 0)
(3 3.722508923e-15 0)
(3 3.195847467e-15 0)
(3 1.405320053e-15 0)
(3 -1.837793674e-15 0)
(3 -2.928285405e-15 0)
(3 -1.512928082e-15 0)
(3 -6.556107632e-16 0)
(3 5.627935807e-16 0)
(3 -1.458216198e-15 0)
(3 -1.689969333e-15 0)
(3 -1.678113956e-15 0)
(3 -1.32779665e-15 0)
(3 1.486327792e-15 0)
(3 1.625346612e-15 0)
(3 9.517205628e-16 0)
(3 1.002524415e-15 0)
(3 1.664462519e-15 0)
(3 3.150447296e-15 0)
(3 3.721284614e-15 0)
(3 3.416602105e-15 0)
(3 1.30671539e-15 0)
(3 6.838892171e-16 0)
(3 7.226261016e-16 0)
(3 8.916728083e-16 0)
(3 1.525906798e-16 0)
(3 -1.792708697e-16 0)
(3 -1.248932521e-15 0)
(3 -5.610363236e-16 0)
(3 -2.024094218e-16 0)
(3 -7.485948502e-16 0)
(3 -1.855803117e-15 0)
(3 -3.205082389e-15 0)
(3 -2.200677723e-15 0)
(3 -3.328764369e-15 0)
(3 -2.888100562e-15 0)
(3 -5.06936103e-15 0)
(3 -3.556239495e-15 0)
(3 -3.484552177e-15 0)
(3 -5.846856031e-15 0)
(3 -6.174503149e-15 0)
(3 -7.330840624e-15 0)
(3 -7.489128478e-15 0)
(3 -5.894178484e-15 0)
(3 -6.130880138e-15 0)
(3 -5.800598245e-15 0)
(3 -5.997079806e-15 0)
(3 -6.035463563e-15 0)
(3 -6.141412815e-15 0)
(3 -5.956946806e-15 0)
(3 -5.827160062e-15 0)
(3 -6.091148973e-15 0)
(3 -4.915606779e-15 0)
(3 -3.641608721e-15 0)
(3 -3.079408997e-15 0)
(3 -2.602390098e-15 0)
(3 -2.256342188e-15 0)
(3 -7.555628437e-16 0)
(2.284169273 0.0007693020456 0)
(0.8656846199 0.002361758218 0)
(0.7650637235 -0.000614899076 0)
(0.7666926749 -0.0008913993309 0)
(0.7678400196 -0.00176388918 0)
(0.7696199646 -0.002685569667 0)
(0.7717698117 -0.003155807629 0)
(0.7739235466 -0.002781922913 0)
(0.7759434854 -0.001980340905 0)
(0.7778852164 -0.001479764519 0)
(0.7798136302 -0.001599062589 0)
(0.7818922516 -0.002172830194 0)
(0.7842712882 -0.002971969163 0)
(0.7869617259 -0.00362396701 0)
(0.7897498164 -0.003870255359 0)
(0.792385687 -0.003766740344 0)
(0.7947930631 -0.003702423687 0)
(0.7969936936 -0.00391164448 0)
(0.7990545824 -0.00437759094 0)
(0.801119282 -0.004958446875 0)
(0.8033048161 -0.005598570144 0)
(0.8057265365 -0.006160628112 0)
(0.808396331 -0.006652398113 0)
(3 3.887879525e-16 0)
(3 9.250986476e-16 0)
(3 8.360990472e-16 0)
(3 6.06645125e-16 0)
(3 -4.358344506e-17 0)
(3 -8.180634967e-16 0)
(3 -1.752072712e-15 0)
(3 -2.078585712e-15 0)
(3 -1.231053739e-15 0)
(3 -1.091321335e-15 0)
(3 -1.947707101e-15 0)
(3 -1.504262218e-15 0)
(3 -6.507335726e-16 0)
(3 -4.207299361e-16 0)
(3 -9.083780519e-16 0)
(3 -2.252477255e-15 0)
(3 -2.375094962e-15 0)
(3 -8.16558118e-16 0)
(3 1.817487427e-16 0)
(3 2.258661748e-15 0)
(3 1.744916816e-15 0)
(3 7.928062885e-16 0)
(3 -1.976229992e-17 0)
(3 -3.765525912e-15 0)
(3 -3.787854467e-15 0)
(3 -2.476900725e-15 0)
(3 -1.252736734e-15 0)
(3 -1.56382023e-15 0)
(3 -1.248315752e-15 0)
(3 -2.006586629e-15 0)
(3 3.300737951e-16 0)
(3 1.339908417e-15 0)
(3 2.077173248e-15 0)
(3 1.807638693e-15 0)
(3 1.063778173e-15 0)
(3 7.469032338e-16 0)
(3 1.63289517e-15 0)
(3 4.364343061e-15 0)
(3 4.904111519e-15 0)
(3 2.815157209e-15 0)
(3 2.897649419e-15 0)
(3 1.18371187e-15 0)
(3 3.697907056e-16 0)
(3 2.373671594e-15 0)
(3 2.499367136e-15 0)
(3 2.888311024e-15 0)
(3 1.340528478e-15 0)
(3 9.901567357e-16 0)
(3 2.021050656e-16 0)
(3 -9.605772453e-16 0)
(3 -8.885734117e-16 0)
(3 -6.99840932e-16 0)
(3 -1.769817754e-15 0)
(3 -1.386062686e-15 0)
(3 -1.972173461e-15 0)
(3 -1.954457834e-15 0)
(3 -3.272918473e-15 0)
(3 -3.333098544e-15 0)
(3 -5.209386115e-15 0)
(3 -6.902430744e-15 0)
(3 -8.541105533e-15 0)
(3 -1.021990873e-14 0)
(3 -9.1410793e-15 0)
(3 -5.765029317e-15 0)
(3 -3.784669905e-15 0)
(3 -4.826741906e-15 0)
(3 -5.292770721e-15 0)
(3 -5.665232212e-15 0)
(3 -3.823584184e-15 0)
(3 -3.390464146e-15 0)
(3 -3.22012915e-15 0)
(3 -2.85879131e-15 0)
(3 -6.062814148e-15 0)
(3 -5.460174688e-15 0)
(3 -4.5392655e-15 0)
(3 -2.802055401e-15 0)
(3 -1.817366242e-15 0)
(2.283905925 0.001143425901 0)
(0.8657625188 0.003076521144 0)
(0.7652301347 -0.0008909996594 0)
(0.7670908473 -0.001299340462 0)
(0.7681388464 -0.002426865226 0)
(0.7697046599 -0.003579144813 0)
(0.7715949101 -0.004115497656 0)
(0.7735423475 -0.003702348633 0)
(0.7755159631 -0.002829298526 0)
(0.7775845567 -0.002253990631 0)
(0.7796851715 -0.002434220235 0)
(0.7818750251 -0.003222907014 0)
(0.78426467 -0.00428786535 0)
(0.7868615244 -0.005133962168 0)
(0.789467442 -0.00544776401 0)
(0.7919087672 -0.005325948907 0)
(0.7941993249 -0.005252472915 0)
(0.7963767328 -0.005503639712 0)
(0.7984870352 -0.006075242439 0)
(0.8006681168 -0.006800027923 0)
(0.8029903405 -0.007631130195 0)
(0.8055385249 -0.008392682299 0)
(0.8082679668 -0.009093629787 0)
(3 3.434040569e-17 0)
(3 -1.559636902e-15 0)
(3 -9.543826111e-17 0)
(3 1.966053738e-16 0)
(3 -2.562016735e-17 0)
(3 -9.075756889e-17 0)
(3 2.154855244e-16 0)
(3 8.019209341e-17 0)
(3 -3.882143103e-16 0)
(3 -6.076071923e-16 0)
(3 3.618252542e-16 0)
(3 6.213773967e-16 0)
(3 4.40719599e-16 0)
(3 2.538492669e-16 0)
(3 1.15342171e-15 0)
(3 8.764769594e-16 0)
(3 -1.192337568e-17 0)
(3 5.318160836e-16 0)
(3 1.740076661e-15 0)
(3 4.694185337e-16 0)
(3 -1.069485652e-15 0)
(3 -1.214590904e-15 0)
(3 -1.352314537e-15 0)
(3 -1.550178243e-15 0)
(3 -1.902536582e-15 0)
(3 -1.426181247e-15 0)
(3 -2.619682389e-15 0)
(3 -4.613053834e-15 0)
(3 -3.366083601e-15 0)
(3 -5.887011721e-17 0)
(3 2.345003059e-15 0)
(3 4.220191978e-15 0)
(3 3.854652201e-15 0)
(3 2.69206163e-15 0)
(3 2.481686358e-15 0)
(3 1.991903974e-15 0)
(3 6.439021903e-16 0)
(3 2.03066811e-16 0)
(3 9.087472746e-16 0)
(3 2.665056907e-15 0)
(3 1.938507416e-15 0)
(3 3.221084594e-16 0)
(3 9.714783516e-16 0)
(3 1.673772806e-15 0)
(3 1.836128284e-15 0)
(3 1.981720058e-15 0)
(3 2.030730293e-15 0)
(3 8.279480345e-16 0)
(3 -1.049050141e-15 0)
(3 -5.487315605e-16 0)
(3 5.850795405e-16 0)
(3 7.959523383e-16 0)
(3 5.449995569e-16 0)
(3 2.440841827e-16 0)
(3 -7.658062132e-16 0)
(3 5.712361746e-16 0)
(3 -1.535527566e-15 0)
(3 -2.162730762e-15 0)
(3 -2.284209199e-15 0)
(3 -3.935713225e-15 0)
(3 -3.643505375e-15 0)
(3 -4.360902592e-15 0)
(3 -5.42799248e-15 0)
(3 -5.390461384e-15 0)
(3 -4.931430656e-15 0)
(3 -4.735267696e-15 0)
(3 -4.517713012e-15 0)
(3 -3.658744508e-15 0)
(3 -3.323830729e-15 0)
(3 -4.103737611e-15 0)
(3 -3.988088755e-15 0)
(3 -4.590249671e-15 0)
(3 -4.218662434e-15 0)
(3 -4.124877643e-15 0)
(3 -2.792085509e-15 0)
(3 -4.643126328e-16 0)
(3 -1.544991798e-15 0)
(2.283548383 0.001454509913 0)
(0.8657444709 0.003637618981 0)
(0.7654125269 -0.001103841875 0)
(0.7675205199 -0.001609343699 0)
(0.7686017109 -0.002897435275 0)
(0.7699975149 -0.004236491312 0)
(0.771651327 -0.004921641587 0)
(0.7733978122 -0.004624887267 0)
(0.775275787 -0.003841540274 0)
(0.7773963153 -0.003260761359 0)
(0.7796233842 -0.003475279604 0)
(0.781886518 -0.004424251442 0)
(0.784244394 -0.005697433241 0)
(0.7866877833 -0.006683044923 0)
(0.7890706371 -0.007031793362 0)
(0.7912979239 -0.006899774053 0)
(0.7934588981 -0.00682057624 0)
(0.7956081235 -0.007075158928 0)
(0.7977779909 -0.007690069285 0)
(0.8000897743 -0.00849950027 0)
(0.8025528772 -0.009486568696 0)
(0.8052230816 -0.01043771637 0)
(0.8080028132 -0.01134595723 0)
(3 -5.577551142e-16 0)
(3 -9.56978946e-16 0)
(3 -4.684604673e-16 0)
(3 6.910491873e-16 0)
(3 1.905061981e-15 0)
(3 5.800352536e-16 0)
(3 1.31316699e-16 0)
(3 -4.595915893e-16 0)
(3 -1.342906465e-15 0)
(3 -1.127100905e-15 0)
(3 1.863584376e-15 0)
(3 1.549508012e-15 0)
(3 1.852511177e-15 0)
(3 2.031793856e-15 0)
(3 2.478570496e-15 0)
(3 2.336155058e-15 0)
(3 1.556971732e-15 0)
(3 7.296619634e-16 0)
(3 -8.489358081e-16 0)
(3 -3.140632237e-15 0)
(3 -2.419386389e-15 0)
(3 -1.695567296e-15 0)
(3 -2.174673348e-16 0)
(3 7.281569451e-16 0)
(3 -7.881062016e-17 0)
(3 -1.348149962e-15 0)
(3 -1.368684351e-15 0)
(3 -4.058333062e-16 0)
(3 -1.364680114e-15 0)
(3 -7.645134836e-16 0)
(3 3.722675893e-16 0)
(3 2.42745011e-15 0)
(3 2.961577527e-15 0)
(3 4.118809523e-15 0)
(3 4.112962783e-15 0)
(3 3.000657704e-15 0)
(3 -1.246611731e-16 0)
(3 -2.500653381e-15 0)
(3 -1.552437801e-15 0)
(3 -1.715369771e-16 0)
(3 2.022332232e-15 0)
(3 2.793757097e-15 0)
(3 3.841597668e-15 0)
(3 3.078917398e-15 0)
(3 3.430556681e-15 0)
(3 1.615290473e-15 0)
(3 1.700664045e-15 0)
(3 -4.37622391e-16 0)
(3 -4.521608066e-16 0)
(3 1.367483522e-15 0)
(3 2.229216259e-15 0)
(3 1.210240065e-15 0)
(3 -1.555939556e-15 0)
(3 -4.216221103e-15 0)
(3 -3.464042979e-15 0)
(3 -1.603301822e-15 0)
(3 1.504195725e-15 0)
(3 -2.410176485e-16 0)
(3 -5.154995654e-16 0)
(3 -1.031883783e-15 0)
(3 -1.427863623e-15 0)
(3 -2.956945649e-16 0)
(3 -5.183665515e-16 0)
(3 -2.783241105e-15 0)
(3 -4.961406565e-15 0)
(3 -4.828023482e-15 0)
(3 -3.73263363e-15 0)
(3 -3.310827744e-15 0)
(3 -4.293059628e-15 0)
(3 -4.777129188e-15 0)
(3 -3.855862087e-15 0)
(3 -3.848012668e-15 0)
(3 -2.912508603e-15 0)
(3 -3.39448391e-15 0)
(3 -3.710232239e-15 0)
(3 -3.71599173e-15 0)
(3 -2.008860969e-15 0)
(2.283673796 0.001777574005 0)
(0.8657934442 0.003942716203 0)
(0.7655641582 -0.001304446483 0)
(0.7678726817 -0.001894048104 0)
(0.7690727799 -0.003263084884 0)
(0.7703064485 -0.004706892883 0)
(0.7717042368 -0.005537193852 0)
(0.7732211594 -0.005403996265 0)
(0.7749584899 -0.004834418673 0)
(0.7770623493 -0.004385265343 0)
(0.7793667396 -0.004705262701 0)
(0.7817075282 -0.005792183671 0)
(0.7840355143 -0.00722575698 0)
(0.7863406607 -0.00828345408 0)
(0.7885355977 -0.008625938411 0)
(0.7905973538 -0.008479682034 0)
(0.7926719439 -0.008391485326 0)
(0.7948353423 -0.008617121261 0)
(0.7971108413 -0.009228824588 0)
(0.7995902488 -0.01008149669 0)
(0.8022153099 -0.01120080311 0)
(0.805015384 -0.01233113113 0)
(0.8078391587 -0.01344389835 0)
(3 -2.92283134e-16 0)
(3 7.307773994e-16 0)
(3 8.991966747e-16 0)
(3 8.243250473e-16 0)
(3 8.079570693e-16 0)
(3 1.268339308e-16 0)
(3 -1.088599285e-15 0)
(3 -7.609567186e-16 0)
(3 -2.145041711e-15 0)
(3 -2.147856015e-15 0)
(3 5.587417389e-16 0)
(3 2.791617014e-15 0)
(3 2.722094334e-15 0)
(3 1.832640041e-15 0)
(3 1.691692449e-16 0)
(3 -9.996402144e-16 0)
(3 -1.094664266e-15 0)
(3 -5.955348321e-16 0)
(3 1.81397934e-16 0)
(3 -6.392323438e-17 0)
(3 -6.730144572e-16 0)
(3 -1.205878367e-15 0)
(3 -1.359014018e-15 0)
(3 -9.658927957e-16 0)
(3 -4.752976254e-16 0)
(3 -1.203816086e-15 0)
(3 -8.15709975e-16 0)
(3 4.407894475e-16 0)
(3 -2.812408332e-16 0)
(3 -1.663450376e-15 0)
(3 -1.311884154e-15 0)
(3 -2.029796905e-15 0)
(3 -1.640797097e-15 0)
(3 -6.354339835e-16 0)
(3 3.162139853e-16 0)
(3 1.675410786e-15 0)
(3 4.600493767e-16 0)
(3 3.698821311e-16 0)
(3 -6.184610411e-16 0)
(3 -8.955773853e-16 0)
(3 1.41247707e-15 0)
(3 4.734380215e-15 0)
(3 3.839587357e-15 0)
(3 1.259328964e-15 0)
(3 1.482169422e-15 0)
(3 2.479531607e-15 0)
(3 2.44520938e-15 0)
(3 -5.083488208e-17 0)
(3 4.336669797e-16 0)
(3 1.68197794e-15 0)
(3 1.507511213e-15 0)
(3 1.361040249e-15 0)
(3 -9.721714549e-16 0)
(3 -1.550829186e-15 0)
(3 -1.739501754e-15 0)
(3 -1.040680593e-15 0)
(3 -7.444318165e-16 0)
(3 -6.096637594e-16 0)
(3 6.848128861e-16 0)
(3 2.280404803e-15 0)
(3 1.018490978e-15 0)
(3 2.763143568e-15 0)
(3 2.40971768e-15 0)
(3 1.268281516e-15 0)
(3 -2.949667537e-16 0)
(3 -2.701201208e-15 0)
(3 -3.903500252e-15 0)
(3 -3.193143049e-15 0)
(3 -5.017357422e-15 0)
(3 -4.76347247e-15 0)
(3 -4.933189332e-15 0)
(3 -4.628670537e-15 0)
(3 -5.838997929e-15 0)
(3 -3.281081773e-15 0)
(3 -1.22003862e-15 0)
(3 -1.796768626e-15 0)
(3 7.060417603e-16 0)
(2.284348339 0.001966087007 0)
(0.8659244905 0.00389486948 0)
(0.7657203258 -0.001427180789 0)
(0.7681384402 -0.002094075166 0)
(0.7694647804 -0.003501218844 0)
(0.7705652519 -0.005008729776 0)
(0.7717200011 -0.005982603354 0)
(0.7730724783 -0.006099136708 0)
(0.7746947381 -0.005863203393 0)
(0.776740717 -0.005656790559 0)
(0.7790444658 -0.006131226713 0)
(0.7813820707 -0.007356573988 0)
(0.7836295163 -0.008887313787 0)
(0.7857955607 -0.009940484467 0)
(0.7878432016 -0.01024145734 0)
(0.7898101493 -0.0100723053 0)
(0.7918643931 -0.009965147533 0)
(0.7940915432 -0.0101377378 0)
(0.7964979583 -0.01071759376 0)
(0.799137091 -0.01158767404 0)
(0.801890143 -0.01281750506 0)
(0.8047723765 -0.01410343108 0)
(0.8075945527 -0.01539069658 0)
(3 1.764765387e-16 0)
(3 1.494728241e-15 0)
(3 1.329068569e-15 0)
(3 1.040373019e-15 0)
(3 6.267437269e-16 0)
(3 1.128262334e-15 0)
(3 -7.515530603e-16 0)
(3 -5.768139407e-16 0)
(3 -4.725939212e-16 0)
(3 -5.060331171e-16 0)
(3 -4.161326125e-16 0)
(3 2.138088994e-15 0)
(3 1.895585388e-17 0)
(3 -2.008491953e-17 0)
(3 -7.620718243e-16 0)
(3 -2.01701465e-15 0)
(3 -1.277773594e-15 0)
(3 3.138504192e-16 0)
(3 1.296277925e-15 0)
(3 1.884906836e-15 0)
(3 5.50537917e-16 0)
(3 -2.962822938e-16 0)
(3 -2.585150492e-15 0)
(3 -2.758111599e-15 0)
(3 -1.861224054e-15 0)
(3 -1.094610438e-15 0)
(3 -1.941717855e-15 0)
(3 -3.797158476e-15 0)
(3 -1.106709688e-15 0)
(3 -2.158227518e-15 0)
(3 -3.218672485e-15 0)
(3 -2.981939535e-15 0)
(3 -1.952911575e-15 0)
(3 -1.41327103e-15 0)
(3 6.903751105e-16 0)
(3 3.8777673e-15 0)
(3 2.592876437e-15 0)
(3 3.666945692e-15 0)
(3 2.023016639e-15 0)
(3 2.08964987e-15 0)
(3 2.709465782e-15 0)
(3 3.678898936e-15 0)
(3 2.694506913e-15 0)
(3 2.362959009e-15 0)
(3 1.482924904e-15 0)
(3 1.480876078e-15 0)
(3 1.43339695e-15 0)
(3 1.700480697e-15 0)
(3 2.04977798e-15 0)
(3 3.327246155e-15 0)
(3 3.368622499e-15 0)
(3 2.602439645e-15 0)
(3 1.984405885e-15 0)
(3 1.725241027e-15 0)
(3 4.463214833e-16 0)
(3 5.170471168e-16 0)
(3 2.590666129e-16 0)
(3 1.480495605e-15 0)
(3 3.491303676e-15 0)
(3 3.56002799e-15 0)
(3 3.646381657e-15 0)
(3 3.659508084e-15 0)
(3 2.017446632e-15 0)
(3 2.521719623e-15 0)
(3 1.744095739e-15 0)
(3 1.225895473e-15 0)
(3 7.199376604e-16 0)
(3 3.695368456e-16 0)
(3 -7.187216096e-16 0)
(3 -2.420014101e-15 0)
(3 -3.614075786e-15 0)
(3 -2.541976677e-15 0)
(3 -3.063166838e-15 0)
(3 -1.369633056e-15 0)
(3 8.969710304e-16 0)
(3 -6.594191645e-16 0)
(3 -2.412632956e-15 0)
(2.28590535 0.002141359966 0)
(0.8662647526 0.003672545679 0)
(0.7659297018 -0.001469169832 0)
(0.7683518015 -0.002192827842 0)
(0.7697171697 -0.003606714658 0)
(0.7707807924 -0.005133951906 0)
(0.7717186905 -0.00626746609 0)
(0.7729111941 -0.006732487239 0)
(0.7743709068 -0.006853598433 0)
(0.7763235913 -0.006975427354 0)
(0.7785208224 -0.007667272799 0)
(0.780797237 -0.009037918471 0)
(0.7829122051 -0.01062250821 0)
(0.7849808526 -0.01161215057 0)
(0.7869539198 -0.01185775447 0)
(0.7889199699 -0.01166763728 0)
(0.7910347743 -0.01154025711 0)
(0.793375585 -0.01165777363 0)
(0.7959270266 -0.01220614562 0)
(0.7987063903 -0.01308632049 0)
(0.8015448865 -0.0144014729 0)
(0.8044518089 -0.01580554053 0)
(0.8072168458 -0.01723637213 0)
(3 -3.198431435e-16 0)
(3 -2.687907344e-16 0)
(3 3.549908505e-16 0)
(3 6.913812203e-16 0)
(3 9.768614149e-16 0)
(3 2.254092517e-16 0)
(3 -5.255675974e-16 0)
(3 -9.19520914e-16 0)
(3 5.318561654e-16 0)
(3 1.588862277e-15 0)
(3 7.727091328e-16 0)
(3 9.096407916e-16 0)
(3 7.738046607e-16 0)
(3 1.12314749e-15 0)
(3 5.517585705e-16 0)
(3 8.850937733e-17 0)
(3 8.523742856e-16 0)
(3 4.037789646e-16 0)
(3 -5.711875626e-16 0)
(3 -1.925907486e-16 0)
(3 1.252980754e-15 0)
(3 1.695885367e-15 0)
(3 5.97184977e-16 0)
(3 -4.934191857e-16 0)
(3 -2.75673422e-15 0)
(3 -2.624894891e-15 0)
(3 -3.03029118e-15 0)
(3 -4.28525886e-15 0)
(3 -5.944893814e-15 0)
(3 -6.287100239e-15 0)
(3 -5.789386026e-15 0)
(3 -4.465764648e-15 0)
(3 -1.386291035e-15 0)
(3 4.5796916e-16 0)
(3 4.147410091e-15 0)
(3 7.260095181e-15 0)
(3 8.91243378e-15 0)
(3 9.019127436e-15 0)
(3 8.215163231e-15 0)
(3 7.079932306e-15 0)
(3 3.645153263e-15 0)
(3 1.062867837e-15 0)
(3 1.097694893e-15 0)
(3 3.378567972e-15 0)
(3 2.341279376e-15 0)
(3 4.898509304e-16 0)
(3 4.012431113e-16 0)
(3 2.37133755e-15 0)
(3 2.151744379e-15 0)
(3 6.813166396e-16 0)
(3 1.259492172e-15 0)
(3 2.378421458e-15 0)
(3 3.725129344e-15 0)
(3 5.286100902e-15 0)
(3 5.871930777e-15 0)
(3 5.689676722e-15 0)
(3 6.090484698e-15 0)
(3 7.395958872e-15 0)
(3 5.448330297e-15 0)
(3 2.757230296e-15 0)
(3 2.625222985e-15 0)
(3 2.690104722e-15 0)
(3 1.94405723e-15 0)
(3 2.532774308e-15 0)
(3 1.523662238e-15 0)
(3 2.36782242e-15 0)
(3 1.869822154e-15 0)
(3 1.656380243e-15 0)
(3 1.459688019e-15 0)
(3 7.157342907e-16 0)
(3 6.300646361e-16 0)
(3 8.286957273e-16 0)
(3 4.260037624e-16 0)
(3 -2.497366912e-15 0)
(3 -2.165436649e-15 0)
(3 -2.484922208e-15 0)
(3 -2.996649922e-15 0)
(2.28828891 0.002020519112 0)
(0.866776529 0.003226466046 0)
(0.7661475412 -0.001356856335 0)
(0.7684742318 -0.002120179164 0)
(0.769807851 -0.003563536227 0)
(0.7708924683 -0.005096388502 0)
(0.7716562044 -0.006382070578 0)
(0.7726669093 -0.007186224764 0)
(0.7739958868 -0.007754590324 0)
(0.7758626465 -0.008284747157 0)
(0.7779124981 -0.00929305634 0)
(0.7800726077 -0.01079362046 0)
(0.7820578859 -0.01236206374 0)
(0.7840129069 -0.01327581868 0)
(0.7859798411 -0.01347730446 0)
(0.7880168782 -0.01327405027 0)
(0.7902384997 -0.01312885485 0)
(0.7927087098 -0.01320511022 0)
(0.7953833672 -0.01374725699 0)
(0.7982487715 -0.01463953135 0)
(0.801099526 -0.01601239499 0)
(0.8039507746 -0.01749154882 0)
(0.8065990731 -0.01901671643 0)
(3 -7.228137066e-17 0)
(3 -6.54350944e-16 0)
(3 7.119059951e-16 0)
(3 1.274314537e-15 0)
(3 1.703938925e-15 0)
(3 1.416212445e-15 0)
(3 2.483117015e-15 0)
(3 1.887462773e-15 0)
(3 1.128465067e-15 0)
(3 -3.247414908e-16 0)
(3 2.491645428e-16 0)
(3 9.540356925e-16 0)
(3 1.741986213e-15 0)
(3 1.728939789e-15 0)
(3 1.18579479e-15 0)
(3 3.501046243e-16 0)
(3 -1.446277644e-15 0)
(3 -1.71625848e-15 0)
(3 -3.226303896e-15 0)
(3 -3.421026191e-15 0)
(3 -1.733387399e-15 0)
(3 4.520622532e-16 0)
(3 1.550417281e-15 0)
(3 6.399804077e-16 0)
(3 -1.379895039e-15 0)
(3 -3.413725901e-15 0)
(3 -3.754651379e-15 0)
(3 -6.081766695e-15 0)
(3 -8.419443474e-15 0)
(3 -7.200044675e-15 0)
(3 -3.883679696e-15 0)
(3 -2.429251978e-15 0)
(3 4.065154777e-16 0)
(3 2.207066095e-15 0)
(3 5.872034699e-15 0)
(3 4.82287277e-15 0)
(3 6.276847436e-15 0)
(3 6.987618183e-15 0)
(3 6.198708844e-15 0)
(3 4.581055895e-15 0)
(3 3.805824082e-15 0)
(3 9.916089372e-17 0)
(3 -8.829321929e-17 0)
(3 7.906911388e-17 0)
(3 1.269830869e-15 0)
(3 1.406129621e-15 0)
(3 1.369444409e-15 0)
(3 3.20213845e-15 0)
(3 3.392649706e-15 0)
(3 5.410389827e-16 0)
(3 3.04778789e-16 0)
(3 5.594371152e-16 0)
(3 2.152123889e-15 0)
(3 5.560632104e-15 0)
(3 5.807390452e-15 0)
(3 3.922247944e-15 0)
(3 3.012444278e-15 0)
(3 3.414809922e-15 0)
(3 3.619189412e-15 0)
(3 2.726010851e-15 0)
(3 5.68024264e-15 0)
(3 5.459862334e-15 0)
(3 4.274875772e-15 0)
(3 1.261570888e-15 0)
(3 -3.873137237e-16 0)
(3 -1.430853605e-15 0)
(3 8.196040889e-17 0)
(3 -9.245009719e-16 0)
(3 -4.817274025e-16 0)
(3 -4.449640242e-16 0)
(3 -6.052398237e-16 0)
(3 -1.160078532e-15 0)
(3 -2.523707725e-15 0)
(3 -3.029687363e-15 0)
(3 -5.414479966e-15 0)
(3 -3.605003383e-15 0)
(3 -2.386830547e-15 0)
(2.290812537 0.001566613009 0)
(0.8671895513 0.002389372869 0)
(0.7663178791 -0.001361956924 0)
(0.7684105487 -0.002096309327 0)
(0.7696786288 -0.003474115406 0)
(0.7708412272 -0.004982128604 0)
(0.7715719579 -0.006433124352 0)
(0.7724493817 -0.007595940873 0)
(0.7736383295 -0.008592167498 0)
(0.775395563 -0.009573700458 0)
(0.7772542237 -0.0108971728 0)
(0.7792388855 -0.01249976162 0)
(0.7811231759 -0.01400836344 0)
(0.7829639105 -0.01488692037 0)
(0.7849596232 -0.01507398086 0)
(0.7870876312 -0.01485656657 0)
(0.7894520896 -0.01474530291 0)
(0.7920607488 -0.01483921004 0)
(0.7948249605 -0.0153903914 0)
(0.797716111 -0.01629564422 0)
(0.8005165965 -0.01770524431 0)
(0.8032511421 -0.01921627939 0)
(0.8057423823 -0.02078174896 0)
(3 8.622195412e-16 0)
(3 4.314354133e-16 0)
(3 -6.372170161e-17 0)
(3 -9.445012112e-17 0)
(3 -1.383622356e-15 0)
(3 -1.164405181e-15 0)
(3 -4.386737913e-16 0)
(3 -6.461598448e-16 0)
(3 -2.097113474e-15 0)
(3 -2.808083776e-15 0)
(3 -1.621223423e-15 0)
(3 -6.83153132e-16 0)
(3 -1.781703409e-16 0)
(3 -3.306452777e-16 0)
(3 9.666122085e-16 0)
(3 1.217383606e-15 0)
(3 -1.758239779e-16 0)
(3 -9.941662294e-16 0)
(3 -1.534985742e-15 0)
(3 -9.21444226e-16 0)
(3 -1.394398194e-15 0)
(3 -1.592244859e-15 0)
(3 -9.008596605e-16 0)
(3 -6.525646536e-16 0)
(3 -1.639406708e-15 0)
(3 -2.399208198e-15 0)
(3 -5.347401268e-15 0)
(3 -6.202448991e-15 0)
(3 -6.101526111e-15 0)
(3 -2.646396773e-15 0)
(3 -7.87696871e-16 0)
(3 2.743226481e-16 0)
(3 3.333486633e-16 0)
(3 1.435157227e-15 0)
(3 2.141744221e-15 0)
(3 2.044432825e-15 0)
(3 1.896583437e-15 0)
(3 2.111464344e-15 0)
(3 2.488265425e-15 0)
(3 2.982459132e-15 0)
(3 3.741675227e-15 0)
(3 3.462526767e-15 0)
(3 2.872950154e-15 0)
(3 1.567838917e-15 0)
(3 1.191984197e-15 0)
(3 6.16065422e-16 0)
(3 5.824544092e-16 0)
(3 1.223298321e-15 0)
(3 1.16367738e-15 0)
(3 9.672301615e-16 0)
(3 3.439358315e-16 0)
(3 -4.048816537e-16 0)
(3 -6.715912693e-17 0)
(3 1.737405925e-15 0)
(3 3.785876443e-15 0)
(3 5.730421272e-15 0)
(3 5.639596806e-15 0)
(3 2.522488807e-15 0)
(3 5.253061034e-15 0)
(3 6.940128577e-15 0)
(3 6.644380756e-15 0)
(3 4.682664488e-15 0)
(3 5.009780956e-15 0)
(3 2.890121777e-15 0)
(3 1.766753598e-15 0)
(3 3.818623143e-16 0)
(3 -1.015299704e-15 0)
(3 -9.619012266e-16 0)
(3 -1.854763596e-16 0)
(3 1.551592656e-16 0)
(3 -1.331231504e-15 0)
(3 -2.154032934e-15 0)
(3 -1.376062437e-15 0)
(3 -1.732208392e-15 0)
(3 -2.30402581e-15 0)
(3 -2.8178458e-15 0)
(3 -3.462237373e-15 0)
(2.293313834 0.001060588353 0)
(0.8675312224 0.001414840088 0)
(0.7664030156 -0.001626331855 0)
(0.7682295738 -0.002244350588 0)
(0.7694286429 -0.003467374032 0)
(0.7705883994 -0.004892136964 0)
(0.7713961115 -0.00642318034 0)
(0.7722359108 -0.00789047817 0)
(0.7733278806 -0.009338158696 0)
(0.7749841249 -0.01081005653 0)
(0.7767190624 -0.01243814167 0)
(0.7785033701 -0.01413973723 0)
(0.7802370807 -0.0155755173 0)
(0.7819264023 -0.01640386704 0)
(0.7838914832 -0.01661286203 0)
(0.7861255398 -0.01647136733 0)
(0.7886230539 -0.01639932816 0)
(0.7913529716 -0.01652709879 0)
(0.794176355 -0.01714160138 0)
(0.7970451255 -0.01809873401 0)
(0.799742622 -0.01953238709 0)
(0.8023087489 -0.0210271462 0)
(0.804604713 -0.02257026648 0)
(3 5.543978682e-16 0)
(3 1.396052616e-15 0)
(3 2.649735729e-16 0)
(3 -6.518825805e-16 0)
(3 -3.512103049e-15 0)
(3 -4.044133962e-15 0)
(3 -3.961561377e-15 0)
(3 -3.401461033e-15 0)
(3 -3.921438248e-15 0)
(3 -3.529546907e-15 0)
(3 -4.19593725e-15 0)
(3 -4.551798084e-15 0)
(3 -3.89144541e-15 0)
(3 -2.263077966e-15 0)
(3 8.792530847e-16 0)
(3 1.568438025e-15 0)
(3 2.092839605e-15 0)
(3 7.820169718e-16 0)
(3 6.435216311e-16 0)
(3 3.362307611e-16 0)
(3 -1.462995987e-15 0)
(3 -3.632801708e-15 0)
(3 -5.294119592e-15 0)
(3 -4.768658179e-15 0)
(3 -4.725557417e-15 0)
(3 -6.049429628e-15 0)
(3 -6.574305934e-15 0)
(3 -6.648359596e-15 0)
(3 -4.160360353e-15 0)
(3 -1.951487114e-15 0)
(3 -6.337575555e-16 0)
(3 -6.959494405e-17 0)
(3 -4.607209102e-16 0)
(3 -4.868754319e-17 0)
(3 -1.978703326e-15 0)
(3 -1.417992009e-17 0)
(3 3.007435454e-16 0)
(3 1.311100188e-15 0)
(3 3.654889205e-15 0)
(3 5.12857661e-15 0)
(3 3.828739291e-15 0)
(3 3.548117739e-15 0)
(3 2.792296886e-15 0)
(3 1.280992968e-15 0)
(3 -1.10772153e-15 0)
(3 -2.025206695e-15 0)
(3 -1.67505269e-15 0)
(3 -6.209391689e-16 0)
(3 -8.631972151e-16 0)
(3 -6.600256139e-16 0)
(3 -5.690003716e-16 0)
(3 1.150196726e-15 0)
(3 3.02110051e-15 0)
(3 3.172084737e-15 0)
(3 2.786049422e-15 0)
(3 2.921897579e-15 0)
(3 3.024355033e-15 0)
(3 1.961504665e-15 0)
(3 2.502069586e-15 0)
(3 3.762595451e-15 0)
(3 3.012873432e-15 0)
(3 2.98576498e-15 0)
(3 2.371891156e-15 0)
(3 1.468507424e-15 0)
(3 6.685029852e-16 0)
(3 1.163192844e-15 0)
(3 -1.648100717e-15 0)
(3 -1.314019414e-15 0)
(3 -1.568430435e-15 0)
(3 -1.52361928e-15 0)
(3 -1.919302902e-15 0)
(3 -1.616059921e-15 0)
(3 1.181344602e-15 0)
(3 4.650595154e-16 0)
(3 -6.520553789e-16 0)
(3 -3.015159446e-15 0)
(3 -4.589084315e-15 0)
(2.295932982 0.0004960640663 0)
(0.8680280652 0.0003686322342 0)
(0.7665244811 -0.00205661765 0)
(0.7679994077 -0.002566581536 0)
(0.7691401713 -0.003608990627 0)
(0.7702670935 -0.00489751755 0)
(0.7711368591 -0.006424938274 0)
(0.7719924938 -0.008114928779 0)
(0.7730093966 -0.009974907664 0)
(0.7744767555 -0.01192755598 0)
(0.7760761678 -0.01380539863 0)