/*--------------------------------*- C++ -*----------------------------------*\
  =========                 |
  \\      /  F ield         | OpenFOAM: The Open Source CFD Toolbox
   \\    /   O peration     | Website:  https://openfoam.org
    \\  /    A nd           | Version:  7
     \\/     M anipulation  |
\*---------------------------------------------------------------------------*/
FoamFile
{
    version     2.0;
    format      ascii;
    class       volVectorField;
    location    "0.5";
    object      U;
}
// * * * * * * * * * * * * * * * * * * * * * * * * * * * * * * * * * * * * * //

dimensions      [0 1 -1 0 0 0 0];

internalField   nonuniform List<vector> 5((2.861279298 0.03690698048 0) (2.924356836 0.007552021093 0) (2.823028755 0.02122533974 0) (2.9168628 0.005386812121 0) (2.824027769 -0.02696419263 0));

boundaryField
{
    inlet
    {
        type            fixedValue;
        value           nonuniform 0();
    }
    outlet
    {
        type            inletOutlet;
        inletValue      nonuniform 0();
        value           nonuniform 0();
    }
    bottom
    {
        type            slip;
    }
    top
    {
        type            slip;
    }
    obstacle
    {
        type            slip;
    }
    defaultFaces
    {
        type            empty;
    }
    procBoundary16to10
    {
        type            processor;
        value           nonuniform List<vector> 2((2.921882323 0.05273732072 0) (2.952981013 0.01192639749 0));
    }
    procBoundary16to21
    {
        type            processor;
        value           nonuniform List<vector> 3((2.767675426 0.09386353428 0) (2.71186649 0.03746392631 0) (2.727014223 -0.02625371746 0));
    }
    procBoundary16to22
    {
        type            processor;
        value           nonuniform List<vector> 3((2.916758832 -0.001863047659 0) (2.916758832 -0.001863047659 0) (2.857185906 -0.03003787576 0));
    }
    procBoundary16to23
    {
        type            processor;
        value           nonuniform List<vector> 2((2.950252773 -0.001532809208 0) (2.942482843 -0.001933519238 0));
    }
}


// ************************************************************************* //
