/*--------------------------------*- C++ -*----------------------------------*\
  =========                 |
  \\      /  F ield         | OpenFOAM: The Open Source CFD Toolbox
   \\    /   O peration     | Website:  https://openfoam.org
    \\  /    A nd           | Version:  7
     \\/     M anipulation  |
\*---------------------------------------------------------------------------*/
FoamFile
{
    version     2.0;
    format      ascii;
    class       volScalarField;
    location    "4.8";
    object      p;
}
// * * * * * * * * * * * * * * * * * * * * * * * * * * * * * * * * * * * * * //

dimensions      [1 -1 -2 0 0 0 0];

internalField   nonuniform List<scalar> 
555
(
1.001849402
1.000110128
0.9818114146
0.9961743498
0.996822847
0.9926619033
0.991705902
0.9934432892
0.9949331843
0.9968691297
0.9990844596
0.9997398189
0.9998965709
0.9996909469
0.9996228257
1.000226352
1.001752303
1.002663652
1.001981023
0.9824508735
0.9965680724
0.9975120134
0.9938818252
0.9937542559
0.9956622054
0.9968878071
0.9976936786
0.9988568169
0.9994469565
0.9995284618
0.9994833841
0.99962213
1.00036853
1.001232476
1.002659141
1.002469681
0.9841027539
0.9968409018
0.9970960721
0.9936824061
0.9939744656
0.9960835615
0.9974114282
0.998044981
0.9980420346
0.9982758119
0.998263057
0.9981862292
0.998252588
0.9991153189
1.000160465
1.001525836
1.00176569
0.9854620486
0.9966326915
0.9959512411
0.9927507676
0.9932878561
0.9953834082
0.9967513516
0.997293031
0.997191464
0.996393487
0.9960324823
0.9959892466
0.9960841241
0.9971740189
0.9989889748
0.9997944671
1.000174428
0.9867828685
0.9959545718
0.9945371258
0.991422527
0.9920424546
0.9940703193
0.9957292618
0.9962636148
0.9959892474
0.9950279208
0.9945412939
0.9944969401
0.9947957771
0.9957770362
0.9981074734
0.9996540504
0.9993923836
0.9861317083
0.9871913842
0.9955720369
0.9939967126
0.9907904756
0.9913700739
0.9933994353
0.9954364525
0.9964985355
0.9961158452
0.9951785391
0.994540053
0.9947064357
0.9947080145
0.9952776399
0.9969007454
0.9979703643
0.9975889215
0.9855383318
0.9877211846
0.9964576203
0.9951080394
0.9924787609
0.9930193136
0.9949362001
0.9964522503
0.9975300157
0.9974021163
0.9971507569
0.9969299259
0.9969715393
0.9967701971
0.9970078073
0.9966453711
0.9964417368
0.9955836202
0.9869220972
0.9892147801
0.9976318351
0.9961135713
0.9937238991
0.9941836569
0.9959849205
0.9971560064
0.9982529891
0.9985925186
0.9985609957
0.9987638536
0.9991546049
0.9997615215
1.000309187
0.9999182535
0.9982916437
0.9962580908
0.9874120222
0.9896811937
0.9970598881
0.9951259707
0.9930624696
0.9937556584
0.9956372502
0.9967693554
0.9978865498
0.9985018086
0.9987656701
0.9992360843
1.00000855
1.000995129
1.001975992
1.002126652
1.001053321
0.9984710802
0.986746946
0.9891703157
0.9955410006
0.9935129782
0.9918206533
0.9927547371
0.9948506546
0.9961533882
0.9972482132
0.9979591775
0.9984177654
0.9986393771
0.9992929934
1.000259455
1.001423554
1.001831936
1.001704294
0.986130977
0.988856056
0.9946368882
0.9931091036
0.9918726961
0.9929050928
0.9951952561
0.9967701593
0.997519563
0.9977852331
0.9977536138
0.9974198506
0.997451648
0.9982609597
0.9997104799
1.000335797
1.00028953
0.9867279644
0.9898213769
0.9954058314
0.9941958055
0.9934093462
0.994460229
0.9967167972
0.9979970558
0.9982421228
0.9977306467
0.9969130003
0.9964722032
0.9960300078
0.9965612967
0.9980795473
0.9988884369
0.998840238
0.9902504664
0.9879168332
0.991307448
0.996279899
0.9949940496
0.9942720959
0.9953971824
0.9974607208
0.998268298
0.9982151775
0.9973995182
0.9961079063
0.9957248691
0.9952594647
0.9955340357
0.9967858505
0.9980182597
0.9987707324
0.9907833676
0.9883866138
0.992144472
0.9964804639
0.9950277222
0.9943767783
0.995671634
0.997529352
0.9979061205
0.9976904258
0.997082676
0.9961379772
0.9958005823
0.995618781
0.9952547365
0.9962849429
0.9980140825
0.9993153855
0.9908481613
0.9880240501
0.9917249734
0.9958194883
0.9941944439
0.9938015441
0.9950945086
0.9969940051
0.9974802155
0.9972658186
0.9970632949
0.996866154
0.9965928931
0.9965471469
0.9965153983
0.9972631416
0.9992095878
1.000385207
0.9908907552
0.9875597962
0.9907594972
0.9948370819
0.9932530924
0.9929885993
0.9940492372
0.9961308886
0.9970939001
0.9971732436
0.9974612665
0.9979967908
0.9977244144
0.9977987181
0.9985694966
0.9992692471
1.00075101
1.001564314
0.9911681829
0.9876093795
0.9904158737
0.994182714
0.9928408775
0.9926864178
0.9937007617
0.995951424
0.9972627773
0.9975682685
0.9978852743
0.9984119216
0.998117573
0.9987611923
0.9996337928
1.001049514
1.00181987
1.002373182
0.9909743941
0.9881031459
0.990909661
0.9943662944
0.9935490839
0.9934999154
0.9947224502
0.9971161148
0.9983891531
0.9985240858
0.9982780613
0.9979759762
0.9977239246
0.9985456266
0.9996388536
1.001139733
1.001646559
1.002059738
0.9907356702
0.9883622134
0.9916875246
0.9949866501
0.9947495879
0.9950864955
0.9968724158
0.9989870469
0.9994511417
0.99901159
0.9978805323
0.9972993024
0.9972866227
0.9981846859
0.9994174435
1.000724629
1.001074055
1.001316925
0.9929345998
0.9905537153
0.9884667517
0.9920046623
0.9951495496
0.9951156679
0.9958148389
0.9980723498
1.000011659
0.9996958998
0.9989721673
0.997532032
0.9963522979
0.9968790979
0.9976482017
0.998833608
0.9997563087
0.9997069245
0.9991106173
0.9930682244
0.9902050144
0.9881409925
0.9918819375
0.9951459717
0.9950900445
0.9958904007
0.9982518404
1.00027245
0.9998933103
0.999061803
0.9973660307
0.9962336029
0.9966873049
0.997319004
0.9981746608
0.9981806312
0.9975758774
0.9965747726
0.9928520394
0.9891167016
0.9872307084
0.9911418458
0.9945801973
0.9942913315
0.9951261362
0.997677574
1.000074347
0.9999065287
0.9989681756
0.9977461037
0.9967178738
0.9969073636
0.9969508538
0.9971184812
0.9968176193
0.9967395001
0.9962422754
0.9924536761
0.9885399135
0.9873288691
0.9908843362
0.9939782638
0.993275747
0.9939414483
0.9961945304
0.9985457614
0.9990927008
0.9987583271
0.9981462671
0.9973982751
0.9973250785
0.9971392112
0.9970596613
0.9971159958
0.9972411327
0.9929385873
0.9890383124
0.9880151453
0.9913212923
0.993995541
0.9927225652
0.9927285131
0.9950293661
0.9974142242
0.9980332931
0.9979775456
0.99768528
0.9975621631
0.997498579
0.9972888289
0.9974653913
0.9980623262
0.9988735905
0.9940615147
0.9899438721
0.9887681736
0.9919794376
0.9942073665
0.9926909825
0.992425952
0.9952336338
0.9971781108
0.9974607038
0.9972999208
0.9969594506
0.9970247496
0.9971033801
0.9971590145
0.9980129935
0.9993613307
1.001097477
0.996678624
0.9948318091
0.9897983961
0.9887253774
0.9922876176
0.9939620547
0.9924998489
0.9926210832
0.9958579536
0.9973593929
0.9973191139
0.9969641491
0.9965492386
0.9967204542
0.9968224504
0.9971920189
0.9988839651
1.000451749
1.002313697
0.9968510334
0.9942383921
0.9889869205
0.988381587
0.992621405
0.9940239411
0.9929532011
0.9936626702
0.9966914981
0.9977302707
0.9976817862
0.9969676738
0.9964479907
0.9962550731
0.9963641684
0.9973625135
0.99937875
1.001635197
1.002989993
0.9944920848
0.993215715
0.9885554181
0.9883951832
0.9930434485
0.994451358
0.9937484602
0.9951813408
0.9979473631
0.9983862974
0.9974441659
0.9964649712
0.9959930959
0.9954814175
0.9963978105
0.9981886584
1.000377237
1.0024371
1.002442307
0.9925997362
0.9912078168
0.9875268431
0.9887394837
0.9932564914
0.9942300458
0.9938527205
0.9963704002
0.9989149602
0.9987627152
0.9968178802
0.9958789437
0.9953243913
0.9955652075
0.9968987523
0.9987255813
1.000828874
1.001688738
1.00056093
0.9933197827
0.9900989938
0.9867294356
0.988724682
0.9931718613
0.9935655753
0.9933349895
0.9965981725
0.9987974074
0.9982598478
0.9975288137
0.9964110718
0.9955279974
0.9958612744
0.9970429076
0.9988154742
1.000293738
1.000177782
0.9989340554
0.9947079232
0.9897952801
0.9865707107
0.9888282192
0.9935650325
0.9939304636
0.9942210892
0.9982996176
0.999734458
0.9989232272
0.9982398062
0.9969963274
0.9956497811
)
;

boundaryField
{
    inlet
    {
        type            fixedValue;
        value           nonuniform 0();
    }
    outlet
    {
        type            zeroGradient;
    }
    bottom
    {
        type            slip;
    }
    top
    {
        type            slip;
    }
    obstacle
    {
        type            zeroGradient;
    }
    defaultFaces
    {
        type            empty;
    }
    procBoundary16to10
    {
        type            processor;
        value           nonuniform List<scalar> 
18
(
0.9992485218
0.9964852023
0.9816613176
0.9954367202
0.9951697343
0.9904397439
0.9893014682
0.9912425041
0.992900601
0.9951421815
0.9975993392
0.9983648261
0.9984236293
0.9978483497
0.9976811903
0.9991529051
1.001300034
1.001300034
)
;
    }
    procBoundary16to11
    {
        type            processor;
        value           uniform 0.9987758672;
    }
    procBoundary16to15
    {
        type            processor;
        value           nonuniform List<scalar> 
35
(
0.9818634452
0.9824794421
0.9846786722
0.985965104
0.9867570424
0.9867570424
0.9928784643
0.9914254664
0.9920603117
0.9928843704
0.9921396189
0.9907157489
0.9899668907
0.9899668907
0.991873533
0.9925205289
0.9935111105
0.9942369943
0.9943705674
0.9938438939
0.993199333
0.993199333
0.9894354599
0.9894883507
0.9914270996
0.9927939504
0.9932043948
0.9947510517
0.9947510517
0.9898076082
0.9896631908
0.9890479205
0.9894679459
0.9907013251
0.992316719
)
;
    }
    procBoundary16to17
    {
        type            processor;
        value           nonuniform List<scalar> 
32
(
1.001269172
1.002054088
1.00130252
0.9996888372
0.9984292603
0.9967133197
0.9951408784
0.9960133142
0.9980270674
1.000237755
1.000237755
0.9999032571
0.9991229044
0.9990892515
0.9992306985
0.9997461076
1.000674226
1.001466731
1.001250842
1.000567685
0.9977781061
0.9959263055
0.9960271004
0.9969012004
0.9969012004
0.9995369451
1.002211116
1.003376829
1.003581848
1.001800038
0.9991622171
0.9981344137
)
;
    }
    procBoundary16to22
    {
        type            processor;
        value           nonuniform List<scalar> 
20
(
0.9956562077
0.9966326071
0.9980680592
0.9993774722
0.9992015735
0.9980007285
0.9955610909
0.9900721228
0.986507835
0.9879625355
0.9933778432
0.9952263838
0.995569506
0.9987276983
0.9996459668
0.9988057899
0.9979800261
0.9964106243
0.9956562077
0.9949731134
)
;
    }
}


// ************************************************************************* //
