/*--------------------------------*- C++ -*----------------------------------*\
  =========                 |
  \\      /  F ield         | OpenFOAM: The Open Source CFD Toolbox
   \\    /   O peration     | Website:  https://openfoam.org
    \\  /    A nd           | Version:  7
     \\/     M anipulation  |
\*---------------------------------------------------------------------------*/
FoamFile
{
    version     2.0;
    format      ascii;
    class       volScalarField;
    location    "4.8";
    object      rho;
}
// * * * * * * * * * * * * * * * * * * * * * * * * * * * * * * * * * * * * * //

dimensions      [1 -3 0 0 0 0 0];

internalField   nonuniform List<scalar> 
555
(
1.414271756
1.412489271
1.398299673
1.412613174
1.413041217
1.408684937
1.407554182
1.409162896
1.410468342
1.412274415
1.414404477
1.4149568
1.415019629
1.414726735
1.414601354
1.415171295
1.416604664
1.417384885
1.416545744
1.401264122
1.41523953
1.41590791
1.411997017
1.411624957
1.413329985
1.414343778
1.415023874
1.415999394
1.416409234
1.41634989
1.416199007
1.41631455
1.417057116
1.41780697
1.419042115
1.418581763
1.404437439
1.416956589
1.416807431
1.413029563
1.413097156
1.414928948
1.415996552
1.4164495
1.416260189
1.41635506
1.416203237
1.415998871
1.416024131
1.416862717
1.417806104
1.418974819
1.418904284
1.406755158
1.417540348
1.416481195
1.412798544
1.413116885
1.41490701
1.415965837
1.416308265
1.416077072
1.415199514
1.414721428
1.414535802
1.414539381
1.415539437
1.417227805
1.417800817
1.417942123
1.408469442
1.417183256
1.415421313
1.411751364
1.412158537
1.413899609
1.415234921
1.415548224
1.415160061
1.414090561
1.41349449
1.413316663
1.413518757
1.414418045
1.416722659
1.417981547
1.417534773
1.407938155
1.408832996
1.416797176
1.414828971
1.411043777
1.411424504
1.413181767
1.414923113
1.415772558
1.415286555
1.414240005
1.413474455
1.413511487
1.413412188
1.413898521
1.415419852
1.416211545
1.415626305
1.407037633
1.40906643
1.417387882
1.415644438
1.412460981
1.412815966
1.414477666
1.415724752
1.416621892
1.416409102
1.416055082
1.415716729
1.415627712
1.415285125
1.415359475
1.414732466
1.414180633
1.413023013
1.407570599
1.409622507
1.41771701
1.415848708
1.412917088
1.413212441
1.414801827
1.4157851
1.416731578
1.416962547
1.416824804
1.416929357
1.417226908
1.417691348
1.418043625
1.417396676
1.415326145
1.41290285
1.406113079
1.408173746
1.415387241
1.413205705
1.410673677
1.411226756
1.412955747
1.414007003
1.415044596
1.415578925
1.415777211
1.416186753
1.416885238
1.41771903
1.418472646
1.418286239
1.416701581
1.413691423
1.402228142
1.404551053
1.410897531
1.408753781
1.406749511
1.407589526
1.409622822
1.410943709
1.412061607
1.412795674
1.413276349
1.413481834
1.414064581
1.414854303
1.415722804
1.415740175
1.415057692
1.396908448
1.399649311
1.405576671
1.404044311
1.402669788
1.403676576
1.406029801
1.407753042
1.40863084
1.40899109
1.409042793
1.408734197
1.408701509
1.409323706
1.410459611
1.410660393
1.410103466
1.391391368
1.394562174
1.400410576
1.399251038
1.398481657
1.39958086
1.402030094
1.403597938
1.404068467
1.403697826
1.40303704
1.402675882
1.402192962
1.402546053
1.40373761
1.404070054
1.403513992
1.387459819
1.385241815
1.388715785
1.393974707
1.392759191
1.392143038
1.393368839
1.395736191
1.396965139
1.397201227
1.396603488
1.395541239
1.395281807
1.394829305
1.394967907
1.395894545
1.396623381
1.39681889
1.379684349
1.377414967
1.381234611
1.385825831
1.384443502
1.383923458
1.385350962
1.387589491
1.38846067
1.388579345
1.388266389
1.387630674
1.387461269
1.387346005
1.386911281
1.387626913
1.388816781
1.38947868
1.370774661
1.368091478
1.371828518
1.376130655
1.374571644
1.37430139
1.375746476
1.378070508
1.379071946
1.379203871
1.379342487
1.379509501
1.379454154
1.379496097
1.379435469
1.379859276
1.381218681
1.381701859
1.361439464
1.358280904
1.361503261
1.365745621
1.364227429
1.364073897
1.365307438
1.367831319
1.369273569
1.369672604
1.3703077
1.371216485
1.371189043
1.371341747
1.372060378
1.372390832
1.373235525
1.37336358
1.352180412
1.348833272
1.351664714
1.355562196
1.354286828
1.354233472
1.355445956
1.358128799
1.359833707
1.360399462
1.361037193
1.36191232
1.361851142
1.362528459
1.363283632
1.364238469
1.364322354
1.364235707
1.342506847
1.339854577
1.342680211
1.346225055
1.345457851
1.345490141
1.346923326
1.349696359
1.351269672
1.351594036
1.351623532
1.351626613
1.351548508
1.352345017
1.353221241
1.354156965
1.353945675
1.353765862
1.332942244
1.330784787
1.334080232
1.337390424
1.337161939
1.33754134
1.3394931
1.34190409
1.342591143
1.34228972
1.34137924
1.341007811
1.341069706
1.341866245
1.342761691
1.34340349
1.343016607
1.342701539
1.325658823
1.323676047
1.321713555
1.325145187
1.328180345
1.328099388
1.328783409
1.331114634
1.333223548
1.333029576
1.332393278
1.331085532
1.330019651
1.330495373
1.331076496
1.33179893
1.33197997
1.331193462
1.330096879
1.316966401
1.314443114
1.312301879
1.315824051
1.318799363
1.318625268
1.319340477
1.321658579
1.323669349
1.323285086
1.322471156
1.320823558
1.319677858
1.319992112
1.320343958
1.320637457
1.319897393
1.318581206
1.317148991
1.308008658
1.304558255
1.302294562
1.305830616
1.30876551
1.308286897
1.308959579
1.311322266
1.313498222
1.313190498
1.312218216
1.310928182
1.30976638
1.309763393
1.309481792
1.309062975
1.308030379
1.307260863
1.306373481
1.29868567
1.294998893
1.293116367
1.296100679
1.298522497
1.297577055
1.298019839
1.299980716
1.30195052
1.302222718
1.301792706
1.301003757
1.300025324
1.299736459
1.299203606
1.298555588
1.297900293
1.297426993
1.289957424
1.286113348
1.284313232
1.286861475
1.288745914
1.287234035
1.287022037
1.288960288
1.290860799
1.291194426
1.291006104
1.29050222
1.290091157
1.289804881
1.289261197
1.288910768
1.288842642
1.289149612
1.281582944
1.277413665
1.27551857
1.277878114
1.279301949
1.277602278
1.277166018
1.279582687
1.281088175
1.281163228
1.280905105
1.280413836
1.28024404
1.280133358
1.279896544
1.280261182
1.28100557
1.282317307
1.27482641
1.272997998
1.268002075
1.26635372
1.26907041
1.270101982
1.268561783
1.268579268
1.271472931
1.272711022
1.272590184
1.272219018
1.271795543
1.271865158
1.271862006
1.272023552
1.273258266
1.274372305
1.275921364
1.266475744
1.263986133
1.258937824
1.25795661
1.261419543
1.262496586
1.261472031
1.262169315
1.265046788
1.266058617
1.2660549
1.265466689
1.265123215
1.265038247
1.26515572
1.266008432
1.267674771
1.269563196
1.270758743
1.257369572
1.256225356
1.251934289
1.251627393
1.255641537
1.257086004
1.256602326
1.258128211
1.260975595
1.261590915
1.260916153
1.260211088
1.26008118
1.25985524
1.260805361
1.262459903
1.264413326
1.266229808
1.266382883
1.250807121
1.249788996
1.246615731
1.247731325
1.251858741
1.253175316
1.253249133
1.25586087
1.258712398
1.25884181
1.257385465
1.256828701
1.256752635
1.257273198
1.258655997
1.260372346
1.262351765
1.26320218
1.26241535
1.248813838
1.246368842
1.243657876
1.245566973
1.249817148
1.250747816
1.251154827
1.254343046
1.257056557
1.256887685
1.25656861
1.255969593
1.255687277
1.256304948
1.25756733
1.259269152
1.260691328
1.260728229
1.259802477
1.249081393
1.245237221
1.242782693
1.244923867
1.249552724
1.250414134
1.251300353
1.255272656
1.25733217
1.25695099
1.256738547
1.256104014
1.255404273
)
;

boundaryField
{
    inlet
    {
        type            calculated;
        value           nonuniform 0();
    }
    outlet
    {
        type            calculated;
        value           nonuniform 0();
    }
    bottom
    {
        type            calculated;
        value           nonuniform 0();
    }
    top
    {
        type            calculated;
        value           nonuniform 0();
    }
    obstacle
    {
        type            calculated;
        value           nonuniform 0();
    }
    defaultFaces
    {
        type            empty;
    }
    procBoundary16to10
    {
        type            processor;
        value           nonuniform List<scalar> 
18
(
1.408798348
1.4061007
1.395055811
1.408852667
1.408372274
1.403539279
1.402332508
1.404200313
1.405691221
1.40779157
1.410198634
1.410904915
1.410919852
1.410298923
1.410113762
1.411575141
1.413757546
1.413757546
)
;
    }
    procBoundary16to11
    {
        type            processor;
        value           uniform 1.41104739;
    }
    procBoundary16to15
    {
        type            processor;
        value           nonuniform List<scalar> 
35
(
1.398425941
1.401526898
1.405340452
1.407575415
1.408703313
1.408703313
1.415268076
1.4133391
1.413071761
1.412003056
1.407914762
1.401574185
1.39457113
1.39457113
1.388910284
1.381243491
1.373223337
1.364508079
1.355039748
1.344941138
1.334974237
1.334974237
1.321035009
1.312460531
1.305819864
1.298537101
1.290061219
1.28228571
1.28228571
1.268319133
1.259603168
1.251898977
1.247176148
1.245386829
1.245738732
)
;
    }
    procBoundary16to17
    {
        type            processor;
        value           nonuniform List<scalar> 
32
(
1.415631069
1.417871109
1.41808902
1.417123512
1.416178114
1.414291762
1.412220599
1.412315852
1.412807483
1.413102417
1.413102417
1.409171256
1.403225784
1.396597171
1.388919477
1.380661069
1.372122487
1.363005748
1.352639152
1.341651497
1.328544058
1.31631205
1.305989892
1.296779849
1.296779849
1.289529358
1.28324272
1.276972035
1.271526613
1.266101489
1.261499114
1.259445679
)
;
    }
    procBoundary16to22
    {
        type            processor;
        value           nonuniform List<scalar> 
20
(
1.255677147
1.256713731
1.258135647
1.259348242
1.259398969
1.258536693
1.249804302
1.245344398
1.242654783
1.244078624
1.249351691
1.251596999
1.252492533
1.25572561
1.257264895
1.25684984
1.256533556
1.25558855
1.255677147
1.254788069
)
;
    }
}


// ************************************************************************* //
