/*--------------------------------*- C++ -*----------------------------------*\
  =========                 |
  \\      /  F ield         | OpenFOAM: The Open Source CFD Toolbox
   \\    /   O peration     | Website:  https://openfoam.org
    \\  /    A nd           | Version:  7
     \\/     M anipulation  |
\*---------------------------------------------------------------------------*/
FoamFile
{
    version     2.0;
    format      ascii;
    class       volScalarField;
    location    "4.9";
    object      T;
}
// * * * * * * * * * * * * * * * * * * * * * * * * * * * * * * * * * * * * * //

dimensions      [0 0 0 1 0 0 0];

internalField   nonuniform List<scalar> 
555
(
1
1
1
1
1
1
1
1
1
1
1
1
1
1
1
1
1
1
1
1
1
1
1
1
1
1
1
1
1
1
1
1
1
1
1
1
1
1
1
1
1
1
1
1
1
1
1
1
1
1
1
1
1
1
1
1
1
1
1
1
1
1
1
1
1
1
1
1
1
1
1
1
1
1
1
1
1
0.9999999989
1
1
1
1
1
1
1
1
1
1
1
1
1
1
1
1
1
1
1
1
1
1
1
1
1
1
1
1
1
1
1.000000002
1.000000078
0.9999999962
1
1
1
1
1
1
1
1
1
1
1
1
1
1
1
1
1
1
1
1
1
1
1
1
1
1
1.000000003
1.000000022
1.000000127
1.000000576
1.000002393
1.000016032
1.000005636
1
1
1
1
1
1
1
1
1
1
1
1
1
1
1
1
1
1
1
1
1
1.000000001
1.000000006
1.000000035
1.00000019
1.000000838
1.000003571
1.000012412
1.000043062
1.000119392
1.000336847
1.000822735
1.001392637
1
1
1
1
1
1
1
1
1
1
1
1
1
1
1
1
1
1.000000001
1.00000001
1.000000058
1.000000296
1.000001296
1.000005161
1.000017642
1.000057629
1.000159782
1.000426983
1.000976491
1.002184134
1.004144664
1.007908808
1.013099968
1.01926968
1
1
1
1
1
1
1
1
1
1
1
1
1
1.000000003
1.000000018
1.000000098
1.000000471
1.000001995
1.000007693
1.00002572
1.00008006
1.000217527
1.000557832
1.001243978
1.002670797
1.005114428
1.009208818
1.014730485
1.022893503
1.032771866
1.043920294
1.055704409
1.066116233
1
1
1
1
1
1
1
1
1.000000001
1.000000006
1.000000034
1.000000179
1.000000801
1.000003229
1.000011682
1.000037851
1.000111604
1.0002991
1.000728489
1.001624791
1.003342806
1.006168442
1.010908685
1.017276918
1.025566566
1.036321254
1.048497854
1.059650499
1.069806973
1.080416516
1.089643172
1.099816317
1.102769008
1
1
1
1
1.000000002
1.000000014
1.000000072
1.000000341
1.000001432
1.000005398
1.000018258
1.000057855
1.000161339
1.000415544
1.000991185
1.0021147
1.00419278
1.007699192
1.012696626
1.020205272
1.029742604
1.039972495
1.051788966
1.063966058
1.075610803
1.086197445
1.093893819
1.100277671
1.106793513
1.112457053
1.11514088
1.116981205
1.117613071
1.000000007
1.000000036
1.000000165
1.000000701
1.000002725
1.000009671
1.00003066
1.000090488
1.00024264
1.000588287
1.00133562
1.002794342
1.005251573
1.009468263
1.015459054
1.023296317
1.034202479
1.045308718
1.055693068
1.068308408
1.079629447
1.089313612
1.097499919
1.102029076
1.105687955
1.11015378
1.11227436
1.11376974
1.114958608
1.11545542
1.11611117
1.117185064
1.11819523
1.000005661
1.000018062
1.000053619
1.000144753
1.000372562
1.000871954
1.001835545
1.003757817
1.006835039
1.011494569
1.018861609
1.027440687
1.03764683
1.050393217
1.062195121
1.074122461
1.084881592
1.092756661
1.101271106
1.109126893
1.112868862
1.115945991
1.118775645
1.119236151
1.119731415
1.120634167
1.120889107
1.120826698
1.120543059
1.119540609
1.118140188
1.11705013
1.117163669
1.000583784
1.00130248
1.002616369
1.00494982
1.008933654
1.014291564
1.022087569
1.032745958
1.042790606
1.054952011
1.068530458
1.07890395
1.089531382
1.096633726
1.101640749
1.108069613
1.111968195
1.113266854
1.115219706
1.115999189
1.116116352
1.117160296
1.119253656
1.119674834
1.119896096
1.120462534
1.121046952
1.121009695
1.120636493
1.119975264
1.119181974
1.118332302
1.117761836
1.011369564
1.018366804
1.026407889
1.037310391
1.049443387
1.060790058
1.073672363
1.084648908
1.093846217
1.104015381
1.109678962
1.113921343
1.118497042
1.120374473
1.121026651
1.122422825
1.122991697
1.122854093
1.12247305
1.121733065
1.120624997
1.1194608
1.118674211
1.118263677
1.117977804
1.1176733
1.117464672
1.117212199
1.116890632
1.116467785
1.115895548
1.115404963
1.115155124
1.054608835
1.066510453
1.077484809
1.088415764
1.095598207
1.102843304
1.110384293
1.112330581
1.11445473
1.116484186
1.117023175
1.117946027
1.11981014
1.121256547
1.121716475
1.122256523
1.122855008
1.122801235
1.122403497
1.12167503
1.120867379
1.120136761
1.119411905
1.118570469
1.117374335
1.116024336
1.115035769
1.114620326
1.114402759
1.114106373
1.114016422
1.114178322
1.114445784
1.104840892
1.10982521
1.114839787
1.119786842
1.121357557
1.122848995
1.123667887
1.123488889
1.123392484
1.123205765
1.122677564
1.122039751
1.121569963
1.120872662
1.11994408
1.118650015
1.117600295
1.117265504
1.11721177
1.116934563
1.11636604
1.115887482
1.115670752
1.115287281
1.114609207
1.113766872
1.113296126
1.11324182
1.113123902
1.113166877
1.113360493
1.113732313
1.114352053
1.113430388
1.116520465
1.120978288
1.123805206
1.124545438
1.123850251
1.123249928
1.123096414
1.122702156
1.121681321
1.120398578
1.119660731
1.119035773
1.118252814
1.1170072
1.115802349
1.115577316
1.115398877
1.115050898
1.114808515
1.11479169
1.114947842
1.115213285
1.115226948
1.115061314
1.114869078
1.114883205
1.114889197
1.114834902
1.114887683
1.114988042
1.115006243
1.11503534
1.112243984
1.11224355
1.112443759
1.112940928
1.113498336
1.11392826
1.114276562
1.114707454
1.11538155
1.116014945
1.116432385
1.116599936
1.116778451
1.116772176
1.1166608
)
;

boundaryField
{
    inlet
    {
        type            fixedValue;
        value           nonuniform 0();
    }
    outlet
    {
        type            inletOutlet;
        inletValue      nonuniform 0();
        value           nonuniform 0();
    }
    bottom
    {
        type            slip;
    }
    top
    {
        type            slip;
    }
    obstacle
    {
        type            zeroGradient;
    }
    defaultFaces
    {
        type            empty;
    }
    procBoundary14to7
    {
        type            processor;
        value           nonuniform List<scalar> 2(1 1);
    }
    procBoundary14to8
    {
        type            processor;
        value           nonuniform List<scalar> 
35
(
1
1
1
1
1
1
1
1
1
1
1
1
1
1
1
1
1
1
1
1
1
1
1
1
1
1
1
1
1
1
1
1
1
1
1
)
;
    }
    procBoundary14to9
    {
        type            processor;
        value           nonuniform List<scalar> 
17
(
1.000000007
1.000000658
1.000035781
1.000966541
1.011235862
1.051209232
1.097470928
1.112952593
1.119264092
1.119282979
1.117074623
1.115737397
1.114341126
1.113999732
1.113160398
1.101629665
1.049339711
)
;
    }
    procBoundary14to13
    {
        type            processor;
        value           nonuniform List<scalar> 
16
(
1
1
1
1
1
1
1
1
1
1.000000001
1.000001672
1.000253623
1.006679991
1.04183497
1.095618274
1.109805536
)
;
    }
    procBoundary14to20
    {
        type            processor;
        value           nonuniform List<scalar> 
19
(
1.139438634
1.134251391
1.129663354
1.126969439
1.12464949
1.122241294
1.120389653
1.119343915
1.118207698
1.11641519
1.115376883
1.115063846
1.114675287
1.113998929
1.113109017
1.112881705
1.112918395
1.112581647
1.112581647
)
;
    }
}


// ************************************************************************* //
