/*--------------------------------*- C++ -*----------------------------------*\
  =========                 |
  \\      /  F ield         | OpenFOAM: The Open Source CFD Toolbox
   \\    /   O peration     | Website:  https://openfoam.org
    \\  /    A nd           | Version:  7
     \\/     M anipulation  |
\*---------------------------------------------------------------------------*/
FoamFile
{
    version     2.0;
    format      ascii;
    class       volScalarField;
    location    "3.1";
    object      T;
}
// * * * * * * * * * * * * * * * * * * * * * * * * * * * * * * * * * * * * * //

dimensions      [0 0 0 1 0 0 0];

internalField   nonuniform List<scalar> 
22
(
0.9708945462
0.9774908226
0.974388759
0.9769635442
0.9654392851
0.9793800359
1.002145516
0.9979638546
1.01676648
1.022570681
1.016293548
1.036542397
1.037665601
1.030353441
1.027288005
1.039448472
1.039860839
1.030901039
1.03403127
1.041171428
1.040881758
1.040358538
)
;

boundaryField
{
    inlet
    {
        type            fixedValue;
        value           nonuniform 0();
    }
    outlet
    {
        type            inletOutlet;
        inletValue      nonuniform 0();
        value           nonuniform 0();
    }
    bottom
    {
        type            slip;
    }
    top
    {
        type            slip;
    }
    obstacle
    {
        type            zeroGradient;
    }
    defaultFaces
    {
        type            empty;
    }
    procBoundary10to4
    {
        type            processor;
        value           nonuniform List<scalar> 4(0.9874946122 1.006774538 0.9793330349 0.9793330349);
    }
    procBoundary10to5
    {
        type            processor;
        value           nonuniform List<scalar> 2(0.9741365526 0.9875186026);
    }
    procBoundary10to9
    {
        type            processor;
        value           nonuniform List<scalar> 5(0.9993349711 0.9603535533 0.9690625805 0.9690625805 0.9587727262);
    }
    procBoundary10to11
    {
        type            processor;
        value           nonuniform List<scalar> 6(1.013436428 1.025241705 1.027000332 1.028483932 1.03165371 1.03165371);
    }
    procBoundary10to15
    {
        type            processor;
        value           nonuniform List<scalar> 3(0.9809543973 0.9979882891 1.014492783);
    }
    procBoundary10to16
    {
        type            processor;
        value           nonuniform List<scalar> 4(1.042096281 1.042576401 1.042096281 1.046649011);
    }
}


// ************************************************************************* //
