/*--------------------------------*- C++ -*----------------------------------*\
  =========                 |
  \\      /  F ield         | OpenFOAM: The Open Source CFD Toolbox
   \\    /   O peration     | Website:  https://openfoam.org
    \\  /    A nd           | Version:  7
     \\/     M anipulation  |
\*---------------------------------------------------------------------------*/
FoamFile
{
    version     2.0;
    format      ascii;
    class       volVectorField;
    location    "3.3";
    object      U;
}
// * * * * * * * * * * * * * * * * * * * * * * * * * * * * * * * * * * * * * //

dimensions      [0 1 -1 0 0 0 0];

internalField   nonuniform List<vector> 5((2.984095863 -0.001053331922 0) (2.975922053 -0.002561619079 0) (2.968101826 -0.004307109584 0) (2.966248325 9.139000207e-05 0) (2.936061635 -0.001980335141 0));

boundaryField
{
    inlet
    {
        type            fixedValue;
        value           nonuniform 0();
    }
    outlet
    {
        type            inletOutlet;
        inletValue      uniform (3 0 0);
        value           nonuniform List<vector> 2((2.975922053 -0.002561619079 0) (2.966248325 9.139000207e-05 0));
    }
    bottom
    {
        type            slip;
    }
    top
    {
        type            slip;
    }
    obstacle
    {
        type            slip;
    }
    defaultFaces
    {
        type            empty;
    }
    procBoundary17to10
    {
        type            processor;
        value           nonuniform List<vector> 3((3.001412125 0.03401283627 0) (2.976971889 0.01721648091 0) (2.929148971 0.01183530082 0));
    }
    procBoundary17to11
    {
        type            processor;
        value           nonuniform List<vector> 2((2.996944634 0.02749021221 0) (2.991992562 0.002993563741 0));
    }
    procBoundary17to23
    {
        type            processor;
        value           nonuniform List<vector> 3((2.946875236 -0.0010642438 0) (2.946875236 -0.0010642438 0) (2.904695522 -0.00141185902 0));
    }
}


// ************************************************************************* //
