/*--------------------------------*- C++ -*----------------------------------*\
  =========                 |
  \\      /  F ield         | OpenFOAM: The Open Source CFD Toolbox
   \\    /   O peration     | Website:  https://openfoam.org
    \\  /    A nd           | Version:  7
     \\/     M anipulation  |
\*---------------------------------------------------------------------------*/
FoamFile
{
    version     2.0;
    format      ascii;
    class       volScalarField;
    location    "1.5";
    object      p;
}
// * * * * * * * * * * * * * * * * * * * * * * * * * * * * * * * * * * * * * //

dimensions      [1 -1 -2 0 0 0 0];

internalField   nonuniform List<scalar> 
2222
(
0.9978877994
0.9978377273
0.9977964452
0.9986131767
1.000211833
0.9995424279
0.9984174803
0.9982840364
0.9983425236
0.9982739325
0.9981589864
0.9970087106
0.996849336
0.9970742325
0.9975443087
0.9979064782
0.9978681052
0.9976604278
0.9976639968
0.9978771365
0.9987262909
0.9990713943
0.998842088
0.9984224184
0.9983724802
0.9987688074
0.9990318384
0.9986473589
0.9982407381
0.9982269932
0.9983293618
0.9981065405
0.9976015385
0.9975764537
0.9998087928
1.000091918
1.00042544
1.000577863
1.000949496
0.9999866724
0.9994680972
0.9997885817
0.9997494468
0.9990154038
0.9981707587
0.9975852684
0.9974786792
0.997225067
0.9970446741
0.9973966338
0.9974940599
0.9976475814
0.997580828
0.9975784467
0.9976368569
0.9982135277
0.9984614077
0.998240676
0.9982630343
0.9985667158
0.9989512258
0.9989313327
0.998682611
0.9986343561
0.9986407712
0.9983155669
0.9976210956
0.9970492117
0.9975624199
0.9978801407
0.9983603061
0.9993678561
0.9996859536
0.9995579356
1.000340949
1.000720743
1.000576117
1.000059773
0.9993211106
0.9990312829
0.9986616881
0.9978467822
0.9972638758
0.9974272271
0.9975733232
0.9977049017
0.9974659342
0.9971410225
0.9971537786
0.9972128508
0.9976850318
0.9979289593
0.9978074976
0.9976702889
0.997790413
0.9983077174
0.9986575408
0.9987265607
0.9986062418
0.99829797
0.9976870015
0.9972374931
0.9961940578
0.996636691
0.9968441147
0.9973581512
0.9968753904
0.9978536465
0.999479831
1.000348489
1.000728221
1.000931222
1.000489113
1.000159405
0.9992581974
0.9985020288
0.997876783
0.9977447028
0.9977086942
0.9977385976
0.9976498396
0.9974129161
0.9971592248
0.9968769528
0.9970657211
0.9974558707
0.9973711713
0.9971569116
0.9971234096
0.9974682679
0.9980592261
0.99835651
0.9983812914
0.998282689
0.9979341427
0.9977320168
0.9969406321
0.9958850146
0.9959632616
0.995846363
0.9960616401
0.9963233755
0.9970005586
0.998492977
0.9997375808
1.000728395
1.001123165
1.000523419
0.9999950341
0.9997592911
0.9990053371
0.9983671819
0.9980088045
0.9979622873
0.9981642692
0.9980862565
0.9975666885
0.9971710381
0.9970076182
0.9971822464
0.9973020534
0.9973315551
0.9972610313
0.9972431757
0.9974130735
0.9977426709
0.9981126349
0.9983769255
0.9983208583
0.9983247415
0.9979320819
0.9968363671
0.9966565536
0.9964412925
0.9955822035
0.9950740852
0.9961022484
0.996690626
0.9975618759
0.9985263019
0.9994279124
1.000064872
1.000577667
1.00055427
0.9999679039
0.9993690867
0.9986984904
0.9985121371
0.9986802165
0.9986813076
0.9982674495
0.997705772
0.997278112
0.9972472053
0.9975270974
0.9977922593
0.9977174787
0.9974774737
0.9973343035
0.9974481355
0.9978462084
0.9984191415
0.998721898
0.9988642561
0.9978904069
0.9982246845
0.9977618795
0.9973955961
0.9962652349
0.9960717344
0.9957302672
0.996397989
0.9963878207
0.9967043063
0.9974279798
0.9985076105
0.9993023136
0.9998285468
1.00033346
0.9999805466
0.9994336118
0.9991650855
0.9991746651
0.9992313655
0.9989674154
0.9983404216
0.9978277026
0.9977079234
0.9979414459
0.9982390255
0.9983684572
0.9981717136
0.9978526953
0.9976614032
0.9977219686
0.9982309383
0.9987892434
0.9990377737
0.9986764925
0.9991825931
0.9984685891
0.9972306506
0.9975714744
0.9974695005
0.9965643955
0.9965975728
0.9967221509
0.9969290421
0.9970895166
0.9973462252
0.9975408625
0.9980665232
0.9989169475
0.999528011
0.999532947
0.9993867112
0.9994594045
0.9995744127
0.9995486063
0.9989918291
0.9984498373
0.9982787734
0.9983613314
0.9986315898
0.9989996108
0.9990520684
0.9987159862
0.9982084166
0.9978766325
0.9980130912
0.9984402611
0.9988133201
1.000073356
0.9996781981
0.9992195275
0.998313721
0.9985623748
0.998007065
0.9980373722
0.9972465729
0.9975588867
0.9974060938
0.9970972114
0.9971255187
0.997227475
0.9972265739
0.9974095402
0.9980686871
0.9986987158
0.9991503758
0.9995086337
0.9997184468
0.9996786977
0.9994024129
0.998925952
0.9985691703
0.9983479816
0.9985271242
0.9990438171
0.9993544519
0.9992616503
0.9987973937
0.9982283157
0.9979074827
0.9979727253
0.9982635881
1.00100922
1.001077553
1.000412993
1.000017914
0.9997312961
0.9993814992
0.9986593864
0.9990268444
0.998651105
0.9985545459
0.9980691079
0.9977404854
0.9977513886
0.9978211513
0.997391869
0.9970509729
0.9971105995
0.9976255361
0.998155287
0.9985660566
0.998950405
0.9992169923
0.9993146695
0.9989178292
0.9983490009
0.9980072668
0.9980460574
0.9983344448
0.9987708752
0.9991033604
0.9990600545
0.9985949864
0.997985102
0.9977086163
0.9978108721
0.9994566541
1.000059608
1.000568864
1.000253142
1.000510068
0.9998444196
0.9997388752
0.999552124
0.9999769961
0.9994643267
0.9991012391
0.9988443663
0.9986934215
0.9985674603
0.9979104131
0.997328161
0.9970248236
0.9970435674
0.997294895
0.9975385479
0.9978810743
0.9981654453
0.9984941107
0.998439159
0.9979863378
0.9975952839
0.997448226
0.9974285305
0.9976748844
0.9981457916
0.9986834886
0.9987229828
0.9982101803
0.997710115
0.9976496063
0.9969518321
0.9979234597
0.998875671
0.9991664478
0.9993980039
0.9996797358
1.000102848
0.9998725197
1.000190427
1.000241089
1.000025103
0.9995654578
0.9993258282
0.9990124982
0.9984766336
0.9979216174
0.997466396
0.9971910441
0.9971189117
0.9972153402
0.9970933749
0.9971800088
0.9974046183
0.9977768579
0.9977426836
0.9974787185
0.9972925794
0.9971844523
0.9972126736
0.9974365762
0.9978862584
0.9984016028
0.9983690459
0.9979023415
0.9977704347
0.9958815898
0.9964359611
0.9968821514
0.9975871577
0.9978876938
0.9984976865
0.9988968405
0.9991882989
0.9994042566
1.000148596
1.000314244
0.9998487906
0.9996327344
0.9992142839
0.9988746501
0.9985641658
0.9982213635
0.9977532565
0.9974272135
0.9972938777
0.9970245329
0.9967833792
0.9968351016
0.9972720824
0.9976180552
0.9976084685
0.9975058856
0.9974046183
0.9972849063
0.9972315697
0.9972995621
0.9977561361
0.9982667895
0.9981086412
0.9980043221
0.9952896009
0.9953461087
0.9960160906
0.9963556123
0.9969121257
0.997140666
0.9975093371
0.9977009035
0.9981555721
0.9988416984
0.99951324
0.9998317533
0.999700934
0.9994164022
0.9992204351
0.9990571151
0.9986331624
0.9980798857
0.997810391
0.997477451
0.9973520563
0.9970290992
0.9970377213
0.9971560785
0.9975357787
0.9978030938
0.9978954433
0.9978100597
0.9975483303
0.9973596156
0.9973359198
0.9975163631
0.9979523587
0.9982377353
0.9981940017
0.9957825745
0.9952701919
0.9954634959
0.9956800349
0.9964405351
0.9964961493
0.9969360771
0.9969386343
0.9973673747
0.9976993461
0.9983834371
0.999304042
0.9994044942
0.9992024103
0.9991102271
0.9992378277
0.9990732917
0.9988606467
0.9987265818
0.9984333216
0.9980494434
0.9977320331
0.9975072277
0.9972969151
0.9975123498
0.9979439416
0.9981366322
0.9980540854
0.9980270997
0.9980250739
0.9978290674
0.9976641301
0.9978849455
0.9982228662
0.9983005441
0.9987223588
0.9966371059
0.9957373003
0.9958699964
0.9963204267
0.9963640816
0.9966667139
0.9967508733
0.9968181818
0.9970806984
0.9974790661
0.9981688089
0.9986943685
0.9984084991
0.9983578281
0.9989202631
0.999459373
0.999383183
0.9992097888
0.998966936
0.9987094029
0.9983566007
0.9978668911
0.9976048677
0.997655851
0.9980175654
0.9982441643
0.998222918
0.9983629123
0.998476895
0.9984833798
0.9983022249
0.99809003
0.9981791823
0.9982899288
1.000576988
0.9995381354
0.9977339342
0.9964977248
0.9965127674
0.9965818502
0.9965028844
0.9968102588
0.9966253191
0.9969253064
0.9970929795
0.9974434872
0.9979823115
0.9978343497
0.9978228004
0.9981261111
0.9988644145
0.9993420811
0.9994506405
0.9993951681
0.9991515982
0.9987137801
0.9981327465
0.9978708057
0.9979407743
0.9980864676
0.9982268569
0.9984055834
0.9986242615
0.9987492283
0.9987834344
0.9986534252
0.9984478698
0.9982520358
0.9982635791
1.001124265
1.00090429
1.000191838
0.9987074281
0.9969857208
0.996863985
0.9970748137
0.997323142
0.9974118612
0.9970298166
0.9970598729
0.997309884
0.9974890486
0.9975409885
0.9974649444
0.9974296791
0.9977229119
0.9983764533
0.9989110284
0.999147193
0.9991111014
0.9988024793
0.9984022969
0.9981717391
0.9981962414
0.9981614527
0.9981463248
0.9983547236
0.9985408557
0.9987304079
0.9988894288
0.998844803
0.9985858021
0.9983568382
0.998314695
1.001467463
1.001447438
1.000739156
0.9999842729
0.9988813471
0.9983501645
0.99827062
0.9984717025
0.9986620806
0.9983769532
0.9976314218
0.9975009881
0.9973071986
0.9973468625
0.9971346302
0.997007595
0.9970804072
0.997411232
0.9978494178
0.9981271109
0.9982868675
0.9982512427
0.9981132303
0.9980728121
0.9980869973
0.998107317
0.9981655645
0.9982367626
0.9981999176
0.9982392827
0.998396215
0.9986432194
0.9986555113
0.9984741833
0.9984384298
1.00068432
1.001325466
1.000953258
1.000214883
0.9993138378
0.99889879
0.998830885
0.9989233456
0.9992439523
0.9992179238
0.9989514972
0.9979363173
0.9974843866
0.9972682894
0.9969889689
0.9968677846
0.9968592374
0.9969665394
0.9972183306
0.9973886745
0.9975174307
0.9975520437
0.9975567381
0.9975092676
0.9974324609
0.9976393843
0.9980004089
0.9981030873
0.9979539533
0.9978486531
0.9978526461
0.9980785925
0.998351171
0.9984785442
0.9985483402
0.9988697746
0.9996468078
1.000113515
1.000017906
0.9995414527
0.9991920944
0.9991490088
0.9992196228
0.999530554
0.9995450402
0.9993537201
0.9989483985
0.9984330309
0.9978263236
0.9973250137
0.9970391219
0.9968423896
0.9969071347
0.997082157
0.9972022896
0.9972179062
0.9972332881
0.9972091156
0.9970275882
0.9968379735
0.9969623864
0.9973394863
0.9977268976
0.9978585514
0.9978103562
0.9977445624
0.9977859644
0.9979039108
0.9981368744
0.9984335899
0.997496083
0.9977652745
0.9982725589
0.9988738083
0.999107246
0.9991418066
0.9988779175
0.9989024634
0.9992029714
0.9994153618
0.9995086552
0.9992723377
0.9990943195
0.9987660461
0.998375015
0.9977733722
0.9971703068
0.9971359228
0.9972920805
0.9973304147
0.9971058245
0.9969885462
0.9969029275
0.9967109043
0.9965322717
0.9965488165
0.9966625618
0.9971567897
0.9977862213
0.9979169038
0.9978076385
0.9977406729
0.9977619666
0.9978371339
0.9980801734
0.9964116547
0.9964509198
0.9969432608
0.9978257092
0.9986804767
0.99877033
0.9986314161
0.9985547561
0.9986491381
0.9987734158
0.9990796607
0.9993282923
0.9992146999
0.999114267
0.9989735486
0.9986845563
0.9981301003
0.9978619649
0.9978879612
0.9976908696
0.9972849761
0.9969740724
0.9968396242
0.9966497322
0.9963773078
0.9962748454
0.9963838634
0.9968434588
0.9976039461
0.9980507675
0.9980842569
0.99790136
0.9978105508
0.9977952411
0.9978898356
0.9954238611
0.9952721124
0.9954632336
0.9961712818
0.9972242892
0.9981900469
0.998453296
0.9984812678
0.9984485832
0.9983861699
0.9983725951
0.998574894
0.9987920485
0.9988787247
0.9990656246
0.9990583633
0.9988408228
0.9986376045
0.9983272084
0.9983414588
0.9983349703
0.9981090582
0.9975334585
0.9970493512
0.9968235512
0.9964713918
0.9961993123
0.9962779146
0.9967652296
0.9974329748
0.9981114978
0.9984967484
0.9985152216
0.9983333468
0.9979431471
0.9978539559
0.9956148175
0.9948401104
0.9951107466
0.9958321185
0.9969490088
0.9977047896
0.9981045166
0.9983314316
0.9984084472
0.9982672253
0.99821789
0.9983110226
0.998235384
0.9982165474
0.9984013454
0.998617072
0.9987564695
0.9985852028
0.9982721941
0.998260679
0.9984111152
0.998647993
0.99849962
0.9979597376
0.9977541528
0.9975214243
0.9971100419
0.9967567873
0.9967598829
0.9973021127
0.9980339818
0.9985632608
0.9988246992
0.998859931
0.9985654081
0.9980900912
0.9978494726
0.996207925
0.995601336
0.996034723
0.9966496966
0.9972060064
0.9976707358
0.9982336476
0.9986692189
0.9986538105
0.9983732713
0.9981177733
0.9978873261
0.9977632305
0.9977645123
0.9979763785
0.9983467934
0.9983673325
0.9981071942
0.9980516034
0.998343172
0.9988336893
0.9989992732
0.9987649706
0.9986803222
0.9986653084
0.9985374104
0.9982522128
0.9977384245
0.9974658143
0.9978902582
0.9984172754
0.9987629453
0.9989112551
0.9988965471
0.9986378253
0.9995286326
0.9990453167
0.9982602503
0.9977427884
0.9971058317
0.9967750449
0.9972157681
0.9979748501
0.9986262817
0.9989795472
0.9990536321
0.9987474032
0.9979189421
0.9974378695
0.9973908318
0.9975868161
0.9980227461
0.9981951193
0.9980456359
0.9979212337
0.9981704347
0.9986341347
0.9990119747
0.9991468933
0.999177762
0.9992189235
0.9992157611
0.9991644657
0.998772352
0.9980986715
0.9978500295
0.9981270123
0.9984255078
0.9986778218
0.9988495019
0.9988502641
1.000007631
1.000105455
1.000241825
0.9998134691
0.9986592237
0.9975718389
0.9973400961
0.9976336276
0.9983188829
0.9988802198
0.9992829045
0.9993222502
0.9989236313
0.9980678248
0.9973751692
0.9973375843
0.9977138884
0.9982240508
0.9984757999
0.9983325553
0.998148551
0.9982961858
0.9988173169
0.999147463
0.9991948298
0.9992369491
0.9993138221
0.9993347639
0.9990344975
0.9985068528
0.9979792522
0.9978996728
0.9980890934
0.9982019486
0.9984972011
0.9987289109
1.000183214
1.000679781
1.000749838
1.000311474
0.9993928276
0.998612294
0.9981636923
0.9977433852
0.9980192957
0.9985070587
0.9990045063
0.9992424985
0.999399004
0.9991327777
0.9984748925
0.9980046561
0.9978953327
0.9983456278
0.9988637736
0.9988678994
0.9984381496
0.9981664997
0.9984229214
0.9988145653
0.9989187608
0.9989759661
0.9990708653
0.9990912092
0.9989594898
0.9986211925
0.9981377413
0.9978789757
0.997731165
0.9977574164
0.9979958544
0.9984072379
0.9998663302
0.9999212677
0.9999532139
0.9994777329
0.9989827515
0.9985938039
0.9985085469
0.9982245152
0.9981958225
0.9983080423
0.9986112648
0.9989556886
0.9994243977
0.9995031906
0.9992582365
0.998880411
0.9984892612
0.9984968281
0.9989007512
0.9990491461
0.9987641701
0.9981505114
0.9979309392
0.9981259056
0.9983677144
0.9984996114
0.9985836352
0.9986047101
0.9985960304
0.9984846665
0.9982575469
0.9979830209
0.9977101196
0.9975260716
0.9975083737
0.9979222333
0.9987642535
0.998575448
0.9984429234
0.9981125586
0.9982576589
0.9983265251
0.9984354973
0.9985010212
0.9985120582
0.9983595481
0.9983471043
0.9985895431
0.9991314939
0.9994406838
0.9993641436
0.9991929665
0.9989211491
0.9986478379
0.9987185716
0.9988730497
0.9988560141
0.9984634293
0.9977866594
0.9974619835
0.997433987
0.9975175834
0.9976726831
0.9978231197
0.9979939048
0.9981968998
0.9982674592
0.9981169092
0.9979825773
0.9977862698
0.997406406
0.9974785682
0.9974850872
0.9972770068
0.9971137076
0.9970354829
0.9974418514
0.9978460095
0.9981571092
0.9984751161
0.9986558771
0.9984576642
0.9982518722
0.9983226643
0.9987483523
0.9991708722
0.9991641687
0.9990979322
0.9989898641
0.9987093611
0.9986049011
0.9986700262
0.9987993995
0.9987318654
0.9980881082
0.9972969074
0.9969051374
0.996789226
0.9968478047
0.9970033553
0.9973228033
0.9977851393
0.9981298131
0.9982095969
0.9982615828
0.9982760371
0.9979426276
0.9975936546
0.9966227825
0.9967317869
0.9962783715
0.9963760731
0.9966330477
0.9970493151
0.9975624699
0.998043701
0.998421578
0.9984451918
0.9984298955
0.9984705897
0.9985962787
0.9989117927
0.9989795316
0.9989137839
0.9988434779
0.998681767
0.9985463032
0.9985302424
0.998696231
0.9988021847
0.9985219051
0.9979483042
0.99731188
0.9967657583
0.9965822306
0.9966530434
0.9969547308
0.9974228647
0.9979154548
0.9982364883
0.9984464244
0.9985896365
0.9984881212
0.9981083554
0.9961497664
0.9962376872
0.99585197
0.9960862741
0.9962942589
0.9966857218
0.9969746635
0.9973399387
0.9978394468
0.998219022
0.9985445218
0.9986044247
0.9985932562
0.9987439366
0.9988073387
0.9986978049
0.9985793886
0.9985064352
0.9984016908
0.9983314983
0.9984464753
0.9985637638
0.998577683
0.9984282123
0.9981745795
0.9978682474
0.9975151569
0.9972833182
0.9973521617
0.9974681959
0.9977124644
0.9981333921
0.9984610462
0.998637126
0.9986736583
0.9985317565
0.9965392603
0.9963398317
0.9965512215
0.9968678319
0.9968455832
0.9968981986
0.9969033067
0.9969970399
0.9973409885
0.9978493311
0.9983901954
0.9985948955
0.9985552402
0.9985740487
0.9985873134
0.998508301
0.9983178114
0.9982033112
0.9981607744
0.9981607327
0.9981453795
0.9981808693
0.9982895133
0.9984175936
0.9985127709
0.9985977674
0.9985149381
0.9982626382
0.9980342649
0.9978704019
0.9977673214
0.9980483778
0.9983646669
0.9985085189
0.9986666752
0.9987172402
0.9978715573
0.9979931137
0.9986947446
0.9986111988
0.9981090184
0.9975924118
0.997414268
0.9974652312
0.9975277362
0.9977715418
0.9981539498
0.9983220313
0.9982843401
0.9982464882
0.9982536694
0.998355988
0.9982708188
0.9980526746
0.9979649542
0.9980214179
0.998009954
0.9979417777
0.9979608018
0.9981269248
0.9982631157
0.9986206468
0.9988876502
0.9988218515
0.998540899
0.9982793043
0.9981111635
0.9981213421
0.9982109202
0.9982456961
0.9984376006
0.9986339043
0.9990115474
0.9991684628
0.9998771414
0.9995556416
0.9989741797
0.998219214
0.9979439491
0.9980564386
0.9981847316
0.9982795568
0.9982780997
0.9982713246
0.9981483725
0.9979732792
0.9979577801
0.9981810376
0.9983052226
0.9981679845
0.997968183
0.9979509318
0.9980386681
0.9980947897
0.998023539
0.9979036236
0.9978943715
0.9982739939
0.9987307539
0.998833911
0.9987129778
0.9985078948
0.9983970713
0.9983336626
0.9982621099
0.9981867234
0.998240267
0.9984558893
0.9989807007
0.9999099491
1.000029419
1.000215653
0.9998869124
0.9995813169
0.9990640244
0.9986428705
0.99859764
0.9986099701
0.9986653067
0.9986011103
0.9987159115
0.9985799939
0.9982480087
0.9981133565
0.9981635234
0.998291716
0.9983349657
0.9982447895
0.9981320768
0.9981666847
0.9982675409
0.9982819097
0.9980541676
0.9978435744
0.9978797754
0.9982666254
0.9985159159
0.9985770215
0.9985400332
0.9985389874
0.9984549742
0.9983173477
0.9982650108
0.9982102338
0.9983669274
0.9991813706
1.000256996
1.000354332
1.000235739
1.000088515
0.9999040784
0.9997438124
0.9995064432
0.9993092846
0.9990928013
0.9989764951
0.998829833
0.9989788261
0.9989697215
0.9988011295
0.9986332392
0.9984423263
0.9983642038
0.998496411
0.9986289403
0.998616723
0.9985489599
0.998466353
0.9983300093
0.9980775565
0.997893693
0.9977622116
0.9979067624
0.9981839644
0.9983321904
0.9984439169
0.9985263852
0.9984761075
0.9983515226
0.9983179367
0.9981708107
0.9982128523
0.9994142547
1.000022278
1.000127022
0.99979859
0.9998519957
0.9996156477
0.9996784457
0.9998124996
0.9997784746
0.999553262
0.9993481492
0.9991070101
0.9990612211
0.9990353712
0.9990297837
0.9989471651
0.9987184131
0.9985330805
0.9986338188
0.9988242014
0.9988733856
0.9988411461
0.9987052197
0.9983949107
0.9980615309
0.9977888995
0.9975263869
0.997473121
0.9977031414
0.9979788644
0.9982430904
0.9983937386
0.9984542972
0.9984336277
0.998371287
0.9981743761
0.9980865132
0.9991757673
0.999254459
0.9994072339
0.9989556059
0.9991224484
0.9990124351
0.9992277792
0.999552677
0.9996577786
0.999500396
0.9993859668
0.999291345
0.9990876392
0.9989883371
0.9989966855
0.9989097555
0.9987116716
0.9986283351
0.9987701001
0.9988966434
0.9988413469
0.9987869039
0.9986704471
0.9984716893
0.9982137953
0.9978814202
0.9974943339
0.9972650683
0.9973878368
0.9977378513
0.998081985
0.9982765721
0.9984036279
0.9984394245
0.9983515874
0.9982225396
0.9980792551
0.9985781524
0.9982990928
0.9984811771
0.9980265572
0.9982023883
0.9983309142
0.9987007204
0.9990272887
0.9991843614
0.9990781067
0.9990754177
0.9991670227
0.9989520485
0.9988668135
0.9988331592
0.998715498
0.9985981919
0.9986670696
0.9988332653
0.9988519311
0.9986882792
0.9985723348
0.9984433555
0.9983464248
0.9981976511
0.998029657
0.9977912006
0.9975319601
0.9974768773
0.9977460972
0.9980424932
0.9982317053
0.9983688851
0.9984167867
0.9983402218
0.998301058
0.9981902042
0.9980219055
0.9975484826
0.9976922752
0.9974018069
0.9975086363
0.9977659334
0.9981712779
0.9984910321
0.9987072257
0.9987194205
0.9987772786
0.9989044879
0.9987427015
0.9986557742
0.9985745418
0.9984546483
0.9984363103
0.9986161922
0.9987237376
0.9985926737
0.9984225789
0.9983377736
0.9982229679
0.9981124216
0.9980171664
0.998013336
0.9980417526
0.997970129
0.9978284719
0.9978451968
0.9980205302
0.9981865229
0.9983257648
0.9983898177
0.9983736704
0.9983906778
0.9983275715
0.9977208152
0.9972228485
0.9972993663
0.9974752374
0.997501828
0.9976823206
0.9979606008
0.9981894267
0.9984900924
0.9986731712
0.9987021914
0.9986945468
0.9986329168
0.9985362744
0.9984229464
0.9982854542
0.9982649435
0.998427427
0.9984477962
0.9982437205
0.9981558699
0.9981665871
0.9980824711
0.9979191001
0.9978562743
0.9979697755
0.9981989506
0.9983704963
0.998283407
0.998078909
0.9980183675
0.9981241534
0.9982916375
0.9984085595
0.9984592706
0.9984716734
0.9984303081
0.9976665083
0.9974183913
0.9974070895
0.9980210899
0.9978868826
0.997876913
0.9979967983
0.998160428
0.9985453871
0.998808542
0.9987582006
0.9986137282
0.998684539
0.9986581312
0.9985429807
0.9983627188
0.9982228679
0.9982310605
0.9981566123
0.9980155734
0.9980580146
0.9981288963
0.9980367366
0.9978574096
0.9978398096
0.998010853
0.9982819429
0.9985177709
0.9985456201
0.9983390389
0.9980771052
0.9981030112
0.9982750645
0.9984214728
0.998513776
0.9985092591
0.9984651707
0.997819096
0.9979825392
0.9980658507
0.998932912
0.9986817769
0.9984716953
0.998400724
0.9985678023
0.9989815239
0.9991835393
0.9990937689
0.9988086616
0.9988984234
0.9989117984
0.9987916216
0.998559915
0.9983211079
0.998099203
0.9979511064
0.9979462048
0.9980486274
0.9981054522
0.9980576347
0.9979806988
0.9979772194
0.9980234268
0.998144621
0.9984140767
0.9985703474
0.9984656948
0.998221488
0.998140603
0.9982402236
0.9983951167
0.9985241939
0.9985138592
0.9984670968
0.9981597324
0.9987017408
0.9989551166
0.999609168
0.9994885929
0.9991977671
0.9989820705
0.9991367994
0.9993916303
0.9994887147
0.9994412391
0.9992043632
0.9990661173
0.9990215486
0.9989234255
0.9986812576
0.9984631882
0.9980565644
0.9978924328
0.9980028782
0.9981396983
0.9982179344
0.9983475783
0.9984192133
0.9980869595
0.9978430435
0.9979199188
0.9982171303
0.998361428
0.9983738946
0.9983265661
0.998227722
0.9981829284
0.9982940477
0.9984079807
0.9983514361
0.9983190139
0.9988769739
0.9997403886
1.000053434
0.9997606779
0.9997782796
0.9995192127
0.9992933604
0.9993991944
0.9993786837
0.9993894629
0.9993950161
0.9993380103
0.9989541764
0.9987905466
0.9987461277
0.9986056716
0.9985581282
0.9981923917
0.9980225812
0.9981907748
0.9984375371
0.9985760186
0.9986870583
0.9984696079
0.9980442608
0.9977260756
0.9977930805
0.9979072643
0.998080612
0.9982206035
0.9983325364
0.9983937073
0.9983175698
0.9982632707
0.9982380134
0.9981491196
0.9981318876
0.9997061585
1.0002863
1.000356331
0.9996814109
0.9995912566
0.9994344873
0.9993329983
0.9993586225
0.9991735293
0.9991414898
0.9991286191
0.9990873771
0.9987352591
0.9984817362
0.998446838
0.9984866253
0.9986067079
0.9984461511
0.9983292102
0.998536944
0.9988449984
0.998809605
0.9985686832
0.9982936362
0.99797027
0.9978400105
0.9977593478
0.9977104186
0.9977847529
0.9981214438
0.9984077988
0.9986542034
0.9986850389
0.9984858062
0.9982118902
0.998093289
0.9980489406
0.99971658
1.000038103
1.000075863
0.999575518
0.9993075821
0.9992878707
0.9992639884
0.9992370425
0.9989145941
0.9988012532
0.9988763751
0.9988402213
0.9986035456
0.9983410476
0.9983224329
0.9985050577
0.9986752216
0.9986773807
0.9987816582
0.9989581997
0.9989154607
0.9987127516
0.9983937268
0.998065777
0.9980070463
0.9980298866
0.997820895
0.9975789458
0.9976731904
0.997999709
0.9985796109
0.9989817468
0.9990024837
0.9987774121
0.9984128977
0.9982219155
0.9980936835
0.9988568039
0.9992949798
0.9995122523
0.9994278817
0.9991165444
0.9987694265
0.9988168143
0.9987714246
0.9987485921
0.9984300405
0.9983536356
0.9985414074
0.9986505879
0.9985767401
0.9983897132
0.9983484997
0.9987798306
0.9988078365
0.9989480403
0.9990686817
0.9989876946
0.9988266936
0.9985521096
0.9982022644
0.9980368007
0.9980486976
0.9980077633
0.9978707532
0.9976422989
0.9976586191
0.998064894
0.9987287428
0.9990198029
0.9990240629
0.9987976747
0.9985503255
0.998361113
0.9982138102
0.9986865221
0.9988185004
0.9989529417
0.9988260328
0.9986622112
0.9982741821
0.9982035575
0.9980597059
0.9980720234
0.9980892659
0.998140211
0.998360751
0.9985392627
0.9986036535
0.9986429274
0.9986687046
0.9987098394
0.9989021594
0.9990574142
0.9990375032
0.998882913
0.9986278067
0.998408042
0.9981811883
0.9979814425
0.9979506143
0.9979265691
0.9978312239
0.9978113611
0.9978670315
0.9981565809
0.9984301931
0.9986773112
0.9988102373
0.9987500303
0.9985556546
0.9983338909
0.9982777282
0.9986453316
0.9984557376
0.998211955
0.9980296341
0.9982407735
0.9979776739
0.9977998937
0.9978394744
0.9980098221
0.9981213492
0.9982264577
0.9984568228
0.998668313
0.9988559392
0.9988962474
0.9987214249
0.9986043593
0.9985983493
0.9988273654
0.9987891398
0.9985648648
0.9983464464
0.9983190996
0.9981708996
0.9979094874
0.9977425128
0.9977499109
0.9978450664
0.9980188476
0.9981506848
0.9981982192
0.9982533791
0.9982869261
0.9982930151
0.9983833093
0.9984210127
0.9982400212
0.9982378545
0.9983835606
0.9981493348
0.9976348337
0.9975788804
0.9979180921
0.9978900431
0.9978082104
0.9979625402
0.9982051321
0.9984652287
0.9987400023
0.9987736005
0.9988987162
0.9988522782
0.9988643584
0.9987289311
0.9985085656
0.99845478
0.9985454364
0.9984876088
0.9982981326
0.9981650695
0.9981787255
0.9981016985
0.9978209478
0.9976270366
0.9976380496
0.997975226
0.9982682349
0.9983338365
0.9983029626
0.9981670367
0.9980224064
0.9978644142
0.997913685
0.9980489234
0.9981114562
0.9981796502
0.9980125046
0.9980019131
0.9977617038
0.9978234271
0.998049241
0.9981838356
0.9981514661
0.9984600322
0.9988239871
0.9990338903
0.9990765427
0.9988933579
0.9989408546
0.9988671242
0.9988238876
0.9986941515
0.9984448359
0.9983449267
0.9983165314
0.9982662938
0.9981090841
0.998053292
0.9980097967
0.9979745017
0.9978190217
0.9976691747
0.9976685502
0.997883668
0.9982476329
0.9983814077
0.998379775
0.9982308809
0.9978720258
0.9977659143
0.997809313
0.9979255661
0.9980028994
0.998170947
0.9979701997
0.998112278
0.9981854095
0.9982927198
0.9984547772
0.9986379097
0.9986922922
0.9990865204
0.9993089206
0.9993548067
0.9993165368
0.9990466482
0.9989247648
0.9988612509
0.9988037375
0.9986958636
0.9984521684
0.9982295732
0.9981178334
0.9980786252
0.9980609264
0.9980278924
0.9979027069
0.9979027379
0.9978867497
0.9978447507
0.997856772
0.9978864377
0.9980445805
0.9983256548
0.9983943298
0.9982016887
0.998004442
0.9978420849
0.9978632813
0.9979638935
0.9980669156
0.9981283736
0.998114244
0.9984878454
0.9987165559
0.9989744841
0.9989064758
0.9990993763
0.9992166502
0.9995692545
0.9995642115
0.9996051414
0.9995182504
0.9991391319
0.9988416816
0.9988100384
0.9987808613
0.9987378426
0.9985069115
0.9981137279
0.9979308845
0.9979986473
0.9981314045
0.9980936219
0.9979559096
0.9979345979
0.9980515978
0.9980395191
0.9979171064
0.9978603931
0.9979025705
0.9980504336
0.998224841
0.9982204214
0.9982420889
0.9982896308
0.9982602206
0.998263533
0.9982124239
0.9981520523
0.9983389832
0.9988455402
0.9998448825
1.000055917
0.9996929761
0.9996285669
0.9996729927
0.9997510961
0.9995967623
0.9996116164
0.9994576618
0.9990319503
0.9986634851
0.9986255405
0.9986757083
0.9987063748
0.9984956975
0.9980189586
0.9979224176
0.9981214935
0.9982781627
0.998227691
0.9980584381
0.9980443755
0.998070696
0.9980418019
0.9979132178
0.9978326455
0.9977771306
0.9978066807
0.9979316868
0.9981555197
0.9984569604
0.9986854473
0.9987209424
0.9986316022
0.9984528545
0.998228105
0.9985846378
0.9989621281
0.9998804915
1.000014974
0.9997272262
0.9995470466
0.9995963069
0.9995827578
0.9994218181
0.9993240351
0.9990670792
0.998847269
0.9986602197
0.998658404
0.9985658266
0.9985473719
0.9984251719
0.9981048363
0.9980974173
0.998282897
0.998439174
0.9983902971
0.9982245884
0.9981088852
0.9980000848
0.9978829847
0.9978836577
0.9978419714
0.9976767268
0.9976104778
0.997724571
0.9981162119
0.9986238554
0.9989487966
0.9989637515
0.9988225368
0.9985593669
0.9983802071
0.9986936132
0.9992382165
0.9996546515
0.9994947218
0.9994321037
0.9990816398
0.9991305253
0.9989022084
0.9988840786
0.9988143682
0.9988550692
0.9989516056
0.9988760854
0.9987919028
0.9986478729
0.9984735753
0.9984374242
0.998391282
0.9984034518
0.9985212763
0.9986413483
0.9986111102
0.9983646036
0.9980808031
0.9977619358
0.9976860538
0.9978287281
0.9978339419
0.9977127532
0.9976414275
0.9977152264
0.9980691117
0.9987175549
0.9989566665
0.9989842861
0.9988530039
0.9985937113
0.9984064017
0.9986615202
0.9991973509
0.9986257757
0.998185567
0.9984239266
0.9979930626
0.9981616901
0.9981901418
0.9985072859
0.9985339418
0.9987634048
0.9990141851
0.9990122999
0.9989428071
0.9987596524
0.9985569477
0.9985329952
0.9986293444
0.9985943981
0.9986104388
0.9986898866
0.9986499302
0.9983925503
0.9978829235
0.997588882
0.9976101852
0.9977533914
0.9978433412
0.9978271443
0.9977487342
0.9978047591
0.9981387028
0.9984456721
0.9986591581
0.9986830057
0.9985404444
0.998390031
0.9983757574
0.9984009142
0.9986761617
0.9977046545
0.9977677346
0.9977374621
0.9976790318
0.9979693175
0.998130366
0.998382609
0.9983613636
0.9985936019
0.9990800709
0.9990685243
0.9989779254
0.9989105898
0.9986959401
0.9987539182
0.998820025
0.9986206383
0.9985365558
0.998620974
0.9985835861
0.9981339024
)
;

boundaryField
{
    inlet
    {
        type            fixedValue;
        value           nonuniform 0();
    }
    outlet
    {
        type            zeroGradient;
    }
    bottom
    {
        type            slip;
    }
    top
    {
        type            slip;
    }
    obstacle
    {
        type            zeroGradient;
    }
    defaultFaces
    {
        type            empty;
    }
    procBoundary17to11
    {
        type            processor;
        value           nonuniform List<scalar> 
36
(
0.9976926161
0.9977701565
0.9984757765
0.9993754678
0.999018392
0.9988176638
0.9986219766
0.9974833651
0.9969341824
0.9970234546
0.9969278721
0.996566342
0.9972587992
0.998141352
0.9986024672
0.99855865