/*--------------------------------*- C++ -*----------------------------------*\
  =========                 |
  \\      /  F ield         | OpenFOAM: The Open Source CFD Toolbox
   \\    /   O peration     | Website:  https://openfoam.org
    \\  /    A nd           | Version:  7
     \\/     M anipulation  |
\*---------------------------------------------------------------------------*/
FoamFile
{
    version     2.0;
    format      ascii;
    class       volScalarField;
    location    "0.6";
    object      p;
}
// * * * * * * * * * * * * * * * * * * * * * * * * * * * * * * * * * * * * * //

dimensions      [1 -1 -2 0 0 0 0];

internalField   nonuniform List<scalar> 5(1.052352809 1.048119861 1.031678746 0.9583079364 0.9464850879);

boundaryField
{
    inlet
    {
        type            fixedValue;
        value           nonuniform 0();
    }
    outlet
    {
        type            zeroGradient;
    }
    bottom
    {
        type            slip;
    }
    top
    {
        type            slip;
    }
    obstacle
    {
        type            zeroGradient;
    }
    defaultFaces
    {
        type            empty;
    }
    procBoundary4to3
    {
        type            processor;
        value           nonuniform List<scalar> 2(1.02154404 1.043151652);
    }
    procBoundary4to5
    {
        type            processor;
        value           nonuniform List<scalar> 3(1.053573497 1.033599874 0.9894687372);
    }
    procBoundary4to9
    {
        type            processor;
        value           nonuniform List<scalar> 2(1.058062568 1.047528927);
    }
    procBoundary4to10
    {
        type            processor;
        value           uniform 1.016519083;
    }
    procBoundary4to11
    {
        type            processor;
        value           nonuniform List<scalar> 2(0.9480636454 0.963921634);
    }
    procBoundary4to15
    {
        type            processor;
        value           uniform 0.9310751883;
    }
}


// ************************************************************************* //
