/*--------------------------------*- C++ -*----------------------------------*\
  =========                 |
  \\      /  F ield         | OpenFOAM: The Open Source CFD Toolbox
   \\    /   O peration     | Website:  https://openfoam.org
    \\  /    A nd           | Version:  7
     \\/     M anipulation  |
\*---------------------------------------------------------------------------*/
FoamFile
{
    version     2.0;
    format      ascii;
    class       volScalarField;
    location    "3.1";
    object      p;
}
// * * * * * * * * * * * * * * * * * * * * * * * * * * * * * * * * * * * * * //

dimensions      [1 -1 -2 0 0 0 0];

internalField   nonuniform List<scalar> 
555
(
0.9876389067
0.9861840135
0.9879816605
0.9946550832
0.9910487974
0.9839068224
0.9843377913
0.9903624478
0.9963171628
0.6782686426
0.9560186597
0.9759339063
0.9843572862
0.9848622254
0.9901122607
0.9928797309
0.9869962811
0.9837302287
0.984127908
0.9901809735
0.9954665781
0.6790898122
0.9234710557
0.9581052729
0.9861624228
0.9901781551
0.9891862028
0.9863004152
0.9851430802
0.9835342396
0.9870624592
0.9902250624
0.9947614869
0.6619286339
0.889836241
0.9372256731
0.9849789349
0.9959431562
0.98717014
0.9831207979
0.9836072104
0.9871521354
0.9884059811
0.9896087794
0.9940877115
0.6486007189
0.8571826577
0.9290987009
0.9805838621
0.9941112577
0.9867012179
0.9820301777
0.9886389055
0.9898689968
0.9875367719
0.9877708381
0.9926320413
0.6331573545
0.7946801413
0.911156153
0.9735915468
0.9891716871
0.9828805383
0.986026419
0.9937173869
0.9889783257
0.984877075
0.9855898218
0.993473827
0.6104494945
0.7215244063
0.8560724512
0.9526582985
0.982442513
0.981901302
0.9909113078
0.9945104098
0.9869118752
0.9829826055
0.9854121281
0.9936090941
0.9995350366
0.5991595128
0.6831078031
0.798584174
0.9093316925
0.9735463191
0.9862333471
0.9925394759
0.9897755363
0.9843972032
0.9830937069
0.9872953565
0.9918006079
0.9972897348
0.5953946799
0.6591652772
0.769361883
0.8804517796
0.9657397116
0.9897907337
0.9912388475
0.9846033082
0.982914072
0.9858681471
0.9880897088
0.9897947187
0.9939572026
0.5837830839
0.6331769369
0.7356115019
0.8681410957
0.9646433444
0.9886929834
0.9840042416
0.9830851959
0.9850218932
0.9881446544
0.9878810731
0.987614937
0.9924868014
0.5761158314
0.6115321311
0.6854623334
0.8339992887
0.9536243463
0.9842022225
0.97849215
0.984419668
0.9887798456
0.9894967145
0.9878404442
0.988068319
0.9929579987
0.5727888923
0.599725611
0.652115663
0.7689573717
0.9170200551
0.9709396772
0.9763144383
0.9894258585
0.9904859965
0.9874850288
0.9843402852
0.9890421585
0.9947881208
0.5655933291
0.591808833
0.6338301467
0.7255133413
0.8600195206
0.9517572557
0.9806069718
0.9923891788
0.9895602205
0.9840011835
0.9844770571
0.9913503881
0.995092222
0.997007408
0.5612023724
0.582980381
0.6133712859
0.7004897645
0.8247236989
0.9377769786
0.9841917726
0.9932433231
0.9846190936
0.9834606822
0.9868290667
0.9920724151
0.9947255145
0.9970106693
0.5577467013
0.5761734024
0.596728704
0.6654947515
0.8035414491
0.9313877549
0.9839415555
0.9888179645
0.9819043203
0.9844647372
0.9887117273
0.9913238661
0.9916661203
0.9953028927
0.5526839846
0.5720238226
0.588256974
0.6307220365
0.7553469163
0.9004643578
0.9753747349
0.9827817388
0.9818889181
0.9874644079
0.9899738247
0.9880862277
0.990288518
0.9935904952
0.5505196856
0.5680666146
0.5813497383
0.6150837108
0.7058963333
0.8511385241
0.9519474454
0.9817035708
0.9851748298
0.9890568968
0.9876084968
0.9857000322
0.9915401407
0.9938894269
0.5484485882
0.5643623604
0.5746659983
0.6043552214
0.6811454306
0.8179483689
0.9307283308
0.9850806957
0.9875993555
0.9892623128
0.9838354773
0.9864680217
0.9936712285
0.9953359792
0.5450888249
0.5605417421
0.5682832708
0.5876702977
0.6539766333
0.7822076728
0.9110316178
0.9823990136
0.9900236314
0.9857476943
0.9828355588
0.9889722689
0.9953143826
0.9963032698
0.5414721511
0.5569050878
0.5650024811
0.575801751
0.6210510989
0.7288903381
0.8754560117
0.9699650792
0.9861377024
0.9839414838
0.9839815469
0.9918117716
0.995443558
0.9962007245
0.9929569
0.5370421526
0.554310271
0.5633762037
0.5703463602
0.6028388372
0.6840572789
0.8231192991
0.9431816742
0.9792494293
0.9848042856
0.9864274394
0.9930853513
0.9936037087
0.995412489
0.9927840368
0.5341913909
0.5521412931
0.5600596141
0.5661921786
0.5933139951
0.6628120506
0.7908430834
0.9267383651
0.9759430429
0.9875788182
0.9888803848
0.9912446556
0.9925526656
0.995281176
0.9932101158
0.532601152
0.5503255475
0.5580167631
0.5611838143
0.5797680604
0.643058477
0.7720914066
0.9195709254
0.9752606034
0.9902266753
0.9893303558
0.9878662214
0.9935081404
0.9969839487
0.9951258937
0.5311067986
0.5482042039
0.5567779821
0.5573210517
0.5687684341
0.6125653625
0.72440755
0.8815443895
0.9691540658
0.9894142741
0.9874009044
0.9860938618
0.995538853
0.9983499687
0.9964645427
0.5291663567
0.5447244207
0.5572197073
0.5560323802
0.5627344965
0.592479501
0.671248007
0.8156998611
0.940744643
0.9846761923
0.985809267
0.9870724187
0.9968765095
0.9972908917
0.9954649615
0.5270360619
0.54076824
0.5567370809
0.553816297
0.5574594381
0.5844333055
0.647192855
0.7721764806
0.903582261
0.9736089211
0.9853758612
0.9880265549
0.9952659056
0.9947827661
0.9936883149
0.5244733918
0.5373081402
0.5555659866
0.5519288306
0.5535829093
0.5752460924
0.6348318374
0.7532369116
0.8871348907
0.9694547786
0.986556291
0.9874085606
0.9915763366
0.9937126129
0.9942489167
0.9892881656
0.5214219051
0.5344751313
0.5542861554
0.5499332161
0.5509676947
0.5650100288
0.6100507162
0.7249352664
0.8782635639
0.971425851
0.9888445927
0.9871820678
0.9893890806
0.9951215881
0.9953499027
0.989885797
0.5193017058
0.5317604564
0.5530284318
0.5498402494
0.5491623953
0.5591305794
0.5878251753
0.6743654982
0.8352488687
0.9560281142
0.9857160493
0.9849833458
0.9905235569
0.9968320042
0.9960934864
0.9901658721
0.5184223144
0.5286112916
0.5518120896
0.5488161862
0.545719498
0.554034328
0.5783095643
0.6424697307
0.7741276414
0.9119186663
0.973398857
0.9811040509
0.9924182586
0.9978093014
0.9965128203
0.9894013608
0.5182550983
0.5250989882
0.5491714455
0.5514581498
0.5433141572
0.5513449737
0.5715258443
0.6275668117
0.7403300063
0.8709663277
0.9606908128
0.9801272504
0.9935677866
0.9967974059
0.9963413115
0.9886925613
0.5185174256
0.5217616127
0.5455806116
0.553240551
0.5432010898
0.549995137
0.5634557763
0.6087681157
0.718145801
0.8588701804
0.9569195429
0.9829929533
0.9933879717
0.9936423466
0.9968387448
0.9894170214
0.518572837
0.5189190815
0.542638029
0.5545734163
0.5430856815
0.5472691385
0.5571639126
0.5849497389
0.6794313127
0.8452888621
0.961576222
0.9854571176
0.9906325713
0.9928911674
0.997570752
0.990501331
0.517606579
0.5164341081
0.5398085451
0.5549501726
0.5429766872
0.5428929391
0.5518130023
0.573459583
0.6402913754
0.7947845966
0.9467869991
0.9832151635
0.9851647163
0.9936090393
0.9989144387
0.9917499608
0.5171860324
0.5141882005
0.5371107402
0.5548394018
0.5427415119
0.5402393683
0.5479466538
0.5688291512
0.6200397356
0.7332468741
0.8908711528
0.9663528676
0.9820862466
0.9958120481
0.9999984852
0.9922050314
0.9894665943
0.517168029
0.5121482291
0.5345851632
0.5542830431
0.5426906527
0.539348406
0.5461069782
0.5626316091
0.6072075152
0.6999769826
0.8414234441
0.9432528161
0.9813906599
0.9970955226
1.000406593
0.9923108434
0.987516548
0.5177999019
0.5099936015
0.5319503773
0.5533705873
0.5440487962
0.5391478891
0.5442854834
0.5537771005
0.5876370588
0.6800522616
0.8142494238
0.9251008476
0.9840430164
0.9975225861
1.000305762
0.9912289087
0.98503715
0.5188362645
0.5081008576
0.5293421782
0.553012664
0.5444393216
0.5375969944
0.5409208906
0.5490128419
0.574774971
0.6478298995
0.7965857043
0.9256277358
0.9832280013
0.9950382447
0.999313243
0.9902852932
0.9845227004
0.5210905831
0.5066202833
0.5266784923
0.551728618
0.5466304883
0.535689181
0.5389337305
0.5467787988
0.5682259888
)
;

boundaryField
{
    inlet
    {
        type            fixedValue;
        value           nonuniform 0();
    }
    outlet
    {
        type            zeroGradient;
    }
    bottom
    {
        type            slip;
    }
    top
    {
        type            slip;
    }
    obstacle
    {
        type            zeroGradient;
    }
    defaultFaces
    {
        type            empty;
    }
    procBoundary21to15
    {
        type            processor;
        value           nonuniform List<scalar> 
13
(
0.9985310049
0.9950239568
0.9895907427
0.9893503334
0.9895322004
0.9865999891
0.9873346865
0.9914780251
0.9966331341
0.7114756661
1.031515261
0.9837561761
0.9837561761
)
;
    }
    procBoundary21to22
    {
        type            processor;
        value           nonuniform List<scalar> 
35
(
0.9953028722
0.9947533749
0.9951249501
0.9966405161
0.9998991857
1.001211184
1.001211184
0.998514943
0.9962461802
0.9940256691
0.9933303687
0.9940437055
0.9964817218
0.9964817218
0.9942424499
0.9940663665
0.9929044212
0.9913570135
0.9909409923
0.9919530214
0.9927234235
0.9927234235
0.9895126023
0.9899953105
0.9910820359
0.9923103367
0.992042277
0.9897140688
0.9887989552
0.9887989552
0.9894263787
0.9898974273
0.9896395428
0.9883506939
0.9880579938
)
;
    }
    procBoundary21to27
    {
        type            processor;
        value           nonuniform List<scalar> 
18
(
0.6216986188
0.7563167465
0.9103611784
0.9777256216
0.9886724216
0.9977254597
0.9910714908
0.9847923271
0.5231386478
0.5053929171
0.5240306734
0.5498305564
0.5484064716
0.534919484
0.5377567534
0.5445704416
0.6216986188
0.5615211863
)
;
    }
    procBoundary21to28
    {
        type            processor;
        value           nonuniform List<scalar> 8(0.9886372909 0.9893495983 0.9900142824 0.9900142824 0.9960984127 0.9951731668 0.9930693395 0.9934605216);
    }
}


// ************************************************************************* //
