/*--------------------------------*- C++ -*----------------------------------*\
  =========                 |
  \\      /  F ield         | OpenFOAM: The Open Source CFD Toolbox
   \\    /   O peration     | Website:  https://openfoam.org
    \\  /    A nd           | Version:  7
     \\/     M anipulation  |
\*---------------------------------------------------------------------------*/
FoamFile
{
    version     2.0;
    format      ascii;
    class       volScalarField;
    location    "3.3";
    object      rho;
}
// * * * * * * * * * * * * * * * * * * * * * * * * * * * * * * * * * * * * * //

dimensions      [1 -3 0 0 0 0 0];

internalField   nonuniform List<scalar> 
555
(
1.400566653
1.404557441
1.425841605
1.496991183
1.651858613
1.857282923
2.019807418
2.183568411
2.233316753
2.225490558
2.196292512
2.160740863
2.121497465
2.065219919
2.003797624
1.910401198
1.40467506
1.422792974
1.484215882
1.58409035
1.700957534
1.815906059
1.945619688
2.037959838
2.117538435
2.168969595
2.168602955
2.15106742
2.107273111
2.049095788
1.998215997
1.912301816
1.42529075
1.477806798
1.580459577
1.693163604
1.74573191
1.781849586
1.839243473
1.91480635
2.020084355
2.11520919
2.140120469
2.120498722
2.073133444
2.031031446
1.99430392
1.915078885
1.483611482
1.588594452
1.677454965
1.740789045
1.765192319
1.772139631
1.786298417
1.815293394
1.870970514
1.944732989
2.018618487
2.044466609
2.039142907
2.025035997
1.998505494
1.92706551
1.582228567
1.696174747
1.761638203
1.76792719
1.770014515
1.768912688
1.762057734
1.752711272
1.759842901
1.797336364
1.869011137
1.945329711
2.000338648
1.990796082
1.95385173
1.890142236
1.685052906
1.738231215
1.774945028
1.776136815
1.773984992
1.763635638
1.744221544
1.717419119
1.692868273
1.695144193
1.722948261
1.785643174
1.874242049
1.914031361
1.909584186
1.883198286
1.765239146
1.765293087
1.771906785
1.775072924
1.767851492
1.748210877
1.718506254
1.687956956
1.653759208
1.630662786
1.631919794
1.658222716
1.723340358
1.797742365
1.867660755
1.855183443
1.78042231
1.779431369
1.776502525
1.768419896
1.749482342
1.721732691
1.687977817
1.6560143
1.625934185
1.593332167
1.572002514
1.574615701
1.595946597
1.65460279
1.755516687
1.788777492
1.776097348
1.779058742
1.770652022
1.750727534
1.72270472
1.689019804
1.658147825
1.625790385
1.595891042
1.567363689
1.537813766
1.519192969
1.520309019
1.544089157
1.598936539
1.695293329
1.778578915
1.77064593
1.751292962
1.722141879
1.688700142
1.657572832
1.625971166
1.595999173
1.565397038
1.541118158
1.515340908
1.484647578
1.467519485
1.468799467
1.485523744
1.573850692
1.772565568
1.752356712
1.722291352
1.689372489
1.657311363
1.626786075
1.594079872
1.564144749
1.540250044
1.513154209
1.488222419
1.460804264
1.432534395
1.417456408
1.418760186
1.465843542
1.752880161
1.723834449
1.688650038
1.657514532
1.626808063
1.592551494
1.563595062
1.538645505
1.513070267
1.484460326
1.45592312
1.436574126
1.411757589
1.381835952
1.371805531
1.386597629
1.724345173
1.6906947
1.65844239
1.626191731
1.591731893
1.56043439
1.537209507
1.512029489
1.479492297
1.453339385
1.431465346
1.409052146
1.388754476
1.35773129
1.33933231
1.331302682
1.69155101
1.658499352
1.62725331
1.590529858
1.558865532
1.535622895
1.508701134
1.476936882
1.447348593
1.426921676
1.407642526
1.379641001
1.358636142
1.336482618
1.316395819
1.293817639
1.659712738
1.62627007
1.589707466
1.556953192
1.532603804
1.506784376
1.471537919
1.442443593
1.424082554
1.40165719
1.377861644
1.350220392
1.33001917
1.314007997
1.294097402
1.266044258
1.627308784
1.589436432
1.554910044
1.530801951
1.502985507
1.467632828
1.437831655
1.41786378
1.399339669
1.370105721
1.34459512
1.324385083
1.305340529
1.289358837
1.270032837
1.240773351
1.588293925
1.55352674
1.527022665
1.500811033
1.464196078
1.432110971
1.414554644
1.392277635
1.365638929
1.337607327
1.316071362
1.300458393
1.281547576
1.261394298
1.242426374
1.216921356
1.550861629
1.524390255
1.497109997
1.460444542
1.428660085
1.406932557
1.387826451
1.357969711
1.329657109
1.310053163
1.291243723
1.276065648
1.254456235
1.230830057
1.216948313
1.195083583
1.520497848
1.493294755
1.458512723
1.422359704
1.401847968
1.379833183
1.351932935
1.323321816
1.301023225
1.284931563
1.267086448
1.247438726
1.222609649
1.205251817
1.195648877
1.173042409
1.4888736
1.454361072
1.417980811
1.392970174
1.373666204
1.345175648
1.315501854
1.294214769
1.275484807
1.259423982
1.239105867
1.214269334
1.196365834
1.185705982
1.173608688
1.146409786
1.451033389
1.411644782
1.386327777
1.365223067
1.340289437
1.309074135
1.283702612
1.267744447
1.249562561
1.230956208
1.206816493
1.186804232
1.177583945
1.165488512
1.148161798
1.118949311
1.408293193
1.376709323
1.357320761
1.333869057
1.29995636
1.275617778
1.257612382
1.242400207
1.223052597
1.199114544
1.178508354
1.166026093
1.154798348
1.136550075
1.115670545
1.088286072
1.37014203
1.348278651
1.326328935
1.295064426
1.264333769
1.249174033
1.233915194
1.213286829
1.190601123
1.1696487
1.155388527
1.145171439
1.127758879
1.104070116
1.086366534
1.069005865
1.338128128
1.317467147
1.288120085
1.255515935
1.238875129
1.226337766
1.203790152
1.180249294
1.159599175
1.143638719
1.131054169
1.115024833
1.092251515
1.070203007
1.054376678
1.054232869
1.307478884
1.282689792
1.245727569
1.227042978
1.214790334
1.194696781
1.169465201
1.15085427
1.136221746
1.119998203
1.10500104
1.082785295
1.060303638
1.053377063
1.047676791
1.05295601
1.274362658
1.240852144
1.214589494
1.203687111
1.186596339
1.157672542
1.138110753
1.123291005
1.105666951
1.088711547
1.067695871
1.046035062
1.03892648
1.042712558
1.046698199
1.096764919
1.233940648
1.201233601
1.188905728
1.176306733
1.149828168
1.127217687
1.111758774
1.095005736
1.076300975
1.057716014
1.043975763
1.036691847
1.037257845
1.046902072
1.081180865
1.199591365
1.192200099
1.174977748
1.162518983
1.139973189
1.111703259
1.094462699
1.079471771
1.058145989
1.040317007
1.029888658
1.031585648
1.036783897
1.05907905
1.123181421
1.203899934
1.305689909
1.158490561
1.14833396
1.132579339
1.102938433
1.082174631
1.067766639
1.049213762
1.035928864
1.028067639
1.027137606
1.035377471
1.079759658
1.156637312
1.256083743
1.336551951
1.376895631
1.130043722
1.115786093
1.089257239
1.064322593
1.047590761
1.03266937
1.020062427
1.021668214
1.02657497
1.047558566
1.10893244
1.213437628
1.31264096
1.344095953
1.367792854
1.388053605
1.103237475
1.081178417
1.051166882
1.035777047
1.02756352
1.018752884
1.017001298
1.025090527
1.07334988
1.151126533
1.248046411
1.308527712
1.357304568
1.368481845
1.373902817
1.38414277
1.063609413
1.033187886
1.014778551
1.009164889
1.012233742
1.016152454
1.043753391
1.107181759
1.209386943
1.307607871
1.362378166
1.370850424
1.381011896
1.388085879
1.387662812
1.388497381
1.024971296
1.008775438
1.006090444
1.005975589
1.01612367
1.062174413
1.160005186
1.271061122
1.310113655
1.34812193
1.380126791
1.38158636
1.386141616
1.391497135
1.392880532
1.391872576
0.9932310068
0.9962663545
1.00427764
1.03789052
1.103527887
1.202970194
1.289674586
1.366950017
1.375282852
1.375834673
1.379874853
1.380838864
1.383779094
1.389174415
1.391176882
1.390609957
0.9906832135
1.006105077
1.056254355
1.161739464
1.267065053
1.35004992
1.365679063
1.381335257
1.387021166
1.385744908
1.385181534
)
;

boundaryField
{
    inlet
    {
        type            calculated;
        value           nonuniform 0();
    }
    outlet
    {
        type            calculated;
        value           nonuniform List<scalar> 
34
(
1.91040395
1.912306805
1.915084446
1.9270672
1.890143207
1.883197297
1.855181488
1.788777009
1.695296021
1.5738512
1.465847915
1.386602463
1.331297148
1.293811606
1.266050038
1.24078461
1.216914883
1.195065594
1.173041326
1.146429036
1.118966022
1.0882796
1.068996112
1.054230153
1.052947047
1.096765188
1.199601997
1.305709913
1.376904606
1.388064183
1.384136351
1.38847323
1.391869369
1.390618912
)
;
    }
    bottom
    {
        type            calculated;
        value           nonuniform List<scalar> 
16
(
1.400566653
1.404557441
1.425841605
1.496991183
1.651858613
1.857282923
2.019807418
2.183568411
2.233316753
2.225490558
2.196292512
2.160740863
2.121497465
2.065219919
2.003797624
1.910401198
)
;
    }
    top
    {
        type            calculated;
        value           nonuniform 0();
    }
    obstacle
    {
        type            calculated;
        value           nonuniform 0();
    }
    defaultFaces
    {
        type            empty;
    }
    procBoundary5to4
    {
        type            processor;
        value           nonuniform List<scalar> 
34
(
1.400045925
1.400513077
1.404064955
1.422687372
1.481082927
1.59150261
1.698054353
1.747344352
1.768245495
1.781451902
1.781596453
1.772620214
1.754362248
1.727003817
1.693654125
1.659624258
1.625960883
1.58839388
1.549208786
1.516720314
1.484006185
1.444470148
1.402597522
1.363196076
1.327678118
1.295846328
1.264071519
1.227920677
1.183233965
1.144716079
1.115466295
1.080251025
1.050639021
1.009200897
)
;
    }
    procBoundary5to10
    {
        type            processor;
        value           uniform 0.9916210175;
    }
    procBoundary5to11
    {
        type            processor;
        value           nonuniform List<scalar> 
17
(
1.384331718
1.385543042
1.386434527
1.386977722
1.387870342
1.021859251
1.107149408
1.220541575
1.287140629
1.332488155
1.374194681
1.373790022
1.376029684
1.381472053
1.385545061
1.384331718
1.386323389
)
;
    }
}


// ************************************************************************* //
