/*--------------------------------*- C++ -*----------------------------------*\
  =========                 |
  \\      /  F ield         | OpenFOAM: The Open Source CFD Toolbox
   \\    /   O peration     | Website:  https://openfoam.org
    \\  /    A nd           | Version:  7
     \\/     M anipulation  |
\*---------------------------------------------------------------------------*/
FoamFile
{
    version     2.0;
    format      ascii;
    class       volVectorField;
    location    "2";
    object      U;
}
// * * * * * * * * * * * * * * * * * * * * * * * * * * * * * * * * * * * * * //

dimensions      [0 1 -1 0 0 0 0];

internalField   nonuniform List<vector> 
2222
(
(3.143175406 0.002005686568 0)
(3.143136585 0.004513387395 0)
(3.143553209 0.006505509349 0)
(3.143956321 0.004872726359 0)
(3.144290875 0.003019673157 0)
(3.144252421 0.004550735086 0)
(3.14433548 0.007300581031 0)
(3.143921081 0.007391867682 0)
(3.143764994 0.00420171549 0)
(3.143427516 0.003019684252 0)
(3.143082021 0.005032096698 0)
(3.142791437 0.007225000074 0)
(3.142345814 0.005767996127 0)
(3.112272726 0.004071449389 0)
(3.115326464 0.005117402946 0)
(3.117497743 0.006708767879 0)
(3.117579228 0.007122757928 0)
(3.11691735 0.00672432938 0)
(3.116269996 0.004956738497 0)
(3.116091582 0.003320078344 0)
(3.117013204 0.003748091663 0)
(3.119125559 0.005662037349 0)
(3.121579812 0.007369021075 0)
(3.12401842 0.007971305868 0)
(3.125331886 0.007039406152 0)
(3.126121037 0.004705985129 0)
(3.126625498 0.002998838014 0)
(3.127281381 0.002216078359 0)
(3.128070147 0.003102310256 0)
(3.129008424 0.00518060682 0)
(3.130143345 0.006751738589 0)
(3.130723548 0.007027438201 0)
(3.130826603 0.005872783791 0)
(3.130731304 0.004271074666 0)
(3.130565023 0.003325499569 0)
(3.130395143 0.003835930886 0)
(3.130525695 0.004899127009 0)
(3.13108671 0.005302709232 0)
(3.131367153 0.004274042183 0)
(3.131762939 0.002896084572 0)
(3.132282155 0.002746856797 0)
(3.132896037 0.004421395615 0)
(3.133896242 0.005996431782 0)
(3.134507526 0.005449070378 0)
(3.135073484 0.003937084205 0)
(3.135365749 0.004207277657 0)
(3.135643343 0.005800937625 0)
(3.135727305 0.00586377724 0)
(3.13578125 0.00439916095 0)
(3.135852888 0.003507560133 0)
(3.135594377 0.004739383916 0)
(3.135526697 0.006365784461 0)
(3.090989992 0.005923935905 0)
(3.09340429 0.006524557033 0)
(3.094047625 0.006270944813 0)
(3.09395246 0.00620034898 0)
(3.093979326 0.005819885826 0)
(3.094072395 0.004868652893 0)
(3.095080608 0.004770095432 0)
(3.097253033 0.00559976793 0)
(3.100180483 0.006346001641 0)
(3.102949796 0.007125181833 0)
(3.104740498 0.0069023789 0)
(3.105672617 0.006166317243 0)
(3.106634369 0.00537059605 0)
(3.107688218 0.004672122045 0)
(3.108944163 0.004072831024 0)
(3.11037862 0.004009902592 0)
(3.111790672 0.004680444914 0)
(3.112794185 0.00563902076 0)
(3.113489932 0.006296210427 0)
(3.113900257 0.00637357673 0)
(3.114262745 0.005673010957 0)
(3.114674092 0.004485453543 0)
(3.115304327 0.003662173681 0)
(3.116062854 0.003887205466 0)
(3.116944672 0.004564890918 0)
(3.117839778 0.004582406779 0)
(3.118793234 0.003688590141 0)
(3.119978862 0.003133670384 0)
(3.121235709 0.004443450959 0)
(3.122440909 0.005942217802 0)
(3.123340586 0.00572172216 0)
(3.124152231 0.004899079452 0)
(3.124774428 0.004909426528 0)
(3.125087242 0.005594575189 0)
(3.125527733 0.005603283147 0)
(3.125822652 0.004412493095 0)
(3.125770271 0.00346985034 0)
(3.125462434 0.004113725769 0)
(3.125373405 0.005768632777 0)
(3.069306692 0.006881080335 0)
(3.071800178 0.007708038188 0)
(3.072870958 0.008053837532 0)
(3.07348904 0.007362607271 0)
(3.073964219 0.005895266387 0)
(3.07430287 0.005079161824 0)
(3.075403149 0.005160959671 0)
(3.077423163 0.005780729774 0)
(3.080231187 0.005983588111 0)
(3.08304252 0.005283291679 0)
(3.085030989 0.003505317088 0)
(3.086136278 0.002739873427 0)
(3.087406891 0.003038053529 0)
(3.088649497 0.003941286318 0)
(3.09009203 0.004822626361 0)
(3.091825752 0.005352901028 0)
(3.093573445 0.00522288004 0)
(3.094992415 0.004617247985 0)
(3.095961584 0.004367124631 0)
(3.096736897 0.004750218555 0)
(3.097444816 0.00518797234 0)
(3.09816743 0.005047841314 0)
(3.099078259 0.004459833795 0)
(3.100162738 0.003771198094 0)
(3.101404311 0.003509525924 0)
(3.10268607 0.003634873993 0)
(3.104042342 0.003731040199 0)
(3.1055906 0.00388368843 0)
(3.107225666 0.004492949233 0)
(3.108696155 0.004995622349 0)
(3.109983442 0.00550401603 0)
(3.111180567 0.005390087705 0)
(3.112025687 0.004563862294 0)
(3.112607384 0.003914328209 0)
(3.113299878 0.004401211599 0)
(3.113741714 0.00497540391 0)
(3.113665498 0.004598705935 0)
(3.113389797 0.003921726241 0)
(3.113313646 0.003967784378 0)
(3.051481026 0.002082594227 0)
(3.054056326 0.003653022339 0)
(3.05550342 0.005581690629 0)
(3.056538259 0.005355362128 0)
(3.05735007 0.003620673753 0)
(3.057941157 0.001858870165 0)
(3.059191993 0.002012254257 0)
(3.060926993 0.004011611829 0)
(3.063258193 0.005756728784 0)
(3.065734556 0.00620321982 0)
(3.067693477 0.005905396336 0)
(3.069160344 0.005370136661 0)
(3.070428119 0.005105070981 0)
(3.071690558 0.005080857818 0)
(3.073254342 0.005208501965 0)
(3.075059801 0.00514625709 0)
(3.076882083 0.004856715446 0)
(3.078469566 0.004527496727 0)
(3.079659359 0.004598557725 0)
(3.08054917 0.005254535014 0)
(3.081264103 0.005758384927 0)
(3.082087929 0.005733603176 0)
(3.083139548 0.005056334644 0)
(3.084414239 0.004026642094 0)
(3.085830699 0.003343759814 0)
(3.08739399 0.003245325612 0)
(3.088985756 0.003833116038 0)
(3.09069485 0.004820625316 0)
(3.092498605 0.005067446228 0)
(3.094193258 0.004578503247 0)
(3.095753897 0.004487132846 0)
(3.0971997 0.005027969981 0)
(3.098300463 0.005372522869 0)
(3.099158691 0.00503637432 0)
(3.099925419 0.004646171936 0)
(3.100422455 0.004826925639 0)
(3.100325091 0.005197649231 0)
(3.100065828 0.004724819926 0)
(3.100056869 0.004013712502 0)
(3.03839138 0.003977256271 0)
(3.040546143 0.007781645412 0)
(3.04220186 0.008690234153 0)
(3.0435244 0.007382473891 0)
(3.044282045 0.006303010333 0)
(3.044901498 0.005764596794 0)
(3.045982393 0.006643630357 0)
(3.047406438 0.007977925772 0)
(3.049184191 0.008756534251 0)
(3.051159922 0.008647488181 0)
(3.053020814 0.008087227862 0)
(3.054596625 0.006757197675 0)
(3.055897076 0.005053133724 0)
(3.057193371 0.003209418635 0)
(3.058643239 0.001979872975 0)
(3.06039503 0.002148867565 0)
(3.062296338 0.003619187281 0)
(3.063787421 0.005457664316 0)
(3.064850556 0.006799957718 0)
(3.06574641 0.006847695555 0)
(3.06646898 0.005619993909 0)
(3.067157239 0.00418898667 0)
(3.068120044 0.003342434625 0)
(3.069418991 0.003468812888 0)
(3.070819372 0.004102138358 0)
(3.072402933 0.004157026995 0)
(3.074114065 0.003739475075 0)
(3.075830821 0.003456023776 0)
(3.077597022 0.003290719259 0)
(3.0794933 0.003425018818 0)
(3.08132218 0.00420485124 0)
(3.082919405 0.005200151625 0)
(3.084246179 0.005668847909 0)
(3.085289893 0.005360587988 0)
(3.086097378 0.004638602241 0)
(3.086589669 0.004096110384 0)
(3.086541121 0.003955445265 0)
(3.086336351 0.004372220742 0)
(3.08633784 0.004975845957 0)
(3.028826725 0.00989241617 0)
(3.031083627 0.01065371231 0)
(3.032820125 0.008990361981 0)
(3.034059192 0.008281193849 0)
(3.034699591 0.007462821463 0)
(3.03505772 0.006352518716 0)
(3.03569629 0.005650389408 0)
(3.036658689 0.006122171172 0)
(3.037781196 0.006301467043 0)
(3.039243766 0.006297076514 0)
(3.040568053 0.005010581671 0)
(3.041980612 0.002923126592 0)
(3.043376751 0.001145333814 0)
(3.044829094 0.0008621552891 0)
(3.046358019 0.002265929062 0)
(3.047692058 0.004983961863 0)
(3.049055805 0.007485691462 0)
(3.050655465 0.008025400568 0)
(3.051745335 0.006661969725 0)
(3.052438732 0.004666840359 0)
(3.053035825 0.003166285048 0)
(3.053683718 0.003406716508 0)
(3.0543304 0.00457190706 0)
(3.055304562 0.005428810438 0)
(3.056645126 0.004818260798 0)
(3.058049869 0.003099543271 0)
(3.059566614 0.001962859745 0)
(3.061316845 0.002285001062 0)
(3.063097688 0.00356512849 0)
(3.064877 0.005295434586 0)
(3.066778845 0.00638883622 0)
(3.068687442 0.006177566634 0)
(3.07018086 0.00506663407 0)
(3.07132339 0.003890741078 0)
(3.072228162 0.003445495456 0)
(3.072827761 0.003996092054 0)
(3.072846604 0.004800625052 0)
(3.072699429 0.005279445962 0)
(3.072761309 0.005217376433 0)
(3.024339749 0.00587008323 0)
(3.026259346 0.005421876294 0)
(3.027238933 0.005151085019 0)
(3.027638553 0.004086897291 0)
(3.027668658 0.002903817441 0)
(3.028022682 0.00218391666 0)
(3.028611834 0.002741251714 0)
(3.029147675 0.003282845829 0)
(3.03004118 0.003600869819 0)
(3.030795419 0.002757747144 0)
(3.032012084 0.002065103492 0)
(3.033170769 0.002735526457 0)
(3.034186605 0.004766423701 0)
(3.03511271 0.007368889801 0)
(3.036568429 0.008125166043 0)
(3.037568367 0.006259512271 0)
(3.038586035 0.003587919171 0)
(3.039770607 0.00202066148 0)
(3.040787167 0.002565087093 0)
(3.04135067 0.004515531851 0)
(3.041340262 0.006732709271 0)
(3.041840721 0.006643184371 0)
(3.042418336 0.004035537058 0)
(3.043354719 0.001651292714 0)
(3.044644935 0.001465565633 0)
(3.045878128 0.003024758678 0)
(3.047040504 0.004998040667 0)
(3.048794759 0.006256450009 0)
(3.050807978 0.00616834938 0)
(3.05273708 0.004712712471 0)
(3.054632592 0.00313131112 0)
(3.056332625 0.002833404124 0)
(3.057647485 0.003718226508 0)
(3.058463801 0.004984548225 0)
(3.05907895 0.006037103124 0)
(3.059453411 0.005859235976 0)
(3.059492093 0.00460186655 0)
(3.059591089 0.003567031981 0)
(3.021389603 0.003709837069 0)
(3.022664438 0.005624857411 0)
(3.02329925 0.00567975646 0)
(3.023432914 0.004506670549 0)
(3.023207066 0.003394279618 0)
(3.023253595 0.003494370029 0)
(3.023453641 0.004749314661 0)
(3.023373673 0.005925105872 0)
(3.0234712 0.006918586485 0)
(3.023691451 0.006786798772 0)
(3.024291045 0.006746310493 0)
(3.02516992 0.007212788712 0)
(3.026158888 0.007031571779 0)
(3.026690586 0.005547347148 0)
(3.02707415 0.00330049019 0)
(3.028118195 0.001956823382 0)
(3.028925718 0.002038074336 0)
(3.029716198 0.003936776676 0)
(3.03029741 0.006987183073 0)
(3.030839443 0.008810077633 0)
(3.031055738 0.007065838403 0)
(3.031049367 0.003756865884 0)
(3.031379235 0.002144670609 0)
(3.031773893 0.002901164702 0)
(3.032191625 0.004956110734 0)
(3.033028527 0.006219449568 0)
(3.034280144 0.005300449087 0)
(3.035705789 0.003805020795 0)
(3.03767937 0.002688467371 0)
(3.039833591 0.002285905649 0)
(3.041699376 0.003190746989 0)
(3.043016991 0.005138438622 0)
(3.043945445 0.006732468564 0)
(3.045082131 0.006226111262 0)
(3.045906845 0.004795033968 0)
(3.046551118 0.00331358458 0)
(3.046956906 0.002916925291 0)
(3.047233272 0.004021275156 0)
(3.020810511 0.007066670136 0)
(3.021495336 0.009525336198 0)
(3.021767161 0.008824461183 0)
(3.021764723 0.007673704817 0)
(3.021502816 0.006829499942 0)
(3.021423882 0.006947782327 0)
(3.021434259 0.00813584565 0)
(3.020991927 0.008914407224 0)
(3.020529488 0.009314553396 0)
(3.020311748 0.008709014183 0)
(3.020380008 0.007180244271 0)
(3.020531988 0.005503701639 0)
(3.020620615 0.003841397434 0)
(3.021152958 0.001229731128 0)
(3.021573601 0.0008736176102 0)
(3.021802645 0.002499608474 0)
(3.022075046 0.005452261725 0)
(3.022450035 0.007838138234 0)
(3.022970708 0.007957126965 0)
(3.022778605 0.006022580326 0)
(3.023037742 0.003559821917 0)
(3.023013806 0.002814183833 0)
(3.022786592 0.00408998545 0)
(3.022498854 0.005913805764 0)
(3.022679561 0.005572224674 0)
(3.022698692 0.00346882061 0)
(3.023826061 0.001953582006 0)
(3.025270213 0.001893321733 0)
(3.026791788 0.002913494974 0)
(3.028328597 0.00459760479 0)
(3.02963965 0.006593923157 0)
(3.030982638 0.0071242249 0)
(3.031850351 0.005588198748 0)
(3.032805131 0.003240672288 0)
(3.033947214 0.002423230562 0)
(3.034926163 0.003032004121 0)
(3.035351026 0.004861462551 0)
(3.035560119 0.006335086268 0)
(3.021650714 0.009613439182 0)
(3.021918631 0.009977834728 0)
(3.021800004 0.008750005572 0)
(3.021776694 0.007647644353 0)
(3.0215211 0.006668841861 0)
(3.021311708 0.006087022034 0)
(3.021170079 0.006794565276 0)
(3.020590678 0.007171382433 0)
(3.019970423 0.007067594268 0)
(3.019486557 0.006420950391 0)
(3.018994869 0.004914330157 0)
(3.018762282 0.002738805437 0)
(3.018552866 0.0008902700233 0)
(3.018605622 0.001179384499 0)
(3.018826925 0.003498849956 0)
(3.018969999 0.006602538835 0)
(3.019040621 0.007747514995 0)
(3.018908348 0.006767182887 0)
(3.018711729 0.005578689683 0)
(3.018576024 0.003206828809 0)
(3.018269423 0.003398263257 0)
(3.017932347 0.00518118569 0)
(3.017497935 0.006439660306 0)
(3.016969551 0.00516026513 0)
(3.016359084 0.003211356777 0)
(3.016529467 0.001207068024 0)
(3.016938079 0.001743378721 0)
(3.017808174 0.003713279988 0)
(3.018803592 0.005742685311 0)
(3.019783108 0.006604704909 0)
(3.020681722 0.005802094314 0)
(3.021257489 0.00428786515 0)
(3.022349518 0.002898215868 0)
(3.023070049 0.002509304574 0)
(3.023848319 0.003937305349 0)
(3.024553714 0.0059354384 0)
(3.025276996 0.006711914791 0)
(3.025625626 0.004808049179 0)
(3.02208126 0.008171088066 0)
(3.022214597 0.008151455033 0)
(3.022000194 0.007141210193 0)
(3.021921746 0.006124823971 0)
(3.021643083 0.005104629342 0)
(3.021435754 0.004469346677 0)
(3.021309309 0.005042018623 0)
(3.020768599 0.005275519881 0)
(3.020036686 0.004811518674 0)
(3.019461119 0.00395181197 0)
(3.018827782 0.002204602539 0)
(3.018407276 0.00155800642 0)
(3.018286668 0.002414457362 0)
(3.018462122 0.00461335168 0)
(3.01865882 0.006482726099 0)
(3.018476681 0.006785943796 0)
(3.018118617 0.005862924406 0)
(3.017743207 0.004570489764 0)
(3.017043659 0.003001924369 0)
(3.016690901 0.003805850352 0)
(3.016440656 0.006043761008 0)
(3.016010175 0.006870038029 0)
(3.015209133 0.005332505144 0)
(3.014339872 0.003136479937 0)
(3.013526022 0.001371467984 0)
(3.01333401 0.002000092805 0)
(3.013564477 0.00437758463 0)
(3.014062958 0.005955550008 0)
(3.014574066 0.006071225459 0)
(3.014982742 0.005298941475 0)
(3.015234595 0.003653391312 0)
(3.015509717 0.002790152445 0)
(3.015832786 0.003334891419 0)
(3.016241124 0.004800068588 0)
(3.016644208 0.006367339027 0)
(3.017185225 0.00610691173 0)
(3.017468909 0.004503206311 0)
(3.018299336 0.002960777641 0)
(3.022182041 0.006615509741 0)
(3.02252504 0.006458602387 0)
(3.022462836 0.005523738221 0)
(3.022420484 0.004569947902 0)
(3.022237834 0.00339279582 0)
(3.022022706 0.002556729584 0)
(3.021943326 0.003252349442 0)
(3.021388928 0.003940880883 0)
(3.020643606 0.004256596648 0)
(3.019971573 0.003950807416 0)
(3.019311858 0.003503292932 0)
(3.019122416 0.00423484694 0)
(3.019071635 0.005397249045 0)
(3.019002978 0.005747955165 0)
(3.01876241 0.005486067651 0)
(3.018449685 0.005004103898 0)
(3.017997718 0.003831444078 0)
(3.017467622 0.002927744808 0)
(3.016981346 0.004266511146 0)
(3.016821156 0.006598280885 0)
(3.016437875 0.007149927027 0)
(3.015583601 0.005744918884 0)
(3.014546692 0.003629335684 0)
(3.01351997 0.002000063737 0)
(3.013023016 0.002807833953 0)
(3.012906545 0.004710860635 0)
(3.01285183 0.005439731644 0)
(3.012710757 0.005034304144 0)
(3.012701449 0.004742561996 0)
(3.012548911 0.003413324893 0)
(3.012443932 0.002931291678 0)
(3.012529216 0.004128737773 0)
(3.012660639 0.005722415176 0)
(3.012758591 0.006171621639 0)
(3.012781876 0.005630771077 0)
(3.012883461 0.004622164082 0)
(3.013120095 0.003032862901 0)
(3.013462163 0.003610427489 0)
(3.022947624 0.005605181921 0)
(3.022840959 0.005338025149 0)
(3.022699402 0.00461479504 0)
(3.022663929 0.003552940174 0)
(3.0224257 0.003181256301 0)
(3.02238488 0.004157371519 0)
(3.021966687 0.005397032675 0)
(3.021229341 0.00621096587 0)
(3.020579945 0.006313705276 0)
(3.01995833 0.006125997184 0)
(3.0196539 0.005606109347 0)
(3.019426208 0.005009425644 0)
(3.01916782 0.004540029372 0)
(3.018825481 0.004243354652 0)
(3.018583567 0.003321429389 0)
(3.018290563 0.00300836832 0)
(3.017922206 0.004464585842 0)
(3.017669028 0.006620799504 0)
(3.017271784 0.006894242043 0)
(3.016567012 0.005997631739 0)
(3.015696491 0.004291937377 0)
(3.014796895 0.002815482427 0)
(3.014132246 0.003562175686 0)
(3.013676554 0.00516140071 0)
(3.013221753 0.004920157675 0)
(3.012750867 0.004236984956 0)
(3.012426299 0.003719493133 0)
(3.012122173 0.003150624808 0)
(3.011945918 0.003400970697 0)
(3.012076418 0.004690115526 0)
(3.012113898 0.006084239488 0)
(3.01177777 0.006056151235 0)
(3.0113699 0.00504780798 0)
(3.011028134 0.004208561928 0)
(3.010745859 0.0030835652 0)
(3.010910357 0.003803516554 0)
(3.011267952 0.005432048855 0)
(3.022864007 0.006921701229 0)
(3.022732399 0.007319217624 0)
(3.022583366 0.006516942008 0)
(3.022655541 0.005448898554 0)
(3.022387983 0.005211494717 0)
(3.022376198 0.006352069571 0)
(3.022030162 0.007434440793 0)
(3.021338702 0.007601100956 0)
(3.020841604 0.007153531168 0)
(3.020166396 0.006069956227 0)
(3.01972454 0.004725083762 0)
(3.019455329 0.003995117408 0)
(3.019280747 0.003440018568 0)
(3.019220641 0.002701238755 0)
(3.018981738 0.002963783588 0)
(3.018653057 0.004542717615 0)
(3.018314555 0.00616120015 0)
(3.01794971 0.006345689703 0)
(3.017433409 0.005871112032 0)
(3.016783595 0.004834464855 0)
(3.016155018 0.003611386997 0)
(3.01546575 0.004359236089 0)
(3.014764342 0.005512712705 0)
(3.01402929 0.005064958395 0)
(3.013356528 0.003861507312 0)
(3.012898669 0.002968300579 0)
(3.012655153 0.002487752743 0)
(3.012478103 0.00352353017 0)
(3.012585614 0.005059077131 0)
(3.012543799 0.00579481953 0)
(3.012168828 0.005586187318 0)
(3.011600266 0.004950310405 0)
(3.010977995 0.003751359692 0)
(3.010441908 0.003144996971 0)
(3.010363858 0.00401649383 0)
(3.010668124 0.005608408035 0)
(3.01064539 0.0055194482 0)
(3.010339505 0.004631521657 0)
(3.022211538 0.008882730014 0)
(3.022168295 0.008994786383 0)
(3.022128567 0.007764138109 0)
(3.022335923 0.006345575413 0)
(3.022126675 0.005560905345 0)
(3.022176683 0.006436575684 0)
(3.021920082 0.007194318445 0)
(3.021284324 0.007038108388 0)
(3.020802516 0.006485726796 0)
(3.020104885 0.005269043061 0)
(3.0195885 0.003837760334 0)
(3.019494104 0.002858891233 0)
(3.019395385 0.002301603824 0)
(3.019278914 0.002766911974 0)
(3.019040014 0.004463406637 0)
(3.018682378 0.005721605764 0)
(3.018377243 0.005652839443 0)
(3.017928728 0.005529055159 0)
(3.017545783 0.004913276451 0)
(3.017099296 0.004187932946 0)
(3.016509817 0.004859477442 0)
(3.015728178 0.005947795223 0)
(3.014992378 0.005257665891 0)
(3.014148252 0.004238082556 0)
(3.013580477 0.002765144344 0)
(3.013291131 0.002206686919 0)
(3.013131017 0.003193100897 0)
(3.013053313 0.005080424217 0)
(3.012992055 0.005615385374 0)
(3.012724114 0.00513092323 0)
(3.012260369 0.004825919302 0)
(3.011788945 0.003740027137 0)
(3.011228121 0.003189323115 0)
(3.010845529 0.004175089123 0)
(3.010840301 0.00560049711 0)
(3.010779741 0.005645321111 0)
(3.010488424 0.004736445334 0)
(3.010050722 0.003580755302 0)
(3.021648688 0.008864600661 0)
(3.021667204 0.008826550436 0)
(3.021650664 0.007501105001 0)
(3.021915294 0.005962731441 0)
(3.021673739 0.005002607438 0)
(3.021672423 0.005666730973 0)
(3.021496349 0.006445119797 0)
(3.02092716 0.00627894926 0)
(3.020480822 0.005724191938 0)
(3.019840678 0.004218259807 0)
(3.019453157 0.00281643506 0)
(3.01927012 0.002367391426 0)
(3.019097505 0.002862089743 0)
(3.018906442 0.004300595947 0)
(3.018716276 0.005258288667 0)
(3.018518489 0.005195422393 0)
(3.018169645 0.004865158444 0)
(3.017915255 0.004466742911 0)
(3.017577341 0.00431208566 0)
(3.017099069 0.005164115725 0)
(3.016386832 0.00629374114 0)
(3.015741234 0.005756915923 0)
(3.01493895 0.004611755402 0)
(3.014278284 0.003288999634 0)
(3.013779053 0.002358081871 0)
(3.013466389 0.003178787187 0)
(3.013267559 0.004619553697 0)
(3.013242886 0.005204138682 0)
(3.013098175 0.0049291356 0)
(3.012879673 0.004424986132 0)
(3.012579739 0.003779812376 0)
(3.012108837 0.00363546494 0)
(3.011654029 0.004365473344 0)
(3.011254088 0.005490605975 0)
(3.011031233 0.005436054128 0)
(3.010804094 0.004935797534 0)
(3.010587544 0.003848481432 0)
(3.010229099 0.003896719656 0)
(3.020870728 0.008109993127 0)
(3.020764864 0.008215605033 0)
(3.020724706 0.00694494281 0)
(3.021018399 0.005364097763 0)
(3.020843354 0.004317592785 0)
(3.020988804 0.004861809077 0)
(3.02088157 0.005479480404 0)
(3.020412511 0.005411205813 0)
(3.01998428 0.004885696198 0)
(3.01938805 0.00360049609 0)
(3.018959343 0.002914216409 0)
(3.01862662 0.003335304513 0)
(3.018378175 0.004197120524 0)
(3.018316664 0.004725463958 0)
(3.018279819 0.004777307049 0)
(3.018049833 0.004474212916 0)
(3.017856579 0.003881061864 0)
(3.017567135 0.00405780355 0)
(3.017186113 0.00518728399 0)
(3.016615493 0.006542055094 0)
(3.016186295 0.006247818886 0)
(3.015483881 0.005242178687 0)
(3.014807167 0.00380744255 0)
(3.014128948 0.003061109158 0)
(3.013613333 0.003386012591 0)
(3.013197973 0.004418338831 0)
(3.013189084 0.004472112951 0)
(3.013181501 0.004512516303 0)
(3.013110595 0.004212352679 0)
(3.013009841 0.003728988721 0)
(3.012702136 0.003942338261 0)
(3.012217223 0.004874285289 0)
(3.01173447 0.005368549688 0)
(3.011322765 0.005217578528 0)
(3.010989335 0.004789699281 0)
(3.010864587 0.00406602851 0)
(3.01067251 0.003858201165 0)
(3.010327306 0.004959180365 0)
(3.019566872 0.006940201487 0)
(3.019644789 0.007266384 0)
(3.019738421 0.006174065849 0)
(3.020041797 0.004758023872 0)
(3.019818842 0.003655585698 0)
(3.019925925 0.004091558575 0)
(3.01985424 0.004968833168 0)
(3.019465068 0.005407772323 0)
(3.019104979 0.005100072689 0)
(3.018544045 0.004224690275 0)
(3.018099815 0.004191924586 0)
(3.017838782 0.004272715233 0)
(3.017697117 0.004250028585 0)
(3.017652244 0.004222365584 0)
(3.017549719 0.004114259799 0)
(3.01733874 0.003666818859 0)
(3.017103688 0.003715830107 0)
(3.016808827 0.004905003648 0)
(3.016435118 0.006303605963 0)
(3.016176858 0.006542305432 0)
(3.015655618 0.005838819754 0)
(3.015026882 0.004645609509 0)
(3.014354068 0.003753220369 0)
(3.013619457 0.00405859856 0)
(3.013086308 0.004523821068 0)
(3.012859699 0.004268927723 0)
(3.012824165 0.003859861725 0)
(3.012891059 0.003837968861 0)
(3.012835395 0.003774611791 0)
(3.012713963 0.004033775178 0)
(3.012384702 0.005116160157 0)
(3.011979457 0.005476759146 0)
(3.011606715 0.005035680177 0)
(3.011171789 0.00471213777 0)
(3.010937349 0.003991430063 0)
(3.010739791 0.003880026615 0)
(3.010477434 0.00475370825 0)
(3.010161549 0.005191368878 0)
(3.018117682 0.00597009716 0)
(3.018226898 0.006850188949 0)
(3.018453341 0.006016145855 0)
(3.018688203 0.004798155994 0)
(3.018345549 0.003769421431 0)
(3.018269166 0.004394038478 0)
(3.018288209 0.005555549679 0)
(3.017983588 0.00619794652 0)
(3.01782611 0.006094588887 0)
(3.017546783 0.005576504185 0)
(3.017284867 0.004841714373 0)
(3.017028423 0.003992936009 0)
(3.016800157 0.003694039128 0)
(3.016671771 0.003541608079 0)
(3.016510358 0.003362391709 0)
(3.016318669 0.003670172874 0)
(3.015991211 0.004506534798 0)
(3.015846611 0.005662721379 0)
(3.01578719 0.006176649137 0)
(3.015444186 0.006073708172 0)
(3.014909612 0.005311372064 0)
(3.014293743 0.004623700788 0)
(3.013529982 0.00469774996 0)
(3.012972543 0.005117378557 0)
(3.012567046 0.004423937795 0)
(3.012238341 0.003721682701 0)
(3.012171205 0.003284134122 0)
(3.012145543 0.003622610798 0)
(3.012106696 0.004301380967 0)
(3.011951541 0.005086506719 0)
(3.011821646 0.005404347376 0)
(3.011604148 0.005103470305 0)
(3.011294183 0.004578538911 0)
(3.010868699 0.004016768507 0)
(3.010548689 0.003820137884 0)
(3.01028115 0.004647121844 0)
(3.01000747 0.005214647262 0)
(3.009807152 0.00477082971 0)
(3.016171272 0.007375858591 0)
(3.016488991 0.006629783201 0)
(3.016743865 0.005617849113 0)
(3.016581491 0.004658973225 0)
(3.016460076 0.005139172929 0)
(3.01675204 0.006726770885 0)
(3.016738445 0.006979406901 0)
(3.016549709 0.006681895691 0)
(3.016284072 0.005746261973 0)
(3.016056453 0.004427973346 0)
(3.015641603 0.003369294765 0)
(3.015527787 0.002950662866 0)
(3.015376096 0.00288961399 0)
(3.015174879 0.003520719689 0)
(3.014927097 0.004433194863 0)
(3.015048597 0.005211788984 0)
(3.014964692 0.005404151154 0)
(3.01480788 0.005653805485 0)
(3.014443449 0.005450813089 0)
(3.01395178 0.005169701426 0)
(3.013152167 0.005378666231 0)
(3.012725315 0.005621303967 0)
(3.012171867 0.005044235604 0)
(3.011655818 0.00394358204 0)
(3.011395765 0.003060527363 0)
(3.01122265 0.0031138222 0)
(3.011094503 0.004167385422 0)
(3.011134381 0.005215753211 0)
(3.011244613 0.005323234555 0)
(3.011186857 0.005018389865 0)
(3.01102819 0.004690319215 0)
(3.010636482 0.003987721537 0)
(3.010139335 0.003967039125 0)
(3.00979775 0.004543613484 0)
(3.009558611 0.005237333985 0)
(3.0094884 0.004935121318 0)
(3.009298113 0.004272657721 0)
(3.014146277 0.008604640053 0)
(3.014663756 0.007926344209 0)
(3.015054953 0.006487458473 0)
(3.014922498 0.005049469893 0)
(3.014780928 0.005348570408 0)
(3.014911505 0.006928597625 0)
(3.015053726 0.006848182785 0)
(3.014823901 0.006322560038 0)
(3.01442943 0.005093715816 0)
(3.014085613 0.003466314009 0)
(3.014099105 0.002630958214 0)
(3.01393643 0.002615159514 0)
(3.013584971 0.003218616414 0)
(3.013681934 0.004365020079 0)
(3.013781154 0.005067172846 0)
(3.013826313 0.004977484148 0)
(3.01357952 0.004898660792 0)
(3.013419258 0.004929883725 0)
(3.013173556 0.005213882465 0)
(3.012543458 0.005683450123 0)
(3.012145577 0.006042817178 0)
(3.011656511 0.005503995439 0)
(3.010898561 0.004410123929 0)
(3.010595319 0.003150997841 0)
(3.010291237 0.002875078004 0)
(3.010010809 0.003683966361 0)
(3.010137013 0.005000859473 0)
(3.01026727 0.005316484513 0)
(3.010346459 0.004977090463 0)
(3.010274201 0.004576757614 0)
(3.010063794 0.004172802372 0)
(3.009622191 0.004063211566 0)
(3.009181015 0.004636421582 0)
(3.008894157 0.005008607747 0)
(3.00889806 0.005077425128 0)
(3.008784339 0.00447848639 0)
(3.008308796 0.003888515397 0)
(3.011663321 0.008904253228 0)
(3.012358125 0.007948081181 0)
(3.012755283 0.006294279796 0)
(3.012525621 0.004766838258 0)
(3.012445448 0.005153636649 0)
(3.012222113 0.006531646044 0)
(3.012177657 0.006116580416 0)
(3.012253464 0.005536785772 0)
(3.012232904 0.004103561157 0)
(3.01208452 0.002970071674 0)
(3.012201743 0.002751867349 0)
(3.012038882 0.003242651277 0)
(3.012169167 0.004268240014 0)
(3.012240695 0.004862532512 0)
(3.012290778 0.004820451565 0)
(3.011933017 0.004330033066 0)
(3.011938401 0.004143713696 0)
(3.01188588 0.004693008783 0)
(3.011468614 0.005493871255 0)
(3.011269502 0.006157529674 0)
(3.010833871 0.005887398689 0)
(3.009972386 0.004830528602 0)
(3.00964002 0.003548042987 0)
(3.009282558 0.002956670742 0)
(3.00879007 0.00332029613 0)
(3.008917336 0.004445241928 0)
(3.009067032 0.005022320367 0)
(3.009090955 0.0050263871 0)
(3.009017138 0.004536281408 0)
(3.009064374 0.004133129487 0)
(3.00883671 0.00430727612 0)
(3.008481182 0.004663269517 0)
(3.008282173 0.005073269271 0)
(3.008144247 0.004873516483 0)
(3.008001152 0.004645712011 0)
(3.007657736 0.004024714552 0)
(3.007151379 0.004172709076 0)
(3.008050398 0.008488289942 0)
(3.00880239 0.007289811518 0)
(3.009199143 0.005598815906 0)
(3.009145306 0.004117410211 0)
(3.009141445 0.004431375679 0)
(3.009086577 0.005491708796 0)
(3.009385797 0.00563379984 0)
(3.009542099 0.005359867592 0)
(3.009695422 0.004200218817 0)
(3.009816828 0.003457089644 0)
(3.009941061 0.00380382371 0)
(3.01016001 0.004274107173 0)
(3.010290955 0.00462350958 0)
(3.010099467 0.004683049685 0)
(3.009958849 0.004159088075 0)
(3.010101868 0.003796448094 0)
(3.010244292 0.004039922514 0)
(3.010035106 0.005032631757 0)
(3.009940172 0.005943983746 0)
(3.009589495 0.00593716403 0)
(3.008748342 0.005150381288 0)
(3.008411937 0.004177742685 0)
(3.008089274 0.003490529891 0)
(3.007568837 0.003492860849 0)
(3.007589939 0.004197916332 0)
(3.007616353 0.004365398111 0)
(3.007520495 0.004560623763 0)
(3.007611495 0.004551369164 0)
(3.007713691 0.004313710522 0)
(3.007646602 0.004281021933 0)
(3.007594314 0.004861798564 0)
(3.007542056 0.005004445192 0)
(3.007346244 0.004907881721 0)
(3.007043678 0.004487249634 0)
(3.006818715 0.00416568132 0)
(3.006413979 0.004192836867 0)
(3.006101329 0.004761977398 0)
(3.003776827 0.007058743849 0)
(3.00492631 0.006496924036 0)
(3.005469085 0.005485970819 0)
(3.005538404 0.004262771748 0)
(3.005707708 0.004341684937 0)
(3.005861371 0.005306754752 0)
(3.006283173 0.006032611375 0)
(3.006428437 0.006001903998 0)
(3.006612699 0.005119623539 0)
(3.006878343 0.004695438706 0)
(3.006869612 0.004370629953 0)
(3.007067757 0.004238436715 0)
(3.007065852 0.004090033156 0)
(3.007345026 0.003960555543 0)
(3.007605786 0.003930992507 0)
(3.007982549 0.004036526344 0)
(3.00808522 0.00470615566 0)
(3.008067356 0.005573077239 0)
(3.007849176 0.00580893489 0)
(3.007170451 0.00526961069 0)
(3.006818642 0.004610780058 0)
(3.006600797 0.004310136916 0)
(3.00607416 0.004067526219 0)
(3.006107731 0.00453404666 0)
(3.006118989 0.004264785144 0)
(3.005802082 0.003866926531 0)
(3.005897232 0.003993477015 0)
(3.006109233 0.00436528056 0)
(3.006168959 0.004460559593 0)
(3.006259542 0.00481508101 0)
(3.006373438 0.005016313462 0)
(3.006348048 0.004839635855 0)
(3.005901797 0.004569025044 0)
(3.005660329 0.004078310226 0)
(3.005511196 0.004222385655 0)
(3.005190747 0.004736611019 0)
(3.005124459 0.005048677128 0)
(2.999657256 0.006762425391 0)
(3.000859193 0.006939757994 0)
(3.001452881 0.006213658828 0)
(3.001536214 0.005009713264 0)
(3.001762789 0.00485781241 0)
(3.002197934 0.006029364731 0)
(3.00246306 0.0069455239 0)
(3.002681288 0.006739710551 0)
(3.002671007 0.005813905766 0)
(3.002736816 0.005049420682 0)
(3.00262565 0.004098351107 0)
(3.002977353 0.003420108976 0)
(3.003670852 0.003541541719 0)
(3.004295434 0.004010025575 0)
(3.004879828 0.004496747723 0)
(3.005274973 0.004732912427 0)
(3.005396188 0.005032425189 0)
(3.005249263 0.005364614652 0)
(3.004889191 0.005234410178 0)
(3.004785163 0.005005401229 0)
(3.004643808 0.0048530251 0)
(3.004184222 0.0048456916 0)
(3.004159127 0.005111651646 0)
(3.004195125 0.004713391247 0)
(3.003807592 0.003739886236 0)
(3.003927837 0.003341670816 0)
(3.004097811 0.003749460444 0)
(3.004289577 0.004675031129 0)