/*--------------------------------*- C++ -*----------------------------------*\
  =========                 |
  \\      /  F ield         | OpenFOAM: The Open Source CFD Toolbox
   \\    /   O peration     | Website:  https://openfoam.org
    \\  /    A nd           | Version:  7
     \\/     M anipulation  |
\*---------------------------------------------------------------------------*/
FoamFile
{
    version     2.0;
    format      ascii;
    class       volVectorField;
    location    "5";
    object      U;
}
// * * * * * * * * * * * * * * * * * * * * * * * * * * * * * * * * * * * * * //

dimensions      [0 1 -1 0 0 0 0];

internalField   nonuniform List<vector> 
2222
(
(3 3.380468955e-15 0)
(3 3.498810619e-15 0)
(3 4.179145384e-15 0)
(3 3.738630489e-15 0)
(3 2.601426603e-15 0)
(3 2.381414725e-15 0)
(3 1.752601151e-15 0)
(3 9.77377971e-16 0)
(3 1.628650583e-15 0)
(3 2.239711025e-15 0)
(3 8.499116446e-16 0)
(3 1.022065561e-15 0)
(3 -4.708727985e-16 0)
(3 1.219598094e-15 0)
(3 1.461503414e-15 0)
(3 1.141392861e-15 0)
(3 1.619341791e-15 0)
(3 1.726671462e-15 0)
(3 2.280995794e-15 0)
(3 1.550933713e-15 0)
(3 2.84812196e-16 0)
(3 1.082347023e-15 0)
(3 8.722211424e-16 0)
(3 2.88940798e-17 0)
(3 4.344105282e-16 0)
(3 1.009408032e-15 0)
(3 2.881356557e-15 0)
(3 3.305938437e-15 0)
(3 4.546897948e-15 0)
(3 3.811104276e-15 0)
(3 3.284442532e-15 0)
(3 -9.589890682e-16 0)
(3 -2.131145292e-15 0)
(3 -2.013028884e-15 0)
(3 -1.321809022e-15 0)
(3 -1.787410345e-15 0)
(3 -2.852855005e-15 0)
(3 -3.480702403e-15 0)
(3 -4.233661013e-15 0)
(3 -2.076729874e-15 0)
(3 -1.942948097e-15 0)
(3 -1.815338509e-15 0)
(3 -8.369967581e-16 0)
(3 -1.876075964e-15 0)
(3 -3.34221185e-15 0)
(3 -3.142786965e-15 0)
(3 -3.337561241e-15 0)
(3 -3.04172765e-15 0)
(3 -3.436698945e-15 0)
(3 -2.795867371e-15 0)
(3 -2.10748936e-15 0)
(3 -2.15008807e-15 0)
(3 -1.265932902e-15 0)
(3 -1.03145707e-15 0)
(3 -4.864947296e-16 0)
(3 1.149823957e-15 0)
(3 1.302803726e-15 0)
(3 8.335925447e-16 0)
(3 1.046873889e-15 0)
(3 1.751061687e-15 0)
(3 2.677062449e-15 0)
(3 1.493249742e-15 0)
(3 -7.819714161e-16 0)
(3 3.965385904e-16 0)
(3 7.453983723e-16 0)
(3 6.98150823e-16 0)
(3 1.083485692e-15 0)
(3 1.911120586e-15 0)
(3 1.78608073e-15 0)
(3 9.050463529e-16 0)
(3 1.559904247e-15 0)
(3 3.102239396e-15 0)
(3 3.279963504e-15 0)
(3 1.889660948e-15 0)
(3 2.446081235e-16 0)
(3 -6.522867158e-16 0)
(3 9.79919597e-17 0)
(3 2.014053211e-16 0)
(3 8.092387343e-16 0)
(3 1.689124209e-15 0)
(3 3.541820239e-16 0)
(3 1.368793947e-15 0)
(3 2.064815817e-15 0)
(3 -4.829043975e-16 0)
(3 3.700778424e-16 0)
(3 7.996266378e-16 0)
(3 -2.37056827e-16 0)
(3 8.551086989e-16 0)
(3 2.072589249e-15 0)
(3 1.10018704e-15 0)
(3 -4.689879178e-16 0)
(3 -4.195118003e-16 0)
(3 6.385255852e-16 0)
(3 1.760699294e-15 0)
(3 1.330742856e-15 0)
(3 2.825104653e-15 0)
(3 2.174329146e-15 0)
(3 1.325725013e-15 0)
(3 -1.144785183e-16 0)
(3 -1.184772064e-16 0)
(3 1.01342686e-15 0)
(3 3.907760122e-16 0)
(3 -1.873135485e-15 0)
(3 -3.187512479e-15 0)
(3 -3.146964663e-15 0)
(3 -2.911901333e-15 0)
(3 -2.146564493e-15 0)
(3 -7.839719019e-16 0)
(3 -8.904516635e-17 0)
(3 -5.449104022e-16 0)
(3 -2.122528317e-15 0)
(3 -3.150741774e-15 0)
(3 -1.837002342e-15 0)
(3 -5.502411953e-16 0)
(3 -2.594321086e-15 0)
(3 -2.585652522e-15 0)
(3 -2.922688423e-15 0)
(3 -2.980410065e-15 0)
(3 -1.065101622e-15 0)
(3 1.774219036e-16 0)
(3 9.366723952e-18 0)
(3 4.919815942e-16 0)
(3 5.725113757e-16 0)
(3 1.186241006e-15 0)
(3 7.493810981e-16 0)
(3 6.929547237e-16 0)
(3 1.229769522e-15 0)
(3 2.947542067e-15 0)
(3 2.362956114e-15 0)
(3 1.261463652e-15 0)
(3 1.753398669e-15 0)
(3 1.525530822e-15 0)
(3 -4.793148609e-16 0)
(3 -6.666259249e-16 0)
(3 -6.245110471e-16 0)
(3 -5.394642227e-16 0)
(3 -3.110338631e-16 0)
(3 4.102230923e-16 0)
(3 3.502212359e-15 0)
(3 2.990779876e-15 0)
(3 1.903296646e-15 0)
(3 1.075543474e-15 0)
(3 5.751040722e-17 0)
(3 6.87161104e-16 0)
(3 2.647998814e-15 0)
(3 2.493527079e-15 0)
(3 3.269973655e-15 0)
(3 2.855366585e-15 0)
(3 1.736413269e-15 0)
(3 1.734832816e-15 0)
(3 1.748174765e-15 0)
(3 1.73102582e-15 0)
(3 1.369928054e-15 0)
(3 -1.640568253e-16 0)
(3 1.913464143e-16 0)
(3 8.97570848e-17 0)
(3 -8.132491752e-16 0)
(3 1.660075706e-16 0)
(3 8.271168213e-16 0)
(3 1.137516718e-15 0)
(3 7.124192655e-16 0)
(3 2.654531654e-16 0)
(3 -2.12274973e-15 0)
(3 -3.076653352e-15 0)
(3 -2.126811307e-15 0)
(3 5.405381096e-16 0)
(3 1.830034114e-15 0)
(3 1.12299876e-15 0)
(3 -3.142506427e-16 0)
(3 -6.409039977e-16 0)
(3 1.154038401e-16 0)
(3 8.951928847e-17 0)
(3 1.070509685e-15 0)
(3 6.92900038e-16 0)
(3 -4.286280659e-16 0)
(3 -1.563186213e-15 0)
(3 -1.739849272e-15 0)
(3 -1.186951371e-15 0)
(3 -4.757054674e-16 0)
(3 -1.228153282e-16 0)
(3 -9.263436165e-16 0)
(3 -1.230921889e-15 0)
(3 -1.376059118e-15 0)
(3 -6.014119973e-16 0)
(3 1.044488602e-15 0)
(3 2.644644567e-15 0)
(3 8.186043372e-16 0)
(3 1.031612208e-15 0)
(3 1.467903558e-15 0)
(3 1.543126156e-15 0)
(3 1.192602202e-15 0)
(3 1.730453226e-15 0)
(3 2.381905999e-15 0)
(3 2.940045187e-15 0)
(3 2.498566104e-15 0)
(3 2.203260117e-15 0)
(3 1.24056189e-15 0)
(3 1.889357703e-16 0)
(3 -2.810681965e-16 0)
(3 6.558985311e-16 0)
(3 6.326549017e-16 0)
(3 1.941702514e-16 0)
(3 7.695872884e-16 0)
(3 1.374868229e-15 0)
(3 7.814868506e-16 0)
(3 4.872507629e-16 0)
(3 6.966292288e-16 0)
(3 1.062528258e-15 0)
(3 1.269479396e-15 0)
(3 1.039885621e-15 0)
(3 2.548950891e-15 0)
(3 4.051752752e-15 0)
(3 4.213347503e-15 0)
(3 3.879933272e-15 0)
(3 3.282944408e-15 0)
(3 1.0553561e-15 0)
(3 -1.394104239e-15 0)
(3 -3.115137159e-16 0)
(3 1.056725623e-15 0)
(3 2.556855933e-15 0)
(3 2.296893655e-15 0)
(3 1.22934158e-15 0)
(3 3.856411948e-16 0)
(3 2.670565182e-16 0)
(3 1.601363533e-16 0)
(3 6.121253327e-16 0)
(3 4.87840877e-16 0)
(3 -1.627119353e-16 0)
(3 -2.453418583e-16 0)
(3 -6.648091942e-16 0)
(3 -1.23581018e-15 0)
(3 -5.752576957e-16 0)
(3 7.234833588e-16 0)
(3 1.258866209e-15 0)
(3 -2.074018213e-15 0)
(3 -2.522500715e-15 0)
(3 -1.555667443e-15 0)
(3 1.036124115e-15 0)
(3 2.15338191e-15 0)
(3 1.246032902e-15 0)
(3 9.50852902e-16 0)
(3 7.043402944e-16 0)
(3 -2.347680626e-16 0)
(3 -1.04209024e-15 0)
(3 -5.549918532e-16 0)
(3 1.64863685e-15 0)
(3 8.56897327e-16 0)
(3 6.058282232e-16 0)
(3 1.715419409e-15 0)
(3 1.246803506e-15 0)
(3 1.18868957e-15 0)
(3 2.162270879e-15 0)
(3 3.260427277e-15 0)
(3 4.463672342e-15 0)
(3 5.063235838e-15 0)
(3 3.030424485e-15 0)
(3 1.834367224e-15 0)
(3 1.809649557e-15 0)
(3 2.02341812e-15 0)
(3 1.517683161e-15 0)
(3 3.656579388e-16 0)
(3 -7.42391114e-16 0)
(3 4.952204277e-16 0)
(3 1.633491928e-15 0)
(3 1.389298478e-15 0)
(3 1.413360496e-15 0)
(3 2.458384292e-15 0)
(3 2.258208111e-15 0)
(3 1.91840017e-15 0)
(3 2.153849245e-15 0)
(3 9.494903478e-16 0)
(3 -5.938135225e-16 0)
(3 -2.836336334e-15 0)
(3 -3.7970436e-15 0)
(3 -2.870887115e-15 0)
(3 -1.580596129e-15 0)
(3 1.659346929e-16 0)
(3 2.037187425e-16 0)
(3 3.448872396e-16 0)
(3 1.054731282e-15 0)
(3 1.348853285e-15 0)
(3 1.360651157e-15 0)
(3 1.117799915e-15 0)
(3 -2.405227467e-16 0)
(3 4.400166933e-16 0)
(3 1.442187023e-15 0)
(3 2.610761797e-15 0)
(3 4.097787265e-15 0)
(3 1.799200325e-15 0)
(3 1.126472769e-15 0)
(3 2.497328837e-15 0)
(3 2.519154666e-16 0)
(3 -1.058987277e-15 0)
(3 -3.517440317e-15 0)
(3 -3.235496738e-15 0)
(3 -3.679782496e-15 0)
(3 -2.253301657e-15 0)
(3 -1.873083288e-15 0)
(3 -1.892364419e-15 0)
(3 -9.341188397e-17 0)
(3 1.334587661e-15 0)
(3 1.210986261e-15 0)
(3 1.59064887e-15 0)
(3 1.570393359e-15 0)
(3 2.142300633e-15 0)
(3 1.642241258e-15 0)
(3 3.289609586e-17 0)
(3 -4.068956523e-16 0)
(3 1.224195343e-15 0)
(3 1.087239193e-15 0)
(3 -4.593103446e-17 0)
(3 7.912486026e-16 0)
(3 6.723581412e-16 0)
(3 -1.41098465e-15 0)
(3 3.552742235e-16 0)
(3 1.557064546e-15 0)
(3 1.095934638e-15 0)
(3 1.356799791e-16 0)
(3 -1.388385714e-15 0)
(3 -5.644940668e-16 0)
(3 3.404192944e-15 0)
(3 4.473342258e-15 0)
(3 5.233386272e-15 0)
(3 3.472459126e-15 0)
(3 2.303431703e-15 0)
(3 1.426930678e-15 0)
(3 1.255818954e-15 0)
(3 9.028189789e-16 0)
(3 1.38742401e-15 0)
(3 2.248402111e-15 0)
(3 5.033437367e-15 0)
(3 7.096326505e-15 0)
(3 6.578484433e-15 0)
(3 2.686924801e-15 0)
(3 1.546967442e-15 0)
(3 -4.744022788e-16 0)
(3 -7.830871604e-16 0)
(3 3.505710426e-16 0)
(3 -7.619395137e-16 0)
(3 -3.32416942e-15 0)
(3 -3.532900717e-15 0)
(3 -1.656888545e-15 0)
(3 -8.705462626e-16 0)
(3 5.703780737e-16 0)
(3 7.920939981e-16 0)
(3 8.831956162e-16 0)
(3 1.056260438e-15 0)
(3 3.335810037e-15 0)
(3 5.440068269e-15 0)
(3 5.887825699e-15 0)
(3 5.868000324e-15 0)
(3 4.442167899e-15 0)
(3 3.265152411e-15 0)
(3 1.207781437e-15 0)
(3 2.122134241e-15 0)
(3 1.885590607e-15 0)
(3 3.436805061e-16 0)
(3 -1.061159831e-15 0)
(3 7.20145022e-17 0)
(3 -1.715397885e-15 0)
(3 -2.826867777e-15 0)
(3 -3.54403389e-15 0)
(3 -3.423253188e-15 0)
(3 -4.121257724e-15 0)
(3 -2.694859113e-15 0)
(3 -7.493909559e-16 0)
(3 1.194368221e-15 0)
(3 2.513356609e-15 0)
(3 4.063795818e-15 0)
(3 4.28675071e-15 0)
(3 3.601909349e-15 0)
(3 1.704117111e-15 0)
(3 4.984816248e-16 0)
(3 6.310681787e-16 0)
(3 -1.959716472e-16 0)
(3 -3.528562331e-16 0)
(3 -1.59938114e-16 0)
(3 1.066318678e-15 0)
(3 1.997738511e-15 0)
(3 2.205306609e-16 0)
(3 -9.816265459e-16 0)
(3 -2.867119439e-15 0)
(3 -2.803638247e-15 0)
(3 -2.727984378e-15 0)
(3 -2.353987085e-15 0)
(3 -1.685370136e-15 0)
(3 -3.356644524e-16 0)
(3 1.58134077e-16 0)
(3 3.963151755e-15 0)
(3 5.363358116e-15 0)
(3 5.400904899e-15 0)
(3 4.976922754e-15 0)
(3 3.568209285e-15 0)
(3 3.366811941e-15 0)
(3 3.547128668e-15 0)
(3 5.011636787e-15 0)
(3 5.033751838e-15 0)
(3 6.005885409e-15 0)
(3 7.025231323e-15 0)
(3 5.313365543e-15 0)
(3 2.815563423e-15 0)
(3 3.47347635e-16 0)
(3 -2.096570847e-15 0)
(3 -4.106500154e-15 0)
(3 -3.965744902e-15 0)
(3 -4.166795332e-15 0)
(3 -4.683897526e-15 0)
(3 -1.437073469e-15 0)
(3 1.283213438e-15 0)
(3 1.451240559e-15 0)
(3 1.53253346e-15 0)
(3 3.054474559e-15 0)
(3 1.929109025e-15 0)
(3 3.881816864e-15 0)
(3 3.653605713e-15 0)
(3 4.922802635e-15 0)
(3 4.671756009e-15 0)
(3 6.157340977e-15 0)
(3 3.269110529e-15 0)
(3 1.82904218e-15 0)
(3 2.537213354e-16 0)
(3 9.999023867e-17 0)
(3 -1.39235986e-15 0)
(3 -1.394504225e-15 0)
(3 -1.881833112e-15 0)
(3 -3.738420225e-16 0)
(3 -7.461769642e-16 0)
(3 1.566157099e-15 0)
(3 1.271882214e-15 0)
(3 5.559281143e-16 0)
(3 -1.227916795e-15 0)
(3 -3.971285995e-16 0)
(3 -3.248526366e-17 0)
(3 -3.241704623e-16 0)
(3 3.256698066e-16 0)
(3 9.661503971e-16 0)
(3 -7.641681389e-17 0)
(3 9.699651375e-16 0)
(3 -1.239280752e-15 0)
(3 -2.413613406e-15 0)
(3 -3.405624986e-15 0)
(3 -1.900504069e-15 0)
(3 -1.764310135e-15 0)
(3 -1.699943515e-15 0)
(3 -1.402871967e-15 0)
(3 -2.001865979e-15 0)
(3 -3.207608874e-15 0)
(3 -4.035265793e-15 0)
(3 -5.059301946e-15 0)
(3 -4.496266476e-15 0)
(3 -3.194162222e-15 0)
(3 -1.942084496e-15 0)
(3 -2.304836462e-16 0)
(3 5.146099264e-16 0)
(3 4.245865773e-16 0)
(3 7.86502998e-16 0)
(3 -7.8587085e-16 0)
(3 1.071556807e-15 0)
(3 3.957340352e-15 0)
(3 3.485315316e-15 0)
(3 2.645803169e-15 0)
(3 4.35415125e-15 0)
(3 4.679416475e-15 0)
(3 5.921700104e-15 0)
(3 5.285143489e-15 0)
(3 5.219528493e-15 0)
(3 7.012169934e-16 0)
(3 -1.915033186e-15 0)
(3 -2.718614008e-15 0)
(3 -3.340357739e-15 0)
(3 -4.585198933e-15 0)
(3 -5.579092416e-15 0)
(3 -5.024755195e-15 0)
(3 -3.826902735e-15 0)
(3 -1.410893572e-15 0)
(3 5.099113783e-16 0)
(3 7.314196446e-16 0)
(3 3.801953652e-16 0)
(3 4.373431819e-16 0)
(3 -5.384630345e-16 0)
(3 -4.709942698e-16 0)
(3 -7.247377356e-16 0)
(3 -3.893016451e-16 0)
(3 2.117332064e-15 0)
(3 4.615756643e-15 0)
(3 6.569704147e-15 0)
(3 3.61063328e-15 0)
(3 3.540717958e-16 0)
(3 -1.775293512e-15 0)
(3 -1.591162622e-15 0)
(3 -1.733798896e-15 0)
(3 -4.109594563e-15 0)
(3 2.629361151e-16 0)
(3 6.869899268e-16 0)
(3 1.370238493e-15 0)
(3 2.245175633e-15 0)
(3 1.239328545e-15 0)
(3 1.610788653e-15 0)
(3 1.795450219e-15 0)
(3 -3.875836231e-16 0)
(3 -1.981424785e-15 0)
(3 -5.996231294e-18 0)
(3 6.36111294e-16 0)
(3 6.407355989e-16 0)
(3 5.457928133e-16 0)
(3 -2.170563757e-15 0)
(3 -5.23496545e-15 0)
(3 -5.321445097e-15 0)
(3 -4.06014716e-15 0)
(3 -2.706816629e-15 0)
(3 -2.462197861e-15 0)
(3 -9.099152316e-16 0)
(3 -1.652157552e-15 0)
(3 -2.534948839e-15 0)
(3 -3.731644464e-15 0)
(3 -4.973371844e-15 0)
(3 -4.368085462e-15 0)
(3 -2.329257438e-15 0)
(3 1.72978188e-15 0)
(3 1.249249964e-15 0)
(3 3.48766221e-16 0)
(3 -4.930587009e-16 0)
(3 -1.107802664e-15 0)
(3 -3.873617405e-16 0)
(3 3.419461934e-17 0)
(3 1.721282932e-16 0)
(3 1.297653335e-15 0)
(3 2.328809337e-15 0)
(3 3.377299656e-15 0)
(3 3.569021376e-15 0)
(3 3.499615302e-15 0)
(3 4.704884769e-15 0)
(3 2.55474809e-15 0)
(3 -7.924897409e-16 0)
(3 -1.157823732e-15 0)
(3 -1.140274913e-15 0)
(3 -3.344023564e-15 0)
(3 -3.969191451e-15 0)
(3 -4.076390698e-15 0)
(3 -2.936542255e-15 0)
(3 -2.811906176e-15 0)
(3 -4.043571353e-15 0)
(3 -4.367190182e-15 0)
(3 -4.089136254e-15 0)
(3 -2.723814365e-15 0)
(3 -2.373891029e-15 0)
(3 -9.535203806e-16 0)
(3 3.253737168e-16 0)
(3 1.406287328e-16 0)
(3 1.447293438e-15 0)
(3 4.950965744e-15 0)
(3 5.185281513e-15 0)
(3 5.171346438e-15 0)
(3 1.967808698e-15 0)
(3 -7.259419323e-17 0)
(3 -3.708151283e-15 0)
(3 -2.548830558e-15 0)
(3 -2.473130637e-15 0)
(3 -4.185930327e-15 0)
(3 4.649558918e-16 0)
(3 3.752669538e-16 0)
(3 -6.616219497e-16 0)
(3 -1.270493287e-15 0)
(3 1.677024024e-16 0)
(3 2.45899957e-15 0)
(3 1.624219779e-15 0)
(3 8.157528329e-16 0)
(3 1.644006108e-16 0)
(3 2.00945837e-16 0)
(3 3.521664098e-16 0)
(3 2.432057666e-16 0)
(3 -1.152711108e-15 0)
(3 -1.007726466e-15 0)
(3 -8.84772007e-16 0)
(3 -2.342602434e-15 0)
(3 -3.075722077e-15 0)
(3 -2.149469469e-15 0)
(3 -6.986680579e-16 0)
(3 -1.646624516e-15 0)
(3 -3.276479611e-15 0)
(3 -2.92150834e-15 0)
(3 -1.977127049e-15 0)
(3 -1.516130885e-15 0)
(3 -2.182474925e-15 0)
(3 3.039273739e-16 0)
(3 1.312715664e-15 0)
(3 1.33461686e-15 0)
(3 8.623014969e-16 0)
(3 1.386750569e-15 0)
(3 1.22253441e-15 0)
(3 2.30757457e-15 0)
(3 1.768591144e-15 0)
(3 1.067888608e-15 0)
(3 2.466193714e-15 0)
(3 3.121820387e-15 0)
(3 2.219430498e-15 0)
(3 1.857382732e-15 0)
(3 1.556491217e-17 0)
(3 -2.573779671e-17 0)
(3 -6.970236983e-16 0)
(3 -1.893326652e-15 0)
(3 -2.766380152e-15 0)
(3 -2.843030042e-15 0)
(3 -2.510044115e-15 0)
(3 -3.547422679e-15 0)
(3 -2.224459119e-15 0)
(3 -6.374678552e-16 0)
(3 2.569911608e-17 0)
(3 -1.783110392e-15 0)
(3 -3.441346013e-15 0)
(3 -3.73610727e-15 0)
(3 -2.915228778e-15 0)
(3 -2.623511511e-15 0)
(3 -1.517992091e-15 0)
(3 3.476060596e-16 0)
(3 1.119252267e-15 0)
(3 1.599103521e-15 0)
(3 2.494106725e-15 0)
(3 2.046734625e-15 0)
(3 -3.224509647e-15 0)
(3 -1.9059233e-15 0)
(3 -2.653366996e-15 0)
(3 -4.285215885e-15 0)
(3 -4.84780607e-15 0)
(3 -3.788432441e-15 0)
(3 -5.406568377e-16 0)
(3 -4.416367e-17 0)
(3 4.345238264e-16 0)
(3 1.072396796e-16 0)
(3 -5.775185791e-16 0)
(3 5.094333997e-16 0)
(3 8.151141167e-16 0)
(3 -3.557026749e-17 0)
(3 9.460703928e-17 0)
(3 -6.663407261e-16 0)
(3 -2.102032079e-15 0)
(3 -3.775696183e-15 0)
(3 -4.514552321e-15 0)
(3 -4.346793573e-15 0)
(3 -2.859464246e-15 0)
(3 -1.200962693e-15 0)
(3 -7.256399251e-17 0)
(3 4.148784139e-16 0)
(3 -8.92285033e-16 0)
(3 -2.331193488e-15 0)
(3 -3.729045692e-15 0)
(3 -4.951386252e-15 0)
(3 -3.948912435e-15 0)
(3 -2.124234977e-15 0)
(3 -2.213555688e-15 0)
(3 -3.265857723e-16 0)
(3 1.567194686e-15 0)
(3 1.861325817e-15 0)
(3 2.247090935e-15 0)
(3 2.593170462e-15 0)
(3 2.209907582e-15 0)
(3 2.570899487e-15 0)
(3 3.159383245e-15 0)
(3 3.625681977e-15 0)
(3 2.615027718e-15 0)
(3 2.005892802e-15 0)
(3 2.603187136e-15 0)
(3 2.252502564e-15 0)
(3 -7.248909244e-16 0)
(3 -2.250995212e-15 0)
(3 -3.773578705e-15 0)
(3 -3.111633673e-15 0)
(3 -4.040861409e-15 0)
(3 -3.594154771e-15 0)
(3 -2.191608109e-15 0)
(3 -3.335141518e-16 0)
(3 3.394040401e-16 0)
(3 1.292529679e-15 0)
(3 1.992819015e-15 0)
(3 1.548968032e-15 0)
(3 1.381981398e-15 0)
(3 -1.076138314e-15 0)
(3 -3.419062914e-15 0)
(3 -3.750186257e-15 0)
(3 -2.469022818e-15 0)
(3 -1.044724006e-16 0)
(3 1.058518603e-15 0)
(3 3.830681603e-15 0)
(3 3.303761269e-15 0)
(3 2.491017102e-15 0)
(3 1.648616545e-15 0)
(3 -1.815977012e-15 0)
(3 -2.327428688e-15 0)
(3 -7.92188074e-16 0)
(3 2.57081821e-15 0)
(3 1.918517422e-15 0)
(3 1.334265549e-16 0)
(3 1.176429736e-15 0)
(3 -3.988446358e-16 0)
(3 -9.002514555e-17 0)
(3 1.035428276e-16 0)
(3 -1.894209673e-16 0)
(3 9.042474005e-17 0)
(3 -2.952918891e-16 0)
(3 -2.499796953e-16 0)
(3 6.174345418e-16 0)
(3 -2.255084727e-16 0)
(3 -1.915761692e-15 0)
(3 -1.788454468e-15 0)
(3 -1.210226373e-15 0)
(3 -1.899483849e-15 0)
(3 -3.287009785e-15 0)
(3 -2.903125109e-15 0)
(3 -8.089481977e-16 0)
(3 -7.093820679e-16 0)
(3 -1.992802369e-15 0)
(3 -3.510531985e-15 0)
(3 -2.630392162e-15 0)
(3 -2.09744655e-15 0)
(3 -1.620588638e-15 0)
(3 -1.4400867e-15 0)
(3 -2.04414018e-15 0)
(3 -5.088240203e-16 0)
(3 1.581645671e-16 0)
(3 1.782105661e-15 0)
(3 2.876411386e-15 0)
(3 2.300723151e-15 0)
(3 1.725672624e-15 0)
(3 1.570583154e-15 0)
(3 1.062533715e-15 0)
(3 1.593387837e-15 0)
(3 1.674955497e-15 0)
(3 5.016902043e-16 0)
(3 4.349236774e-16 0)
(3 -3.423146617e-16 0)
(3 -3.173649665e-16 0)
(3 -4.160258124e-16 0)
(3 -2.384142951e-15 0)
(3 -2.153200504e-15 0)
(3 -1.709161123e-15 0)
(3 -6.483838278e-17 0)
(3 1.715069781e-15 0)
(3 2.739359475e-15 0)
(3 2.107149654e-15 0)
(3 1.903128594e-15 0)
(3 1.542126193e-15 0)
(3 6.54617544e-16 0)
(3 1.294842364e-16 0)
(3 -1.377470566e-15 0)
(3 -3.691760619e-15 0)
(3 -5.458819793e-15 0)
(3 -1.133057718e-15 0)
(3 9.981432006e-16 0)
(3 1.258367651e-15 0)
(3 1.998392964e-15 0)
(3 3.149432489e-15 0)
(3 1.833297831e-15 0)
(3 1.874225424e-16 0)
(3 2.263253089e-18 0)
(3 7.812536075e-16 0)
(3 3.122249555e-15 0)
(3 5.083677084e-15 0)
(3 5.112827431e-15 0)
(3 4.55006524e-15 0)
(3 3.899517823e-15 0)
(3 8.568145841e-17 0)
(3 -1.044115623e-16 0)
(3 -8.882140962e-16 0)
(3 -6.465283902e-16 0)
(3 -2.785354425e-16 0)
(3 -5.087939439e-16 0)
(3 3.41043621e-16 0)
(3 1.527544243e-15 0)
(3 2.923492129e-15 0)
(3 3.462127949e-15 0)
(3 3.75739369e-15 0)
(3 3.735852067e-15 0)
(3 3.493373372e-15 0)
(3 1.255813378e-15 0)
(3 7.132516963e-16 0)
(3 1.155641881e-15 0)
(3 -8.010565937e-17 0)
(3 -1.149290438e-15 0)
(3 -7.115035067e-16 0)
(3 -3.426506461e-17 0)
(3 1.200859874e-16 0)
(3 -3.190791205e-16 0)
(3 -6.99271277e-16 0)
(3 7.044895526e-16 0)
(3 1.473872938e-15 0)
(3 1.204969402e-15 0)
(3 1.124694013e-15 0)
(3 4.518902136e-16 0)
(3 2.054125738e-18 0)
(3 4.878499414e-16 0)
(3 -2.434873357e-16 0)
(3 -2.836981027e-15 0)
(3 -3.927345094e-15 0)
(3 -8.999209681e-17 0)
(3 3.283127323e-15 0)
(3 8.766056937e-16 0)
(3 3.195149621e-16 0)
(3 4.877192901e-16 0)
(3 -8.389537335e-16 0)
(3 -9.616210525e-16 0)
(3 -1.015844921e-15 0)
(3 2.284465107e-16 0)
(3 1.12884783e-15 0)
(3 1.440094258e-15 0)
(3 2.093544012e-15 0)
(3 1.972944419e-15 0)
(3 1.853865094e-15 0)
(3 7.761673426e-16 0)
(3 9.971587458e-16 0)
(3 4.405134428e-16 0)
(3 1.42451486e-15 0)
(3 1.497656867e-15 0)
(3 3.446687643e-16 0)
(3 -6.67741107e-16 0)
(3 -1.383099721e-15 0)
(3 -4.121255875e-16 0)
(3 -3.488069746e-16 0)
(3 -1.172025636e-16 0)
(3 -1.89555256e-15 0)
(3 -1.938409999e-15 0)
(3 -8.551156595e-16 0)
(3 2.405846239e-15 0)
(3 2.305399917e-15 0)
(3 2.861791112e-15 0)
(3 4.775370099e-15 0)
(3 4.62464888e-15 0)
(3 3.291881043e-15 0)
(3 -1.08156523e-16 0)
(3 -1.457864957e-15 0)
(3 -1.261771812e-15 0)
(3 9.522296494e-17 0)
(3 -1.674004127e-16 0)
(3 1.89792167e-16 0)
(3 7.859057047e-16 0)
(3 7.86222216e-16 0)
(3 1.293187542e-15 0)
(3 2.371259681e-15 0)
(3 2.830478196e-15 0)
(3 2.740600304e-15 0)
(3 2.784087359e-15 0)
(3 2.591767535e-15 0)
(3 2.264602138e-15 0)
(3 1.637863539e-15 0)
(3 7.071940211e-16 0)
(3 4.70285707e-16 0)
(3 1.70757396e-15 0)
(3 1.287448784e-15 0)
(3 1.811641197e-15 0)
(3 9.892988116e-16 0)
(3 3.27885026e-16 0)
(3 3.505590377e-15 0)
(3 4.449302142e-15 0)
(3 3.781511922e-15 0)
(3 1.343946887e-15 0)
(3 -3.051454225e-16 0)
(3 -3.66833255e-16 0)
(3 -2.069271236e-16 0)
(3 -3.263486464e-15 0)
(3 -3.319235975e-15 0)
(3 -3.352182307e-15 0)
(3 -2.423167397e-15 0)
(3 -8.173431897e-16 0)
(3 -1.461409634e-15 0)
(3 -1.895353799e-15 0)
(3 -1.537475218e-15 0)
(3 -1.732875773e-15 0)
(3 -3.168303747e-16 0)
(3 -2.094231214e-15 0)
(3 -2.613881935e-15 0)
(3 -1.646705425e-15 0)
(3 -2.080469488e-16 0)
(3 1.681435264e-15 0)
(3 3.348669893e-15 0)
(3 2.413386873e-15 0)
(3 1.035761661e-15 0)
(3 1.882475558e-15 0)
(3 2.712250721e-15 0)
(3 3.831429104e-15 0)
(3 4.153504304e-15 0)
(3 5.477681675e-15 0)
(3 1.400607404e-15 0)
(3 -6.749155907e-16 0)
(3 -8.060524967e-16 0)
(3 -2.845926171e-15 0)
(3 -2.825169125e-15 0)
(3 -2.632729722e-15 0)
(3 -6.943669046e-16 0)
(3 2.328580545e-15 0)
(3 2.678284061e-15 0)
(3 2.274258164e-15 0)
(3 2.664213836e-15 0)
(3 4.232681735e-15 0)
(3 3.552069152e-15 0)
(3 4.140890551e-15 0)
(3 -9.683669963e-16 0)
(3 6.492907565e-16 0)
(3 1.2177908e-15 0)
(3 4.140359526e-16 0)
(3 -2.878423754e-16 0)
(3 -3.207387153e-16 0)
(3 -5.247297522e-16 0)
(3 1.093959481e-16 0)
(3 3.862849085e-16 0)
(3 1.930598957e-16 0)
(3 1.182869204e-15 0)
(3 1.68543331e-15 0)
(3 1.77969425e-15 0)
(3 2.618878341e-15 0)
(3 2.106006212e-15 0)
(3 1.397653881e-15 0)
(3 2.05237282e-16 0)
(3 2.160574368e-15 0)
(3 1.495088244e-15 0)
(3 -3.846329896e-16 0)
(3 9.72740098e-16 0)
(3 8.162788021e-16 0)
(3 3.523856368e-15 0)
(3 5.405043217e-15 0)
(3 5.094904513e-15 0)
(3 2.912009767e-15 0)
(3 -1.242397508e-15 0)
(3 -2.507619139e-15 0)
(3 -2.965575957e-15 0)
(3 -2.74139245e-15 0)
(3 -2.727820818e-15 0)
(3 -3.888159784e-15 0)
(3 -3.850568054e-15 0)
(3 -3.807477021e-15 0)
(3 -3.383882638e-15 0)
(3 -2.197404727e-15 0)
(3 -3.102152193e-15 0)
(3 -2.708856242e-15 0)
(3 -2.389112591e-15 0)
(3 -8.988978449e-16 0)
(3 -5.210452661e-16 0)
(3 -2.018874514e-15 0)
(3 -1.632792208e-15 0)
(3 -1.972578412e-15 0)
(3 9.796624383e-16 0)
(3 1.511139357e-15 0)
(3 2.122858219e-15 0)
(3 1.526941245e-15 0)
(3 2.245427564e-15 0)
(3 4.23736221e-15 0)
(3 4.384848264e-15 0)
(3 4.314273025e-15 0)
(3 4.104554248e-15 0)
(3 4.143587746e-15 0)
(3 2.258401603e-15 0)
(3 -1.48301258e-16 0)
(3 -2.041168503e-15 0)
(3 -1.556158163e-15 0)
(3 -7.813743982e-16 0)
(3 1.458591847e-15 0)
(3 4.160335218e-15 0)
(3 3.857192238e-15 0)
(3 3.427860074e-15 0)
(3 3.354237591e-15 0)
(3 3.256517119e-15 0)
(3 4.668745307e-15 0)
(3 5.116599324e-15 0)
(3 -4.684909585e-18 0)
(3 2.186480892e-15 0)
(3 2.962977663e-15 0)
(3 2.350501431e-15 0)
(3 1.065379484e-15 0)
(3 6.174605154e-16 0)
(3 -3.593732454e-16 0)
(3 -5.116225133e-16 0)
(3 9.902541936e-16 0)
(3 2.29529765e-15 0)
(3 1.621155373e-15 0)
(3 2.466911145e-15 0)
(3 2.858895807e-15 0)
(3 3.040807874e-15 0)
(3 1.758975512e-15 0)
(3 1.73416338e-15 0)
(3 2.104198641e-15 0)
(3 2.456890091e-15 0)
(3 2.451948768e-15 0)
(3 1.916878044e-15 0)
(3 2.671991126e-15 0)
(3 5.886362164e-15 0)
(3 7.650839562e-15 0)
(3 5.972181485e-15 0)
(3 2.883281661e-15 0)
(3 2.276675979e-15 0)
(3 1.359669574e-15 0)
(3 -1.186424735e-16 0)
(3 -2.626736699e-15 0)
(3 -2.869411161e-15 0)
(3 -1.835466223e-15 0)
(3 -2.040164448e-15 0)
(3 -2.349680453e-15 0)
(3 -3.410042093e-15 0)
(3 -3.125699718e-15 0)
(3 -1.426599118e-15 0)
(3 6.75097065e-16 0)
(3 1.153192483e-15 0)
(3 6.079698999e-16 0)
(3 1.451786233e-15 0)
(3 1.348393343e-15 0)
(3 1.475116223e-15 0)
(3 2.992429015e-16 0)
(3 5.122297446e-16 0)
(3 9.931730246e-16 0)
(3 1.407136156e-15 0)
(3 2.258830176e-15 0)
(3 2.642786942e-15 0)
(3 2.562794224e-15 0)
(3 2.23694429e-15 0)
(3 3.006497375e-15 0)
(3 3.900139177e-15 0)
(3 3.405781257e-15 0)
(3 3.472783623e-15 0)
(3 2.866811593e-15 0)
(3 1.171696221e-15 0)
(3 3.692921554e-16 0)
(3 2.513869614e-15 0)
(3 2.644457631e-15 0)
(3 2.521074731e-15 0)
(3 2.950662551e-15 0)
(3 2.689712404e-15 0)
(3 1.69545846e-15 0)
(3 6.035836296e-16 0)
(3 1.07811796e-15 0)
(3 1.837468688e-15 0)
(3 2.669616807e-15 0)
(3 2.810267782e-16 0)
(3 9.196909471e-16 0)
(3 1.128730701e-15 0)
(3 1.823171785e-15 0)
(3 9.733749136e-17 0)
(3 -1.517329408e-15 0)
(3 -9.683337834e-16 0)
(3 -8.430957125e-16 0)
(3 -8.333947785e-16 0)
(3 2.119051142e-15 0)
(3 2.948745341e-15 0)
(3 2.76016323e-15 0)
(3 2.598202883e-15 0)
(3 3.146255004e-15 0)
(3 4.356268757e-15 0)
(3 6.458069691e-15 0)
(3 7.90480928e-15 0)
(3 6.698878068e-15 0)
(3 6.062170953e-15 0)
(3 6.663856326e-15 0)
(3 5.214417537e-15 0)
(3 3.158045333e-15 0)
(3 1.292746109e-15 0)
(3 2.970161868e-15 0)
(3 2.064538121e-15 0)
(3 7.434815596e-16 0)
(3 1.532283175e-15 0)
(3 9.724093111e-16 0)
(3 5.72994052e-16 0)
(3 -9.532194819e-16 0)
(3 -8.740802668e-16 0)
(3 5.495739958e-16 0)
(3 8.393398315e-16 0)
(3 2.616590123e-16 0)
(3 -1.202894914e-15 0)
(3 -2.392907548e-15 0)
(3 -3.556288304e-15 0)
(3 -6.585290717e-16 0)
(3 3.506017777e-15 0)
(3 2.58169395e-15 0)
(3 2.306772565e-15 0)
(3 4.032508325e-15 0)
(3 6.015566557e-15 0)
(3 5.344454268e-15 0)
(3 2.23713379e-15 0)
(3 2.275636178e-15 0)
(3 3.358377463e-15 0)
(3 3.703339731e-15 0)
(3 3.525255662e-15 0)
(3 2.262579063e-15 0)
(3 2.448581599e-16 0)
(3 5.80717062e-16 0)
(3 1.781585168e-15 0)
(3 6.759967136e-16 0)
(3 6.826680423e-16 0)
(3 7.190657647e-16 0)
(3 1.533676799e-15 0)
(3 1.086486468e-15 0)
(3 2.053108974e-15 0)
(3 5.09421266e-15 0)
(3 4.592912735e-15 0)
(3 3.929146505e-15 0)
(3 2.805809475e-15 0)
(3 2.252436739e-15 0)
(3 2.251543959e-15 0)
(3 2.166369055e-15 0)
(3 2.59121578e-15 0)
(3 -6.847887275e-16 0)
(3 1.002478052e-15 0)
(3 5.093851038e-16 0)
(3 1.181526212e-15 0)
(3 1.449897326e-15 0)
(3 -6.984458348e-18 0)
(3 -1.556250614e-17 0)
(3 -4.624758626e-17 0)
(3 5.959248418e-16 0)
(3 -8.273007193e-16 0)
(3 2.650046422e-16 0)
(3 1.358982134e-15 0)
(3 1.482752465e-15 0)
(3 3.765616035e-15 0)
(3 4.902188339e-15 0)
(3 5.317871462e-15 0)
(3 2.948059569e-15 0)
(3 1.797861734e-15 0)
(3 2.654353688e-15 0)
(3 3.623730786e-15 0)
(3 3.384481725e-15 0)
(3 2.788601766e-15 0)
(3 2.882002755e-15 0)
(3 3.222708841e-15 0)
(3 2.146824879e-15 0)
(3 1.345969817e-15 0)
(3 -9.580719818e-17 0)
(3 7.059243734e-16 0)
(3 3.733677889e-15 0)
(3 3.035997768e-15 0)
(3 3.168498163e-17 0)
(3 -3.220227658e-16 0)
(3 -5.163992282e-16 0)
(3 6.774574467e-17 0)
(3 -1.650773071e-15 0)
(3 -2.767583043e-15 0)
(3 -2.870349735e-15 0)
(3 -1.10161043e-15 0)
(3 1.822270745e-15 0)
(3 3.301650379e-15 0)
(3 3.852846585e-15 0)
(3 4.527092856e-15 0)
(3 5.127630194e-15 0)
(3 4.559713756e-15 0)
(3 1.653464229e-15 0)
(3 1.738817393e-15 0)
(3 2.686707305e-15 0)
(3 3.939397166e-15 0)
(3 3.170650013e-15 0)
(3 2.699334181e-15 0)
(3 1.032006612e-15 0)
(3 -3.759458274e-17 0)
(3 2.069582927e-16 0)
(3 -2.028642032e-16 0)
(3 1.836614563e-16 0)
(3 4.283538967e-16 0)
(3 1.53868616e-15 0)
(3 -7.957872716e-16 0)
(3 -1.02769067e-15 0)
(3 -3.131416827e-16 0)
(3 1.430535566e-15 0)
(3 2.219675541e-15 0)
(3 2.014924624e-15 0)
(3 1.152097003e-15 0)
(3 1.034834606e-15 0)
(3 2.127627234e-15 0)
(3 3.25892495e-15 0)
(3 -4.045798032e-16 0)
(3 -6.846607731e-16 0)
(3 -1.107052608e-15 0)
(3 8.91650409e-18 0)
(3 1.825288943e-15 0)
(3 4.139587472e-15 0)
(3 3.03840228e-15 0)
(3 6.122656162e-16 0)
(3 1.331375522e-16 0)
(3 -2.545417519e-16 0)
(3 -1.419892485e-15 0)
(3 5.352134546e-16 0)
(3 1.442284007e-15 0)
(3 9.865028412e-16 0)
(3 8.080555583e-16 0)
(3 -2.076866471e-15 0)
(3 -3.671901243e-15 0)
(3 -2.281351935e-15 0)
(3 -1.115980576e-15 0)
(3 9.698163812e-16 0)
(3 3.021759682e-15 0)
(3 4.028008352e-15 0)
(3 3.886129358e-15 0)
(3 2.632231459e-15 0)
(3 1.094555195e-15 0)
(3 3.575095032e-16 0)
(3 -1.606177597e-16 0)
(3 2.665790163e-16 0)
(3 1.076032213e-16 0)
(3 -1.320386603e-15 0)
(3 -1.424258034e-15 0)
(3 -2.523837792e-15 0)
(3 -3.056105485e-15 0)
(3 -1.337005687e-15 0)
(3 -9.361596833e-16 0)
(3 -5.994166925e-16 0)
(3 5.113882157e-16 0)
(3 1.056674724e-15 0)
(3 2.258457942e-15 0)
(3 4.053789681e-15 0)
(3 3.866166821e-15 0)
(3 3.8569578e-15 0)
(3 2.576946246e-15 0)
(3 2.596557178e-15 0)
(3 1.327725788e-15 0)
(3 4.828103051e-15 0)
(3 5.414452116e-15 0)
(3 5.59668389e-15 0)
(3 4.098128826e-15 0)
(3 2.622485464e-15 0)
(3 1.898726559e-15 0)
(3 4.827296015e-16 0)
(3 -9.121224461e-16 0)
(3 -2.447472053e-15 0)
(3 -4.562327009e-15 0)
(3 -4.632064177e-15 0)
(3 -3.542906738e-15 0)
(3 -2.439652745e-15 0)
(3 -2.176177692e-15 0)
(3 -2.031375173e-15 0)
(3 2.302758403e-16 0)
(3 6.205662002e-17 0)
(3 1.144728425e-15 0)
(3 2.846876326e-16 0)
(3 -8.427286826e-16 0)
(3 -8.155495709e-16 0)
(3 7.196440305e-16 0)
(3 -6.654017795e-16 0)
(3 -1.589016472e-15 0)
(3 -1.013386641e-15 0)
(3 -4.371824128e-17 0)
(3 8.951856784e-16 0)
(3 1.292004191e-15 0)
(3 6.305945789e-16 0)
(3 3.980460109e-16 0)
(3 -1.34362112e-15 0)
(3 -2.013587157e-15 0)
(3 -1.77664588e-15 0)
(3 -1.255214937e-15 0)
(3 -1.415424188e-15 0)
(3 -3.278121414e-15 0)
(3 -4.787086445e-15 0)
(3 -4.234368816e-15 0)
(3 -2.723723953e-15 0)
(3 -2.809504764e-16 0)
(3 -1.18826035e-15 0)
(3 1.963528071e-16 0)
(3 -8.69827788e-17 0)
(3 -1.675926349e-16 0)
(3 6.274390076e-16 0)
(3 2.967587364e-16 0)
(3 4.570407305e-16 0)
(3 -1.039795323e-18 0)
(3 5.206308204e-16 0)
(3 -5.169029826e-16 0)
(3 -2.897385628e-15 0)
(3 -3.370920832e-15 0)
(3 -3.351757809e-15 0)
(3 -3.705015669e-15 0)
(3 -4.001472777e-15 0)
(3 -3.090468451e-15 0)
(3 -1.876651964e-15 0)
(3 7.1254748e-16 0)
(3 7.587510908e-16 0)
(3 -2.685635549e-17 0)
(3 8.400082453e-17 0)
(3 7.687676094e-17 0)
(3 2.270106707e-15 0)
(3 3.451194002e-15 0)
(3 4.02122801e-15 0)
(3 3.811799906e-15 0)
(3 5.823562299e-15 0)
(3 7.97234613e-15 0)
(3 6.935022774e-15 0)
(3 4.366669096e-15 0)
(3 3.663852086e-15 0)
(3 2.90144188e-15 0)
(3 3.373000653e-15 0)
(3 2.317928541e-15 0)
(3 -1.028132293e-15 0)
(3 -2.389517721e-15 0)
(3 -3.8577149e-15 0)
(3 -3.163620853e-15 0)
(3 -1.619916069e-15 0)
(3 6.88803545e-16 0)
(3 1.55465154e-15 0)
(3 2.821702513e-16 0)
(3 -3.676216804e-16 0)
(3 -1.531765617e-15 0)
(3 -2.22965076e-15 0)
(3 -1.77570679e-15 0)
(3 -1.226834101e-15 0)
(3 -9.658278944e-16 0)
(3 -2.0520507e-15 0)
(3 -6.012093598e-17 0)
(3 -4.578766307e-16 0)
(3 -5.094166857e-16 0)
(3 -6.23188732e-16 0)
(3 -5.581300703e-16 0)
(3 -8.616349936e-16 0)
(3 6.48090819e-16 0)
(3 5.323815071e-16 0)
(3 -1.229613742e-15 0)
(3 -3.635109755e-15 0)
(3 -4.257003736e-15 0)
(3 -4.117670553e-15 0)
(3 -3.218350176e-15 0)
(3 -3.099914262e-15 0)
(3 -3.244064163e-15 0)
(3 -2.262612048e-15 0)
(3 -8.713899436e-16 0)
(3 -1.009427845e-16 0)
(3 5.166707246e-16 0)