/*--------------------------------*- C++ -*----------------------------------*\
  =========                 |
  \\      /  F ield         | OpenFOAM: The Open Source CFD Toolbox
   \\    /   O peration     | Website:  https://openfoam.org
    \\  /    A nd           | Version:  7
     \\/     M anipulation  |
\*---------------------------------------------------------------------------*/
FoamFile
{
    version     2.0;
    format      ascii;
    class       volScalarField;
    location    "2.7";
    object      p;
}
// * * * * * * * * * * * * * * * * * * * * * * * * * * * * * * * * * * * * * //

dimensions      [1 -1 -2 0 0 0 0];

internalField   nonuniform List<scalar> 
22
(
1.177646554
1.228818015
1.211841617
1.157905754
1.17611071
1.139908051
1.115682005
1.095079305
1.05450872
1.061055324
0.9852797453
0.9818880175
0.9743171722
0.915560189
0.9307682868
0.9215700582
0.9113591496
0.9323504475
0.8950868057
0.9247568088
0.9707170715
0.9270178069
)
;

boundaryField
{
    inlet
    {
        type            fixedValue;
        value           nonuniform 0();
    }
    outlet
    {
        type            zeroGradient;
    }
    bottom
    {
        type            slip;
    }
    top
    {
        type            slip;
    }
    obstacle
    {
        type            zeroGradient;
    }
    defaultFaces
    {
        type            empty;
    }
    procBoundary5to4
    {
        type            processor;
        value           nonuniform List<scalar> 6(1.106550407 1.122916171 1.12665423 1.115563123 1.049443281 0.9468998935);
    }
    procBoundary5to10
    {
        type            processor;
        value           nonuniform List<scalar> 2(0.8848219554 0.8915663906);
    }
    procBoundary5to11
    {
        type            processor;
        value           nonuniform List<scalar> 4(0.9651305268 0.9892532111 0.9651305268 0.9865887844);
    }
}


// ************************************************************************* //
