/*--------------------------------*- C++ -*----------------------------------*\
  =========                 |
  \\      /  F ield         | OpenFOAM: The Open Source CFD Toolbox
   \\    /   O peration     | Website:  https://openfoam.org
    \\  /    A nd           | Version:  7
     \\/     M anipulation  |
\*---------------------------------------------------------------------------*/
FoamFile
{
    version     2.0;
    format      ascii;
    class       volScalarField;
    location    "1.5";
    object      rho;
}
// * * * * * * * * * * * * * * * * * * * * * * * * * * * * * * * * * * * * * //

dimensions      [1 -3 0 0 0 0 0];

internalField   nonuniform List<scalar> 5(1.314673368 1.182838156 1.238295647 1.181463572 1.193283846);

boundaryField
{
    inlet
    {
        type            calculated;
        value           nonuniform 0();
    }
    outlet
    {
        type            calculated;
        value           nonuniform 0();
    }
    bottom
    {
        type            calculated;
        value           nonuniform 0();
    }
    top
    {
        type            calculated;
        value           nonuniform 0();
    }
    obstacle
    {
        type            calculated;
        value           nonuniform List<scalar> 3(1.182838156 1.181463572 1.193283846);
    }
    defaultFaces
    {
        type            empty;
    }
    procBoundary15to4
    {
        type            processor;
        value           uniform 1.330979312;
    }
    procBoundary15to9
    {
        type            processor;
        value           nonuniform List<scalar> 3(1.440932213 1.540836879 1.540836879);
    }
    procBoundary15to10
    {
        type            processor;
        value           nonuniform List<scalar> 4(1.391019339 1.267793646 1.267793646 1.29544562);
    }
    procBoundary15to21
    {
        type            processor;
        value           uniform 1.201336566;
    }
}


// ************************************************************************* //
