/*--------------------------------*- C++ -*----------------------------------*\
  =========                 |
  \\      /  F ield         | OpenFOAM: The Open Source CFD Toolbox
   \\    /   O peration     | Website:  https://openfoam.org
    \\  /    A nd           | Version:  7
     \\/     M anipulation  |
\*---------------------------------------------------------------------------*/
FoamFile
{
    version     2.0;
    format      ascii;
    class       volVectorField;
    location    "1.5";
    object      U;
}
// * * * * * * * * * * * * * * * * * * * * * * * * * * * * * * * * * * * * * //

dimensions      [0 1 -1 0 0 0 0];

internalField   nonuniform List<vector> 5((3.010248058 0.1127817761 0) (2.925606074 0.2357748049 0) (3.002283218 0.1083815254 0) (2.865883738 0.2082400339 0) (2.832518332 0.1439559261 0));

boundaryField
{
    inlet
    {
        type            fixedValue;
        value           nonuniform 0();
    }
    outlet
    {
        type            inletOutlet;
        inletValue      nonuniform 0();
        value           nonuniform 0();
    }
    bottom
    {
        type            slip;
    }
    top
    {
        type            slip;
    }
    obstacle
    {
        type            slip;
    }
    defaultFaces
    {
        type            empty;
    }
    procBoundary15to4
    {
        type            processor;
        value           uniform (3.008334367 0.07817321568 0);
    }
    procBoundary15to9
    {
        type            processor;
        value           nonuniform List<vector> 3((2.979968689 -0.04196910365 0) (2.96062387 -0.01298193623 0) (2.96062387 -0.01298193623 0));
    }
    procBoundary15to10
    {
        type            processor;
        value           nonuniform List<vector> 4((3.001372372 0.03299982126 0) (2.967860464 0.08021528864 0) (2.967860464 0.08021528864 0) (2.900798893 0.05654496389 0));
    }
    procBoundary15to21
    {
        type            processor;
        value           uniform (2.751178549 0.09426617603 0);
    }
}


// ************************************************************************* //
