/*--------------------------------*- C++ -*----------------------------------*\
  =========                 |
  \\      /  F ield         | OpenFOAM: The Open Source CFD Toolbox
   \\    /   O peration     | Website:  https://openfoam.org
    \\  /    A nd           | Version:  7
     \\/     M anipulation  |
\*---------------------------------------------------------------------------*/
FoamFile
{
    version     2.0;
    format      ascii;
    class       volVectorField;
    location    "4.4";
    object      U;
}
// * * * * * * * * * * * * * * * * * * * * * * * * * * * * * * * * * * * * * //

dimensions      [0 1 -1 0 0 0 0];

internalField   nonuniform List<vector> 
558
(
(2.908152089 0.2572479372 0)
(2.894691876 0.254667307 0)
(2.889092048 0.2480750126 0)
(2.889804571 0.2478607961 0)
(2.892653183 0.2459380204 0)
(2.898783787 0.2371946299 0)
(2.908377889 0.2206112287 0)
(2.920621925 0.1969028332 0)
(3 -2.722174512e-15 0)
(3 1.719071447e-11 0)
(2.999999999 1.934490316e-09 0)
(2.999999875 3.115652513e-07 0)
(2.999996975 7.756776751e-06 0)
(2.999924108 0.0001897347926 0)
(2.99933669 0.001722422156 0)
(2.994698824 0.01384928575 0)
(2.979645976 0.04882767607 0)
(2.953698619 0.124397987 0)
(2.920902909 0.2137743479 0)
(2.921359777 0.2200230341 0)
(2.898483735 0.2424418227 0)
(2.891695397 0.2492119776 0)
(2.891307458 0.2478133231 0)
(2.893124987 0.2438788242 0)
(2.899120291 0.2343096707 0)
(2.908492089 0.2193357418 0)
(3 3.050542051e-15 0)
(3 1.129621179e-13 0)
(3 2.578901196e-11 0)
(2.999999997 8.979725217e-09 0)
(2.999999878 3.18601824e-07 0)
(2.999995046 1.216459057e-05 0)
(2.999920803 0.0002108171446 0)
(2.999287262 0.001800087092 0)
(2.994195029 0.0152652325 0)
(2.982783166 0.04539967783 0)
(2.94241927 0.1386069315 0)
(2.942126038 0.1742276467 0)
(2.909690532 0.252304694 0)
(2.896890535 0.2528425631 0)
(2.890313145 0.2464232109 0)
(2.890852156 0.2458206717 0)
(2.893733785 0.2429231557 0)
(2.900111639 0.2333358708 0)
(3 9.632707673e-15 0)
(3 6.044210112e-15 0)
(3 3.048681627e-13 0)
(3 1.397161251e-10 0)
(2.999999997 8.195083278e-09 0)
(2.999999752 6.295543245e-07 0)
(2.9999953 1.229815402e-05 0)
(2.999906585 0.0002412016098 0)
(2.999246193 0.001990573072 0)
(2.994653853 0.01416685736 0)
(2.977615588 0.0529106378 0)
(2.957361203 0.1196165969 0)
(2.921081218 0.2171078696 0)
(2.920371948 0.2180384127 0)
(2.89975373 0.240409498 0)
(2.893834961 0.2480957744 0)
(2.892604723 0.2464168777 0)
(2.894503302 0.2421094085 0)
(3 1.836154762e-14 0)
(3 5.249305202e-15 0)
(3 4.113239821e-15 0)
(3 1.337255554e-12 0)
(3 1.304548883e-10 0)
(2.999999993 1.877572454e-08 0)
(2.999999781 5.855648694e-07 0)
(2.999993962 1.505846083e-05 0)
(2.999904056 0.000258441012 0)
(2.999252576 0.001922308713 0)
(2.993771764 0.01603853038 0)
(2.982847875 0.04627911474 0)
(2.943001242 0.1389224187 0)
(2.941338547 0.1706761108 0)
(2.909442327 0.2460687429 0)
(2.900053776 0.251567949 0)
(2.892822204 0.2456565119 0)
(2.892719297 0.2447375689 0)
(3 1.565913264e-14 0)
(3 1.46476536e-14 0)
(3 2.015530361e-15 0)
(3 2.52429494e-15 0)
(3 1.553777677e-12 0)
(3 3.379185292e-10 0)
(2.999999994 1.499846828e-08 0)
(2.999999656 8.801563845e-07 0)
(2.999994201 1.515605496e-05 0)
(2.999897209 0.0002672605808 0)
(2.9991536 0.002217166739 0)
(2.994731958 0.01388823384 0)
(2.975775276 0.05640691878 0)
(2.959876196 0.1147990056 0)
(2.920331734 0.2175073229 0)
(2.919107027 0.2178070094 0)
(2.900443874 0.2399604505 0)
(2.896038842 0.2467434941 0)
(3 1.154123643e-14 0)
(3 9.408909222e-15 0)
(3 2.22437448e-15 0)
(3 -4.177387637e-15 0)
(3 2.904448914e-15 0)
(3 3.752090724e-12 0)
(3 2.793496632e-10 0)
(2.999999989 2.710318996e-08 0)
(2.999999682 8.469785192e-07 0)
(2.999993202 1.693708403e-05 0)
(2.999889432 0.0002958471496 0)
(2.99920529 0.002035475706 0)
(2.993313548 0.01661279273 0)
(2.98277121 0.04739250536 0)
(2.943208333 0.1399735255 0)
(2.939894448 0.1689882041 0)
(2.909237317 0.2402701989 0)
(2.902633076 0.2494164223 0)
(3 7.375289231e-15 0)
(3 1.052688003e-14 0)
(3 5.787631586e-15 0)
(3 -7.265534431e-15 0)
(3 -1.187311675e-14 0)
(3 1.459024156e-14 0)
(3 3.784174241e-12 0)
(3 6.313967426e-10 0)
(2.999999991 2.320325869e-08 0)
(2.999999556 1.138895354e-06 0)
(2.999992984 1.827410252e-05 0)
(2.999889748 0.0002855971671 0)
(2.999018178 0.002535141218 0)
(2.99485706 0.01367323458 0)
(2.974270485 0.05963042934 0)
(2.961312402 0.1135552052 0)
(2.920674719 0.2190448305 0)
(2.918617832 0.2170371516 0)
(3 -4.298413281e-16 0)
(3 5.816697162e-15 0)
(3 2.801108789e-16 0)
(3 -6.264998786e-15 0)
(3 -1.111327522e-14 0)
(3 -8.281733992e-15 0)
(3 3.090407228e-14 0)
(3 8.265653825e-12 0)
(3 5.266234344e-10 0)
(2.999999986 3.664745347e-08 0)
(2.999999575 1.141455192e-06 0)
(2.999992427 1.912255941e-05 0)
(2.999876905 0.0003280748702 0)
(2.999155465 0.002186233482 0)
(2.9929062 0.01716209782 0)
(2.982801865 0.04880145799 0)
(2.944601082 0.1410464694 0)
(2.938943137 0.1673280835 0)
(3 -8.829686327e-15 0)
(3 -5.834379848e-15 0)
(3 -5.457455455e-15 0)
(3 -5.448340672e-15 0)
(3 -6.224306948e-15 0)
(3 -8.27865637e-15 0)
(3 -2.229140125e-15 0)
(3 7.344279537e-14 0)
(3 6.760519286e-12 0)
(3 9.984023187e-10 0)
(2.999999988 3.187692182e-08 0)
(2.999999495 1.31280461e-06 0)
(2.999991881 2.125185701e-05 0)
(2.999888562 0.0002871538787 0)
(2.998885386 0.002842877952 0)
(2.994979988 0.01361370367 0)
(2.973911194 0.06097590713 0)
(2.962419395 0.1114019583 0)
(3 -1.94723036e-14 0)
(3 -1.914321724e-14 0)
(3 -1.544355275e-14 0)
(3 -6.868846578e-15 0)
(3 -6.411082613e-15 0)
(3 -3.445244602e-15 0)
(3 4.033653788e-15 0)
(3 -1.812066215e-15 0)
(3 6.913551766e-14 0)
(3 1.25777005e-11 0)
(3 7.612337166e-10 0)
(2.999999984 4.180599967e-08 0)
(2.999999508 1.312328704e-06 0)
(2.999991898 2.045212358e-05 0)
(2.999868669 0.0003465150853 0)
(2.999128484 0.002283965514 0)
(2.992682887 0.01732421846 0)
(2.98271093 0.04940095953 0)
(3 -2.842936324e-14 0)
(3 -2.796525156e-14 0)
(3 -1.846651063e-14 0)
(3 -2.138727552e-15 0)
(3 6.2670289e-15 0)
(3 8.187045847e-15 0)
(3 8.224246549e-15 0)
(3 2.311648546e-15 0)
(3 -1.710080618e-15 0)
(3 1.183254387e-13 0)
(3 8.698425734e-12 0)
(3 1.228281215e-09 0)
(2.999999986 3.822950797e-08 0)
(2.999999477 1.348717014e-06 0)
(2.99999086 2.387561905e-05 0)
(2.999891 0.0002795880162 0)
(2.998782357 0.003039704432 0)
(2.994969195 0.01373215965 0)
(3 -2.884122136e-14 0)
(3 -2.644651516e-14 0)
(3 -1.633669582e-14 0)
(3 2.473689696e-16 0)
(3 8.19087289e-15 0)
(3 1.522146787e-14 0)
(3 1.336681103e-14 0)
(3 1.013130726e-14 0)
(3 1.000469311e-14 0)
(3 9.561725159e-15 0)
(3 9.664293309e-14 0)
(3 1.600782595e-11 0)
(3 9.583224033e-10 0)
(2.999999982 4.506095432e-08 0)
(2.999999473 1.385315672e-06 0)
(2.999991578 2.122029397e-05 0)
(2.999860715 0.0003623952985 0)
(2.999098724 0.002392457644 0)
(3 -2.681247742e-14 0)
(3 -2.214910234e-14 0)
(3 -1.865570209e-14 0)
(3 -9.29610934e-15 0)
(3 -2.915599507e-15 0)
(3 2.75704885e-15 0)
(3 6.569042638e-15 0)
(3 1.006672223e-14 0)
(3 1.665744181e-14 0)
(3 1.710833612e-14 0)
(3 1.526953754e-14 0)
(3 1.754154542e-13 0)
(3 1.079263967e-11 0)
(2.999999999 1.346219768e-09 0)
(2.999999983 4.338359011e-08 0)
(2.999999485 1.3112934e-06 0)
(2.999989866 2.655574073e-05 0)
(2.999892622 0.0002787926346 0)
(3 -1.909686299e-14 0)
(3 -2.313608728e-14 0)
(3 -1.401801403e-14 0)
(3 -8.219927309e-15 0)
(3 -3.704457789e-15 0)
(3 -3.111742005e-17 0)
(3 3.791627044e-15 0)
(3 1.264303264e-14 0)
(3 1.445097855e-14 0)
(3 1.989439116e-14 0)
(3 1.801451108e-14 0)
(3 1.087325858e-14 0)
(3 1.079886747e-13 0)
(3 1.896938106e-11 0)
(3 1.116331142e-09 0)
(2.999999981 4.717255063e-08 0)
(2.999999451 1.432632612e-06 0)
(2.999991516 2.152513887e-05 0)
(3 -1.047760233e-14 0)
(3 -1.490693623e-14 0)
(3 -1.482596958e-14 0)
(3 -8.193111861e-15 0)
(3 -5.030570348e-15 0)
(3 -1.050043586e-16 0)
(3 -2.303918349e-15 0)
(3 2.809737246e-15 0)
(3 3.425286057e-15 0)
(3 9.09200929e-15 0)
(3 1.465971857e-14 0)
(3 5.504491285e-15 0)
(3 7.379483178e-15 0)
(3 2.34419533e-13 0)
(3 1.409511609e-11 0)
(2.999999999 1.427015466e-09 0)
(2.999999981 4.816159436e-08 0)
(2.999999499 1.253368309e-06 0)
(3 -3.661500181e-15 0)
(3 -7.05072841e-15 0)
(3 -1.262691958e-14 0)
(3 -1.044549103e-14 0)
(3 -8.292007416e-15 0)
(3 -3.537473258e-15 0)
(3 -5.763344032e-15 0)
(3 -3.542506682e-15 0)
(3 -2.394863961e-15 0)
(3 -3.815022874e-16 0)
(3 4.067535547e-15 0)
(3 2.13004367e-16 0)
(3 3.553711592e-16 0)
(3 4.385646162e-15 0)
(3 1.761549309e-13 0)
(3 2.407980589e-11 0)
(2.999999999 1.308846611e-09 0)
(2.99999998 5.025823544e-08 0)
(3 3.767229201e-15 0)
(3 -1.074467533e-15 0)
(3 -5.127419111e-15 0)
(3 -6.148993957e-15 0)
(3 -6.621350907e-15 0)
(3 -1.277684827e-14 0)
(3 -4.869466818e-15 0)
(3 -2.932411206e-15 0)
(3 -4.328556338e-15 0)
(3 -5.905622151e-15 0)
(3 -5.132793873e-15 0)
(3 -5.49680413e-15 0)
(3 -4.072289165e-15 0)
(3 -5.461030513e-15 0)
(3 2.951751948e-15 0)
(3 3.564588097e-13 0)
(3 2.080938384e-11 0)
(2.999999999 1.589422195e-09 0)
(3 4.472924106e-15 0)
(3 3.455084745e-15 0)
(3 3.576815484e-15 0)
(3 8.47692644e-16 0)
(3 -3.338597883e-15 0)
(3 -1.600648524e-14 0)
(3 -1.02287006e-14 0)
(3 -7.498149584e-15 0)
(3 -9.996735467e-15 0)
(3 -9.07080991e-15 0)
(3 -9.462294715e-15 0)
(3 -3.984812493e-15 0)
(3 -7.383417376e-16 0)
(3 1.749404434e-15 0)
(3 -2.819060262e-16 0)
(3 8.614415899e-15 0)
(3 2.641159894e-13 0)
(3 3.17315229e-11 0)
(3 2.379903513e-15 0)
(3 6.99250012e-15 0)
(3 1.24296342e-14 0)
(3 5.102823805e-15 0)
(3 -1.068166865e-15 0)
(3 -5.954008201e-15 0)
(3 -7.584891132e-15 0)
(3 -8.981020158e-15 0)
(3 -5.836763067e-15 0)
(3 -7.101875593e-15 0)
(3 -1.038097521e-14 0)
(3 -7.728157182e-15 0)
(3 -5.755505666e-15 0)
(3 -1.699544827e-15 0)
(3 5.290952872e-15 0)
(3 7.674962548e-16 0)
(3 8.216620806e-15 0)
(3 4.73771981e-13 0)
(3 9.094931599e-17 0)
(3 1.073510285e-14 0)
(3 1.421092967e-14 0)
(3 7.78542847e-15 0)
(3 -1.141554679e-15 0)
(3 -1.498493968e-15 0)
(3 -5.765793645e-15 0)
(3 -7.535138907e-15 0)
(3 -4.196326499e-15 0)
(3 -5.808154949e-15 0)
(3 -8.853215836e-15 0)
(3 -9.339007402e-15 0)
(3 -5.267000897e-15 0)
(3 3.879671912e-16 0)
(3 6.435887139e-15 0)
(3 2.40748098e-15 0)
(3 -4.471305611e-15 0)
(3 -1.032307247e-15 0)
(3 -4.286832976e-15 0)
(3 1.577163425e-15 0)
(3 2.898470969e-15 0)
(3 7.952253924e-15 0)
(3 8.50495104e-15 0)
(3 4.170729039e-15 0)
(3 -1.36210712e-15 0)
(3 -6.15009909e-15 0)
(3 -8.197723082e-15 0)
(3 -1.071241035e-14 0)
(3 -1.181916054e-14 0)
(3 -8.104312976e-15 0)
(3 2.412840785e-15 0)
(3 8.101112255e-15 0)
(3 1.162323624e-14 0)
(3 8.737783876e-15 0)
(3 -7.362453242e-15 0)
(3 -8.699335017e-15 0)
(3 -6.322439407e-15 0)
(3 -1.125439016e-14 0)
(3 -9.016108585e-15 0)
(3 -1.172130808e-14 0)
(3 -4.256389579e-15 0)
(3 8.098956615e-15 0)
(3 8.184172331e-15 0)
(3 4.496657841e-15 0)
(3 -1.135140314e-15 0)
(3 -1.059792833e-14 0)
(3 -1.621846663e-14 0)
(3 -1.44716665e-14 0)
(3 -5.766812051e-15 0)
(3 1.204716564e-15 0)
(3 6.747948565e-15 0)
(3 1.052678577e-14 0)
(3 9.88643188e-15 0)
(3 3.717377512e-15 0)
(3 -7.925629595e-15 0)
(3 -5.739588236e-15 0)
(3 -7.930204309e-15 0)
(3 -8.042047581e-15 0)
(3 -1.163513113e-14 0)
(3 -1.582957233e-14 0)
(3 2.22544791e-17 0)
(3 7.163338186e-15 0)
(3 4.767776644e-15 0)
(3 -2.823066725e-15 0)
(3 -1.272191975e-14 0)
(3 -1.487048492e-14 0)
(3 -1.232889756e-14 0)
(3 -8.119934468e-15 0)
(3 -3.16712089e-15 0)
(3 5.720559636e-15 0)
(3 9.938174884e-15 0)
(3 1.274729827e-14 0)
(3 6.621259725e-15 0)
(3 -6.452386245e-15 0)
(3 -5.466141872e-15 0)
(3 -2.539014553e-15 0)
(3 -3.366105551e-15 0)
(3 -8.921522025e-15 0)
(3 -1.501221828e-14 0)
(3 -4.624193577e-15 0)
(3 1.201430967e-16 0)
(3 -4.693921801e-15 0)
(3 -9.987113829e-15 0)
(3 -1.486786158e-14 0)
(3 -1.324391863e-14 0)
(3 -7.56056223e-15 0)
(3 -3.239598935e-15 0)
(3 -1.849545467e-15 0)
(3 3.215200675e-15 0)
(3 1.106698777e-14 0)
(3 1.795282483e-14 0)
(3 7.996817299e-15 0)
(3 5.213452564e-15 0)
(3 3.029178238e-15 0)
(3 3.997678038e-16 0)
(3 -1.00071098e-15 0)
(3 -8.959250114e-15 0)
(3 -1.742120759e-14 0)
(3 -1.83892424e-14 0)
(3 -1.543715124e-14 0)
(3 -1.247233572e-14 0)
(3 -1.333340757e-14 0)
(3 -8.334625507e-15 0)
(3 -5.763315866e-15 0)
(3 6.463834241e-16 0)
(3 5.195661074e-15 0)
(3 6.199975365e-15 0)
(3 6.577183032e-15 0)
(3 1.5070498e-14 0)
(3 1.475440772e-14 0)
(3 1.291328778e-14 0)
(3 1.039765981e-14 0)
(3 3.328634322e-15 0)
(3 1.668330383e-15 0)
(3 -2.743702419e-15 0)
(3 -8.353888108e-15 0)
(3 -1.802083791e-14 0)
(3 -2.692083365e-14 0)
(3 -2.401409577e-14 0)
(3 -1.426762184e-14 0)
(3 -8.942645817e-15 0)
(3 -2.00085803e-15 0)
(3 5.82344799e-15 0)
(3 4.762579348e-15 0)
(3 4.905855144e-15 0)
(3 7.163170214e-15 0)
(3 1.537914747e-14 0)
(3 1.326526862e-14 0)
(3 1.180414475e-14 0)
(3 1.322485541e-14 0)
(3 1.137419511e-14 0)
(3 4.002066772e-15 0)
(3 7.774312485e-15 0)
(3 -2.100554824e-15 0)
(3 -5.434833347e-15 0)
(3 -1.820140281e-14 0)
(3 -2.379909424e-14 0)
(3 -2.046068926e-14 0)
(3 -1.434882364e-14 0)
(3 6.417650953e-16 0)
(3 9.339359251e-15 0)
(3 9.467905853e-15 0)
(3 8.978082354e-15 0)
(3 7.16190884e-15 0)
(3 4.672238708e-15 0)
(3 6.443746819e-15 0)
(3 8.392695025e-15 0)
(3 1.700045911e-14 0)
(3 1.904342521e-14 0)
(3 1.749478417e-14 0)
(3 1.150573405e-14 0)
(3 1.079238984e-14 0)
(3 4.164703471e-15 0)
(3 -3.419088415e-15 0)
(3 -1.409123634e-14 0)
(3 -2.015120651e-14 0)
(3 -1.835246489e-14 0)
(3 -9.040858578e-15 0)
(3 -9.941176252e-17 0)
(3 8.772476992e-15 0)
(3 9.499715272e-15 0)
(3 9.416991113e-15 0)
(3 6.671688523e-15 0)
(3 2.370275358e-15 0)
(3 -1.982157471e-15 0)
(3 7.109806709e-15 0)
(3 1.352116357e-14 0)
(3 1.499016363e-14 0)
(3 1.561899347e-14 0)
(3 1.469147429e-14 0)
(3 4.797492115e-15 0)
(3 2.512923551e-15 0)
(3 -3.274895119e-15 0)
(3 -7.526036932e-15 0)
(3 -8.755253682e-15 0)
(3 -1.165816155e-14 0)
(3 -9.253619165e-15 0)
(3 -1.930383783e-15 0)
(3 5.306483516e-15 0)
(3 7.304545468e-15 0)
(3 7.150863358e-15 0)
(3 6.354725064e-15 0)
(3 4.183669147e-15 0)
(3 2.913098725e-15 0)
(3 5.653746732e-15 0)
(3 6.6914931e-15 0)
(3 1.433991567e-15 0)
(3 2.928507266e-15 0)
(3 9.196430631e-15 0)
(3 5.562072955e-15 0)
(3 3.186037093e-15 0)
(3 -1.309588433e-15 0)
(3 -3.590473545e-15 0)
(3 -2.490840564e-15 0)
(3 -4.123159686e-15 0)
(3 -4.049724098e-15 0)
(3 -1.58116947e-15 0)
(3 1.481480331e-15 0)
(3 3.132199361e-15 0)
(3 2.704350516e-15 0)
(3 2.40056584e-15 0)
(3 8.10040341e-16 0)
(3 3.553929322e-16 0)
(3 1.218889409e-15 0)
(3 3.843171011e-15 0)
(3 7.852161623e-16 0)
(3 -1.517146077e-16 0)
(3 3.739294285e-15 0)
)
;

boundaryField
{
    inlet
    {
        type            fixedValue;
        value           nonuniform 0();
    }
    outlet
    {
        type            inletOutlet;
        inletValue      nonuniform 0();
        value           nonuniform 0();
    }
    bottom
    {
        type            slip;
    }
    top
    {
        type            slip;
    }
    obstacle
    {
        type            slip;
    }
    defaultFaces
    {
        type            empty;
    }
    procBoundary33to26
    {
        type            processor;
        value           nonuniform List<vector> 
13
(
(3 -4.29170648e-16 0)
(3 4.984300072e-15 0)
(3 7.978887314e-15 0)
(3 1.435100658e-14 0)
(3 1.196196186e-14 0)
(3 6.215060879e-15 0)
(3 -1.24271803e-15 0)
(3 -1.079414376e-14 0)
(3 -1.812855929e-14 0)
(3 -2.231381895e-14 0)
(3 -2.476660694e-14 0)
(3 -2.103756646e-14 0)
(3 -1.639530546e-14 0)
)
;
    }
    procBoundary33to27
    {
        type            processor;
        value           nonuniform List<vector> 
19
(
(2.898626622 0.242196794 0)
(2.891077131 0.2508173149 0)
(2.890405503 0.2497209017 0)
(2.892197292 0.2468031966 0)
(2.897649249 0.2387371212 0)
(2.90694018 0.2232839031 0)
(2.918737773 0.200077114 0)
(2.931873331 0.1702432201 0)
(3 -5.01854213e-15 0)
(2.999999999 1.61722062e-09 0)
(2.999999965 9.070031473e-08 0)
(2.999997059 7.130616615e-06 0)
(2.999946937 0.0001384551945 0)
(2.999360253 0.001562216902 0)
(2.99478551 0.01362889741 0)
(2.983072649 0.0434339824 0)
(2.943331322 0.1375998028 0)
(2.941003828 0.1777189935 0)
(2.941003828 0.1777189935 0)
)
;
    }
    procBoundary33to32
    {
        type            processor;
        value           nonuniform List<vector> 
17
(
(3 -1.076207195e-14 0)
(3 -5.833195849e-15 0)
(3 -3.196829243e-16 0)
(3 4.894807682e-15 0)
(3 5.376068232e-16 0)
(3 9.931285593e-16 0)
(3 -3.439482779e-15 0)
(3 -8.24905233e-15 0)
(3 -9.707176333e-15 0)
(3 -7.952324666e-15 0)
(3 -3.636324521e-15 0)
(3 2.860448011e-15 0)
(3 5.757700555e-15 0)
(3 6.453320271e-15 0)
(3 6.519793168e-15 0)
(3 5.815042469e-15 0)
(3 5.781583218e-15 0)
)
;
    }
    procBoundary33to34
    {
        type            processor;
        value           nonuniform List<vector> 
32
(
(2.933356983 0.1687499159 0)
(2.921084626 0.1958857332 0)
(2.909768518 0.2170685488 0)
(2.899989675 0.2322385641 0)
(2.89493186 0.2412937056 0)
(2.894614737 0.2453627759 0)
(2.895600262 0.2444860642 0)
(2.901028956 0.2379534309 0)
(2.908125701 0.2337236433 0)
(2.919578321 0.2205339589 0)
(2.945764633 0.1412929247 0)
(2.973750762 0.06237417263 0)
(2.992569895 0.01751835789 0)
(2.998718429 0.003169349926 0)
(2.999855396 0.0003700744455 0)
(2.999988859 2.882005658e-05 0)
(2.999999401 1.54649565e-06 0)
(2.999999978 5.711656732e-08 0)
(2.999999999 1.547127602e-09 0)
(3 2.809107149e-11 0)
(3 3.283439258e-13 0)
(3 3.283439258e-13 0)
(3 5.119017937e-13 0)
(3 1.193721285e-15 0)
(3 -7.836374886e-15 0)
(3 2.891556441e-15 0)
(3 4.096264526e-15 0)
(3 2.880449312e-15 0)
(3 7.611845924e-15 0)
(3 1.135090439e-14 0)
(3 7.85722979e-15 0)
(3 2.535605102e-15 0)
)
;
    }
}


// ************************************************************************* //
