/*--------------------------------*- C++ -*----------------------------------*\
  =========                 |
  \\      /  F ield         | OpenFOAM: The Open Source CFD Toolbox
   \\    /   O peration     | Website:  https://openfoam.org
    \\  /    A nd           | Version:  7
     \\/     M anipulation  |
\*---------------------------------------------------------------------------*/
FoamFile
{
    version     2.0;
    format      ascii;
    class       volVectorField;
    location    "1.6";
    object      U;
}
// * * * * * * * * * * * * * * * * * * * * * * * * * * * * * * * * * * * * * //

dimensions      [0 1 -1 0 0 0 0];

internalField   nonuniform List<vector> 
22
(
(3 1.238683777e-15 0)
(3 2.806501841e-15 0)
(3 4.58496644e-15 0)
(3 5.324589134e-15 0)
(3 8.030542251e-16 0)
(3 3.209028261e-15 0)
(3 4.775528468e-15 0)
(3 5.256655077e-15 0)
(3 -3.53329869e-16 0)
(3 2.560158266e-16 0)
(3 1.871506446e-15 0)
(3 1.702883923e-15 0)
(3 1.383920204e-12 0)
(3 2.005224049e-11 0)
(3 2.077803723e-10 0)
(3 5.648240338e-10 0)
(3 8.762232465e-10 0)
(3.000000002 2.560941071e-09 0)
(3.000000002 2.713156235e-09 0)
(3 9.450021968e-10 0)
(2.999999947 -1.263679402e-07 0)
(2.99999956 -5.960916817e-07 0)
)
;

boundaryField
{
    inlet
    {
        type            fixedValue;
        value           nonuniform 0();
    }
    outlet
    {
        type            inletOutlet;
        inletValue      nonuniform 0();
        value           nonuniform 0();
    }
    bottom
    {
        type            slip;
    }
    top
    {
        type            slip;
    }
    obstacle
    {
        type            slip;
    }
    defaultFaces
    {
        type            empty;
    }
    procBoundary7to1
    {
        type            processor;
        value           nonuniform List<vector> 8((3 3.165062315e-16 0) (3 -1.485382163e-15 0) (3 -4.083294531e-18 0) (3 1.88530838e-16 0) (3 -7.999074915e-16 0) (3 4.624179135e-14 0) (3 6.793257569e-11 0) (3 6.793257569e-11 0));
    }
    procBoundary7to6
    {
        type            processor;
        value           nonuniform List<vector> 3((3 2.476700442e-15 0) (3 7.343271397e-16 0) (3 -4.177348377e-15 0));
    }
    procBoundary7to8
    {
        type            processor;
        value           nonuniform List<vector> 2((3.000000001 1.419179402e-09 0) (3.000000015 1.291232699e-08 0));
    }
    procBoundary7to13
    {
        type            processor;
        value           nonuniform List<vector> 8((3 -2.670658283e-15 0) (3 -2.881323171e-15 0) (3 -2.630832077e-15 0) (3 -2.273208102e-15 0) (3.000000021 2.423290143e-08 0) (3.000000021 2.423290143e-08 0) (2.999943133 -9.526048291e-05 0) (2.999781344 -0.0004004270395 0));
    }
    procBoundary7to14
    {
        type            processor;
        value           uniform (2.999995492 -8.125538852e-06 0);
    }
}


// ************************************************************************* //
