/*--------------------------------*- C++ -*----------------------------------*\
  =========                 |
  \\      /  F ield         | OpenFOAM: The Open Source CFD Toolbox
   \\    /   O peration     | Website:  https://openfoam.org
    \\  /    A nd           | Version:  7
     \\/     M anipulation  |
\*---------------------------------------------------------------------------*/
FoamFile
{
    version     2.0;
    format      ascii;
    class       volScalarField;
    location    "4.1";
    object      p;
}
// * * * * * * * * * * * * * * * * * * * * * * * * * * * * * * * * * * * * * //

dimensions      [1 -1 -2 0 0 0 0];

internalField   nonuniform List<scalar> 
2222
(
4.66232993
4.66768409
4.670204257
4.66049399
4.665842041
4.667865337
4.670437991
4.673492003
4.676578782
4.677288479
4.660887637
4.66318777
4.664509451
4.666106366
4.669353246
4.671494921
4.671107428
4.667454036
4.661175156
4.656767432
4.686222176
4.688664871
4.688128002
4.685776608
4.681737532
4.675196127
4.665734434
4.65673423
4.653731706
4.65377975
4.654951748
4.65794598
4.662799708
1.460985825
1.462085421
1.462824264
1.461921239
1.461859254
1.46209499
1.463073676
1.465589697
1.469300031
1.472728315
1.474946599
1.477048534
1.479659805
1.481120687
1.481609919
1.481897116
1.482169319
1.482360088
1.481964703
1.481019244
1.479347222
1.478376499
1.478227809
1.478214834
1.478563313
1.478926498
1.478940974
1.478851119
1.478724585
1.478359127
1.478112779
1.478136692
1.478452704
1.479210628
1.479737297
1.479712907
1.479495412
1.478994521
1.478507638
1.478398369
1.478394731
1.478713604
1.479409517
1.479581625
1.479435739
1.47901958
1.47846146
1.478233861
1.478209664
1.478289849
1.478748427
1.479228988
1.479235736
1.479044655
1.478638884
1.478281518
1.478197066
1.478193066
1.478344765
1.478776393
1.478996182
1.47896983
1.478817584
1.478544522
1.478368332
1.478354284
1.478509136
1.47709906
1.476629492
1.476480223
1.474465265
1.473019813
1.472928978
1.47292378
1.473398901
1.474832588
1.475528635
1.475286668
1.474773713
1.473947196
1.473315488
1.473001745
1.473103607
1.474106128
1.476007361
1.476813524
1.476740329
1.476207513
1.476223374
1.476527962
1.476883686
1.477442744
1.478638315
1.479629628
1.479755578
1.479730797
1.479369983
1.478572312
1.478231257
1.478210208
1.4783786
1.478849422
1.479105377
1.479120451
1.47900344
1.47855878
1.478186589
1.478148532
1.478225572
1.478561781
1.479017032
1.479154354
1.47912084
1.47896241
1.478607703
1.478361639
1.47832578
1.478370724
1.478619142
1.478874364
1.478896911
1.47882552
1.478636132
1.478400437
1.478318578
1.478323268
1.478422643
1.478651836
1.478860129
1.478893791
1.478863773
1.478746172
1.478636287
1.478647856
1.494393944
1.49131822
1.489444137
1.48516533
1.480689835
1.479311876
1.477849559
1.475900952
1.475002094
1.473438853
1.471445229
1.469506126
1.467273172
1.465816673
1.465868292
1.466430537
1.468247305
1.471738992
1.475820239
1.477470539
1.477828058
1.478214835
1.478803048
1.478955714
1.478947885
1.479279618
1.479560432
1.479559736
1.479320029
1.478708454
1.477988447
1.477661341
1.477663702
1.477736595
1.477966935
1.478319158
1.47857136
1.478682537
1.478709043
1.47859456
1.478545557
1.478571753
1.478621995
1.478781263
1.478932009
1.478970096
1.478983336
1.478909122
1.478726729
1.478536107
1.478420787
1.478398885
1.478457233
1.478609106
1.478730148
1.478773148
1.478782664
1.478744023
1.478629306
1.478568714
1.478589228
1.478719418
1.478891467
1.47893837
1.478954261
1.478928209
1.478861057
1.513238787
1.51342678
1.512908725
1.511004559
1.507470892
1.503523124
1.498600956
1.493058136
1.489129511
1.485707939
1.481187165
1.476764271
1.474204756
1.472600034
1.471418341
1.470991126
1.470996126
1.472094901
1.474033869
1.474326605
1.474277175
1.474092123
1.474563778
1.475340572
1.476123785
1.476450206
1.476788424
1.477160292
1.477265075
1.477352596
1.477580932
1.478001641
1.478458265
1.478620353
1.478689694
1.478740847
1.478801941
1.47889647
1.478943102
1.478942636
1.47893581
1.47889555
1.47876836
1.478538386
1.478405076
1.478403861
1.478448
1.478540962
1.478580404
1.478594476
1.478530961
1.478440764
1.478465461
1.478538321
1.478697373
1.478871963
1.478922048
1.478937443
1.478887747
1.478731668
1.478715665
1.478789685
1.478874375
1.478908361
1.478913274
1.478859006
1.478756747
1.51163431
1.513378275
1.512733349
1.511242371
1.508306075
1.502310793
1.494379976
1.490159601
1.488819391
1.488867468
1.487988053
1.487041392
1.486269403
1.48471177
1.48322168
1.481623214
1.479001637
1.475925347
1.474475145
1.473010613
1.471622294
1.471613025
1.471883024
1.472142197
1.472311417
1.472593018
1.473223195
1.474028289
1.475065585
1.476009348
1.476946168
1.477779961
1.478006799
1.478023978
1.477950625
1.47796146
1.47806779
1.478206236
1.478503687
1.478784298
1.478841361
1.478826034
1.478585837
1.478226952
1.478184307
1.478267725
1.478504995
1.478844063
1.4789706
1.478988003
1.478945475
1.478746164
1.478615628
1.478658547
1.478789494
1.478936003
1.478986886
1.479003081
1.478983025
1.478831395
1.478715611
1.478714069
1.478711477
1.478676576
1.478689143
1.47871566
1.478741679
1.448010033
1.466017644
1.471019639
1.47720693
1.484128927
1.487920103
1.49133355
1.497034899
1.50113281
1.500988487
1.501272431
1.502583375
1.502838021
1.502275926
1.500863797
1.498490549
1.493909459
1.488297356
1.483326502
1.479291309
1.475238553
1.47436604
1.474810173
1.474811547
1.474398219
1.4735265
1.47275085
1.472857269
1.473499557
1.474879082
1.476676742
1.477576212
1.477625205
1.477420571
1.476847787
1.476380741
1.476433373
1.476667698
1.477165335
1.477933563
1.478261187
1.478329856
1.478279548
1.478057294
1.478073672
1.478249387
1.478595393
1.479046769
1.479243558
1.479250747
1.479180798
1.478950883
1.478733354
1.478704386
1.478703525
1.478795757
1.47897644
1.479012092
1.478985784
1.478835673
1.478508027
1.478346391
1.478361254
1.47847075
1.478720301
1.478908924
1.478922982
1.310664526
1.362863176
1.396071411
1.420616557
1.452786681
1.476498734
1.486121395
1.498485988
1.503225276
1.501852033
1.501798289
1.502112815
1.501329452
1.500256034
1.498253312
1.494204994
1.488991351
1.486156647
1.48607371
1.485831944
1.484913075
1.484299777
1.484509053
1.484274153
1.482909131
1.480216232
1.477179996
1.476133393
1.475811213
1.475589992
1.475481178
1.475290701
1.474919449
1.474406125
1.4737406
1.473384342
1.473508578
1.474076191
1.475427441
1.477166971
1.478067915
1.478271986
1.478401862
1.478426375
1.478360525
1.478351358
1.478490994
1.479055993
1.4794916
1.479506467
1.479374079
1.478944784
1.478379562
1.478133125
1.478122078
1.478208714
1.478516823
1.478756174
1.478787196
1.478751082
1.478499781
1.478251531
1.478254317
1.47836681
1.478664984
1.47900937
1.479069324
1.098820029
1.139437176
1.192533475
1.235572703
1.281662722
1.32855462
1.363087175
1.404510978
1.430009124
1.440667878
1.45518303
1.463826958
1.467010356
1.473829011
1.480231121
1.484221948
1.488692955
1.494048544
1.496679741
1.497189434
1.498134627
1.498263353
1.49763439
1.496707678
1.494937241
1.491085938
1.486430692
1.481943642
1.478697954
1.476056769
1.475233818
1.475418593
1.47556208
1.475370157
1.474726199
1.474356922
1.474367358
1.474737622
1.475868561
1.477104317
1.477374289
1.477220153
1.477084782
1.477052139
1.476958758
1.476865182
1.476958788
1.477471768
1.47820617
1.478496534
1.47854925
1.478535762
1.47827707
1.478115388
1.478125153
1.478255183
1.478629591
1.478979135
1.479039647
1.479015262
1.478813161
1.47852471
1.478437955
1.478459396
1.478565257
1.478836586
1.479059156
1.009615838
1.018009935
1.033076738
1.053518933
1.080169963
1.119894652
1.161978354
1.207482496
1.257848921
1.300054113
1.348692422
1.390986428
1.415508206
1.438738774
1.464525095
1.474903177
1.484076657
1.494631577
1.495173489
1.494189009
1.495362199
1.494902148
1.493438236
1.491872748
1.489351019
1.485202512
1.482677641
1.483407932
1.483751133
1.483220038
1.481949388
1.481267843
1.481662798
1.482019157
1.481339943
1.47952645
1.478104283
1.477767469
1.477411686
1.476703264
1.475844069
1.475071551
1.475026438
1.47520691
1.475251425
1.475237662
1.475342289
1.475736614
1.476532215
1.477184384
1.477497351
1.477867621
1.478227075
1.478316767
1.478338899
1.478418289
1.478640552
1.478915341
1.47903599
1.479028115
1.478949852
1.478728472
1.478473345
1.478373403
1.478377562
1.478443717
1.478725189
1.000183646
1.000509621
1.001320683
1.00312413
1.00654078
1.013164075
1.024337125
1.040640843
1.0667534
1.098225177
1.133298616
1.183657609
1.233103598
1.275308828
1.321913736
1.355471655
1.38588864
1.422906035
1.434575608
1.445770755
1.4602712
1.462041665
1.465348371
1.472320413
1.4779268
1.482143316
1.4858894
1.492829095
1.495295172
1.495630129
1.495056745
1.493527825
1.492241001
1.491107652
1.489109396
1.485848836
1.482679882
1.47973938
1.477500953
1.475879345
1.475008114
1.475005964
1.475222355
1.475595675
1.475984681
1.476021297
1.476040165
1.476339746
1.476687973
1.476990862
1.477237264
1.477336333
1.477485126
1.477589402
1.477504044
1.477235607
1.477245111
1.47743979
1.477827808
1.478298991
1.478591704
1.47865904
1.478667405
1.478650013
1.478582425
1.478480781
1.478475423
1.000000509
1.000002242
1.000008886
1.000032402
1.000104314
1.000304382
1.000840154
1.002024456
1.004517226
1.009526185
1.017667537
1.031801298
1.053427304
1.078783856
1.114779581
1.15980121
1.202847329
1.252452463
1.297396223
1.334445014
1.383272426
1.411523947
1.431021138
1.454510311
1.468675539
1.474691822
1.484697195
1.490805114
1.490531703
1.490618377
1.49048953
1.48919292
1.486478693
1.484118419
1.482209275
1.480404861
1.480516112
1.481734005
1.48182567
1.481282456
1.480372007
1.48028275
1.480776997
1.48136087
1.481051045
1.479804973
1.478330944
1.477373796
1.476608632
1.47589744
1.475633589
1.475674251
1.476076292
1.476375672
1.476347239
1.476046138
1.47587374
1.47608284
1.476600484
1.477338228
1.478207929
1.478775908
1.478867066
1.478855486
1.478681053
1.478261612
1.478039989
1
1.000000001
1.000000007
1.000000044
1.000000233
1.000001101
1.000004682
1.000017662
1.000059339
1.000185054
1.000516549
1.001307771
1.003129836
1.006634171
1.012902758
1.024245009
1.040659404
1.064568373
1.099098285
1.133131928
1.17551395
1.229129482
1.271278571
1.315763974
1.353031488
1.378168107
1.410870515
1.431486794
1.439206322
1.452426083
1.46044622
1.460829768
1.464693998
1.47326031
1.478808969
1.481935127
1.486264902
1.492698759
1.493231882
1.492007053
1.490234814
1.489125917
1.488200884
1.487088739
1.485219631
1.482859673
1.479938542
1.477777525
1.475742236
1.475171815
1.475197119
1.47551679
1.476178751
1.477026911
1.477335164
1.477228597
1.476805795
1.476647315
1.476766145
1.476894611
1.477316357
1.477820383
1.478040014
1.478098769
1.477988329
1.477438936
1.477234853
1
1
1
1
1
1
1.000000003
1.000000019
1.000000107
1.000000535
1.000002372
1.000009313
1.000033506
1.000109406
1.000313314
1.000848578
1.002101947
1.004564593
1.009552404
1.018091307
1.031046849
1.052991312
1.080284008
1.112489306
1.157155956
1.201857517
1.248066256
1.295513666
1.331053341
1.369515407
1.408747531
1.428002696
1.445964263
1.465366791
1.47120415
1.476211423
1.48475743
1.487876574
1.48767618
1.487007445
1.485758574
1.48285326
1.479531468
1.479215341
1.479280677
1.479046179
1.479791274
1.480800254
1.480600877
1.479858037
1.479650752
1.479865815
1.480507616
1.480744436
1.480374256
1.479101888
1.477929339
1.477125994
1.476275746
1.475648127
1.475609203
1.475681014
1.476118236
1.476819593
1.477067357
1.477167157
1.477016058
1
1
1
1
1
1
1
1
1
1
1.000000001
1.000000008
1.000000048
1.000000256
1.000001193
1.000005006
1.000018888
1.000063087
1.000192367
1.000541975
1.00135627
1.003178381
1.006922819
1.013265892
1.024293736
1.041518255
1.064160597
1.09793005
1.136595898
1.173404319
1.222812241
1.271065391
1.310401058
1.352731502
1.378453676
1.399381782
1.427667484
1.437685892
1.444888509
1.456969651
1.460242094
1.460787773
1.466839913
1.476401463
1.48081332
1.482760091
1.486801287
1.490922662
1.490827058
1.489476257
1.487235325
1.485693688
1.484385393
1.482946782
1.481578998
1.4797491
1.478326915
1.477268119
1.476027557
1.475544635
1.475550932
1.475687348
1.476220484
1.477465513
1.478628782
1.478724868
1.47841746
1
1
1
1
1
1
1
1
1
1
1
1
1
1
1
1.000000003
1.000000022
1.00000012
1.000000592
1.000002623
1.000010314
1.000036283
1.000118563
1.000341631
1.00088521
1.002199359
1.00482245
1.009731929
1.018777354
1.031971454
1.05247851
1.08219557
1.114271052
1.154877594
1.202542105
1.246800529
1.29444
1.333537788
1.362057363
1.400680283
1.429401755
1.444559168
1.459585874
1.471639931
1.47370846
1.476589506
1.482452626
1.485370078
1.485894689
1.485309335
1.481949124
1.477243651
1.474740314
1.475951301
1.477212995
1.47788955
1.479320302
1.480910146
1.480991444
1.48058482
1.479954016
1.479143777
1.47874494
1.479166512
1.47942028
1.478953294
1.478241462
1
1
1
1
1
1
1
1
1
1
1
1
1
1
1
1
1
1
1
1.000000001
1.00000001
1.000000057
1.000000298
1.00000137
1.000005611
1.000020958
1.000070286
1.000210342
1.000585197
1.001470679
1.003350515
1.00722254
1.014037537
1.025011816
1.042654968
1.065969344
1.097069917
1.13980757
1.178913877
1.219934161
1.269423763
1.31027944
1.35102705
1.383360438
1.399920269
1.416382895
1.436175334
1.442934205
1.450599933
1.461039156
1.463200743
1.464696686
1.470497113
1.478602644
1.482173627
1.483308019
1.485473489
1.48796459
1.488342575
1.487951809
1.486423323
1.48349109
1.479892242
1.477428909
1.476653465
1.476254819
1.476765456
1
1
1
1
1
1
1
1
1
1
1
1
1
1
1
1
1
1
1
1
1
1
1
1.000000001
1.000000004
1.000000027
1.000000146
1.000000703
1.000003051
1.000011942
1.000041338
1.000131082
1.000381955
1.000976049
1.002335497
1.005210143
1.010343647
1.019600372
1.033975027
1.053685084
1.083936773
1.119260262
1.156831771
1.203025463
1.248690672
1.294854202
1.338428884
1.367975627
1.39101522
1.424339178
1.448021371
1.457553664
1.468227882
1.476247587
1.475891232
1.476913522
1.480164479
1.482474543
1.482795099
1.482790526
1.48103591
1.476597612
1.473883373
1.474834249
1.476125684
1.47686606
1.478319799
1
1
1
1
1
1
1
1
1
1
1
1
1
1
1
1
1
1
1
1
1
1
1
1
1
1
1
1
1.000000002
1.000000012
1.00000007
1.000000362
1.000001656
1.000006663
1.000024284
1.000080817
1.000240461
1.000652241
1.001636527
1.003677838
1.00773172
1.015113099
1.02659593
1.044705097
1.069702492
1.099640684
1.140494635
1.188082861
1.227356236
1.269304018
1.312623836
1.346048643
1.385091842
1.409592862
1.419468671
1.430888047
1.441679586
1.446105925
1.453934942
1.463272866
1.468535978
1.470980705
1.474649452
1.481982054
1.484430305
1.483701087
1.483635924
1
1
1
1
1
1
1
1
1
1
1
1
1
1
1
1
1
1
1
1
1
1
1
1
1
1
1
1
1
1
1
1
1.000000001
1.000000005
1.000000034
1.000000186
1.00000088
1.000003715
1.000014281
1.000049316
1.000151883
1.000436136
1.001125377
1.002602844
1.005733472
1.011427369
1.02106111
1.036832436
1.05752497
1.085705842
1.125409721
1.165432539
1.208151542
1.253715939
1.29412003
1.341293847
1.378710548
1.399508537
1.418332819
1.441205
1.458081665
1.464472361
1.473298011
1.47902438
1.479103481
1.478071348
1.478271204
1
1
1
1
1
1
1
1
1
1
1
1
1
1
1
1
1
1
1
1
1
1
1
1
1
1
1
1
1
1
1
1
1
1
1
1
1
1.000000002
1.000000016
1.000000093
1.000000465
1.000002088
1.000008366
1.000029688
1.000097065
1.000286678
1.000761716
1.001878313
1.00421462
1.008577096
1.016662271
1.029402857
1.047823682
1.075513077
1.107068515
1.143593582
1.191448519
1.239220134
1.280993133
1.318475882
1.350785811
1.376073007
1.407749922
1.427058272
1.4366978
1.445406444
1.448243149
1
1
1
1
1
1
1
1
1
1
1
1
1
1
1
1
1
1
1
1
1
1
1
1
1
1
1
1
1
1
1
1
1
1
1
1
1
1
1
1
1
1.000000001
1.000000008
1.000000047
1.000000249
1.000001165
1.000004813
1.000017936
1.000061426
1.000187198
1.000520609
1.001347038
1.003072422
1.006561378
1.0129357
1.023417284
1.040598765
1.064400452
1.092314188
1.12928715
1.175254355
1.220469096
1.265114492
1.304617752
1.337969453
1.37480513
1.41465645
1
1
1
1
1
1
1
1
1
1
1
1
1
1
1
1
1
1
1
1
1
1
1
1
1
1
1
1
1
1
1
1
1
1
1
1
1
1
1
1
1
1
1
1
1
1
1.000000004
1.000000023
1.000000132
1.000000646
1.000002809
1.000011127
1.000038647
1.000123362
1.000355699
1.000944142
1.002263038
1.005060239
1.010016003
1.019124302
1.032932322
1.053809969
1.081545576
1.118914778
1.156912427
1.196561488
1.245040838
1
1
1
1
1
1
1
1
1
1
1
1
1
1
1
1
1
1
1
1
1
1
1
1
1
1
1
1
1
1
1
1
1
1
1
1
1
1
1
1
1
1
1
1
1
1
1
1
1
1
1.000000002
1.000000012
1.00000007
1.00000036
1.000001642
1.00000678
1.000024394
1.000082045
1.000240632
1.000678441
1.001628559
1.0038886
1.007868898
1.01558256
1.0266023
1.047066005
1.067098538
1
1
1
1
1
1
1
1
1
1
1
1
1
1
1
1
1
1
1
1
1
1
1
1
1
1
1
1
1
1
1
1
1
1
1
1
1
1
1
1
1
1
1
1
1
1
1
1
1
1
1
1
1
1
1.000000001
1.000000006
1.000000037
1.000000202
1.000000957
1.000004166
1.000015509
1.000055802
1.000163452
1.000495751
1.00115594
1.003401327
1.004807498
1
1
1
1
1
1
1
1
1
1
1
1
1
1
1
1
1
1
1
1
1
1
1
1
1
1
1
1
1
1
1
1
1
1
1
1
1
1
1
1
1
1
1
1
1
1
1
1
1
1
1
1
1
1
1
1
1
1
1
1.000000003
1.00000002
1.000000119
1.000000552
1.000002697
1.000009069
1.000074966
1.000027238
1
1
1
1
1
1
1
1
1
1
1
1
1
1
1
1
1
1
1
1
1
1
1
1
1
1
1
1
1
1
1
1
1
1
1
1
1
1
1
1
1
1
1
1
1
1
1
1
1
1
1
1
1
1
1
1
1
1
1
1
1
1
1
1.000000002
1.000000009
1.000000384
0.9999999508
1
1
1
1
1
1
1
1
1
1
1
1
1
1
1
1
1
1
1
1
1
1
1
1
1
1
1
1
1
1
1
1
1
1
1
1
1
1
1
1
1
1
1
1
1
1
1
1
1
1
1
1
1
1
1
1
1
1
1
1
1
1
1
1
1
1
0.9999999908
1
1
1
1
1
1
1
1
1
1
1
1
1
1
1
1
1
1
1
1
1
1
1
1
1
1
1
1
1
1
1
1
1
1
1
1
1
1
1
1
1
1
1
1
1
1
1
1
1
1
1
1
1
1
1
1
1
1
1
1
1
1
1
1
1
1
0.9999999997
1
1
1
1
1
1
1
1
1
1
1
1
1
1
1
1
1
1
1
1
1
1
1
1
1
1
1
1
1
1
1
1
1
1
1
1
1
1
1
1
1
1
1
1
1
1
1
1
1
1
1
1
1
1
1
1
1
1
1
1
1
1
1
1
1
1
1
1
1
1
1
1
1
1
1
1
1
1
1
1
1
1
1
1
1
1
1
1
1
1
1
1
1
1
1
1
1
1
1
1
1
1
1
1
1
1
1
1
1
1
1
1
1
1
1
1
1
1
1
1
1
1
1
1
1
1
1
1
1
1
1
1
1
1
1
1
1
1
1
1
1
1
1
1
1
1
1
1
1
1
1
1
1
1
1
1
1
1
1
1
1
1
1
1
1
1
1
1
1
1
1
1
1
1
1
1
1
1
1
1
1
1
1
1
1
1
1
1
1
1
1
1
1
1
1
1
1
1
1
1
1
1
1
1
1
1
1
1
1
1
1
1
1
1
1
1
1
1
1
1
1
1
1
1
1
1
1
1
1
1
1
1
1
1
1
1
1
1
1
1
1
1
1
1
1
1
1
1
1
1
1
1
1
1
1
1
1
1
1
1
1
1
1
1
1
1
1
1
1
1
1
1
1
1
1
1
1
1
1
1
1
1
1
1
1
1
1
1
1
1
1
1
1
1
1
1
1
1
1
1
1
1
1
1
1
1
1
1
1
1
1
1
1
)
;

boundaryField
{
    inlet
    {
        type            fixedValue;
        value           nonuniform 0();
    }
    outlet
    {
        type            zeroGradient;
    }
    bottom
    {
        type            slip;
    }
    top
    {
        type            slip;
    }
    obstacle
    {
        type            zeroGradient;
    }
    defaultFaces
    {
        type            empty;
    }
    procBoundary20to13
    {
        type            processor;
        value           nonuniform List<scalar> 4(4.651970824 4.653111001 4.661580395 4.681637798);
    }
    procBoundary20to14
    {
        type            processor;
        value           nonuniform List<scalar> 
17
(
4.649777783
4.656325047
4.660004658
4.674805117
4.674805117
4.677779466
4.678153339
4.676338885
4.675749832
4.675749832
4.671229373
4.664536496
4.655698477
4.655698477
4.65589649
4.657599222
4.667292116
)
;
    }
    procBoundary20to19
    {
        type            processor;
        value           nonuniform List<scalar> 
33
(
1.461729919
1.481328935
1.496555393
1.513074193
1.511298467
1.434370642
1.265480458
1.068649054
1.004624505
1.000058653
1.000000101
1
1
1
1
1
1
1
1
1
1
1
1
1
1
1
1
1
1
1
1
1
1
)
;
    }
    procBoundary20to25
    {
        type            processor;
        value           nonuniform List<scalar> 2(1 1);
    }
    procBoundary20to26
    {
        type            processor;
        value           nonuniform List<scalar> 
69
(
1
1
1
1
1
1
1
1
1
1
1
1
1
1
1
1
1
1
1
1
1
1
1
1
1
1
1
1
1
1
1
1
1
1
1
1
1
1
1
1
1
1
1
1
1
1
1
1
1
1
1
1
1
1
1
1
1
1
1
1
1
1
1
1
1
1
1
1
1
)
;
    }
    procBoundary20to27
    {
        type            processor;
        value           nonuniform List<scalar> 
31
(
1.087797651
1.422316362
1.472458743
1.47816004
1.478588348
1.478773356
1.478840145
1.478897089
1.478862206
1.478762727
1.47851191
1.478062946
1.477827995
1.477654508
1.476834604
1.476663234
1.480161121
1.483939983
1.475070027
1.455790607
1.441971146
1.334355748
1.18030618
1.051768154
1.006671481
1.000370753
1.000008717
1.000000082
1
1
1
)
;
    }
}


// ************************************************************************* //
