/*--------------------------------*- C++ -*----------------------------------*\
  =========                 |
  \\      /  F ield         | OpenFOAM: The Open Source CFD Toolbox
   \\    /   O peration     | Website:  https://openfoam.org
    \\  /    A nd           | Version:  7
     \\/     M anipulation  |
\*---------------------------------------------------------------------------*/
FoamFile
{
    version     2.0;
    format      ascii;
    class       volScalarField;
    location    "2";
    object      rho;
}
// * * * * * * * * * * * * * * * * * * * * * * * * * * * * * * * * * * * * * //

dimensions      [1 -3 0 0 0 0 0];

internalField   nonuniform List<scalar> 
2222
(
1.389302546
1.388809255
1.388044806
1.386898788
1.386980996
1.387617054
1.3884074
1.389413433
1.390194262
1.390078358
1.389374101
1.388479229
1.388327064
1.388439703
1.388644866
1.389070354
1.389527608
1.38948606
0.9510794878
0.9496566224
0.9531649176
0.9767054601
1.052006054
1.162418835
1.261245105
1.331564217
1.383793133
1.377513111
1.379438438
1.382693947
1.385903206
1.388534741
1.390022976
1.390207543
1.389878016
1.388342885
1.387146383
1.386964513
1.387233161
1.387839231
1.388736788
1.389197472
1.388952063
1.388489097
1.388297816
1.388268193
1.388215896
1.388350096
1.388774862
1.388934618
0.9463443389
0.9594918298
1.008613053
1.104356414
1.234592105
1.336416577
1.358352516
1.375210294
1.39074971
1.391584249
1.388317564
1.385615347
1.38548203
1.386343482
1.387093376
1.387918895
1.388586896
1.388163791
1.387512001
1.387316935
1.387259736
1.38739098
1.387784312
1.388359198
1.388585093
1.388445064
1.388334539
1.388298512
1.388117034
1.388079988
1.388360142
1.388574395
0.9781213485
1.065481853
1.167727557
1.281783683
1.321688358
1.363957522
1.372750202
1.377724631
1.385299346
1.390993252
1.389944894
1.388263224
1.386300933
1.385058917
1.384756554
1.385084207
1.386091929
1.386998623
1.387491468
1.387638971
1.387673854
1.387844851
1.388138671
1.388570775
1.38876447
1.388514843
1.388312168
1.388197682
1.388037473
1.387940238
1.388137339
1.388303039
1.127007304
1.24286055
1.327160475
1.376220003
1.373578649
1.376459389
1.377571397
1.377591579
1.380221547
1.386166737
1.387792525
1.387755683
1.387377596
1.386162064
1.385274346
1.385349961
1.385991569
1.386823499
1.387372172
1.38764177
1.387835109
1.388176021
1.388526354
1.388858566
1.388897956
1.388597289
1.388215963
1.387966882
1.387782332
1.387640158
1.387778636
1.387932282
1.322005887
1.341386984
1.361423959
1.385798268
1.386085614
1.385576522
1.385628081
1.384469634
1.384134744
1.385851035
1.386723939
1.38695284
1.387020763
1.387068429
1.386991187
1.387046236
1.387342628
1.38754758
1.387423189
1.387432059
1.387591502
1.387968646
1.388491635
1.388854747
1.388834926
1.388561327
1.388108293
1.387702161
1.38740518
1.387216701
1.387305543
1.387521244
1.354495662
1.367088773
1.372096957
1.38027499
1.384653981
1.386212094
1.387083291
1.388011414
1.388081817
1.387626686
1.387270087
1.386880454
1.386711509
1.386986234
1.387251717
1.387631309
1.3878464
1.387808051
1.387451076
1.387011419
1.3870193
1.387283817
1.387799074
1.388351123
1.388482734
1.38831299
1.387909919
1.387487758
1.38713604
1.386978037
1.387029588
1.387272412
1.377065496
1.38394761
1.385296467
1.385608194
1.386279857
1.38579683
1.386388247
1.387503739
1.38825216
1.38805554
1.387311241
1.386844787
1.386542976
1.386493459
1.386749282
1.38712517
1.38738052
1.387377043
1.387188952
1.386810348
1.386787445
1.387006026
1.387401516
1.387773281
1.388002593
1.387935617
1.38770772
1.387372692
1.387045308
1.386936549
1.386976428
1.38714914
1.383730181
1.386152316
1.388770883
1.388944161
1.388139286
1.38620345
1.384820507
1.385030704
1.385511777
1.38609472
1.386553082
1.386738581
1.386714661
1.386521512
1.386457515
1.3865103
1.386669996
1.386806044
1.386878319
1.386795005
1.386831443
1.387042234
1.387357484
1.387671678
1.387782061
1.387734638
1.387554956
1.387210817
1.386933746
1.386880472
1.386902809
1.387013218
1.382544038
1.384307591
1.386334948
1.387775382
1.387426593
1.386631769
1.385130653
1.384512953
1.384618521
1.385161726
1.386047327
1.386663424
1.386925789
1.386902222
1.386749898
1.386708319
1.386767278
1.386940716
1.386991454
1.387001674
1.387058843
1.387232013
1.387464944
1.387603377
1.387618966
1.387505256
1.387291159
1.386992977
1.386817301
1.386787178
1.386799634
1.386877887
1.38188593
1.381424556
1.382442967
1.384722359
1.386369807
1.386400354
1.386020354
1.38553509
1.385551388
1.38581384
1.386423576
1.3868839
1.387000036
1.387025214
1.387097772
1.387168576
1.387227012
1.387369049
1.387356502
1.387250787
1.387242729
1.387304876
1.387390174
1.387408854
1.387330009
1.387215457
1.387162419
1.387019976
1.386844098
1.386758588
1.386714847
1.386716955
1.383643922
1.382143426
1.382759933
1.38434746
1.385580194
1.386238088
1.386388984
1.386472848
1.386722114
1.386819439
1.386853294
1.386961303
1.387004889
1.387008678
1.387075709
1.387243456
1.387399107
1.387507417
1.38747203
1.387335621
1.387299458
1.387263852
1.387281292
1.38724616
1.387161596
1.387184076
1.387183533
1.387138118
1.387036879
1.386926996
1.386869081
1.386865429
1.385805555
1.384935336
1.384994135
1.38555442
1.386069328
1.386145009
1.386274297
1.386548004
1.38687068
1.387005066
1.386966689
1.386941632
1.386920942
1.386872028
1.386935404
1.387147673
1.387366495
1.387498424
1.387483547
1.387389725
1.387274381
1.387253111
1.387244392
1.387211835
1.387167658
1.387186892
1.387242443
1.387276016
1.387239187
1.387102116
1.386979777
1.386932839
1.385771852
1.385877428
1.38634196
1.386726764
1.386812169
1.386617621
1.38662196
1.386685564
1.38665933
1.38673299
1.386820215
1.386844317
1.386879701
1.386851123
1.386903543
1.387100635
1.387292796
1.38734611
1.387351871
1.387336411
1.387292371
1.387245502
1.387189679
1.387169067
1.387166374
1.387213342
1.387305472
1.387375117
1.387375124
1.38724624
1.387077418
1.386992199
1.38523371
1.385516933
1.386100293
1.386741433
1.387165319
1.387205833
1.38709106
1.386943779
1.386886093
1.38688245
1.386933766
1.386892484
1.386856663
1.386848787
1.38690592
1.387142969
1.387267311
1.387265066
1.387254006
1.387257498
1.387215973
1.387096488
1.387020071
1.387049357
1.387130912
1.387205018
1.387297777
1.387385329
1.387426109
1.387313374
1.387095426
1.387010997
1.384849687
1.384853296
1.385200408
1.386019757
1.386988037
1.38759475
1.387666458
1.387569509
1.387419121
1.387302328
1.387263644
1.387038844
1.38685289
1.386833767
1.386933659
1.387168361
1.387264377
1.387260674
1.387199991
1.387113317
1.38696835
1.386773529
1.386764029
1.386856954
1.38698629
1.387128982
1.387261651
1.387379604
1.387436548
1.387349431
1.387125883
1.387032964
1.385314504
1.385062646
1.385329835
1.386014404
1.387053785
1.387784246
1.387820193
1.387757317
1.387628471
1.387502213
1.387397434
1.387121662
1.386872186
1.386848321
1.386963414
1.387146234
1.387202565
1.387190425
1.387068529
1.386852386
1.386584651
1.38643195
1.386471028
1.386601365
1.386799881
1.387023951
1.38720071
1.387326585
1.387381679
1.387307017
1.387133557
1.387037312
1.385924856
1.385878564
1.38614976
1.386662058
1.387368956
1.387736984
1.387771795
1.387723319
1.387608407
1.387516965
1.387428909
1.387164392
1.386870254
1.386826169
1.386939055
1.387081998
1.387142598
1.387114205
1.386928086
1.386590982
1.386295054
1.386231097
1.386274356
1.386412848
1.386634766
1.386903494
1.387119078
1.387256133
1.387316897
1.387258432
1.387094786
1.387035721
1.385952565
1.386209617
1.386573836
1.386992752
1.387381561
1.387573582
1.387580574
1.38748911
1.387360408
1.387306417
1.387273336
1.387061024
1.386819971
1.386809185
1.386939892
1.387078325
1.387136258
1.387082891
1.38685278
1.386455299
1.386184654
1.386151598
1.386175168
1.386300784
1.38652427
1.386796252
1.387027988
1.387179597
1.387231317
1.387200024
1.387066292
1.387037121
1.385877308
1.386104395
1.386361309
1.386724373
1.387035066
1.38722098
1.387320105
1.387299082
1.387226405
1.387181814
1.387173393
1.387015343
1.386813666
1.386832514
1.386969075
1.387099009
1.387146897
1.38707616
1.386842346
1.386460853
1.386196553
1.386140576
1.38614204
1.386231742
1.386450478
1.386733231
1.386988899
1.387158751
1.387199307
1.387173663
1.38707699
1.38702035
1.385942888
1.385934306
1.38600821
1.386227428
1.386516587
1.386846736
1.387211296
1.387294268
1.387284791
1.387273706
1.3872684
1.387125095
1.386889915
1.3868926
1.386994795
1.387097787
1.387124545
1.387040219
1.386831368
1.386502525
1.386219686
1.386135018
1.386118005
1.386172425
1.386372611
1.386664324
1.386960046
1.387129851
1.387150069
1.387129805
1.387062829
1.386964287
1.38630106
1.386033444
1.38600526
1.386099169
1.386410765
1.386823863
1.38722297
1.387335604
1.387347855
1.387360872
1.387347547
1.387207667
1.386965546
1.386910004
1.386947933
1.386989605
1.386992697
1.386900484
1.386705321
1.386427696
1.386183853
1.386105915
1.3860946
1.386147632
1.386327796
1.386607952
1.386919935
1.38706561
1.387074215
1.387058159
1.387000755
1.38686078
1.386707447
1.386367709
1.386255723
1.386280295
1.386512694
1.386871681
1.38719424
1.387306345
1.38730885
1.387316349
1.387288362
1.387139206
1.386906381
1.386799915
1.386800629
1.38679151
1.386738763
1.386681492
1.386597927
1.386426191
1.386195284
1.386104565
1.386083159
1.38613327
1.386281143
1.386536594
1.386823021
1.386917272
1.386919533
1.386904625
1.386840323
1.386671406
1.386629541
1.386471809
1.386453017
1.386498464
1.386644231
1.3868455
1.387051163
1.387178719
1.387170879
1.387155149
1.387096575
1.38693551
1.386735404
1.386628653
1.386617336
1.386594718
1.386537433
1.386498076
1.386442037
1.386314495
1.386132681
1.386064531
1.386054307
1.386085619
1.386199262
1.386422743
1.386678268
1.386739834
1.386736129
1.386708131
1.386622103
1.386438871
1.386356958
1.386329257
1.38635691
1.386427001
1.386520442
1.386666392
1.386819823
1.386941167
1.386943608
1.386921783
1.386840417
1.386667359
1.386496928
1.386389339
1.386371161
1.386375456
1.386354706
1.38631759
1.386244635
1.38609998
1.385935036
1.385894038
1.385919868
1.385972354
1.386064543
1.386260783
1.38650343
1.386557994
1.386548171
1.386497277
1.386381911
1.386191985
1.386071729
1.386093852
1.386098213
1.38611223
1.386208398
1.386339363
1.386420456
1.386492859
1.386528384
1.386516319
1.38642966
1.386272777
1.38611715
1.386026635
1.386012142
1.386053627
1.38603595
1.385987371
1.385900012
1.385753608
1.385647315
1.385642016
1.385698059
1.385793747
1.385894183
1.38606989
1.386308004
1.386362051
1.386338408
1.386244251
1.386077193
1.385867689
1.385521863
1.385476842
1.385424517
1.385458747
1.385559451
1.385686976
1.385776692
1.385832681
1.385886814
1.385900088
1.385840256
1.385732522
1.38560716
1.385521993
1.385487112
1.385484799
1.385520192
1.385523705
1.385475466
1.385348424
1.385258018
1.385259868
1.385304431
1.385434394
1.385541923
1.385672558
1.385867447
1.385905466
1.385874188
1.38575749
1.385542581
1.38532333
1.384934839
1.384838429
1.384792593
1.384764855
1.384850538
1.384937275
1.384973471
1.384993465
1.384992006
1.384990203
1.384989209
1.384932955
1.384837609
1.384806219
1.384770514
1.38476595
1.384812137
1.384818428
1.384800073
1.384719918
1.384635563
1.384654157
1.384724378
1.384824541
1.384876611
1.384928969
1.385054358
1.385092536
1.385073791
1.384988382
1.384799071
1.38463739
1.383863474
1.383832518
1.383798737
1.383809805
1.383921537
1.38397283
1.383931936
1.383857305
1.383762611
1.383703388
1.383744168
1.383778605
1.383816949
1.383841122
1.383846485
1.383847648
1.383858997
1.383844675
1.383818062
1.383792942
1.383751306
1.383777182
1.383882054
1.383995474
1.384059038
1.384072662
1.384106136
1.384131809
1.384121699
1.384066958
1.383921058
1.383843214
1.382778635
1.382778155
1.38276295
1.382837042
1.382892442
1.3828576
1.382811627
1.382757432
1.382735501
1.382726128
1.38277932
1.382879375
1.382993471
1.383060193
1.383064706
1.383066014
1.382999736
1.382923445
1.382854838
1.382826256
1.38285525
1.382953641
1.383096846
1.383207648
1.383277273
1.383298042
1.383306805
1.383331214
1.383334503
1.3832887
1.383188497
1.383118161
1.382050213
1.382016188
1.38203474
1.38213408
1.38214649
1.382017858
1.381839826
1.381699248
1.381711078
1.381793055
1.381911544
1.382100255
1.382168029
1.382156759
1.382157064
1.382045601
1.381919764
1.38186455
1.381912624
1.381992392
1.382151398
1.382219813
1.38238309
1.382496351
1.382517492
1.382478165
1.382463662
1.382502847
1.382550209
1.38253141
1.382494998
1.382432761
1.380776792
1.380624594
1.380677962
1.381043783
1.38188188
1.382986646
1.383381909
1.383380914
1.383132785
1.382846107
1.382588546
1.382504531
1.382350419
1.382315887
1.382268767
1.381863087
1.381226848
1.380583586
1.380492502
1.380599628
1.380864778
1.381268432
1.382049711
1.382836406
1.383094592
1.383044804
1.382705945
1.38242498
1.382272585
1.382129565
1.382093473
1.382286131
1.380967872
1.380438572
1.380287182
1.38027553
1.380492218
1.381285386
1.38263887
1.383387437
1.383608854
1.383739687
1.38370643
1.383673456
1.38342274
1.383279619
1.383296828
1.383118858
1.382679337
1.381675051
1.38075869
1.380541793
1.380413502
1.380652181
1.381037385
1.381827857
1.382737898
1.383068182
1.383072955
1.383005722
1.382959456
1.382771511
1.382552004
1.382621382
1.382322321
1.381236795
1.380347084
1.380170454
1.38023651
1.380259416
1.381018468
1.382341987
1.383341947
1.383585164
1.383552415
1.383538201
1.383302351
1.383230496
1.383224942
1.383302903
1.383194053
1.382703633
1.38205613
1.381159397
1.380331774
1.38048681
1.380735427
1.38108475
1.381638608
1.382435235
1.382900019
1.382978155
1.383018249
1.382913933
1.382748286
1.382645699
1.382788351
1.382381136
1.381557683
1.380388918
1.379959495
1.380037337
1.380380855
1.381027954
1.382184146
1.382932776
1.383200755
1.383223239
1.383031092
1.382966226
1.383002258
1.383115108
1.382991918
1.382942621
1.382722053
1.382090412
1.381104606
1.380624415
1.380564433
1.380755547
1.381053443
1.381504152
1.38220133
1.38272241
1.382845068
1.38275333
1.382605023
1.382474396
1.38259677
1.382528611
1.382413307
1.381530983
1.380236291
1.379800733
1.379897959
1.380386045
1.380898518
1.381524705
1.381968199
1.382270228
1.382281215
1.382098129
1.382020334
1.3823252
1.382720248
1.382698341
1.3824063
1.382198887
1.381977697
1.381520867
1.380864463
1.380591414
1.380792532
1.381012933
1.381309612
1.381772049
1.382067008
1.382206933
1.382120628
1.381759978
1.381815516
1.382139102
1.381955355
1.381924142
1.381348596
1.38006511
1.379648921
1.379869479
1.380289801
1.380709308
1.381153288
1.381483485
1.381609295
1.381443992
1.381222017
1.381349933
1.381627488
1.382068792
1.382287487
1.382246851
1.382238439
1.382158737
1.381817754
1.381151647
1.380692322
1.380744355
1.380902506
1.381031025
1.381191845
1.381277162
1.381245387
1.380992171
1.379589311
1.380453097
1.381626256
1.382075309
1.381982449
1.381105007
1.380098742
1.379647992
1.379939565
1.38031063
1.380732579
1.381097358
1.381230332
1.381062257
1.380762652
1.380715323
1.380649989
1.380921964
1.381582723
1.38197677
1.382030617
1.382110437
1.382240841
1.382057263
1.381394469
1.38075599
1.380664355
1.380725368
1.380756967
1.380796337
1.38079892
1.380634449
1.378562877
1.379001296
1.380031967
1.381345502
1.381619792
1.381759832
1.38115207
1.380381344
1.37998503
1.3800823
1.380447188
1.380830846
1.38099736
1.380804453
1.380487528
1.380379999
1.380292464
1.380316257
1.380497939
1.380934275
1.381527887
1.382026654
1.382304534
1.382406834
1.382171322
1.381520792
1.380816896
1.380537897
1.380493012
1.380549421
1.380570057
1.380413479
1.378017183
1.378267319
1.378815545
1.379569835
1.380933134
1.381371784
1.38148236
1.381282008
1.380784642
1.380519242
1.380596237
1.380923325
1.38104684
1.380932444
1.380667088
1.38040897
1.380101161
1.380016772
1.380054937
1.380161178
1.380455039
1.381333796
1.382080489
1.382152824
1.382179407
1.382096401
1.381690213
1.380981058
1.380563739
1.380493539
1.380482618
1.38044804
1.377698714
1.377869222
1.378380492
1.379142394
1.3798326
1.380814707
1.381199815
1.38125583
1.381316743
1.381186152
1.381201039
1.381329376
1.381322921
1.381358055
1.38126799
1.380985846
1.380357512
1.379933597
1.379814506
1.379831455
1.379796405
1.38014931
1.381107812
1.381969165
1.382228486
1.382277517
1.38219883
1.381851797
1.381336886
1.381033869
1.380955279
1.380965367
1.378764263
1.378325953
1.378473443
1.378908304
1.37943874
1.380044887
1.380726712
1.381289774
1.381183774
1.381334478
1.381482596
1.381451328
1.381493655
1.381452616
1.381461489
1.381367627
1.381055293
1.380519328
1.379851422
1.379677076
1.379641264
1.379830547
1.380116704
1.38088358
1.381818462
1.382131144
1.382110921
1.382098304
1.381916757
1.381711119
1.381674299
1.381564708
1.380639391
1.380161767
1.379550733
1.379094332
1.379175452
1.379674379
1.380104818
1.380622368
1.380982463
1.381202947
1.381235784
1.381196561
1.381253972
1.381432239
1.381576827
1.381581691
1.381443126
1.381139152
1.380486431
1.380070485
1.379758581
1.379796959
1.379952478
1.380065416
1.380460997
1.381428659
1.382088014
1.382127482
1.38193906
1.38187432
1.381915627
1.381740142
1.381146464
1.381279759
1.381227343
1.380604676
1.379792601
1.379521402
1.379824611
1.38009375
1.380366624
1.380598757
1.380723128
1.380595683
1.380720394
1.380883121
1.381174176
1.381412255
1.381304521
1.381189588
1.380946099
1.380837925
1.380568609
1.380203029
1.379814753
1.379772592
1.37979535
1.380177333
1.381216774
1.381936258
1.381955951
1.381925722
1.381971781
1.381875601
1.381610112
1.381884971
1.382106593
1.381931235
1.38127592
1.380437824
1.379910811
1.379961358
1.380166069
1.380093278
1.380022961
1.3799184
1.380287502
1.380362986
1.380435462
1.380653061
1.381044904
1.381221614
1.381116821
1.381074163
1.380973255
1.38082313
1.380396296
1.379944715
1.379888787
1.37985155
1.379847418
1.380666469
1.381581752
1.381852629
1.381976934
1.381916028
1.381576795
1.381917873
1.382125295
1.382025819
1.382004202
1.381590821
1.380937766
1.380556353
1.380300461
1.379993623
1.379907675
1.379860764
1.38024625
1.380357327
1.380313098
1.380273702
1.38036662
1.380831621
1.381106541
1.381135737
1.381164287
1.381225843
1.381177036
1.380919041
1.38031549
1.379647413
1.379369809
1.379451325
1.380078446
1.380734111
1.381143083
1.381593124
1.380341638
1.381377957
1.382049704
1.382219282
1.382064155
1.381790302
1.381650343
1.381465626
1.381060525
1.380501333
1.379939475
1.379908061
1.380328669
1.380627198
1.380547904
1.380347328
1.380195139
1.380158495
1.380446273
1.380981462
1.381254703
1.381358359
1.381344911
1.381233492
1.380900587
1.380215108
1.379499489
1.379349133
1.379355778
1.379603399
1.379806582
1.380294337
1.378784171
1.378933446
1.379669307
1.381002688
1.382008265
1.382069515
1.381993103
1.381800462
1.381713077
1.381622051
1.381303403
1.380782889
1.380514682
1.380770173
1.381055428
1.38108429
1.380808273
1.380223959
1.379920954
1.379897437
1.380226725
1.380677734
1.381216894
1.381405338
1.381409283
1.38130742
1.381009318
1.380237852
1.379379985
1.379145411
1.379255457
1.379280866
1.379412429
1.378886956
1.378901828
1.37886464
1.379026642
1.379779458
1.380924224
1.381697628
1.381844325
1.381883657
1.381843219
1.381581738
1.381458157
1.381236061
1.381164314
1.381308354
1.381358676
1.381220369
1.380783388
1.380308218
1.380164926
1.380001165
1.379945376
1.380285198
1.381038768
1.381510352
1.381537069
1.381301864
1.380818139
1.380116173
1.379643023
1.379652115
1.379656757
1.379647404
1.37934056
1.378949425
1.378896773
1.378401216
1.377908516
1.378197044
1.379017287
1.380289787
1.381320628
1.381679376
1.381755971
1.381784828
1.381695125
1.381501844
1.38147588
1.381538369
1.381461923
1.381176046
1.380934006
1.380681238
1.380011224
1.379719353
1.379752647
1.380115127
1.380698993
1.381221735
1.381342549
1.381145434
1.380727283
1.380493597
1.380427968
1.380282623
1.379846027
1.380413107
1.379980043
1.379243122
1.378338743
1.377523992
1.376646586
1.376734783
1.377388627
1.378422701
1.379686768
1.381250838
1.381894774
1.382061919
1.381720548
1.381086972
1.381038244
1.38127976
1.381439297
1.381251654
1.380825585
1.380294461
1.380114187
1.380037414
1.379796319
1.379834782
1.380266868
1.380949109
1.381300135
1.381098411
1.380878021
1.380798563
1.380570205
1.38005265
1.380964953
1.380962294
1.380613793
1.37956022
1.378113753
1.377173066
1.376614785
1.376235984
1.37640766
1.3771027
1.37875892
1.381060497
1.382121174
1.381717124
1.380775548
1.380343371
1.380385152
1.38084357
1.381178363
1.381010518
1.380881385
1.380797729
1.380452398
1.38002603
1.380027887
1.380120747
1.380347982
1.380903992
1.381097734
1.380949386
1.38086589
1.380717166
1.380739884
1.381417888
1.381599508
1.381522405
1.381352229
1.380188201
1.378149143
1.376674898
1.376427667
1.376180998
1.376413793
1.377036856
1.378654098
1.380904319
1.381584509
1.381092742
1.380514952
1.379992917
1.379746041
1.380272847
1.381080899
1.381231153
1.381201546
1.380955448
1.380737581
1.380580522
1.380340969
1.38010239
1.380411192
1.380719728
1.380870584
1.380917193
1.381129405
1.381303326
1.381663487
1.381947308
1.382143983
1.382025605
1.381600311
1.380615643
1.378655753
1.37674884
1.376092708
1.376188289
1.376532667
1.377685386
1.378966819
1.381063527
1.381444914
1.380706061
1.379871049
1.379663329
1.379333192
1.379757185
1.380744273
1.381205904
1.381447436
1.381315651
1.380862239
1.380532159
1.380526119
1.380529879
1.380592083
1.380661897
1.380767152
1.381374925
1.381638118
1.381039345
1.381706529
1.38236316
1.38256657
1.382644461
1.382378723
1.38154445
1.379804202
1.377714137
1.376884937
1.377103498
1.377386154
1.378199688
1.380095535
1.381302668
1.381205295
1.380674398
1.379920932
1.378962144
1.378657133
1.379359199
1.380602028
1.381569117
1.381745409
1.381404363
1.381295368
1.381169103
1.380923959
1.380737659
1.380522831
1.380539875
1.380845809
1.381417728
1.379903158
1.380651357
1.382088226
1.383076683
1.383440495
1.383262717
1.382966206
1.382331855
1.380951298
1.379374825
1.378601094
1.378181779
1.378650431
1.379397741
1.381148919
1.381737934
1.381518213
1.380639159
1.379660313
1.37901858
1.378762366
1.379234905
1.380261276
1.381430593
1.381824737
1.381790933
1.38153356
1.381159687
1.380974614
1.380837836
1.380671832
1.380199483
1.38066576
1.379320219
1.379705099
1.380943078
1.383036032
1.38378421
1.383765428
1.383759524
1.383228125
1.38251775
1.381465891
1.380121349
1.379731009
1.379522221
1.379446379
1.380757735
1.382023039
1.382036209
1.381333307
1.380577698
1.379755854
1.378865066
1.378367182
1.378671398
1.379986381
1.381124306
1.381321422
1.381224372
1.381253499
1.381310403
1.381317919
1.380976708
1.380410848
1.380222892
1.379293621
1.37957085
1.379837574
1.381639502
1.3837039
1.38432699
1.384233455
1.383884027
1.383321508
1.382386826
1.381551165
1.380952971
1.38002018
1.379663938
1.379994785
1.381069489
1.381706336
1.381879577
1.381267443
1.379926953
1.379127188
1.378984949
1.378882972
1.378956184
1.379316269
1.379696032
1.380127063
1.380612803
1.380989599
1.381292541
1.381143965
1.380651011
1.379804204
1.3791408
1.379191973
1.379084265
1.379703965
1.382030614
1.384234457
1.384568009
1.384458936
1.383987039
1.383227705
1.382490922
1.381596852
1.381091731
1.380027032
1.379281206
1.379581704
1.380767979
1.38161235
1.38114273
1.380766599
1.380117072
1.379862019
1.379368171
1.378584274
1.37894027
1.379136783
1.379301427
1.379318288
1.379558847
1.380118813
1.380720199
1.380445682
1.379905867
1.378619524
1.379122791
1.379261701
1.379043374
1.379237303
1.381245661
1.383359375
1.384315188
1.384362949
1.383850222
1.383186443
1.382351579
1.381817358
1.381075427
1.37996106
1.379367902
1.379579353
1.38033102
1.38115191
1.381358951
1.38080525
1.380264489
1.379436185
1.379031485
1.379084664
1.378904765
1.378807308
1.378584373
1.378603762
1.378879851
1.379390508
1.379926901
1.379954623
1.378200394
1.379010066
1.379091807
1.378116838
1.377454765
1.377897741
1.379306086
1.38145128
1.383239612
1.383574493
1.383310752
1.382935819
1.382301015
1.381796278
1.380875376
1.379696799
1.379263383
1.379296873
1.380611062
1.381291261
1.381307327
1.380826373
1.380449817
1.380187352
1.379391874
1.379301804
1.379327533
1.379377327
1.379289265
1.379193681
1.379084677
1.379313734
1.379463302
1.378189413
1.378519543
1.378640071
1.378528013
1.37819048
1.377744379
1.377040325
1.377790156
1.379545403
1.381693113
1.382715826
1.382544763
1.382376098
1.382204529
1.381448573
1.380235475
1.379102851
1.379024809
1.379223111
1.380082149
1.381061767
1.381393864
1.381263989
1.380971656
1.380291682
1.380137514
1.380179777
1.380220523
1.38016742
1.3798103
1.379337519
1.379109398
1.379294845
1.378579302
1.378331042
1.378756486
1.37908955
1.379013653
1.377868911
1.377362577
1.376968616
1.37724078
1.378575593
1.380424228
1.380869709
1.381224896
1.381672607
1.38147396
1.380824709
1.379672067
1.378979863
1.378560614
1.379009254
1.380212973
1.3811889
1.38166443
1.381580059
1.38117339
1.380929587
1.380843948
1.380452744
1.380101374
1.37988756
1.379662742
1.379575911
1.379794185
1.380323143
1.379203541
1.378986744
1.379166313
1.379196145
1.378606828
1.378065891
1.377977267
1.377568272
1.377450032
1.377271291
1.37835126
1.379615061
1.379978564
1.380592738
1.381492757
1.381398433
1.380719613
1.379797208
1.379397545
1.379009293
1.37934987
1.380050606
1.381214328
1.381590248
1.381575968
1.381315867
1.381178864
1.380929964
1.380763939
1.380774092
1.380839556
1.380840583
1.380813314
1.380491496
1.380251393
1.380126561
1.380078357
1.379857023
1.379598783
1.379206443
1.378387055
1.377991957
1.377617648
1.377292579
1.377349047
1.378739432
1.379985756
1.38031116
1.381052711
1.381716819
1.381566553
1.380765167
1.380344955
1.379698752
1.379601535
1.37950192
1.380203551
1.381208283
1.381635849
1.381639269
1.381701635
1.381784791
1.381717382
1.381595571
1.381694174
1.381720394
1.381523133
1.380664195
1.381091483
1.380618462
1.380529154
1.380667322
1.380953857
1.380708304
1.380134915
1.37928063
1.378392373
1.377944045
1.378263645
1.379104779
1.380085528
1.380136698
1.380557049
1.38107801
1.381654124
1.381480123
1.380706723
1.380576062
1.380075421
1.379645024
1.379627955
1.380161699
1.381168581
1.381808143
1.382130346
1.382354704
1.382360964
1.382018124
1.38186032
1.382056104
1.381796416
1.380835884
1.381647052
1.381760654
1.381910953
1.382078866
1.382175414
1.381834647
1.381517162
1.380582159
1.379693752
1.379046673
1.379339319
1.379416395
1.380393272
1.380684102
1.380421408
1.380254561
1.3808089
1.380986743
1.38082496
1.380751654
1.380097046
1.380112638
1.379492886
1.379558541
1.379785193
1.380364135
1.380986738
1.381295592
1.381419429
1.381320919
1.381239023
1.381454757
1.38171616
1.3810212
1.382148353
1.382736178
1.382961028
1.383120743
1.382827059
1.382761721
1.382627039
1.382158728
1.381424945
1.380411697
1.379064002
1.379475817
1.380717697
1.381399563
1.380852366
1.380319689
1.379925422
1.379950608
1.38077822
1.380765603
1.38074634
1.380707299
1.380194282
1.379333926
1.378654471
1.378663102
1.378974102
1.379173291
1.37942632
1.379919017
1.380025779
1.379903987
1.380372354
1.381320003
1.382428062
1.383097618
1.383304743
1.383337641
1.383353208
1.38354601
1.383256067
1.383196863
1.382295261
1.381526002
1.380240421
1.379978952
1.380457548
1.381083058
1.381207107
1.38065661
1.379975485
1.379707857
1.379945187
1.380263793
1.381014764
1.381075653
1.381015549
1.380018675
1.379641831
1.379314487
1.379062043
1.379009694
1.379140659
1.381151568
1.381606245
1.381846316
1.382116575
)
;

boundaryField
{
    inlet
    {
        type            calculated;
        value           nonuniform 0();
    }
    outlet
    {
        type            calculated;
        value           nonuniform List<scalar> 
68
(
1.382302369
1.382643651
1.382655235
1.382458436
1.38167617
1.380949222
1.380625651
1.380400372
1.380472508
1.381041388
1.381622184
1.381762439
1.381886318
1.381915548
1.381527274
1.380156324
1.379342515
1.379648889
1.379933272
1.380103004
1.380785971
1.381345583
1.381669827
1.381383167
1.380584915
1.380194377
1.379807267
1.379894347
1.379934996
1.379441171
1.379297041
1.379833176
1.380882398
1.381638978
1.381837253
1.381628563
1.380213004
1.389489752
1.388937188
1.388575403
1.388304079
1.387933448
1.387521503
1.387271443
1.387148095
1.387012582
1.38687761
1.386717033
1.38686547
1.386932597
1.386991932
1.387010502
1.387032348
1.387036725
1.387035205
1.387036755
1.387020071
1.386964027
1.386860347
1.386670912
1.386438709
1.386192256
1.385868208
1.385323811
1.384637765
1.38384329
1.383117723
1.382433467
)
;
    }
    bottom
    {
        type            calculated;
        value           nonuniform 0();
    }
    top
    {
        type            calculated;
        value           nonuniform 0();
    }
    obstacle
    {
        type            calculated;
        value           nonuniform 0();
    }
    defaultFaces
    {
        type            empty;
    }
    procBoundary11to5
    {
        type            processor;
        value           nonuniform List<scalar> 
33
(
1.380558754
1.380678126
1.383632866
1.38630642
1.387712906
1.388401411
1.388991614
1.389928711
1.390242564
1.390077552
1.389288464
1.388491107
1.388558116
1.388701172
1.388909663
1.389358203
1.389754316
1.38980281
0.958858279
0.9532539479
0.9534341577
0.9548148901
0.9653613861
1.005028716
1.1099023
1.21465825
1.309301031
1.336311463
1.371630104
1.384802683
1.38532054
1.387308304
1.387308304
)
;
    }
    procBoundary11to10
    {
        type            processor;
        value           nonuniform List<scalar> 
70
(
0.9527551915
0.9448766359
0.947485824
1.019215866
1.202045418
1.305686781
1.370794177
1.384069573
1.3818195
1.384216247
1.386647814
1.38666621
1.385841916
1.385046236
1.385254054
1.385992218
1.386089736
1.385889026
1.385767479
1.386013455
1.386513892
1.386861035
1.386725613
1.386393952
1.386059419
1.385556018
1.385088965
1.383933976
1.382829528
1.382089788
1.380995042
1.381976935
1.383006107
1.383048762
1.382712435
1.381024738
1.379384415
1.378371041
1.377786169
1.377909184
1.379428655
1.380683245
1.380982108
1.381375784
1.381106459
1.379603409
1.379603409
1.379096439
1.378998946
1.379640905
1.38040549
1.38113226
1.381474529
1.381595148
1.380851288
1.379713188
1.37859051
1.378072063
1.377723579
1.377645043
1.378023073
1.37874247
1.37970898
1.37970898
1.380847183
1.380203467
1.379771081
1.379803129
1.380240962
1.380889047
)