/*--------------------------------*- C++ -*----------------------------------*\
  =========                 |
  \\      /  F ield         | OpenFOAM: The Open Source CFD Toolbox
   \\    /   O peration     | Website:  https://openfoam.org
    \\  /    A nd           | Version:  7
     \\/     M anipulation  |
\*---------------------------------------------------------------------------*/
FoamFile
{
    version     2.0;
    format      ascii;
    class       volVectorField;
    location    "2.9";
    object      U;
}
// * * * * * * * * * * * * * * * * * * * * * * * * * * * * * * * * * * * * * //

dimensions      [0 1 -1 0 0 0 0];

internalField   nonuniform List<vector> 
2222
(
(2.574438699 0.4805348134 0)
(2.577587456 0.4769172361 0)
(2.582738931 0.4686805035 0)
(2.590594449 0.457880078 0)
(2.344768 0.6266458061 0)
(2.38577783 0.6356023391 0)
(2.3962231 0.645121324 0)
(2.408655741 0.6527061182 0)
(2.413513956 0.6573939456 0)
(2.425875109 0.6492704777 0)
(2.439825792 0.6305538937 0)
(2.45339333 0.6128245187 0)
(2.468052687 0.6008551784 0)
(2.481471686 0.5906412188 0)
(2.48906119 0.590891013 0)
(2.491791316 0.5826361204 0)
(2.490899189 0.5731537359 0)
(2.491457837 0.5673769389 0)
(2.495987473 0.56347528 0)
(2.504565057 0.5597331613 0)
(2.517094145 0.5479033065 0)
(2.525844404 0.5342977963 0)
(2.530794708 0.5289711613 0)
(2.538342481 0.5199371407 0)
(2.542019336 0.5150563027 0)
(2.543662035 0.5138294234 0)
(2.550179269 0.5060391771 0)
(2.555340031 0.5006314131 0)
(2.561558982 0.4941788703 0)
(2.569303585 0.485052669 0)
(2.574147847 0.480683739 0)
(2.577373476 0.4770834994 0)
(2.582567829 0.4691295472 0)
(2.590288997 0.457954731 0)
(2.447910501 0.582549986 0)
(2.314824307 0.641547727 0)
(2.284380378 0.6507372349 0)
(2.299770244 0.6358719036 0)
(2.335575216 0.6194545086 0)
(2.381975688 0.6334977294 0)
(2.395998663 0.6456816143 0)
(2.407694558 0.6529925596 0)
(2.413697728 0.6606705222 0)
(2.425831209 0.6488273157 0)
(2.439736665 0.6290603441 0)
(2.452961022 0.6124786966 0)
(2.467741669 0.6015948349 0)
(2.481177755 0.5941363861 0)
(2.488718035 0.5908715935 0)
(2.491045404 0.5814465184 0)
(2.490330887 0.5730425331 0)
(2.490932224 0.5680189277 0)
(2.495622836 0.5653823881 0)
(2.504316733 0.5599551462 0)
(2.516630276 0.5476994724 0)
(2.525592739 0.5344687794 0)
(2.530406479 0.5295054266 0)
(2.538046739 0.5213574516 0)
(2.541797612 0.5156109368 0)
(2.543515999 0.5141064901 0)
(2.549887226 0.5061718754 0)
(2.55505874 0.5009753436 0)
(2.561257706 0.4946890445 0)
(2.568977312 0.4854330538 0)
(2.573838227 0.4808916105 0)
(2.577259857 0.4774045182 0)
(2.582492444 0.4693048548 0)
(2.589973753 0.4579598989 0)
(2.474541986 0.5716080317 0)
(2.327381649 0.6504265135 0)
(2.284111354 0.6498833032 0)
(2.295432273 0.6317088181 0)
(2.328771743 0.6219064165 0)
(2.377695123 0.6358441456 0)
(2.395750795 0.6470606417 0)
(2.407036744 0.6543939819 0)
(2.413662249 0.6623565159 0)
(2.42566432 0.6478241058 0)
(2.439671769 0.6277742927 0)
(2.452198861 0.6124124738 0)
(2.467351934 0.6042010837 0)
(2.481009553 0.5953414202 0)
(2.488083863 0.5899032877 0)
(2.490615904 0.5806125324 0)
(2.48964545 0.5731546638 0)
(2.490352249 0.5698153625 0)
(2.495247892 0.5662212303 0)
(2.503795105 0.5597589771 0)
(2.516144608 0.5478005802 0)
(2.525198239 0.534818068 0)
(2.529972053 0.5310404363 0)
(2.537721641 0.5216647718 0)
(2.541577316 0.5155360383 0)
(2.543237282 0.5141903211 0)
(2.549616766 0.5063289598 0)
(2.554780671 0.5013315204 0)
(2.560962479 0.4952593696 0)
(2.568653285 0.4861167389 0)
(2.573617703 0.4813530606 0)
(2.577198754 0.4777413564 0)
(2.582365949 0.4692490432 0)
(2.589631698 0.4579392211 0)
(2.495660439 0.5515226795 0)
(2.34211808 0.6422581023 0)
(2.285485328 0.6433366279 0)
(2.292567824 0.6322635546 0)
(2.322996324 0.6266544171 0)
(2.37274585 0.6399055763 0)
(2.395538363 0.6483415508 0)
(2.406406523 0.6554473862 0)
(2.41341067 0.6621389846 0)
(2.425271759 0.6461997161 0)
(2.438925227 0.6275664489 0)
(2.451654028 0.6137485254 0)
(2.466917896 0.6079400408 0)
(2.480830961 0.5953748872 0)
(2.48756702 0.5884158709 0)
(2.490317815 0.5803217219 0)
(2.489057466 0.5738082114 0)
(2.489701486 0.5722222443 0)
(2.494924945 0.5662300396 0)
(2.503217967 0.5593611415 0)
(2.5156962 0.5481721632 0)
(2.524751561 0.5360944756 0)
(2.52958729 0.5317765128 0)
(2.537440112 0.5214138123 0)
(2.541281027 0.515303126 0)
(2.542977431 0.5143217508 0)
(2.54936168 0.5065241526 0)
(2.554452199 0.5017652102 0)
(2.560536809 0.4962730593 0)
(2.568331595 0.4868286894 0)
(2.573449535 0.481765547 0)
(2.577040743 0.4779215741 0)
(2.582186158 0.4692733513 0)
(2.589266855 0.4580068133 0)
(2.538171094 0.528560798 0)
(2.367400861 0.6239555736 0)
(2.287744013 0.6378602655 0)
(2.290665874 0.6339158859 0)
(2.316379654 0.6339269885 0)
(2.365426776 0.6443229905 0)
(2.395164849 0.6492822718 0)
(2.405058158 0.6556182679 0)
(2.413182875 0.6615078235 0)
(2.424869734 0.6448288661 0)
(2.438455354 0.6288397738 0)
(2.451120857 0.6178994464 0)
(2.466589732 0.6089107523 0)
(2.480494734 0.5941991423 0)
(2.487198296 0.5878973094 0)
(2.489792194 0.5803860303 0)
(2.48872278 0.5762978566 0)
(2.489301214 0.5728944083 0)
(2.494370108 0.5657196031 0)
(2.502694839 0.5594225269 0)
(2.515260965 0.5488630089 0)
(2.524353252 0.5379649823 0)
(2.529264061 0.5316081371 0)
(2.537029181 0.5208735657 0)
(2.54106172 0.5151667637 0)
(2.542765872 0.5145553739 0)
(2.549113269 0.506801177 0)
(2.554088885 0.5025384615 0)
(2.560167154 0.4968793455 0)
(2.568083449 0.4869934192 0)
(2.573260379 0.4819295151 0)
(2.576864252 0.4780406288 0)
(2.581947342 0.4694134353 0)
(2.588954331 0.4581828717 0)
(2.58208479 0.5260140691 0)
(2.401985648 0.6081519264 0)
(2.292112763 0.6351635091 0)
(2.289421073 0.6381902424 0)
(2.310803741 0.6416264276 0)
(2.357360665 0.6456222868 0)
(2.393793345 0.6485620844 0)
(2.403460653 0.6546319241 0)
(2.412813042 0.6600261072 0)
(2.423647578 0.644739179 0)
(2.438242289 0.6320792602 0)
(2.450411841 0.6198523392 0)
(2.466159151 0.6087372276 0)
(2.48014627 0.5935954594 0)
(2.486848115 0.5878103559 0)
(2.489410201 0.5816931702 0)
(2.488439628 0.578660853 0)
(2.48864514 0.5728866678 0)
(2.493876438 0.5652445046 0)
(2.502280579 0.559800526 0)
(2.514723619 0.5508345128 0)
(2.524018019 0.5385127957 0)
(2.528921692 0.5311365455 0)
(2.536651292 0.5205064155 0)
(2.540786668 0.515173112 0)
(2.542592697 0.5148527591 0)
(2.548879833 0.5073262122 0)
(2.553709034 0.5034546694 0)
(2.559828372 0.4970503034 0)
(2.567911373 0.4870666515 0)
(2.573114266 0.4820043532 0)
(2.576747063 0.4781949679 0)
(2.581813312 0.4697088794 0)
(2.588718796 0.4585121791 0)
(2.628695586 0.5225330719 0)
(2.423269721 0.6092602778 0)
(2.30059054 0.6380527746 0)
(2.288029549 0.6490602567 0)
(2.307239406 0.6430613577 0)
(2.349682102 0.6382307789 0)
(2.39090561 0.6444234397 0)
(2.402859458 0.6541724734 0)
(2.41227475 0.6585946691 0)
(2.422345419 0.6464585009 0)
(2.437943904 0.634656964 0)
(2.449942204 0.6198550602 0)
(2.465456641 0.6080503677 0)
(2.479908711 0.5936557802 0)
(2.486464569 0.5881411716 0)
(2.489292611 0.5849198157 0)
(2.488184478 0.5791081441 0)
(2.48804496 0.5724111115 0)
(2.493464773 0.5653522904 0)
(2.501839706 0.5604753057 0)
(2.514061806 0.5526183287 0)
(2.52361892 0.5384001386 0)
(2.528411815 0.5304764707 0)
(2.536156007 0.5205015019 0)
(2.540451211 0.5152820312 0)
(2.54239603 0.5152708529 0)
(2.548630655 0.5085912896 0)
(2.553453148 0.503684517 0)
(2.559629484 0.4971477777 0)
(2.567737944 0.4871163679 0)
(2.572973037 0.4821169619 0)
(2.576692513 0.4784722631 0)
(2.581799157 0.4702792918 0)
(2.588636073 0.4591124519 0)
(2.441394521 0.6300923987 0)
(2.314269034 0.6565826362 0)
(2.28689621 0.6530124222 0)
(2.302387348 0.6344567329 0)
(2.341904129 0.6248596938 0)
(2.387514145 0.6413645518 0)
(2.402311186 0.6549245352 0)
(2.411454782 0.6582347058 0)
(2.421270248 0.6505497497 0)
(2.437133147 0.6358629234 0)
(2.449330735 0.619429415 0)
(2.464830475 0.6076449782 0)
(2.479703894 0.5937686291 0)
(2.486357355 0.5904778862 0)
(2.489233514 0.5867120945 0)
(2.487820731 0.5788810215 0)
(2.487514421 0.5723364291 0)
(2.493107333 0.5657276686 0)
(2.501268372 0.5623766122 0)
(2.513562394 0.5530404703 0)
(2.523101612 0.5378117829 0)
(2.527895985 0.5303952963 0)
(2.535602743 0.5207310299 0)
(2.540160864 0.5156586573 0)
(2.542129081 0.5164086679 0)
(2.54840158 0.509398204 0)
(2.553173902 0.5037214962 0)
(2.559395472 0.4972286984 0)
(2.567537329 0.4871800338 0)
(2.572853682 0.482270051 0)
(2.57666698 0.4790318595 0)
(2.581719734 0.4712233991 0)
(2.588509277 0.4598590825 0)
(2.467524988 0.6343110332 0)
(2.329413924 0.6688816772 0)
(2.286802988 0.6512248715 0)
(2.297595057 0.6201607997 0)
(2.334677836 0.6217119587 0)
(2.384108892 0.6429378878 0)
(2.401508114 0.6563963584 0)
(2.410110167 0.6595615746 0)
(2.420002932 0.6524107508 0)
(2.435523804 0.6361882478 0)
(2.448539511 0.6184074879 0)
(2.464204868 0.6074429289 0)
(2.479436899 0.5943061544 0)
(2.486284603 0.5938031985 0)
(2.489109738 0.5868040511 0)
(2.487467036 0.578095052 0)
(2.487092234 0.5725898493 0)
(2.492735228 0.5665541206 0)
(2.500653638 0.564158535 0)
(2.512910081 0.5528614325 0)
(2.522659763 0.5376980499 0)
(2.527389384 0.5306048302 0)
(2.535206453 0.5214079278 0)
(2.53999132 0.5170661255 0)
(2.541829563 0.5177662585 0)
(2.548091663 0.509658525 0)
(2.55291158 0.5037506003 0)
(2.559082788 0.4973485296 0)
(2.56729271 0.4873401466 0)
(2.572682624 0.4827739277 0)
(2.576540441 0.4797173654 0)
(2.581585381 0.4715103354 0)
(2.588343726 0.4600587691 0)
(2.486527963 0.6207691321 0)
(2.341544634 0.662229671 0)
(2.287153714 0.6374618849 0)
(2.293990976 0.6177791408 0)
(2.329947304 0.6250905099 0)
(2.380480958 0.6459491282 0)
(2.400329741 0.6591990189 0)
(2.409195772 0.6629712408 0)
(2.418559514 0.6522551745 0)
(2.433863239 0.6356159401 0)
(2.447889023 0.6177902597 0)
(2.463306192 0.6072964023 0)
(2.479151752 0.5971744064 0)
(2.486259226 0.5948369516 0)
(2.488879327 0.586402887 0)
(2.487264167 0.5774924916 0)
(2.486734258 0.5729951094 0)
(2.492262227 0.5686861093 0)
(2.500203109 0.5645354049 0)
(2.512395309 0.5524773821 0)
(2.522339907 0.5379473538 0)
(2.527054308 0.5311369655 0)
(2.534946536 0.5230571526 0)
(2.539828002 0.5182911701 0)
(2.541649114 0.5179337304 0)
(2.547759105 0.509858288 0)
(2.552592273 0.5037427622 0)
(2.558748593 0.4975095683 0)
(2.567040943 0.4878261605 0)
(2.572473511 0.4836624681 0)
(2.576360631 0.4798658874 0)
(2.581332009 0.4715711068 0)
(2.588246296 0.4602398536 0)
(2.502825276 0.5991234851 0)
(2.35380132 0.6486535819 0)
(2.289128856 0.6258593642 0)
(2.292089332 0.618949479 0)
(2.324640083 0.6299506977 0)
(2.374891048 0.6511663939 0)
(2.398658076 0.6618079162 0)
(2.408533737 0.6636077005 0)
(2.41708284 0.6515043567 0)
(2.432578968 0.6352984251 0)
(2.447032534 0.6176339058 0)
(2.462406537 0.6078974381 0)
(2.478921267 0.600736433 0)
(2.486141939 0.5947961833 0)
(2.488670244 0.5850445778 0)
(2.48714069 0.5771789226 0)
(2.486283496 0.574109158 0)
(2.491818307 0.5699428573 0)
(2.499559798 0.564253243 0)
(2.511946488 0.5525832419 0)
(2.522020807 0.5383401634 0)
(2.526842526 0.5325504015 0)
(2.534719156 0.5237655371 0)
(2.5396657 0.5184329472 0)
(2.541410728 0.5178610843 0)
(2.547473228 0.5101129662 0)
(2.552248876 0.5036791846 0)
(2.558460599 0.4978534505 0)
(2.566841141 0.4888047123 0)
(2.572319746 0.4839713873 0)
(2.576151268 0.4798111964 0)
(2.581221865 0.4716555047 0)
(2.58829698 0.4603736124 0)
(2.520598374 0.5706589812 0)
(2.381553512 0.6217231092 0)
(2.292241792 0.6225017399 0)
(2.290130446 0.6214539301 0)
(2.319881531 0.6391213592 0)
(2.367952091 0.6561403765 0)
(2.396825355 0.6630429296 0)
(2.408295946 0.6630040561 0)
(2.415194741 0.6501622639 0)
(2.431484849 0.6350275104 0)
(2.445877934 0.6178147061 0)
(2.461653207 0.6112836867 0)
(2.478695797 0.601857271 0)
(2.485974182 0.5941066712 0)
(2.488626563 0.5840187044 0)
(2.486906163 0.5771984167 0)
(2.485798764 0.576310559 0)
(2.491334542 0.5702719416 0)
(2.49903006 0.5639577556 0)
(2.511569076 0.5528697163 0)
(2.521672934 0.5394246674 0)
(2.526575054 0.5334174119 0)
(2.534542145 0.523738086 0)
(2.539446945 0.5184358489 0)
(2.541294323 0.5178555472 0)
(2.547221674 0.5105200465 0)
(2.551976017 0.5037519845 0)
(2.558227313 0.4986443491 0)
(2.566656 0.4892501636 0)
(2.572081301 0.4840396188 0)
(2.575904283 0.4797856541 0)
(2.581170123 0.4716710663 0)
(2.588530297 0.4604659173 0)
(2.539733815 0.566504295 0)
(2.404749571 0.6135840364 0)
(2.298161969 0.6238193019 0)
(2.288374616 0.63151596 0)
(2.315547081 0.6483636948 0)
(2.361001436 0.6560356505 0)
(2.394511539 0.6607404154 0)
(2.407518115 0.6610919667 0)
(2.413353599 0.6477687159 0)
(2.429414457 0.6347506258 0)
(2.444801008 0.6195912856 0)
(2.460848267 0.6147297001 0)
(2.478507953 0.601743702 0)
(2.485932805 0.5925599496 0)
(2.488574925 0.5836211119 0)
(2.486748314 0.578307579 0)
(2.485329781 0.577407671 0)
(2.490776443 0.5702136385 0)
(2.498599223 0.5641647288 0)
(2.511107968 0.5534011024 0)
(2.521293863 0.5409793747 0)
(2.526385459 0.5334287873 0)
(2.534309815 0.5237015316 0)
(2.539321773 0.5183939136 0)
(2.541217946 0.5178853058 0)
(2.547061915 0.5109898775 0)
(2.551787123 0.5044051817 0)
(2.557971917 0.4992555923 0)
(2.566465874 0.4892401597 0)
(2.571800368 0.4841912572 0)
(2.575659472 0.4798417474 0)
(2.5811847 0.4717726689 0)
(2.588972407 0.4606039428 0)
(2.578332715 0.579869531 0)
(2.431452461 0.6310319162 0)
(2.30799612 0.6427600557 0)
(2.286716803 0.6463088668 0)
(2.312711423 0.6485568714 0)
(2.353548762 0.64524519 0)
(2.390720317 0.6532265683 0)
(2.4066283 0.6570567944 0)
(2.412418517 0.6461564221 0)
(2.427130034 0.6349513387 0)
(2.443600222 0.623204828 0)
(2.460148144 0.6151747006 0)
(2.478085563 0.6009189159 0)
(2.485935348 0.5918936142 0)
(2.488508097 0.5836599943 0)
(2.486680301 0.5805568171 0)
(2.484793967 0.5777832769 0)
(2.49029092 0.5704398293 0)
(2.498251864 0.5645628889 0)
(2.510655486 0.5548600579 0)
(2.521045042 0.5413653642 0)
(2.526164122 0.5332465474 0)
(2.534099618 0.5237348783 0)
(2.539252732 0.5184123077 0)
(2.541085618 0.5179433682 0)
(2.546924493 0.5114516868 0)
(2.551565626 0.5054828136 0)
(2.557705322 0.4992340889 0)
(2.566231917 0.4892030959 0)
(2.571558953 0.4844285368 0)
(2.575412989 0.4800633386 0)
(2.581296191 0.4719162846 0)
(2.589633261 0.4607080839 0)
(2.61404385 0.5781582898 0)
(2.448182381 0.6664814587 0)
(2.322144337 0.6710373092 0)
(2.28645485 0.6489838579 0)
(2.308678704 0.6367509247 0)
(2.345837268 0.6294194534 0)
(2.387136876 0.6493640352 0)
(2.405623068 0.6549889271 0)
(2.411163288 0.6453859994 0)
(2.425598006 0.6372958427 0)
(2.442550022 0.6244975542 0)
(2.459537914 0.6145761934 0)
(2.47771802 0.5995976129 0)
(2.485921121 0.5916975479 0)
(2.488524816 0.5851636296 0)
(2.486558841 0.5818765199 0)
(2.484123817 0.5779948185 0)
(2.489878253 0.571055581 0)
(2.497887339 0.5653045917 0)
(2.510221674 0.5560172569 0)
(2.520738825 0.5413392602 0)
(2.525967588 0.533112121 0)
(2.533981831 0.5238635538 0)
(2.539225689 0.5184547402 0)
(2.540948041 0.5180552524 0)
(2.546603305 0.5124231459 0)
(2.551395148 0.5060042547 0)
(2.557430001 0.4990487205 0)
(2.565970188 0.4891771037 0)
(2.571333415 0.4847983722 0)
(2.575260963 0.4804602688 0)
(2.581492647 0.4721551674 0)
(2.590477127 0.4608276118 0)
(2.643782896 0.5688613608 0)
(2.469095986 0.668298207 0)
(2.336248187 0.6746820874 0)
(2.286016675 0.6447277436 0)
(2.305529631 0.6242245758 0)
(2.339518175 0.6269182447 0)
(2.383636902 0.6510200865 0)
(2.405084743 0.6547423046 0)
(2.410094916 0.6462293886 0)
(2.424307155 0.6399365643 0)
(2.441916638 0.6240931218 0)
(2.458699939 0.6133707377 0)
(2.477388917 0.5988542846 0)
(2.48591988 0.5919461634 0)
(2.488521752 0.5879232233 0)
(2.486335726 0.5821382063 0)
(2.483520322 0.5783020275 0)
(2.489625298 0.5719238811 0)
(2.497439603 0.5669624214 0)
(2.509942529 0.5561467284 0)
(2.520451861 0.5412721524 0)
(2.525810311 0.5331678119 0)
(2.533924957 0.5241121145 0)
(2.539179679 0.5184903884 0)
(2.540843589 0.5183661563 0)
(2.54632961 0.5136296153 0)
(2.551172984 0.5063476206 0)
(2.557135624 0.4988199071 0)
(2.565655139 0.4891975729 0)
(2.571114277 0.4854865753 0)
(2.575039963 0.4813471098 0)
(2.581767551 0.4724253183 0)
(2.591418743 0.4610548922 0)
(2.687259192 0.5529333953 0)
(2.488427461 0.6547805665 0)
(2.346866303 0.6658950358 0)
(2.286601784 0.628223873 0)
(2.30368815 0.6233750689 0)
(2.335524854 0.6296235492 0)
(2.379566985 0.6536917184 0)
(2.40442046 0.6551159682 0)
(2.409621936 0.6506876582 0)
(2.42295411 0.6401832681 0)
(2.441380469 0.6231571645 0)
(2.457995995 0.61173 0)
(2.476917276 0.5985610921 0)
(2.485895016 0.5941392903 0)
(2.488385806 0.5892839047 0)
(2.485819368 0.5821236609 0)
(2.482958793 0.5789003036 0)
(2.489128004 0.573406428 0)
(2.497063739 0.5676610096 0)
(2.509530483 0.5560748946 0)
(2.520197859 0.5414376288 0)
(2.525711882 0.5333521531 0)
(2.533819816 0.5243623725 0)
(2.53911584 0.518557602 0)
(2.540780127 0.5193592039 0)
(2.546185039 0.5139802681 0)
(2.55081214 0.506350325 0)
(2.556878343 0.4986288171 0)
(2.565325249 0.4894031508 0)
(2.570752954 0.4865236896 0)
(2.574802213 0.4816876681 0)
(2.582103545 0.4726877061 0)
(2.592218925 0.4617487225 0)
(2.736602873 0.5336379364 0)
(2.509785497 0.630506401 0)
(2.361421816 0.6467490903 0)
(2.288914751 0.6201997806 0)
(2.301845321 0.6239834497 0)
(2.33069881 0.6336205461 0)
(2.374759135 0.6574559471 0)
(2.402995222 0.6580484343 0)
(2.4090553 0.6528965218 0)
(2.422095474 0.6392424421 0)
(2.440479776 0.6216991099 0)
(2.457436952 0.6107859254 0)
(2.476459251 0.5991078271 0)
(2.485833253 0.5973257366 0)
(2.488089942 0.589393339 0)
(2.485151334 0.5823037812 0)
(2.482544194 0.5797716375 0)
(2.488408635 0.5745124693 0)
(2.496673998 0.5676538149 0)
(2.509162919 0.5561304526 0)
(2.519955363 0.5417651452 0)
(2.525697959 0.53375437 0)
(2.533712581 0.5246177676 0)
(2.539044292 0.5187266684 0)
(2.540720225 0.5206450206 0)
(2.546091283 0.5139631871 0)
(2.550524761 0.506429382 0)
(2.556592933 0.4986316195 0)
(2.565034679 0.4901274589 0)
(2.570467071 0.4868127485 0)
(2.574610287 0.4818801436 0)
(2.582480335 0.4731222086 0)
(2.592900767 0.4629228133 0)
(2.78867474 0.5172405316 0)
(2.522165458 0.6050877825 0)
(2.384325723 0.6223529919 0)
(2.292891908 0.6175892553 0)
(2.299483991 0.6267516719 0)
(2.326604578 0.6419467757 0)
(2.368157885 0.6646280587 0)
(2.399997865 0.6638618078 0)
(2.408654763 0.6521239497 0)
(2.421585661 0.6378696273 0)
(2.439857583 0.62037699 0)
(2.456628551 0.6104935272 0)
(2.476225211 0.6022899349 0)
(2.485634044 0.5984000064 0)
(2.487662285 0.5891848303 0)
(2.484745412 0.5829840841 0)
(2.48176057 0.5812876868 0)
(2.48779976 0.575011462 0)
(2.496383325 0.5677043813 0)
(2.508839383 0.5563544404 0)
(2.519799954 0.5422581445 0)
(2.525626692 0.5345149275 0)
(2.533602426 0.5248785107 0)
(2.538987926 0.5194047904 0)
(2.540666333 0.5211469742 0)
(2.545910978 0.5138538826 0)
(2.550412926 0.5065908141 0)
(2.556384422 0.498953921 0)
(2.564733806 0.4910691862 0)
(2.570012851 0.4869294211 0)
(2.574534674 0.4819771516 0)
(2.582875014 0.4738345286 0)
(2.593465844 0.4635289057 0)
(2.842946931 0.4967438096 0)
(2.528587469 0.6040293215 0)
(2.405218763 0.6201967625 0)
(2.30050353 0.6226254549 0)
(2.296297052 0.6392035879 0)
(2.323750738 0.6532880544 0)
(2.362724881 0.6685690811 0)
(2.397379031 0.6651854663 0)
(2.40824147 0.6505831521 0)
(2.421432797 0.6357402256 0)
(2.439332877 0.6199852961 0)
(2.456421695 0.6116007187 0)
(2.475918094 0.6061743998 0)
(2.485179505 0.5980962675 0)
(2.487028785 0.5890612029 0)
(2.484386306 0.5842124386 0)
(2.480997581 0.5821028703 0)
(2.487348384 0.5754349345 0)
(2.496197087 0.5677898356 0)
(2.508549351 0.5567124277 0)
(2.51965252 0.5432917471 0)
(2.525539309 0.5349783666 0)
(2.533525775 0.525186578 0)
(2.538947886 0.5206521762 0)
(2.540621975 0.5212671661 0)
(2.545719022 0.5138203287 0)
(2.550328202 0.5066676123 0)
(2.55623561 0.4999968277 0)
(2.564436986 0.491358574 0)
(2.56963806 0.4869775682 0)
(2.574512448 0.4820648285 0)
(2.583258992 0.4744725274 0)
(2.593797594 0.4634948766 0)
(2.894526752 0.470469419 0)
(2.547741726 0.6228977284 0)
(2.430790489 0.6499148312 0)
(2.311060658 0.6495822359 0)
(2.293701122 0.6498506209 0)
(2.322044571 0.6543257136 0)
(2.357030741 0.6657908952 0)
(2.392687986 0.6633417235 0)
(2.407267862 0.6478488698 0)
(2.422688398 0.6333867223 0)
(2.438997764 0.6203927299 0)
(2.456388991 0.6155874206 0)
(2.475458162 0.6072514185 0)
(2.484561827 0.5974403492 0)
(2.486324968 0.5892354103 0)
(2.483701565 0.5851694525 0)
(2.480305713 0.5826168633 0)
(2.486902761 0.5759990726 0)
(2.495883297 0.5679006797 0)
(2.5082831 0.5575514923 0)
(2.519334417 0.5447116109 0)
(2.525428643 0.5351084394 0)
(2.533521865 0.5254864179 0)
(2.538908723 0.521411231 0)
(2.540511272 0.5212840031 0)
(2.54554725 0.513907727 0)
(2.550090982 0.5069769126 0)
(2.556063098 0.5012687561 0)
(2.564190634 0.4912907887 0)
(2.569320116 0.4870615181 0)
(2.57454188 0.4823467005 0)
(2.583566972 0.4747120218 0)
(2.593954392 0.4633408932 0)
(2.943418052 0.4396965842 0)
(2.571755868 0.6285513219 0)
(2.449431928 0.6821853609 0)
(2.325621211 0.6726319437 0)
(2.292807506 0.6504537399 0)
(2.318381818 0.6480604633 0)
(2.351564048 0.6520996073 0)
(2.388715433 0.6538039275 0)
(2.40669573 0.6413343647 0)
(2.423671115 0.6327695563 0)
(2.439275471 0.6230443784 0)
(2.45624341 0.6180289649 0)
(2.474905289 0.6069758777 0)
(2.483790135 0.5966112018 0)
(2.485546123 0.5894477249 0)
(2.482867276 0.5857078553 0)
(2.479781948 0.5831298957 0)
(2.486462408 0.5766173262 0)
(2.495581813 0.5683952755 0)
(2.507882613 0.559353646 0)
(2.519155443 0.5451328139 0)
(2.525318353 0.5352382333 0)
(2.533421119 0.5261460561 0)
(2.538850702 0.5217023001 0)
(2.540395652 0.5211634549 0)
(2.545445029 0.5140793087 0)
(2.549896569 0.5079774106 0)
(2.555845565 0.5017632319 0)
(2.563879849 0.4910684914 0)
(2.568989799 0.4872113833 0)
(2.574609197 0.483081134 0)
(2.583740181 0.4746734069 0)
(2.593996491 0.463144883 0)
(2.984243375 0.4103954233 0)
(2.587430413 0.6187680365 0)
(2.466661508 0.6782263728 0)
(2.338713916 0.6710552968 0)
(2.291509697 0.6459744983 0)
(2.315524789 0.6333504741 0)
(2.34718945 0.6453989589 0)
(2.384145759 0.646642341 0)
(2.406064445 0.6378495818 0)
(2.424783787 0.6344366307 0)
(2.439481074 0.6267586877 0)
(2.456109473 0.6178645023 0)
(2.474153424 0.6061908624 0)
(2.482985623 0.5957343315 0)
(2.484667489 0.5894903455 0)
(2.482222276 0.5862848179 0)
(2.479130369 0.5836920306 0)
(2.485874104 0.5774850033 0)
(2.495322706 0.5697352459 0)
(2.5075675 0.5600589181 0)
(2.518868378 0.5452105196 0)
(2.525251576 0.5354630989 0)
(2.533253653 0.5273794181 0)
(2.53876975 0.5217839419 0)
(2.540305771 0.5211049839 0)
(2.545410853 0.5143860906 0)
(2.549811083 0.5092453153 0)
(2.555569335 0.501897314 0)
(2.563524827 0.4908063007 0)
(2.56867748 0.4874411736 0)
(2.574662383 0.4837992424 0)
(2.583805629 0.4745517755 0)
(2.593914683 0.4628381478 0)
(2.611572236 0.6017027886 0)
(2.483557979 0.6650389601 0)
(2.350012787 0.6618180778 0)
(2.291547173 0.6323901969 0)
(2.313126746 0.6304948777 0)
(2.345170422 0.6472637553 0)
(2.379627863 0.6474421411 0)
(2.404874808 0.6385955223 0)
(2.425405919 0.6383615515 0)
(2.439886751 0.6275109648 0)
(2.455908754 0.6170435595 0)
(2.473334466 0.6049356315 0)
(2.482140012 0.5951392938 0)
(2.483715884 0.5895980703 0)
(2.481510739 0.5868597215 0)
(2.478346702 0.5844524052 0)
(2.48508371 0.5790786093 0)
(2.495097795 0.5702655978 0)
(2.507105001 0.5601424439 0)
(2.518584068 0.5454029418 0)
(2.525220067 0.5357391355 0)
(2.533143306 0.5282603376 0)
(2.538643542 0.5216884381 0)
(2.540264234 0.5210670505 0)
(2.545352293 0.5154465719 0)
(2.549728879 0.5097242507 0)
(2.555241322 0.5017273989 0)
(2.563166617 0.4907651161 0)
(2.568449377 0.4880916292 0)
(2.574661924 0.4840556651 0)
(2.583802289 0.4743700527 0)
(2.593763388 0.4626756849 0)
(2.647408587 0.5824989807 0)
(2.508215303 0.6405932085 0)
(2.369093697 0.6405604811 0)
(2.293259613 0.6273211406 0)
(2.310459158 0.6309374503 0)
(2.343725277 0.6507263516 0)
(2.375031304 0.6483612198 0)
(2.403106085 0.6419664394 0)
(2.425637297 0.6398731357 0)
(2.440369819 0.6271837019 0)
(2.455544533 0.615795533 0)
(2.472642301 0.6041660609 0)
(2.480947498 0.5948169417 0)
(2.482677674 0.589781904 0)
(2.480574367 0.5876122702 0)
(2.477440129 0.5860626269 0)
(2.484556188 0.5796863838 0)
(2.494916231 0.5700937868 0)
(2.506563082 0.5600776457 0)
(2.518317072 0.5457876434 0)
(2.525092259 0.5365825803 0)
(2.533050612 0.528604205 0)
(2.538497246 0.5213110916 0)
(2.54024726 0.5210261954 0)
(2.54524319 0.5170872281 0)
(2.549621562 0.5097912648 0)
(2.554950037 0.5013479965 0)
(2.562837662 0.4909203676 0)
(2.568262813 0.4892461542 0)
(2.574610209 0.4840494138 0)
(2.583744596 0.4740597986 0)
(2.593610659 0.4626544791 0)
(2.68635752 0.5768248742 0)
(2.520665579 0.6288088129 0)
(2.386064776 0.6293862369 0)
(2.297921884 0.6266637981 0)
(2.307159968 0.6342584844 0)
(2.342199182 0.6556694084 0)
(2.369994495 0.6478136805 0)
(2.401027371 0.6430351517 0)
(2.426652752 0.6400195455 0)
(2.44090194 0.6266436797 0)
(2.455314085 0.6146520609 0)
(2.471429838 0.6038934758 0)
(2.479770401 0.5949000604 0)
(2.481572068 0.590356629 0)
(2.479521819 0.5894297627 0)
(2.476573357 0.5872460584 0)
(2.483698349 0.5796606082 0)
(2.494472409 0.5697030481 0)
(2.505992976 0.5602824699 0)
(2.518118661 0.5462611264 0)
(2.5249262 0.5382508985 0)
(2.532962796 0.5286592023 0)
(2.538376969 0.5209669899 0)
(2.540205036 0.5215094636 0)
(2.545139975 0.5178658842 0)
(2.549332607 0.5096907857 0)
(2.554658214 0.501150034 0)
(2.562585664 0.4912778783 0)
(2.568007572 0.4898089855 0)
(2.574530622 0.4839504893 0)
(2.58360474 0.4737003875 0)
(2.59336214 0.4627187758 0)
(2.728133826 0.5654328018 0)
(2.528724935 0.6354202345 0)
(2.410935496 0.6394136561 0)
(2.306508191 0.6396424539 0)
(2.30415868 0.6419593254 0)
(2.34126781 0.6560614578 0)
(2.365751316 0.647522484 0)
(2.398118159 0.6433164424 0)
(2.427509873 0.6396901693 0)
(2.441538401 0.6257236359 0)
(2.454609521 0.6143735319 0)
(2.470389525 0.6044820234 0)
(2.478765241 0.5966745783 0)
(2.48049015 0.5929026943 0)
(2.478531772 0.59150905 0)
(2.475888457 0.5873095994 0)
(2.482832338 0.5795592012 0)
(2.493944796 0.5695739413 0)
(2.50549575 0.560668731 0)
(2.517833105 0.5471320892 0)
(2.524760475 0.5395133059 0)
(2.532826464 0.52851321 0)
(2.538193158 0.5209243769 0)
(2.540186596 0.5229366483 0)
(2.545065063 0.5180225497 0)
(2.548982152 0.50926126 0)
(2.554385432 0.5011401273 0)
(2.56231422 0.4923167749 0)
(2.567743592 0.4898554121 0)
(2.574295562 0.4836992307 0)
(2.583327821 0.47366264 0)
(2.5931129 0.4631545859 0)
(2.772580174 0.5500584111 0)
(2.541956378 0.657481643 0)
(2.432076579 0.6777811784 0)
(2.317200454 0.6647410126 0)
(2.302434662 0.6439230972 0)
(2.339232288 0.6536251881 0)
(2.362597977 0.6482836628 0)
(2.394412789 0.6431867437 0)
(2.427649828 0.6383899832 0)
(2.442017794 0.6254945466 0)
(2.454001721 0.6152035413 0)
(2.469599152 0.6078179398 0)
(2.477806966 0.5999305933 0)
(2.479346443 0.5949391269 0)
(2.477784935 0.591791905 0)
(2.475013146 0.5872729729 0)
(2.482049159 0.5797838362 0)
(2.493457567 0.5697973699 0)
(2.505020842 0.5611339089 0)
(2.51744408 0.5491859618 0)
(2.524621273 0.539828324 0)
(2.532568956 0.5279452144 0)
(2.538015968 0.5211157715 0)
(2.540214309 0.5240468236 0)
(2.544965158 0.5179696189 0)
(2.548632523 0.5090605824 0)
(2.554024428 0.5012514258 0)
(2.561921785 0.4933279871 0)
(2.567471968 0.4897582067 0)
(2.573947957 0.4833711571 0)
(2.583010663 0.4739316379 0)
(2.592991847 0.4647949208 0)
(2.818074485 0.5336644904 0)
(2.553025527 0.6561165817 0)
(2.450494548 0.6888850778 0)
(2.329450119 0.6705136465 0)
(2.301567922 0.6419207444 0)
(2.338038759 0.6526329573 0)
(2.358494712 0.6498612366 0)
(2.390119683 0.6412673841 0)
(2.427275468 0.6374699 0)
(2.442431753 0.6262728925 0)
(2.45359949 0.6178044776 0)
(2.468663585 0.6099459178 0)
(2.476733121 0.600363547 0)
(2.478427123 0.5949022717 0)
(2.476784473 0.5917814026 0)
(2.474319031 0.5873487468 0)
(2.481328408 0.5801040395 0)
(2.492992301 0.5702145969 0)
(2.504485381 0.5620329269 0)
(2.517036931 0.5506820705 0)
(2.524422941 0.5396607652 0)
(2.532335855 0.5274858064 0)
(2.537933966 0.5221642326 0)
(2.540236754 0.5243677536 0)
(2.544801359 0.5176491671 0)
(2.548388263 0.5091924456 0)
(2.553701256 0.5017205588 0)
(2.561548318 0.4937209886 0)
(2.567100709 0.4895521443 0)
(2.573632858 0.4834082376 0)
(2.582756977 0.474505029 0)
(2.592809837 0.4666577661 0)
(2.861139137 0.5158623048 0)
(2.558589606 0.6459102855 0)
(2.463640681 0.6797289823 0)
(2.339586374 0.6645178204 0)
(2.301503431 0.6380085025 0)
(2.336425211 0.6525619722 0)
(2.355364602 0.6502599485 0)
(2.386348558 0.6368297467 0)
(2.426297699 0.6377904639 0)
(2.442646367 0.6285906031 0)
(2.453173163 0.6184962617 0)
(2.467726667 0.6096366762 0)
(2.475821759 0.5999507152 0)
(2.47756908 0.5945451346 0)
(2.475956195 0.591821158 0)
(2.473599342 0.5875440621 0)
(2.480512131 0.5805001527 0)
(2.492572216 0.5709818393 0)
(2.503851676 0.5643898899 0)
(2.516787211 0.5508314556 0)
(2.524149325 0.5388167133 0)
(2.53216379 0.527493639 0)
(2.53789951 0.5240631577 0)
(2.540213868 0.5243881554 0)
(2.544638005 0.5172752841 0)
(2.54825925 0.5094392255 0)
(2.553448303 0.5029909657 0)
(2.561282874 0.4938300252 0)
(2.566616124 0.4893822965 0)
(2.573334099 0.4834574694 0)
(2.58253931 0.4762462061 0)
(2.592625589 0.4672449527 0)
(2.900120171 0.4930609253 0)
(2.57189693 0.6259546727 0)
(2.483590191 0.6615471073 0)
(2.358128077 0.6513253462 0)
(2.302244958 0.6360178842 0)
(2.334333294 0.6537256826 0)
(2.352494274 0.6482312844 0)
(2.382075935 0.6320821969 0)
(2.424583706 0.638169281 0)
(2.442766724 0.6296468415 0)
(2.45290237 0.6182607068 0)
(2.466828498 0.6090765135 0)
(2.474981093 0.5994405872 0)
(2.476678513 0.5941994813 0)
(2.475185786 0.5919607411 0)
(2.472948543 0.5878038981 0)
(2.479758238 0.5810709017 0)
(2.492090854 0.5731636545 0)
(2.503233458 0.5656549083 0)
(2.516390058 0.5503540632 0)
(2.523844788 0.5382662572 0)
(2.531969665 0.5279698786 0)
(2.537867219 0.5253049914 0)
(2.540132813 0.5243437964 0)
(2.544484282 0.5171345484 0)
(2.548146424 0.5098317421 0)
(2.55316509 0.5042426521 0)
(2.560941912 0.4937963879 0)