/*--------------------------------*- C++ -*----------------------------------*\
  =========                 |
  \\      /  F ield         | OpenFOAM: The Open Source CFD Toolbox
   \\    /   O peration     | Website:  https://openfoam.org
    \\  /    A nd           | Version:  7
     \\/     M anipulation  |
\*---------------------------------------------------------------------------*/
FoamFile
{
    version     2.0;
    format      ascii;
    class       volScalarField;
    location    "0.3";
    object      p;
}
// * * * * * * * * * * * * * * * * * * * * * * * * * * * * * * * * * * * * * //

dimensions      [1 -1 -2 0 0 0 0];

internalField   nonuniform List<scalar> 5(1.19590983 1.261498102 1.36236264 1.195909831 1.261498101);

boundaryField
{
    inlet
    {
        type            fixedValue;
        value           nonuniform 0();
    }
    outlet
    {
        type            zeroGradient;
    }
    bottom
    {
        type            slip;
    }
    top
    {
        type            slip;
    }
    obstacle
    {
        type            zeroGradient;
    }
    defaultFaces
    {
        type            empty;
    }
    procBoundary20to9
    {
        type            processor;
        value           uniform 1.151380778;
    }
    procBoundary20to13
    {
        type            processor;
        value           uniform 1.122331612;
    }
    procBoundary20to14
    {
        type            processor;
        value           nonuniform List<scalar> 3(1.02778115 1.047562982 1.09605156);
    }
    procBoundary20to19
    {
        type            processor;
        value           uniform 1.122331612;
    }
    procBoundary20to26
    {
        type            processor;
        value           nonuniform List<scalar> 3(1.027781151 1.362362643 1.047562981);
    }
}


// ************************************************************************* //
