/*--------------------------------*- C++ -*----------------------------------*\
  =========                 |
  \\      /  F ield         | OpenFOAM: The Open Source CFD Toolbox
   \\    /   O peration     | Website:  https://openfoam.org
    \\  /    A nd           | Version:  7
     \\/     M anipulation  |
\*---------------------------------------------------------------------------*/
FoamFile
{
    version     2.0;
    format      ascii;
    class       volScalarField;
    location    "4.5";
    object      p;
}
// * * * * * * * * * * * * * * * * * * * * * * * * * * * * * * * * * * * * * //

dimensions      [1 -1 -2 0 0 0 0];

internalField   nonuniform List<scalar> 
2222
(
0.9986370336
0.9930157862
0.992903774
0.9958525715
0.995363184
0.9944098582
0.9930062207
0.5527826939
0.5564032049
0.546519107
0.5453022172
0.5491268297
0.5515615001
0.5532842852
0.5506934745
0.5460284525
0.5432505313
0.5432744644
0.543642482
0.5435067176
0.5433753179
0.5427123218
0.5423550908
0.5429232901
0.54756556
0.5771074845
0.6892510298
0.8635101065
0.9706356688
0.9914409707
0.9933244371
0.9978701849
0.9999311221
0.993111345
0.9925324881
0.9957134476
0.9947419751
0.9935272517
0.9919166534
0.516031149
0.5219599212
0.5492437368
0.5574903026
0.5469428974
0.5448295453
0.5489777588
0.551652519
0.5535093471
0.5513716849
0.5467909536
0.5436011718
0.5433211066
0.5437550958
0.5439260011
0.5435468518
0.542756084
0.5422406522
0.542741898
0.5457998222
0.5638027349
0.6459080389
0.8187459227
0.9599973516
0.9896562071
0.992679692
0.9978572373
1.000109591
0.9929402315
0.9918401968
0.9950040396
0.9939375272
0.9925427573
0.9911897069
0.5158348913
0.5187711336
0.5453710653
0.5581285728
0.5473601834
0.5451209079
0.5493112378
0.5519886896
0.5536563626
0.5519257851
0.5475349623
0.5440664154
0.5433779349
0.5439274951
0.5441457716
0.5435518292
0.5428331936
0.5421656529
0.5424409861
0.5444356027
0.556957226
0.6117453126
0.7661023003
0.9125869398
0.9759094217
0.9895575084
0.9974900715
0.999661307
0.9922158843
0.9907749834
0.9939384725
0.9932675742
0.9923705097
0.9914700192
0.5156451197
0.5161138336
0.5420176499
0.5579282333
0.5473516498
0.5448046675
0.5491673001
0.5519879586
0.5534779808
0.5525391831
0.5482517186
0.5443743054
0.5434943015
0.5440552567
0.5440820132
0.5434916294
0.5429359504
0.5421929343
0.5421549664
0.5430180168
0.5522651401
0.5955569526
0.7146635982
0.8700665467
0.9612847465
0.9871581298
0.9954034737
0.9987818102
0.9912837628
0.9900647389
0.9931908141
0.9931223521
0.9929140564
0.9924376922
0.5152499998
0.5137396745
0.5387313456
0.5573961845
0.5469949168
0.5435228486
0.5480194865
0.5512902645
0.5529260029
0.5531661617
0.5490426778
0.5447028351
0.5436102116
0.5440356253
0.5440361768
0.5436153324
0.5432481424
0.5423878863
0.5420618364
0.5423932059
0.547774359
0.5818270995
0.6878692487
0.8544930422
0.9570375468
0.9864476167
0.9934115759
0.9976670554
0.9908855715
0.9897468459
0.9930355755
0.9937368389
0.993810536
0.9932511418
0.9934877986
0.5159071908
0.5118277292
0.5360561771
0.5568206256
0.5463174262
0.5408158328
0.5453125773
0.5493733875
0.5525613574
0.5536132354
0.5499140699
0.5452604846
0.5435208626
0.5439557912
0.5441997296
0.5440428018
0.5435601375
0.5426406959
0.5420768515
0.5421632881
0.5452543826
0.5666075769
0.6632069233
0.8372997348
0.9590477938
0.9889717912
0.9929120033
0.9974256258
0.9909478982
0.9898550722
0.9937118968
0.9940382619
0.9937004745
0.9930546682
0.9933755816
0.5166052361
0.5099012827
0.5332989682
0.5562064032
0.5458491618
0.5398356641
0.5442284144
0.5486539543
0.5523030332
0.5538470989
0.5507142638
0.545807281
0.5434878126
0.5440284553
0.5446099039
0.5443612229
0.5436515629
0.542748818
0.54224387
0.5418796314
0.5437890238
0.5574056963
0.620322673
0.7892786105
0.9430882254
0.9878065516
0.9933720901
0.9982347584
0.9915934148
0.9898100784
0.9942598838
0.9940725204
0.9931433345
0.9924973414
0.9929776958
0.518975617
0.5081771598
0.5301903646
0.5554881827
0.5464861575
0.5397512018
0.5440523739
0.548587026
0.5519868316
0.5539294193
0.5514264082
0.5463717733
0.543778664
0.5443996222
0.5448502703
0.5443991412
0.5436678954
0.5427971097
0.5422873697
0.5418516241
0.5427977254
0.5527901386
0.596859354
0.7269295086
0.8922770553
0.9788896815
0.9933787441
1.001287672
0.9937893384
0.9895730006
0.9941698145
0.9938755925
0.992408066
0.9915644234
0.9920585583
0.5205823105
0.5067266831
0.5270492942
0.5545275737
0.5459399874
0.5391928116
0.5437007152
0.548563477
0.5514365858
0.5538384962
0.5520782104
0.5471041171
0.5443127919
0.5446329813
0.5448694215
0.544447557
0.5438683086
0.5431117818
0.5424130449
0.5417374791
0.5422287523
0.5490989544
0.5853492659
0.6918949358
0.8545419433
0.9578048489
0.9926327603
1.002410567
0.9947791631
0.9883731138
0.9934981071
0.9933574464
0.9913597132
0.9904858634
0.9912438146
0.5226495852
0.5055453915
0.5239060721
0.5532410743
0.5474640953
0.5378912827
0.5413719108
0.547166245
0.5501402772
0.5535642577
0.5526843074
0.5478977616
0.5446934536
0.5445677883
0.5447812106
0.5446926238
0.5443628311
0.5435934721
0.5426521651
0.54172462
0.5419270273
0.5460030224
0.5714940714
0.6701172858
0.8313552472
0.9426654258
0.9868948872
1.00233133
0.9944830761
0.9867117425
0.9924371778
0.9920756582
0.9902432354
0.9904699118
0.9916520927
0.5255052819
0.5051585571
0.5213199457
0.5514229627
0.5485548212
0.5368328503
0.539072834
0.5445971377
0.5488505089
0.5531457778
0.5531828888
0.5485365685
0.5448790131
0.5443505717
0.5447645916
0.5447731084
0.5445882326
0.5437774396
0.5428604445
0.5419371302
0.5416526319
0.5442498925
0.5601408715
0.6345318265
0.8005389383
0.9373503453
0.9815936694
1.000612662
0.9938189382
0.9859346967
0.9911328708
0.9915447299
0.9903389755
0.9909761078
0.9926824062
0.5287857975
0.5051865215
0.5199285502
0.5494753885
0.5499642062
0.53660845
0.5379012114
0.543360381
0.5481296012
0.5524345229
0.5535684479
0.5491282702
0.545125309
0.5442975109
0.5448688848
0.5448800866
0.5445967847
0.5438287419
0.5430918105
0.5421336837
0.5416631419
0.5431513247
0.5544240389
0.6036231959
0.7483923822
0.919178294
0.9808647455
0.9978546285
0.9935323737
0.9859998725
0.9909997935
0.9916992019
0.9901693966
0.9917655964
0.9936082582
0.5324794596
0.505519334
0.5143584308
0.5472543776
0.5515271758
0.5357253826
0.5368603447
0.5428101878
0.5475251286
0.5514031697
0.5537468356
0.5497492487
0.5456437287
0.544679581
0.5453654854
0.5451843583
0.5445393891
0.5439101582
0.5433926649
0.542229903
0.5415924562
0.5424091759
0.5502691345
0.5887546249
0.7046095271
0.8807005912
0.9793188747
0.9962991959
0.9935262562
0.9863015702
0.9913203381
0.9928706377
0.9905751825
0.9916972287
0.993966632
0.9932872986
0.5364255035
0.5074000183
0.5110359588
0.5444699511
0.5532375715
0.5365036065
0.5361188563
0.5417304118
0.5463560559
0.5502949728
0.5537135266
0.5503092846
0.5463314317
0.5450320282
0.5455736975
0.545386818
0.5446587831
0.5442837138
0.5437030813
0.5423808685
0.541558045
0.542056458
0.5469406162
0.5769589409
0.6769601253
0.8390958653
0.9661054975
0.9947303886
0.995924796
0.9866880159
0.9923886305
0.9934869334
0.9906302401
0.9908631114
0.9936087052
0.9934081956
0.5404394083
0.5093936383
0.5084684597
0.5417340727
0.5549342643
0.5368194881
0.5348558755
0.539272418
0.5443328129
0.54933329
0.553494749
0.5508632464
0.5468794903
0.5450257618
0.5455049614
0.5454840705
0.5450107819
0.5447218104
0.5439703388
0.5427194436
0.54160429
0.5418322646
0.5448199543
0.563413685
0.6472054584
0.8039310672
0.9330844736
0.9959116362
0.9994314664
0.9855097501
0.9919170344
0.9938679405
0.9912620827
0.9905993153
0.9931807952
0.9932585021
0.5445038362
0.5118506221
0.5060918633
0.5395257185
0.5563438484
0.5370716283
0.5335062161
0.5375458164
0.5430618325
0.5485320335
0.5529760569
0.5513826496
0.5473683107
0.5449327509
0.5454383698
0.54574329
0.5452853827
0.5448917082
0.544226228
0.5430896632
0.5418660009
0.541806428
0.5436884232
0.5561795701
0.613474513
0.7713539035
0.9062050787
0.9945290859
1.000523836
0.9844849684
0.9909974569
0.993265138
0.9909171318
0.9900721369
0.9927224589
0.9926532003
0.5485140039
0.5146460098
0.5038102976
0.5376419155
0.5581576279
0.5371432142
0.5328198833
0.5367294361
0.5424334469
0.5473206329
0.5523726495
0.5517530579
0.5478369978
0.5451395217
0.5457974755
0.5461315252
0.5453221874
0.5450008239
0.5445350806
0.543382397
0.5420256035
0.5417668724
0.5429299648
0.5517985057
0.5943145176
0.7237038987
0.8945226739
0.9894179166
1.001329087
0.984524485
0.9909440268
0.9932305642
0.9903743819
0.9895835899
0.9921935406
0.9923835749
0.5520046954
0.5178492473
0.501172786
0.5369843689
0.5596509656
0.5401670205
0.532040219
0.5358681025
0.5415483631
0.5456548237
0.5513663381
0.5520649863
0.5482172654
0.5455278511
0.5461218389
0.5464699044
0.545375351
0.5452377231
0.5448211538
0.5436696469
0.5421627777
0.5417955975
0.5424709401
0.5480540945
0.5811062632
0.6870867744
0.874891626
0.9795530518
0.9976994863
0.9839972263
0.9902756947
0.992971531
0.9897079142
0.9892164657
0.992087504
0.9925488723
0.5552253856
0.5200452851
0.4983409208
0.5381791478
0.5607136301
0.5424851805
0.5321346398
0.5340672433
0.5397399665
0.5443982188
0.5505922877
0.5521305281
0.5484911003
0.5456971269
0.5462210702
0.5468035246
0.5457306136
0.5455146635
0.5450552086
0.5440076728
0.5424666858
0.5419807101
0.5422559112
0.5458297977
0.5681489999
0.658398852
0.8325244919
0.9617253177
0.9948368924
0.9831051283
0.9894471522
0.9926208304
0.9890824775
0.9890353248
0.99257705
0.9934132042
0.5578803272
0.5215275205
0.5003542334
0.5430389121
0.5633336177
0.5454130994
0.532379052
0.5328721825
0.538482893
0.5434297313
0.5495001575
0.5520868672
0.5486266337
0.5457901098
0.546338267
0.5470932755
0.5460202817
0.5456921879
0.545211862
0.5442885717
0.54275888
0.5421385295
0.5421118305
0.5445337448
0.5593947451
0.6269200072
0.7879545402
0.9465037733
0.9941317345
0.9828809489
0.9891462557
0.9924233939
0.98983388
0.9894518216
0.9932333673
0.9940725637
0.5786172353
0.5266792258
0.4932688692
0.5398839721
0.5630006553
0.5487181877
0.5337646988
0.5318168033
0.5370311812
0.5415524686
0.5474635156
0.5516699724
0.5487055812
0.5460372873
0.5465722766
0.5474945951
0.5465392154
0.5459389398
0.5454923851
0.5445138476
0.54302174
0.542384306
0.5421157829
0.5433146089
0.5520229213
0.5969086839
0.7276302829
0.9102716677
0.9844006105
0.9807223153
0.9873324196
0.9927985256
0.9903891534
0.989171838
0.9924942762
0.9931959305
1.087403128
0.6719382582
0.5790767882
0.5650089824
0.5733544743
0.5646191353
0.5422113381
0.5331587397
0.5325880168
0.5344521035
0.5373891825
0.5414237144
0.5417266313
0.5415235019
0.5431008177
0.5455056874
0.5453954128
0.5453400562
0.5459365555
0.5444344992
0.5437361586
0.5434340376
0.5427540875
0.5425027655
0.5444642506
0.5583573255
0.6097929456
0.7437931975
0.894065853
0.9335006464
0.9744344317
0.98947178
0.9860784162
0.9896441281
0.9924821536
0.9932298728
0.9940957063
1.38493764
1.15513762
0.9199273699
0.7359587629
0.6320530063
0.5799345307
0.5504144252
0.5384543689
0.545480785
0.5448426468
0.5410577296
0.5394917166
0.5386445277
0.5400431979
0.5427440951
0.5447338464
0.544465459
0.5441145038
0.546150128
0.5470287799
0.5468486011
0.5461841272
0.5451265323
0.5436565234
0.5435373727
0.5442383279
0.548095742
0.5756372497
0.6595292511
0.7991751334
0.920397031
0.9569742657
0.9707806263
0.993043616
0.9957118711
0.9942456477
0.9954521059
1.446701993
1.358931583
1.169510784
0.9576917572
0.7491321925
0.6874692803
0.6288482663
0.5907724751
0.5792187005
0.5589844114
0.5408366067
0.5355398824
0.5364635671
0.5390562399
0.5411950647
0.5418751413
0.5412053728
0.5415929149
0.5442178123
0.546205058
0.5461072235
0.5461000484
0.5460249769
0.545517171
0.5447690549
0.5445357118
0.5444369177
0.5456231578
0.5562938755
0.6159109708
0.7249964142
0.8469033139
0.9279805018
0.981011739
0.982864177
0.9865358823
0.9928145491
1.45327041
1.432341453
1.3423413
1.18494954
0.9985130208
0.8536092426
0.7568167509
0.6671021855
0.6152527224
0.5793573998
0.5533214233
0.5594245665
0.5583345441
0.550113008
0.5416975285
0.5405789897
0.5393902388
0.5396002669
0.5431646712
0.5457736618
0.5452709226
0.5453644912
0.5457167658
0.5456589371
0.5451794608
0.5451034726
0.5452032637
0.5449964812
0.5451762587
0.5507288807
0.5772953853
0.6660602108
0.783192566
0.9093851856
0.9400434154
0.9753397546
0.989353514
1.45375184
1.449915333
1.420631315
1.332846281
1.196522359
1.022829006
0.8972280475
0.7790476531
0.7021399478
0.6784527825
0.6352553933
0.6059192469
0.5850218152
0.5591804317
0.5437518086
0.5458315072
0.544093224
0.5419072664
0.5441422591
0.5444147569
0.5421595041
0.5422711584
0.5436601026
0.5443816452
0.544470377
0.5448568498
0.5453704775
0.5455376103
0.5456603363
0.5459915831
0.5477799276
0.5609713798
0.6131062076
0.7069148816
0.8309185481
0.9453310024
0.9612969526
1.453978264
1.453389744
1.446051246
1.411048835
1.328213426
1.195586386
1.061617801
0.9439646131
0.8254796979
0.766268204
0.7037165875
0.6394878825
0.6214825607
0.5972786991
0.577431166
0.5781414335
0.5693430863
0.5510910975
0.5470862449
0.5448417824
0.5418687186
0.541793943
0.5433755824
0.5435975622
0.5432138558
0.5436163612
0.5445465075
0.5450024655
0.5452774461
0.5453131382
0.5452467472
0.5457419831
0.5510645328
0.5740200306
0.6511954138
0.7673628475
0.8731371038
1.454086088
1.454058277
1.452505065
1.441514665
1.402875453
1.32235044
1.200007887
1.085627972
0.9640792255
0.8651639029
0.7964271306
0.7155765267
0.6945547378
0.6707996187
0.6268892306
0.6034919533
0.5917929959
0.567061298
0.5590200141
0.5588876737
0.5490709211
0.5449536814
0.5454092958
0.5438719044
0.5423985392
0.5428722808
0.5440850591
0.5439980569
0.5440219432
0.5443722705
0.5444742313
0.5445025334
0.5448357993
0.5464983052
0.5581403196
0.5982186153
0.7015221698
1.454070527
1.454050864
1.453893585
1.451173743
1.436866434
1.395813921
1.315880711
1.2110001
1.098565414
0.9859916237
0.9138495058
0.8300322397
0.7641537642
0.7224782838
0.669333704
0.6336187415
0.6285191303
0.6085003906
0.5904200094
0.584926978
0.5715407693
0.5577817385
0.5553956243
0.5512137824
0.5442699828
0.5443190929
0.5449327183
0.5441889435
0.5436316927
0.5439177075
0.5438361489
0.5434861868
0.5436905273
0.5439505907
0.544500725
0.5482818196
0.5695214307
1.453928011
1.454012541
1.453944561
1.453617799
1.449578345
1.432546063
1.388607932
1.313340636
1.217754266
1.104980944
1.012960708
0.9278331293
0.8450780615
0.8018916199
0.7547285538
0.7078533551
0.6842170664
0.653610813
0.6130129021
0.6022818207
0.5940405854
0.5731085966
0.571015913
0.567770322
0.5561448307
0.5542427615
0.5537594484
0.5488180465
0.5449206897
0.5451275459
0.5446135123
0.5436782022
0.5438573761
0.5440448494
0.5438042536
0.5437875344
0.5449579369
1.453918199
1.453996198
1.454013475
1.453869429
1.452973777
1.447424392
1.427888134
1.382401388
1.311747108
1.216617506
1.120873549
1.035556205
0.9382038313
0.8833251125
0.8335372305
0.7700375431
0.7328190228
0.7042979586
0.6614153697
0.6450149336
0.6347100987
0.6086144021
0.5944678976
0.5867020524
0.5705125688
0.5621472113
0.5619185297
0.5569048928
0.5512842393
0.5522095363
0.5510458564
0.5467425785
0.5464872387
0.5462408302
0.5447480678
0.5441389398
0.5444157628
1.453769615
1.453883539
1.45402562
1.453999096
1.453737281
1.452202702
1.445120342
1.423115756
1.378073547
1.30690841
1.217355802
1.135539376
1.042836563
0.9654601049
0.9074125487
0.834296682
0.7935194643
0.770522081
0.7304600302
0.697525925
0.6760025587
0.6445057953
0.6176066232
0.6094351147
0.5956785142
0.5779993976
0.574786175
0.5681529637
0.5577557108
0.5584277471
0.5573632436
0.5524517759
0.5509171236
0.5507577157
0.54851336
0.546826734
0.547054327
1.45336525
1.453815461
1.454057195
1.45399592
1.453887914
1.453591617
1.451567517
1.442855281
1.418770708
1.373153325
1.302074283
1.22366936
1.138397217
1.053529515
0.9943040581
0.922881787
0.8633524732
0.8271982177
0.7773859222
0.734576808
0.7158068302
0.6916237292
0.6641092814
0.6519238547
0.6359328669
0.6115582408
0.6008396986
0.5916725355
0.5721343459
0.5653545035
0.5625050507
0.5552375278
0.5515268063
0.552702818
0.5509334072
0.5484417252
0.5488883578
1.453273176
1.453719644
1.453883735
1.453820152
1.453883895
1.454159655
1.453875796
1.451157442
1.440553032
1.414599046
1.36677104
1.301515273
1.226744234
1.139493183
1.071553909
1.003701038
0.9345890182
0.8918821642
0.8422717226
0.7921440753
0.7696990709
0.7418052006
0.7038052601
0.6841151688
0.6673885786
0.6402698816
0.6260309002
0.6178726964
0.6011292206
0.588960931
0.5838959528
0.5720031674
0.5604822898
0.5582999351
0.5545015036
0.5486904073
0.5492677529
1.453006596
1.453143028
1.453357571
1.453582485
1.454173164
1.454828162
1.45475902
1.453823749
1.449634129
1.437181936
1.409392008
1.361984074
1.301206577
1.22459726
1.151884109
1.083314331
1.006017607
0.9570682292
0.9116738315
0.8560093816
0.8217339286
0.789425132
0.7448231533
0.7218240535
0.7068580542
0.6806854956
0.6622778571
0.6504179179
0.6307715017
0.6112663927
0.6047111324
0.5949785298
0.580917257
0.5764981223
0.5716436919
0.5600864034
0.5567012421
1.452040584
1.452213275
1.45275154
1.453903699
1.454898093
1.455332628
1.455178221
1.454768315
1.452773015
1.447347782
1.433585719
1.404754112
1.359599784
1.296906281
1.226434931
1.161254999
1.085324929
1.02447159
0.9733525806
0.9103567585
0.8718382041
0.8441485997
0.8028376164
0.77378341
0.7530144861
0.7192755687
0.6910391342
0.6775235662
0.6598481488
0.6371899991
0.6278716178
0.6185686745
0.5999861879
0.5940195115
0.5901657603
0.5798892266
0.571793704
1.451769871
1.452277664
1.453576555
1.454672606
1.455160169
1.455243704
1.455087242
1.454300513
1.453402895
1.451236908
1.445364916
1.4304099
1.401318632
1.355474604
1.293825591
1.23084935
1.159298442
1.093734782
1.042671848
0.9784322439
0.9289572156
0.896393514
0.8503827745
0.8139744638
0.7928987897
0.7621615336
0.7308542596
0.7173680652
0.7002668331
0.6740699867
0.6599583666
0.6485053372
0.6269857071
0.6124712403
0.6058842729
0.5934454635
0.5799734238
1.455080318
1.45457788
1.454439729
1.454616381
1.454995623
1.454810751
1.453919303
1.452916653
1.452525016
1.452305377
1.450665159
1.444260752
1.427937678
1.397508664
1.350116939
1.294426326
1.229701694
1.159854676
1.105956569
1.045563761
0.9898223356
0.952953833
0.9040436182
0.8581791768
0.8360980515
0.8078465703
0.7729457046
0.755047193
0.7359667945
0.7046538037
0.6867590159
0.6764656775
0.6572680571
0.6395595335
0.6318711687
0.6201966148
0.6013542448
1.459728806
1.456418389
1.454561945
1.454525508
1.454209827
1.452874416
1.451473174
1.451579224
1.452061045
1.453037017
1.452871349
1.450699077
1.442917328
1.425097214
1.392626637
1.347112849
1.292444074
1.2271302
1.17017366
1.110000988
1.046876426
1.007724064
0.9640982646
0.9134714209
0.8846356298
0.8527054425
0.8089153062
0.7872463643
0.7709179933
0.7409241203
0.7217157585
0.7114676773
0.6919498747
0.668302875
0.6584411733
0.6475159424
0.6277708926
1.452403077
1.453544066
1.456451769
1.455815464
1.453180687
1.450196364
1.450286985
1.451023321
1.45260429
1.453966754
1.453973226
1.453213357
1.449953537
1.440837435
1.421441938
1.388687141
1.344651554
1.287301768
1.230751174
1.175425426
1.110243532
1.062640604
1.017599874
0.961703606
0.9294312406
0.9016299824
0.8573451416
0.8297593427
0.8118914785
0.7793185392
0.7514817913
0.7391737097
0.7207407521
0.6940970698
0.6831544321
0.6738987615
0.6527772162
1.435686328
1.454436721
1.461386728
1.458098995
1.450803789
1.44904658
1.450054014
1.452248513
1.453518747
1.454438695
1.454720565
1.454484138
1.453139924
1.448860889
1.438507614
1.417847025
1.385722458
1.340227797
1.286448451
1.234011676
1.171907825
1.119596272
1.076053151
1.017268752
0.9752800703
0.9472337059
0.9036722485
0.8696891454
0.851057611
0.8203398266
0.785430167
0.7716273879
0.7554901675
0.7264879482
0.712833679
0.703683735
0.6833234972
1.421154317
1.459500767
1.458355553
1.451030487
1.448311515
1.450601702
1.453263766
1.453516087
1.453586677
1.454293814
1.454846686
1.454878331
1.454619629
1.452773592
1.447698158
1.436232183
1.415021754
1.381948987
1.336676383
1.288511007
1.23119727
1.17325197
1.129757853
1.075959866
1.026716167
0.9956594944
0.9509077592
0.9064879903
0.8874597786
0.8620866159
0.8247166299
0.8076103493
0.7918893215
0.7599277986
0.7384906648
0.728707643
0.7103178093
1.313855321
1.430437783
1.432515291
1.439455894
1.450154403
1.456603837
1.455854446
1.452998362
1.452775014
1.453513454
1.454461204
1.454671309
1.454646942
1.454410382
1.452269786
1.446496542
1.434093194
1.412195585
1.377819049
1.335641668
1.286601078
1.229262045
1.182250414
1.130719966
1.074966971
1.042307129
1.004477395
0.9545720572
0.9284987812
0.9026653658
0.8596419158
0.8370440802
0.8236955465
0.7951406646
0.7689372404
0.7599075031
0.7446153355
1.160606048
1.33794248
1.398516349
1.44310385
1.457470106
1.455767781
1.451791374
1.451963997
1.452542414
1.453555462
1.453907714
1.45397057
1.454184264
1.45422012
1.454014073
1.451666429
1.445243596
1.432144039
1.409089073
1.375260762
1.333884372
1.281787981
1.233061972
1.186470888
1.128388796
1.087130821
1.051244252
1.000158271
0.9683835981
0.9457572415
0.9041913609
0.871873554
0.8575275735
0.8314528794
0.7980834372
0.7869202138
0.773660518
1.040402397
1.165762906
1.304807108
1.425924749
1.44988478
1.443324375
1.447702136
1.454260782
1.454507171
1.453991517
1.4535158
1.453382151
1.453745231
1.453898497
1.453715007
1.453156176
1.450608452
1.443821266
1.429982652
1.406028092
1.373172505
1.329789105
1.280747304
1.236477092
1.182905086
1.135046232
1.099726287
1.049043709
1.006237082
0.9844841462
0.9493849203
0.9099232937
0.8928484942
0.8699786975
0.8308579596
0.8138534146
0.8023159574
1.004446646
1.044281429
1.167221997
1.332428546
1.394705674
1.428123504
1.454885553
1.456791116
1.455832052
1.454675083
1.453681544
1.453506393
1.453664283
1.453783294
1.45370311
1.453320649
1.452192664
1.449298799
1.442213109
1.427481787
1.403325145
1.369843705
1.326290696
1.283221609
1.234722779
1.181496485
1.144815123
1.101612186
1.051394003
1.023999677
0.991337893
0.9444056681
0.9240497574
0.9068346564
0.87045833
0.8458523455
0.8342924826
1.000203857
1.006501206
1.05561351
1.170390194
1.298025708
1.409663074
1.449282543
1.446576336
1.451105745
1.454578719
1.454327504
1.453802489
1.453705553
1.453706507
1.453562763
1.453279975
1.45267078
1.451209235
1.448067094
1.440467349
1.424999526
1.400690311
1.365770851
1.325485831
1.283396496
1.231307522
1.188330182
1.148731604
1.09636055
1.063057438
1.035854127
0.9895200798
0.9583562064
0.9407006842
0.9064926472
0.8739276106
0.8626405166
1.000003703
1.000585337
1.010732275
1.053142264
1.175430394
1.329065461
1.390509813
1.416794046
1.444640659
1.452739576
1.45230933
1.453214552
1.453979829
1.454286478
1.453956243
1.453489072
1.453053705
1.452052896
1.450466659
1.447132595
1.438808993
1.422823215
1.39758187
1.36282598
1.325206109
1.279164213
1.232393963
1.194856513
1.145037677
1.101068967
1.074721721
1.034448874
0.994820063
0.9759370831
0.9467333245
0.9060427225
0.8907317368
1.000000026
1.000036085
1.001279886
1.010322267
1.065120667
1.174969208
1.295515413
1.403594108
1.443402213
1.441648795
1.446022484
1.4522854
1.454098449
1.454257702
1.454143272
1.453816137
1.453514181
1.452873877
1.451675486
1.45009833
1.446267658
1.437091928
1.420397873
1.393991952
1.361298779
1.322515301
1.275307727
1.236726459
1.194007125
1.144533287
1.113851898
1.077604051
1.030237089
1.008461967
0.9858091001
0.9452027363
0.9222428156
1
1.000001745
1.000094678
1.001276963
1.014538529
1.059381567
1.174485518
1.324207589
1.393726699
1.41667697
1.439220285
1.451066522
1.451473198
1.453147423
1.453988503
1.45371313
1.45334085
1.453289766
1.452739312
1.451822513
1.450035112
1.445299627
1.435211165
1.417314152
1.390938639
1.359216457
1.317653491
1.276744412
1.238174544
1.188245126
1.152142984
1.121257036
1.074004064
1.042618161
1.020218124
0.9805408337
0.9511313633
1
1.000000064
1.000004517
1.000103344
1.001987635
1.012584773
1.06836326
1.177272422
1.295093228
1.400987639
1.442533942
1.442563276
1.445063075
1.450360716
1.453740723
1.453606229
1.453010565
1.453131539
1.453293747
1.453039383
1.452280979
1.450030329
1.444393483
1.433293768
1.414304851
1.388770268
1.354975249
1.315004203
1.279185023
1.233925449
1.190537501
1.160128031
1.117228742
1.078631707
1.056263676
1.020869538
0.9830474187
1
1.000000002
1.000000132
1.00000586
1.000172478
1.00173155
1.016578118
1.062789922
1.177217958
1.320642789
1.397660407
1.418014004
1.436833705
1.45139501
1.451559758
1.451234828
1.451947017
1.452805316
1.453574557
1.45359067
1.453449056
1.452676883
1.449978714
1.44358386
1.431277158
1.412038115
1.385966268
1.350564216
1.315676344
1.276714214
1.231241646
1.198619386
1.159861435
1.114630441
1.089928883
1.060193284
1.019397232
1
1
1.000000002
1.000000243
1.00001021
1.00015966
1.002501089
1.014183079
1.070929881
1.177957329
1.293281356
1.395576093
1.441515296
1.445537681
1.444434219
1.447893784
1.451757021
1.45261037
1.453003758
1.453953156
1.454190666
1.454078751
1.453038672
1.44966458
1.442336023
1.429164945
1.409860606
1.381902811
1.349175511
1.314964997
1.271155851
1.235301986
1.201337504
1.15555073
1.124865
1.096622995
1.053782417
1
1
1
1.000000008
1.00000041
1.000010204
1.000239055
1.002064019
1.017791113
1.063848801
1.176855656
1.316006259
1.403191371
1.420914095
1.434718833
1.450112569
1.451006934
1.450674408
1.451625313
1.453271921
1.454287539
1.454458256
1.45422573
1.452759032
1.448838391
1.44082684
1.427451252
1.40704494
1.378920612
1.348738054
1.310302999
1.271501634
1.239027211
1.195585759
1.159981188
1.133669228
1.092949449
1
1
1
1
1.000000011
1.000000462
1.000015211
1.000200844
1.002811166
1.015086057
1.071616411
1.178702705
1.294802287
1.389650124
1.438702002
1.446432264
1.44490071
1.447573772
1.451008837
1.452536663
1.453235053
1.454046977
1.454132467
1.453596227
1.451768501
1.447626657
1.439428551
1.425675526
1.40407942
1.377736037
1.345404268
1.307145091
1.275082864
1.235681781
1.195026528
1.168058943
1.131550597
1
1
1
1
1
1.000000015
1.000000669
1.000013594
1.000286541
1.002310875
1.018510315
1.064658744
1.176471556
1.310099077
1.403471282
1.420608228
1.435136909
1.449984557
1.452074085
1.451546953
1.452238386
1.453295064
1.453674402
1.453507954
1.452797447
1.450914727
1.446574077
1.43815122
1.423412258
1.402158244
1.375713645
1.340934039
1.308450591
1.273687708
1.23188621
1.202406602
1.168881682
1
1
1
1
1
1
1.00000002
1.000000643
1.000019026
1.000231889
1.00296362
1.015461405
1.070880787
1.176325732
1.293390589
1.382770256
1.435762113
1.446661952
1.446360671
1.448565961
1.45291734
1.453274482
1.452958448
1.452844137
1.45307886
1.452588924
1.45062388
1.445917953
1.436795564
1.421355832
1.400476099
1.371732475
1.339944505
1.308420091
1.267960529
1.235407853
1.205655037
1
1
1
1
1
1
1
1.000000021
1.000000836
1.000015453
1.000305804
1.002386225
1.018503343
1.064225898
1.172983309
1.307304444
1.403992019
1.419138967
1.434670783
1.450090369
1.452532727
1.451938427
1.452061938
1.452499473
1.452760848
1.453149643
1.452783017
1.450469096
1.445154512
1.435161189
1.419656487
1.3974476
1.368736855
1.340041625
1.303912263
1.267965559
1.239328838
1
1
1
1
1
1
1
1
1.000000025
1.000000723
1.000020762
1.000246955
1.003015449
1.015692603
1.069242633
1.175856251
1.294678506
1.377572604
1.434309389
1.447430104
1.446301011
1.448422577
1.452261135
1.453088465
1.453036799
1.453058561
1.452844395
1.452418938
1.449803504
1.443898207
1.433426518
1.417445818
1.39409169
1.367911847
1.337039773
1.300806589
1.271875477
1
1
1
1
1
1
1
1
1.000000001
1.000000025
1.000000962
1.000017038
1.000321944
1.002460453
1.018323451
1.064714798
1.169881082
1.306543128
1.405864228
1.417881041
1.4321582
1.448530025
1.452121221
1.452111146
1.452598751
1.453265809
1.453149624
1.452607081
1.451748905
1.44881904
1.442504787
1.431730306
1.414696329
1.392297965
1.366366691
1.332659748
1.302332074
1
1
1
1
1
1
1
1
1
1.000000001
1.000000031
1.000000814
1.00002227
1.000259566
1.003029528
1.015937682
1.067595866
1.175081686
1.296535512
1.372418562
1.431357288
1.446744082
1.44626713
1.448390598
1.452440317
1.453767201
1.453793082
1.4532083
1.452176571
1.450931363
1.447894367
1.441384121
1.42997699
1.412494453
)
;

boundaryField
{
    inlet
    {
        type            fixedValue;
        value           nonuniform 0();
    }
    outlet
    {
        type            zeroGradient;
    }
    bottom
    {
        type            slip;
    }
    top
    {
        type            slip;
    }
    obstacle
    {
        type            zeroGradient;
    }
    defaultFaces
    {
        type            empty;
    }
    procBoundary27to20
    {
        type            processor;
        value           nonuniform List<scalar> 
31
(
1.453898346
1.453920661
1.453958073
1.453907351
1.453782093
1.453899561
1.454023663
1.454027558
1.453858956
1.453893951
1.453833018
1.453280376
1.452643073
1.453308792
1.45297235
1.451665654
1.454100526
1.460751805
1.455742039
1.424007401
1.379610985
1.22471643
1.060180785
1.004317743
1.000025146
0.999999942
0.9999999902
0.9999999996
1
1
1
)
;
    }
    procBoundary27to21
    {
        type            processor;
        value           nonuniform List<scalar> 
36
(
0.9968709972
0.9918985727
0.9922380516
0.9952522305
0.9950223172
0.9948672698
0.9937271531
0.5556323628
0.5558660185
0.5475440277
0.5468208045
0.5500528631
0.551780875
0.5529852123
0.5497652789
0.5454066039
0.5430935798
0.5432600239
0.5435653831
0.5432307315
0.5429749391
0.5426921453
0.5424001162
0.5435979607
0.5517030905
0.5955827597
0.7192611503
0.8980746005
0.9709191978
0.9907347772
0.9925901851
0.9966895447
0.9966895447
0.5167246014
0.525737212
0.525737212
)
;
    }
    procBoundary27to26
    {
        type            processor;
        value           nonuniform List<scalar> 9(1 1 1 1 1 1 1 1 1);
    }
    procBoundary27to28
    {
        type            processor;
        value           nonuniform List<scalar> 
55
(
0.9924748057
0.9916777956
0.9912363608
0.9916656642
0.9928205002
0.9928205002
0.9936374438
0.9933619147
0.9925396179
0.9913542415
0.9911857827
0.9915907277
0.9925527684
0.9929269488
0.9929269488
0.9940431127
0.9940700777
0.9934921575
0.9929245686
0.9926488233
0.9931578419
0.9939559754
0.9940205958
0.9931726926
0.9931726926
0.9958703604
0.9970385402
0.9952806618
0.9871483009
0.971073696
0.9415740948