/*--------------------------------*- C++ -*----------------------------------*\
  =========                 |
  \\      /  F ield         | OpenFOAM: The Open Source CFD Toolbox
   \\    /   O peration     | Website:  https://openfoam.org
    \\  /    A nd           | Version:  7
     \\/     M anipulation  |
\*---------------------------------------------------------------------------*/
FoamFile
{
    version     2.0;
    format      ascii;
    class       volScalarField;
    location    "3.5";
    object      rho;
}
// * * * * * * * * * * * * * * * * * * * * * * * * * * * * * * * * * * * * * //

dimensions      [1 -3 0 0 0 0 0];

internalField   nonuniform List<scalar> 
2222
(
1.279500672
1.27955974
1.279982981
1.280356431
1.280581611
1.281222144
1.282161254
1.283335714
1.28343534
1.283116573
1.283007382
1.283034452
1.283543605
1.284008728
1.283619721
1.28267427
1.280501292
1.279423974
1.279107845
1.279208403
1.27920334
1.278586085
1.277326853
1.277455241
1.278554902
1.28016909
1.280933966
1.280748288
1.279057394
1.278260342
1.27796492
1.27821526
1.278574363
1.279048654
1.279447272
1.279888217
1.2804654
1.280596138
1.280099292
1.279320066
1.278899085
1.278840365
1.279152987
1.279917112
1.280823795
1.282114722
1.283269973
1.28335536
1.282875023
1.282640585
1.282805518
1.282947103
1.283503389
1.282604064
1.282445014
1.280227654
1.278499704
1.278323589
1.278655434
1.278935943
1.278921259
1.277644044
1.277155614
1.277636746
1.279144549
1.28049856
1.280587479
1.279467169
1.27843854
1.278168312
1.278445552
1.278829475
1.279062791
1.27925096
1.279544123
1.279905334
1.280251741
1.280323384
1.279655641
1.278842765
1.278668796
1.278911102
1.279685205
1.280603566
1.281636584
1.282274708
1.282429755
1.282489308
1.28235848
1.282491347
1.28262181
1.282828055
1.282127313
1.282453376
1.280713146
1.279019596
1.27874505
1.279051042
1.279313371
1.279074987
1.278002285
1.277393926
1.277399473
1.278663165
1.28026793
1.280489964
1.280122488
1.279803438
1.279497874
1.279733959
1.280064472
1.280003339
1.279822595
1.279864854
1.280047397
1.280279665
1.280323582
1.280011374
1.279255721
1.278983793
1.27914995
1.279865612
1.280652748
1.281466684
1.281583743
1.281732116
1.282162603
1.282407185
1.282477118
1.282581524
1.282442259
1.282311201
1.28255833
1.28432368
1.282092164
1.280768736
1.280686684
1.280669367
1.280126491
1.279286501
1.278179772
1.278091155
1.279135408
1.280712593
1.281314194
1.281288403
1.281463841
1.28210442
1.282738456
1.283079307
1.282835621
1.282037637
1.281293726
1.28083571
1.280965011
1.281199927
1.281216819
1.280904283
1.280622374
1.280453033
1.280568341
1.281063025
1.281755253
1.281793076
1.28188968
1.282420468
1.282784239
1.282932855
1.283022244
1.282781654
1.282940527
1.283122027
1.289197368
1.286977692
1.284580619
1.283932316
1.283697126
1.282942283
1.281257385
1.27975259
1.279870371
1.280857282
1.282663783
1.283317598
1.283641499
1.284255436
1.285043968
1.285939661
1.286647468
1.28657431
1.285508469
1.284545248
1.283600545
1.283178204
1.283329856
1.283738153
1.283822997
1.283784552
1.283385498
1.282820265
1.282734332
1.282745524
1.282724296
1.282796298
1.283368072
1.283870216
1.284044873
1.284157357
1.283906804
1.284324582
1.284350873
1.293599913
1.291238602
1.289294695
1.288467114
1.287891287
1.286647491
1.284778572
1.283548906
1.283796867
1.284878386
1.286397567
1.287088175
1.287692118
1.28804809
1.288377997
1.288819978
1.289233719
1.289452574
1.289272747
1.288875004
1.288026988
1.287208671
1.287151071
1.287554331
1.287862528
1.287604806
1.287296045
1.286639722
1.286147381
1.285190641
1.28493744
1.284883475
1.285390958
1.285991832
1.286189597
1.286397675
1.286224892
1.286703754
1.286596476
1.295089443
1.293922467
1.293714717
1.293143008
1.291999149
1.290716061
1.289928487
1.289979443
1.290773841
1.29155157
1.292320135
1.292117036
1.291790439
1.291712453
1.291963641
1.292372274
1.292698765
1.292786774
1.293049621
1.292830758
1.292330019
1.291836028
1.291836868
1.292057134
1.291593645
1.29136816
1.29092015
1.290338497
1.289340638
1.288922399
1.289026539
1.289323532
1.289789653
1.290104728
1.290506761
1.290453728
1.290264481
1.28967266
1.298867096
1.297983512
1.29805967
1.298027315
1.298009817
1.297726458
1.297004326
1.296417323
1.296853603
1.297354753
1.29817637
1.297226987
1.296210769
1.295816595
1.295780222
1.29604815
1.296475797
1.296943428
1.29735879
1.297527574
1.297665699
1.297157485
1.296767697
1.296432315
1.296105243
1.296061998
1.295812568
1.295258129
1.294265907
1.293928693
1.294405285
1.29480872
1.295331404
1.29576686
1.295837215
1.29570061
1.294981454
1.294271093
1.303610525
1.302574193
1.302826004
1.303135551
1.303702072
1.304136279
1.303443627
1.302737134
1.303102205
1.303483518
1.304106406
1.303090798
1.301635193
1.300829726
1.300449884
1.300616736
1.301105526
1.301694848
1.302372192
1.302851039
1.303075063
1.302847471
1.302118771
1.301519858
1.301627396
1.30159061
1.30135643
1.300858066
1.300013219
1.299898917
1.300629452
1.301342418
1.301769721
1.301802502
1.301449803
1.301267159
1.300655807
1.300175303
1.309520611
1.308334269
1.308121278
1.308704412
1.309879585
1.310326734
1.309766071
1.309192797
1.309370807
1.30967085
1.310482225
1.309599739
1.308082597
1.306783076
1.30649405
1.306679768
1.307182746
1.307597502
1.307950105
1.308529754
1.309087549
1.309141615
1.308197349
1.308289741
1.307963142
1.307810267
1.307576207
1.307183203
1.306858787
1.307023695
1.307923416
1.308258701
1.308298643
1.308067936
1.307655211
1.307552686
1.307044506
1.306802924
1.316756452
1.315414985
1.314756653
1.3154545
1.31624085
1.316435251
1.315946927
1.315528274
1.315888052
1.31639212
1.317131443
1.316605264
1.315551511
1.314546367
1.313879013
1.313868191
1.314441459
1.314942531
1.314905156
1.315199187
1.315594303
1.315601352
1.315447855
1.315030432
1.314809896
1.31458082
1.314168248
1.31433288
1.314838725
1.314766661
1.315206478
1.315312956
1.315328875
1.314918516
1.314537454
1.314552367
1.314193129
1.314237257
1.324706167
1.323979658
1.322899832
1.32291627
1.323315003
1.323262007
1.322693609
1.321966043
1.322453059
1.323341153
1.324326626
1.324563927
1.324093932
1.323300647
1.322993414
1.323095184
1.323367767
1.323207549
1.323018857
1.32279303
1.322677479
1.322649534
1.322562233
1.322404619
1.322309793
1.321929537
1.32164732
1.321715348
1.322188914
1.322046225
1.322207644
1.322334152
1.322613827
1.322209758
1.322057111
1.322295725
1.32204364
1.322266409
1.332039188
1.331066398
1.33097551
1.33084399
1.330558365
1.329802526
1.32903049
1.329651298
1.330577989
1.332151083
1.333410621
1.333584498
1.333147735
1.332795027
1.332628979
1.332455674
1.332242762
1.331951598
1.331226162
1.330301113
1.329864403
1.330223918
1.330312348
1.330389736
1.330304884
1.330417409
1.330154295
1.329862689
1.329443018
1.328964967
1.329125416
1.329728064
1.329725943
1.330036784
1.330341441
1.330071254
1.330415751
1.33053305
1.339799339
1.339478402
1.340111893
1.339730902
1.338834702
1.338055153
1.337214444
1.337879846
1.338570008
1.339666394
1.341192921
1.342069633
1.341687338
1.34139879
1.341265997
1.341225726
1.341125719
1.340652368
1.339854167
1.338754575
1.338349548
1.3389165
1.339574487
1.339970447
1.339744997
1.339445973
1.338847917
1.337995681
1.337467964
1.336660804
1.336631076
1.336928003
1.337080992
1.337702012
1.338003592
1.337955681
1.338164996
1.339477128
1.347658917
1.347686174
1.347455752
1.347559803
1.347213502
1.346785868
1.345892624
1.346469203
1.346988309
1.347897671
1.348765879
1.349212557
1.349349039
1.349441763
1.349442317
1.349537846
1.349450215
1.349002084
1.348271747
1.347275737
1.347194993
1.347748854
1.348377413
1.348789173
1.348782568
1.348398003
1.347722707
1.346466288
1.345784917
1.34482039
1.344689259
1.344664287
1.344868348
1.345344253
1.345726542
1.346303578
1.346582037
1.347200542
1.354025379
1.354036235
1.354194112
1.354820687
1.354916228
1.354899468
1.354450958
1.355200153
1.35562191
1.356178266
1.356330104
1.356102372
1.356103959
1.356415785
1.356871396
1.357340755
1.357352338
1.357072464
1.356511414
1.35596512
1.356168817
1.356450182
1.356901747
1.356964879
1.357068871
1.357028819
1.356222217
1.355075749
1.35400792
1.353119472
1.353005116
1.353194093
1.353566828
1.354028564
1.354223178
1.354929169
1.355191244
1.355074072
1.360479076
1.360541853
1.360984523
1.361620461
1.362129201
1.362554756
1.362871098
1.363735401
1.363934915
1.363879321
1.363654975
1.363088083
1.362870414
1.362775799
1.36298966
1.363613314
1.364020343
1.364104504
1.364122705
1.364475817
1.364960509
1.364980574
1.364882432
1.364641459
1.364562074
1.364551269
1.364133986
1.363244366
1.361887245
1.361463996
1.361495481
1.36195649
1.362708644
1.36306912
1.36298218
1.363401875
1.363558996
1.362885843
1.367143214
1.367312891
1.367710919
1.368352934
1.369071121
1.369525016
1.370046326
1.370901903
1.371112521
1.370922706
1.370717224
1.370139322
1.369694004
1.369308904
1.369312803
1.369794668
1.370368302
1.370699824
1.371301247
1.372386948
1.372931498
1.372644789
1.371979929
1.371584824
1.371147714
1.371107303
1.371128861
1.370672298
1.369591273
1.369755363
1.369673717
1.370267466
1.371129476
1.371504538
1.371483613
1.371550339
1.371354121
1.370370402
1.373450251
1.373444244
1.373509351
1.374418156
1.375175658
1.375676741
1.376207683
1.377069619
1.377420415
1.377544442
1.377694005
1.377441374
1.37686824
1.376435859
1.376395132
1.376723482
1.377220723
1.377635664
1.378396911
1.37959831
1.379993937
1.379587421
1.378556703
1.377974767
1.377601966
1.377470914
1.37756711
1.37743688
1.377061624
1.377419911
1.377472501
1.378293491
1.379129814
1.379369314
1.379338653
1.379119656
1.378448796
1.377498302
1.379519264
1.379103249
1.379481887
1.3801619
1.380926678
1.381668341
1.382893191
1.383570993
1.384095591
1.384527942
1.384539326
1.383913528
1.383614188
1.383766767
1.384019599
1.384328302
1.384817089
1.385438416
1.386311825
1.386539858
1.385925055
1.384857794
1.384340716
1.384040092
1.383762513
1.383661187
1.383594843
1.383665503
1.384120819
1.384314305
1.385141571
1.385941709
1.386182691
1.38605533
1.385562672
1.384579333
1.383941631
1.385969373
1.385181133
1.384968012
1.38528679
1.386100907
1.387022363
1.388679827
1.389693501
1.390406806
1.390887838
1.390908074
1.390440191
1.390463795
1.390822965
1.39092053
1.391000893
1.391626062
1.392110902
1.392331335
1.392226571
1.39150924
1.390727106
1.390184074
1.389976029
1.389573257
1.389243565
1.3890104
1.389068699
1.38939573
1.389725133
1.390446713
1.391279389
1.391359662
1.391186011
1.390620734
1.389663162
1.389357149
1.391927433
1.391086026
1.390525811
1.390116941
1.390451429
1.391428051
1.393280988
1.394786561
1.395637513
1.396078457
1.396088339
1.396002318
1.396343793
1.396715794
1.396766089
1.396936203
1.397625989
1.397817483
1.397376566
1.396665023
1.395991027
1.395605052
1.394982269
1.394951254
1.394578587
1.394138326
1.393656309
1.393500718
1.39351322
1.393920278
1.394358581
1.394852741
1.394731247
1.394595479
1.394206221
1.393793512
1.393636389
1.397205856
1.396672621
1.396022851
1.395171922
1.394958357
1.394956522
1.396269816
1.397965056
1.399021263
1.399679825
1.399864787
1.400049374
1.400636585
1.401019271
1.401140068
1.401513426
1.401986739
1.401851964
1.400905753
1.399778836
1.399294707
1.399185017
1.398676237
1.398656967
1.398597261
1.398194272
1.397495522
1.396997678
1.396637912
1.396920349
1.396924505
1.396680961
1.396358415
1.396622595
1.396748939
1.396924085
1.396752491
1.401696335
1.40148588
1.401007585
1.399771844
1.398848539
1.39824886
1.399448877
1.401049659
1.401818526
1.40213619
1.402339076
1.402465439
1.40299748
1.403245052
1.403303333
1.403638212
1.403769687
1.403396287
1.402278251
1.401327312
1.401004108
1.401149873
1.401125998
1.401185408
1.401652819
1.401263822
1.400466678
1.399714541
1.398983925
1.398979981
1.398577528
1.398019336
1.397965261
1.398373874
1.398675709
1.399176096
1.399154403
1.404127998
1.403761779
1.403054827
1.401746872
1.400718196
1.400238826
1.401793644
1.403100044
1.403523806
1.403131626
1.403262689
1.40331811
1.403572517
1.403433742
1.403080617
1.403061407
1.402879673
1.402209694
1.401569609
1.401388435
1.40137233
1.401816751
1.402605694
1.402977803
1.403410726
1.402872267
1.402043921
1.401151926
1.400231247
1.400012986
1.399628923
1.399277456
1.399613492
1.400042495
1.400491532
1.401083331
1.401136118
1.403953449
1.403523191
1.402508894
1.401328069
1.401029504
1.402751514
1.403690749
1.403599683
1.40274006
1.402760653
1.402760104
1.402829988
1.402347113
1.401721824
1.401329301
1.401135134
1.400976667
1.40129617
1.401926109
1.402323759
1.402650609
1.40333315
1.403726887
1.403726182
1.402963904
1.40203289
1.401094889
1.400477029
1.400420859
1.400459807
1.400671183
1.401277468
1.401916184
1.402504133
1.402876197
1.402801496
1.40289943
1.402571499
1.402432649
1.401733337
1.400422277
1.400189632
1.40134965
1.402490648
1.402681145
1.402936125
1.403063713
1.402828907
1.402219906
1.401774647
1.401755783
1.401450723
1.40148566
1.401751634
1.402246998
1.402880327
1.403595207
1.403548061
1.40304448
1.402559477
1.402353463
1.402091822
1.401165258
1.40057848
1.400460737
1.400836257
1.40132512
1.402124316
1.402994814
1.403610181
1.403970019
1.40408597
1.403923208
1.403777946
1.40098443
1.400698184
1.399985514
1.398626829
1.398391269
1.398955974
1.401616855
1.403241569
1.404127579
1.404242146
1.403894698
1.40318064
1.402848528
1.40305222
1.403013578
1.403085374
1.403336765
1.403875103
1.404334708
1.404423843
1.403649492
1.402377611
1.401597578
1.401834939
1.402236795
1.401683311
1.40149706
1.401452174
1.401843472
1.402446407
1.403479206
1.404396574
1.405006779
1.405030731
1.404735511
1.404489404
1.403749843
1.40133899
1.401004472
1.400071522
1.398465063
1.398483996
1.39955959
1.402145901
1.40448362
1.405316931
1.405411209
1.404810592
1.404273603
1.404170018
1.404401399
1.405008009
1.405260746
1.405484204
1.405515561
1.405436628
1.404673813
1.403579092
1.402745679
1.402470218
1.402583662
1.403072269
1.403435031
1.403375342
1.403268753
1.403496572
1.403795358
1.404740919
1.405422709
1.405845884
1.405615624
1.404864058
1.404244814
1.402939931
1.403131969
1.402808666
1.401759835
1.399836893
1.399694997
1.40112252
1.403693871
1.405415711
1.406020174
1.40604054
1.405468692
1.405299555
1.405387475
1.405750529
1.406178045
1.406543669
1.406820993
1.406425334
1.405422485
1.404621637
1.404153656
1.404138355
1.404117131
1.403949195
1.404334187
1.405198155
1.405130976
1.405021143
1.405049596
1.404975919
1.405537215
1.405885522
1.405720446
1.40496676
1.403699758
1.402992201
1.402090371
1.40525608
1.404965522
1.403960138
1.401778063
1.401027194
1.402131562
1.404470092
1.405578552
1.405909848
1.405789089
1.405847971
1.405949188
1.406115588
1.40648428
1.40636953
1.406590414
1.406575462
1.405939253
1.405098669
1.404817568
1.405494871
1.405846917
1.405848459
1.405606021
1.405631409
1.405519663
1.405279399
1.405241244
1.405344459
1.405423128
1.40563826
1.405538177
1.40493853
1.403498321
1.40232221
1.402219167
1.401921246
1.406222322
1.405802807
1.404807986
1.402505542
1.401300893
1.401249953
1.403315478
1.404289965
1.404278422
1.404276624
1.40448483
1.404674893
1.40497065
1.405089563
1.40489321
1.40487524
1.404740484
1.404625065
1.404902129
1.405671082
1.406753421
1.407637612
1.40779636
1.407397201
1.406784965
1.406355697
1.405685696
1.405281546
1.40507767
1.404949096
1.404542287
1.404034477
1.402899027
1.402031375
1.401774644
1.402145716
1.402025351
1.405240313
1.404261179
1.401984879
1.400051159
1.399185727
1.400783213
1.401685231
1.401948265
1.402139037
1.402363859
1.40243386
1.402490015
1.402326458
1.402147126
1.402316582
1.402791753
1.403775709
1.405051715
1.40618262
1.407802527
1.408981071
1.408968499
1.408307039
1.407455218
1.406655664
1.405479087
1.404622577
1.404023731
1.403346324
1.402164803
1.401344437
1.400946653
1.401303536
1.401867564
1.402225459
1.40225349
1.40302601
1.402067917
1.399555934
1.396972665
1.396317089
1.398010257
1.400177797
1.401305233
1.401630092
1.401647493
1.401389136
1.401220394
1.401189305
1.401402047
1.401822266
1.402257706
1.402782812
1.404695653
1.406578936
1.408174769
1.40913928
1.409273656
1.40864088
1.407410336
1.405483308
1.403793048
1.402284305
1.401204448
1.400225986
1.399526963
1.399767993
1.400412643
1.401289944
1.402085283
1.402309745
1.402432861
1.399967292
1.399214738
1.396875661
1.395172408
1.395103212
1.396865841
1.399517835
1.400770397
1.401135624
1.40111336
1.400799134
1.400775235
1.400910356
1.401212805
1.401591331
1.401904079
1.402506534
1.403543218
1.40549108
1.406959465
1.407695252
1.40776818
1.406716116
1.405046632
1.402715548
1.400595762
1.399105705
1.398593349
1.398398933
1.398702222
1.399281619
1.400157266
1.401241831
1.402103685
1.402351171
1.402419747
1.398783406
1.398199476
1.395898433
1.39429178
1.39432625
1.396080879
1.398849466
1.400119031
1.400424402
1.400339932
1.399978937
1.400012274
1.400295084
1.40076037
1.401315008
1.401815902
1.402172167
1.403110485
1.404274999
1.404825843
1.404425023
1.403203547
1.401924714
1.400926009
1.399330681
1.39816552
1.397905485
1.397938197
1.397810442
1.398171169
1.398770529
1.399823757
1.4011056
1.401923865
1.402030048
1.402053734
1.397553135
1.397149478
1.39502035
1.393300836
1.393462487
1.395269588
1.398099903
1.399292652
1.399820882
1.399620732
1.399483318
1.399826692
1.40035528
1.400812252
1.401472468
1.401777038
1.40218281
1.40228455
1.401959828
1.400774222
1.399228789
1.398380662
1.398474616
1.398723544
1.397975869
1.397254166
1.397149676
1.397287667
1.397372043
1.397797247
1.39839616
1.399509641
1.400913396
1.40128769
1.401377339
1.401143577
1.396442328
1.396211479
1.394311588
1.392624898
1.392868217
1.394349636
1.396653375
1.398069389
1.398800783
1.398862091
1.398476343
1.398505252
1.398918071
1.399761681
1.400523114
1.400725253
1.401037922
1.400787236
1.398566833
1.396925939
1.396627675
1.396457248
1.396567328
1.396939185
1.396910553
1.396402725
1.396427535
1.396879862
1.397195577
1.397600626
1.398341878
1.399533294
1.400189234
1.400082675
1.399678702
1.399359108
1.395128152
1.393490028
1.391419456
1.390581039
1.391567747
1.39362238
1.39533983
1.39616164
1.396342911
1.395887292
1.39596702
1.396484011
1.397185871
1.397948838
1.398727006
1.398964857
1.397502098
1.395344994
1.39530949
1.395319304
1.395156398
1.395167832
1.39531627
1.395736203
1.395529464
1.395761418
1.396527598
1.3970205
1.397519543
1.398027087
1.398312193
1.398460186
1.398013425
1.397358496
1.396346775
1.392776606
1.391316352
1.389040538
1.387478695
1.38763515
1.389580656
1.391932838
1.393082516
1.39361091
1.393488895
1.393298222
1.393499212
1.393862547
1.394292326
1.394899718
1.394645027
1.393640513
1.393927045
1.394469774
1.394732647
1.394513185
1.394092863
1.3940366
1.394735673
1.39500914
1.395504909
1.396395931
1.396534359
1.396240444
1.396174823
1.395961157
1.395880477
1.394919089
1.393735695
1.392822868
1.392519558
1.389850295
1.388494798
1.3856484
1.383136418
1.383185098
1.385333622
1.387946217
1.389334287
1.390063323
1.39011298
1.389775758
1.389631997
1.389559552
1.389883216
1.390124501
1.390368704
1.391114944
1.39212112
1.393169949
1.393890412
1.393802115
1.393457801
1.393557313
1.394257748
1.395036161
1.39501257
1.394968667
1.394584603
1.394122633
1.393461094
1.39238887
1.391945986
1.39099166
1.390840557
1.39079443
1.390836338
1.387134181
1.385536499
1.382390867
1.380427339
1.380834534
1.383318558
1.385630964
1.387302923
1.388327866
1.388627103
1.38862535
1.388458803
1.387779813
1.387390223
1.387645003
1.387891548
1.389010206
1.390266201
1.39172164
1.392967805
1.393329498
1.39338895
1.393805261
1.39418322
1.394110995
1.393159896
1.392831213
1.392233437
1.390804011
1.389142318
1.388273029
1.388719983
1.388839563
1.389250996
1.389466692
1.389577178
1.385417064
1.383795541
1.380682115
1.378887816
1.379320614
1.38183398
1.384099175
1.385763509
1.386808669
1.387144024
1.387535554
1.38763182
1.387034227
1.386415307
1.385990271
1.38628032
1.387437574
1.389275763
1.391074174
1.392549561
1.392966224
1.393161497
1.39323998
1.392772136
1.392214275
1.391297787
1.389428004
1.387945811
1.386479961
1.386124698
1.386414821
1.387225966
1.387649919
1.388147182
1.38848392
1.388825729
1.38440653
1.382815424
1.379446618
1.37775407
1.378272039
1.380798783
1.382999917
1.384733342
1.386150979
1.386849627
1.387342497
1.38730928
1.387191975
1.386578284
1.385738948
1.385610851
1.386077152
1.387759249
1.389376007
1.390941626
1.391780086
1.391769957
1.391631931
1.391240329
1.390107821
1.387693365
1.385041781
1.384627137
1.384570574
1.385075359
1.385649695
1.38620371
1.386871236
1.387728111
1.388484605
1.388908532
1.38384045
1.38248337
1.379153299
1.377890598
1.378461996
1.38101746
1.383247658
1.384869789
1.385487522
1.385727613
1.385968988
1.386218163
1.386192328
1.385990326
1.385375809
1.38501065
1.385247442
1.386370756
1.388011152
1.389474496
1.390069843
1.390254027
1.389516343
1.388149425
1.385826137
1.384363083
1.383421998
1.383403987
1.383678035
1.384498173
1.385310461
1.385827189
1.387080869
1.388236754
1.389134834
1.38929027
1.382098754
1.379768863
1.378891269
1.379058195
1.380872026
1.382979861
1.384043912
1.384218964
1.384287059
1.38428335
1.384452688
1.384549953
1.384669554
1.384629727
1.384482748
1.384296152
1.385179362
1.386679655
1.387896513
1.388101014
1.387740414
1.385855375
1.38400611
1.383449528
1.383418229
1.383069712
1.38293565
1.38377145
1.384572735
1.385680246
1.386595167
1.388146808
1.389062946
1.389352343
1.388780418
1.381047506
1.37980118
1.378713308
1.377936555
1.379469409
1.381543103
1.382572189
1.382838349
1.382799011
1.382439242
1.38243234
1.382448368
1.382784055
1.383390203
1.383549187
1.383665581
1.38437279
1.38533425
1.38583293
1.385322918
1.383866696
1.382827859
1.382432116
1.382445649
1.382834225
1.38285606
1.383462527
1.384469786
1.385556857
1.387024957
1.387912878
1.388699061
1.388612859
1.388237676
1.387306512
1.379847194
1.378675115
1.377356295
1.37608673
1.376830735
1.378604045
1.379919413
1.380552357
1.380409288
1.379979173
1.379957269
1.380257932
1.380784253
1.38144394
1.382411414
1.383622409
1.384125914
1.38416205
1.383058766
1.382592776
1.381894313
1.381845415
1.381892773
1.382053063
1.382865528
1.383812927
1.384812735
1.385895039
1.386858233
1.387734244
1.387788009
1.387708877
1.387068671
1.386506678
1.38560287
1.379730691
1.37784083
1.375246511
1.373116824
1.374858898
1.377502942
1.379235677
1.38014883
1.379954594
1.379411014
1.379105712
1.379474126
1.380053081
1.38038009
1.381685731
1.382785377
1.382984765
1.382983496
1.381950822
1.381755342
1.381440818
1.381340417
1.38175693
1.382605871
1.383994746
1.385272006
1.385906118
1.386474552
1.386632303
1.386766607
1.386328108
1.385935637
1.385299669
1.384112104
1.382559142
1.379817379
1.37814184
1.374695113
1.372452647
1.373750595
1.376345616
1.378172582
1.379274903
1.379384908
1.37922846
1.379255719
1.379436741
1.379900937
1.380623669
1.381621652
1.381970939
1.381837908
1.381584373
1.381165731
1.381326844
1.381537152
1.382089139
1.382793706
1.384152372
1.385371255
1.385706622
1.385433903
1.385348638
1.385198594
1.384960867
1.384530198
1.38362359
1.382226003
1.381155359
1.38108555
1.37899509
1.376993215
1.37371127
1.372058579
1.372898093
1.375431827
1.377318921
1.378691844
1.379422679
1.37951166
1.380143474
1.380896923
1.38123482
1.38156757
1.381773908
1.381700758
1.381181576
1.380514714
1.380720557
1.381514392
1.382307529
1.383352038
1.384682483
1.385702423
1.385607443
1.384735889
1.384062876
1.38354239
1.383446916
1.382923964
1.381532777
1.379998468
1.380051034
1.38012689
1.380228601
1.378052607
1.375954715
1.372855021
1.371925621
1.373405473
1.375612743
1.378007791
1.379791059
1.38058593
1.380916263
1.381740709
1.382151552
1.381913677
1.381898835
1.3817784
1.381747195
1.381029865
1.380365323
1.380718113
1.382312559
1.384060931
1.385397672
1.385981777
1.385738857
1.384388049
1.383066639
1.382069061
1.381011852
1.380286998
1.379537038
1.378830111
1.378756484
1.379089265
1.379627393
1.380393663
1.376403835
1.374376753
1.374284918
1.375000894
1.377470453
1.379714292
1.380942458
1.381093767
1.381425866
1.381699572
1.381516959
1.381175008
1.381220459
1.381235213
1.381246614
1.380821881
1.380521047
1.382069756
1.384543513
1.385826902
1.386221375
1.385855506
1.384594464
1.382944683
1.380693396
1.379189807
1.37980814
1.378994573
1.378205919
1.378014291
1.378153649
1.379184375
1.380734023
1.382233003
1.377541372
1.376790827
1.37634699
1.376436276
1.378880891
1.38030406
1.380659807
1.38060007
1.380578276
1.380279792
1.379665149
1.379521606
1.379966336
1.380138515
1.380204343
1.380506378
1.38135918
1.383649924
1.385513011
1.385854012
1.385473365
1.384515933
1.382930887
1.381327573
1.379386624
1.378913412
1.377666723
1.377535909
1.377388105
1.37765837
1.378789134
1.381346962
1.383390896
1.384531153
1.383630098
1.378377981
1.377525992
1.376415369
1.37668989
1.378214963
1.37887134
1.37915942
1.379440703
1.379166858
1.378706749
1.378439396
1.378724136
1.379003665
1.378697225
1.379076523
1.38010833
1.382362699
1.383687192
1.384546272
1.384514627
1.383743184
1.382476663
1.380632178
1.378905174
1.378253867
1.377727745
1.376250964
1.376647505
1.37744477
1.378613195
1.381796046
1.384148826
1.384734622
1.384524571
1.383070497
1.378042238
1.377036627
1.3755533
1.375201833
1.376728409
1.376939214
1.377164562
1.377611953
1.377926235
1.377825144
1.378137066
1.37856284
1.378320065
1.377664478
1.378294553
1.379729155
1.381983638
1.38295264
1.383032603
1.382611865
1.38192772
1.380014995
1.378511367
1.377673003
1.377499891
1.376594003
1.377580132
1.377774388
1.378878461
1.382012721
1.384484627
1.384534432
1.384237745
1.383172277
1.382184964
1.377178243
1.376093472
1.374153548
1.373034325
1.374855463
1.375703947
1.376215367
1.376609096
1.377210523
1.37803025
1.378533824
1.37859586
1.378032972
1.378356877
1.378321255
1.379551324
1.380622354
1.381473399
1.381567778
1.380841742
1.379379592
1.377760266
1.377378554
1.377400203
1.37731996
1.378659303
1.379254083
1.380370311
1.382637567
1.384162248
1.384570333
1.383829446
1.382966054
1.381386969
1.380692589
1.376382296
1.375319465
1.373249685
1.371924879
1.373849281
1.374822301
1.375715109
1.376986795
1.3780779
1.379291289
1.379874718
1.379624095
1.379378233
1.379553436
1.379161466
1.379787552
1.379679356
1.379742969
1.379780319
1.378899052
1.37752576
1.377315416
1.376771693
1.377477205
1.37970092
1.382004015
1.38286696
1.383593072
1.384234215
1.383965522
1.383505523
1.382506226
1.381205852
1.380558789
1.379213733
1.376078308
1.375163392
1.373236734
1.372379985
1.373201121
1.374296243
1.376284459
1.378511194
1.379832514
1.380405465
1.380671088
1.380587156
1.3808725
1.380085426
1.380205002
1.380195184
1.379736395
1.377784481
1.376922056
1.376692913
1.376578512
1.376366958
1.377461604
1.380517476
1.383615515
1.384143149
1.384187404
1.384162486
1.383575454
1.38336797
1.382161508
1.380504669
1.380120962
1.379314793
1.378823123
1.376443289
1.375889146
1.374157773
1.373583337
1.374646199
1.376779927
1.378639661
1.379514639
1.379766586
1.379864034
1.380093601
1.38020797
1.379970383
1.379940159
1.380246069
1.379897226
1.379255135
1.377799387
1.375434635
1.375300836
1.376535178
1.377962603
1.381366768
1.384557818
1.384802264
1.384060542
1.383463321
1.383077605
1.382627781
1.382077573
1.380409788
1.378954654
1.378449528
1.378161822
1.376719917
1.375892218
1.375726987
1.377106129
1.379026
1.379521295
1.379198113
)
;

boundaryField
{
    inlet
    {
        type            calculated;
        value           nonuniform 0();
    }
    outlet
    {
        type            calculated;
        value           nonuniform 0();
    }
    bottom
    {
        type            calculated;
        value           nonuniform 0();
    }
    top
    {
        type            calculated;
        value           nonuniform 0();
    }
    obstacle
    {
        type            calculated;
        value           nonuniform 0();
    }
    defaultFaces
    {
        type            empty;
    }
    procBoundary22to15
    {
        type            processor;
        value           uniform 1.282203889;
    }
    procBoundary22to16
    {
        type            processor;
        value           nonuniform List<scalar> 
40
(
1.281124824
1.281577098
1.282315934
1.282311948
1.281912809
1.281708421
1.282186049
1.283125568
1.283363301
1.283503456
1.283263672
1.283064274
1.283432199
1.28380856
1.283765449
1.283113135
1.282766341
1.280430161
1.279598673
1.279491368
1.279286748
1.278150763
1.276948167
1.277878986
1.279106989
1.280843562
1.281954753
1.281058343
1.279630933
1.278587449
1.278257378
1.278492899
1.27893111
1.279385303
1.280102254
1.281203535
1.28188149
1.281539646
1.280185993
1.280185993
)
;
    }
    procBoundary22to17
    {
        type            processor;
        value           uniform 1.282518596;
    }
    procBoundary22to21
    {
        type            processor;
        value           nonuniform List<scalar> 
69
(
1.282059758
1.28250467
1.284845895
1.28916867
1.293556253
1.297446873
1.297446873
1.301095146
1.305130029
1.310994138
1.317529252
1.324826793
1.332677593
1.332677593
1.340533309
1.34831934
1.354926729
1.360886876
1.367171718
1.373627824
1.379976834
1.379976834
1.386740986
1.392770912
1.397699647
1.401678095
1.404161294
1.404314571
1.404314571
1.402587282
1.401007956
1.401741565
1.403383852
1.405443658
1.406332862
1.405789837
1.405789837
1.403580444
1.400473948
1.399124839
1.397835547
1.396581374
1.395231002
1.395231002
1.392796454
1.389802349
1.387309845
1.385796267
1.385156677
1.384113273
1.382984793
1.382984793
1.38190291
1.380896275
1.38024037
1.379760497
1.37926605
1.378725718
1.378165713
1.378165713
1.37896399
1.37996548
1.379684453
1.378576075
1.377380415
1.376730648
1.376995556
1.377107938
1.377107938
)
;
    }
    procBoundary22to23
    {
        type            processor;
        value           nonuniform List<scalar> 
63
(
1.282149931
1.282149028
1.282535955
1.283297057
1.284860672
1.287015067
1.290042333
1.294116824
1.29923958
1.306069173
1.313550561
1.321734846
1.321734846
1.330173521
1.338622714
1.346972881
1.355170195
1.363002068
1.370360334
1.377323982
1.383549852
1.38879185
1.393108213
1.396472765
1.399133298
1.401230161
1.401230161
1.402413313
1.40287732
1.402527368
1.401843996
1.401631059
1.401806588
1.402000988
1.40214506