/*--------------------------------*- C++ -*----------------------------------*\
  =========                 |
  \\      /  F ield         | OpenFOAM: The Open Source CFD Toolbox
   \\    /   O peration     | Website:  https://openfoam.org
    \\  /    A nd           | Version:  7
     \\/     M anipulation  |
\*---------------------------------------------------------------------------*/
FoamFile
{
    version     2.0;
    format      ascii;
    class       volScalarField;
    location    "0.5";
    object      p;
}
// * * * * * * * * * * * * * * * * * * * * * * * * * * * * * * * * * * * * * //

dimensions      [1 -1 -2 0 0 0 0];

internalField   nonuniform List<scalar> 
2222
(
0.7235234015
0.8063737186
0.8387900876
0.8492267254
0.8541955673
0.8653441863
0.8734603205
0.8723420837
0.871034537
0.8718427945
0.8750879455
0.8848813794
0.9059697419
0.9392648596
0.9823749353
1.037775078
1.068130192
1.116710542
0.4646001406
0.4587010216
0.4522430291
0.442462128
0.4385173891
0.4353006955
0.4309352163
0.4250974116
0.42052923
0.4227902238
0.4516444918
0.5416772415
0.6871868963
0.8183434583
0.8466112527
0.8621285125
0.866143403
0.8603341957
0.8587695786
0.8639773304
0.8682828376
0.8716729896
0.87319961
0.8745332038
0.8789842247
0.8914229953
0.9141664231
0.9472240595
0.9892554323
1.03252333
1.047621788
1.052826482
0.455948186
0.4500868114
0.4429020255
0.434422014
0.4299719621
0.4266831852
0.423532233
0.4208629848
0.4288294922
0.4817565288
0.604403085
0.7691826124
0.8031468747
0.8514084043
0.864554656
0.8726047621
0.8744836634
0.8733496806
0.8715364298
0.8706248419
0.8698685397
0.8702468795
0.8722272608
0.8756025313
0.8818256624
0.895469258
0.9203137373
0.9560217367
0.9968384893
1.03368435
1.047755559
1.050739652
0.4457027883
0.4399986935
0.4329425929
0.4236894924
0.4203049447
0.4205415683
0.4215000349
0.4462170625
0.5300081124
0.6784060429
0.8107400002
0.8803094403
0.8735118123
0.8706092184
0.8681978714
0.8690411144
0.8739579816
0.8749498584
0.8729236946
0.8736674438
0.872673584
0.8708143669
0.8708478082
0.8735558943
0.881825031
0.8981230604
0.9244537563
0.9623316264
1.002906337
1.035248856
1.049011192
1.051954763
0.4376671351
0.4318151161
0.4231669161
0.4157197999
0.4161434243
0.4226496302
0.4650353274
0.6066416436
0.756794259
0.8439227996
0.860149551
0.8857259077
0.8853828729
0.8804161712
0.8736360998
0.8712747379
0.8709453418
0.8719241208
0.8722457021
0.8725846995
0.8735496217
0.8725912054
0.8729980033
0.8759844652
0.8830073867
0.8987089051
0.9257340716
0.9669426141
1.007355503
1.037167088
1.04936074
1.052900744
0.4282921162
0.4214224861
0.4144312429
0.4141452168
0.427253313
0.5019784453
0.6683311752
0.7704788588
0.8440243872
0.8804655349
0.8736897482
0.8781154373
0.8812852021
0.8806431958
0.8777741361
0.8744493428
0.87086432
0.8686420601
0.8677094739
0.8694206157
0.8724855443
0.8732743467
0.8752612828
0.8790793673
0.8871806328
0.9036399452
0.931767661
0.9710922732
1.009408929
1.038465659
1.048354916
1.052192901
0.4180472024
0.4136808358
0.414590299
0.4452700661
0.5488808824
0.7205899184
0.8751395276
0.8825996737
0.8897407133
0.8933480371
0.8900227702
0.8840683252
0.8821765248
0.8797334834
0.8778637959
0.8761998614
0.8734807507
0.8714355756
0.8697551085
0.8697623159
0.8717305806
0.8737021653
0.8764194148
0.8813503383
0.8913784494
0.9094921596
0.9388813969
0.9794795799
1.016612016
1.039302034
1.046630779
1.050559167
0.4135025337
0.4200882358
0.4800145988
0.6140264325
0.7789205566
0.836643397
0.8918156861
0.9010566504
0.8991632623
0.8978383828
0.8936699
0.8884673992
0.8840841495
0.8797705484
0.8775574759
0.8764234677
0.8752943084
0.8745582994
0.8737939675
0.8730931883
0.8730319394
0.8742555982
0.877309049
0.8827191683
0.8935986959
0.9135504325
0.9452496985
0.9864306124
1.023409846
1.040127712
1.045431398
1.048922696
0.4339901215
0.5192015082
0.6973941639
0.8337060061
0.9043367185
0.9018280324
0.9025414634
0.9009362207
0.8955676709
0.8937033072
0.8921445392
0.8891397137
0.885183682
0.8809969713
0.8776866577
0.8765365425
0.8761233805
0.8761618852
0.8761509861
0.875555002
0.8750912933
0.8751955224
0.87750672
0.88310847
0.8952951981
0.9164795229
0.9492139646
0.9912182006
1.028639419
1.041579605
1.0455137
1.047680243
0.5913307928
0.7770835678
0.8463487749
0.8786129241
0.9177764071
0.9159283614
0.9103762543
0.9031024978
0.8957453234
0.8892624717
0.8879954498
0.8869719518
0.8849473913
0.8821944597
0.8782989585
0.8764388878
0.8761799501
0.8765237074
0.8767726485
0.876223116
0.8755460093
0.8754396349
0.877474248
0.8834113151
0.8963800898
0.9186311963
0.9521740766
0.994628527
1.031842589
1.043540887
1.046831446
1.047640054
0.7797048425
0.8851348356
0.892967975
0.8945407793
0.904987672
0.9128408678
0.9101692907
0.9044004792
0.8970090775
0.8906163047
0.8880312997
0.8861770053
0.8842605613
0.8821373139
0.8791046422
0.8769900937
0.8760869192
0.8757183369
0.875137266
0.8742839875
0.8744227523
0.8754930685
0.8782921382
0.8848426915
0.8986650237
0.9233486355
0.9572016417
0.9992054269
1.03399713
1.045948972
1.048979301
1.048499026
0.9039042756
0.9208277863
0.9221380987
0.9166166122
0.9106810374
0.9093844507
0.9079474317
0.9037691091
0.8988072827
0.8943012923
0.8906893553
0.8880373238
0.8847499397
0.8816983061
0.8794664859
0.8777049366
0.8764888154
0.8753857899
0.8743311651
0.8739313615
0.8752269606
0.8771430145
0.8803705954
0.8876331046
0.9033396189
0.929537476
0.9632113961
1.004029299
1.037006803
1.048064722
1.050269019
1.048734691
0.9211019737
0.9257359926
0.9256993226
0.9237325571
0.9170786397
0.9104403173
0.9063399356
0.9020006089
0.8983510061
0.895697916
0.8925276102
0.889721425
0.8860203415
0.8815130554
0.8794085475
0.8781767407
0.8772659296
0.8762508468
0.8754946339
0.875808744
0.8776029565
0.8798695127
0.8833945269
0.8914866092
0.9089306027
0.9363036811
0.9702069068
1.008597574
1.039908884
1.049910919
1.05161027
1.048802914
0.9207249268
0.9217130002
0.9208167012
0.9197862532
0.9157198496
0.9115490626
0.9070800735
0.9013903914
0.8966929153
0.894621877
0.8925492464
0.8898527225
0.8864154324
0.8816000297
0.8795454386
0.8785826548
0.8781152617
0.8776442081
0.8775369007
0.8784524031
0.8803581336
0.8828121825
0.8865843171
0.8955675841
0.9141335429
0.9427376126
0.9764408974
1.012868645
1.042263988
1.049800398
1.051018129
1.047961931
0.9213914659
0.9166694255
0.9124199612
0.9118952625
0.9120467652
0.9110945775
0.9080505852
0.9028627817
0.8961667287
0.8922997799
0.8904367397
0.8884114277
0.8857776917
0.8825475998
0.8801415273
0.8792792744
0.8791109181
0.8790928713
0.879630682
0.8812291233
0.883435887
0.8858895874
0.8896985575
0.8991709302
0.9186502517
0.9487242064
0.9820056221
1.015828731
1.03981282
1.046573507
1.048913149
1.04717787
0.9241911523
0.9184387923
0.9121454665
0.90979497
0.9095570231
0.9096469792
0.9079684091
0.9040483897
0.8973754037
0.8915066805
0.8896076473
0.8879741596
0.8859394977
0.8838997135
0.8815543837
0.8806304809
0.8806471431
0.8807555101
0.8813556343
0.8830524921
0.8855549996
0.8881016255
0.8920644731
0.9018869229
0.9225580305
0.9542356184
0.9872637674
1.017761017
1.03732037
1.044150859
1.047709808
1.047811962
0.9252994605
0.922009996
0.9171411302
0.9129200987
0.9110545155
0.9093011447
0.9069117049
0.9035282498
0.8984764702
0.8935733516
0.8916234963
0.8898123778
0.8875035897
0.8853260649
0.8829164594
0.882022744
0.8821247278
0.8821077886
0.8823546863
0.8837290973
0.886378032
0.8889605838
0.8932476345
0.9038290917
0.9265739637
0.9598580454
0.9925770345
1.020999117
1.037546383
1.044137686
1.047302177
1.047912454
0.9247788539
0.9228964832
0.9196498083
0.9175049873
0.9149482245
0.911334103
0.9069274758
0.9030715771
0.899415964
0.8959683236
0.8936257695
0.8916005465
0.8889329445
0.8860785545
0.8833714139
0.8823174858
0.8819591925
0.8816839391
0.8817968808
0.8831672574
0.8856608624
0.8883410582
0.8934325456
0.9057810346
0.9313364301
0.9659126442
0.9987287608
1.026134732
1.039532121
1.04466692
1.046432741
1.046654972
0.9226592555
0.9216930681
0.9209286607
0.9197743034
0.9171807284
0.912843499
0.9072692139
0.9023181346
0.898962365
0.8965127761
0.8938828452
0.8916770132
0.8891159468
0.8859007551
0.883546305
0.8818769013
0.8806746893
0.8805450464
0.8810543859
0.8828654588
0.8849778989
0.8876070111
0.8935118875
0.90792913
0.936018227
0.9708686686
1.005058214
1.031896148
1.042186067
1.045209
1.044966481
1.044353963
0.9213007599
0.9191100912
0.918318992
0.9177432503
0.915530915
0.9114482302
0.9066762614
0.902202778
0.8987339608
0.895965202
0.8925523775
0.8901960692
0.8879684694
0.8855236828
0.8839080257
0.8824973536
0.8809085334
0.8806798704
0.8816682793
0.8835244295
0.8850016368
0.8876502108
0.8942761864
0.9106089955
0.9399905156
0.9736662761
1.007611338
1.034411618
1.042509896
1.044415029
1.043369614
1.042647688
0.9216843843
0.9186737506
0.9164302559
0.914770053
0.9124269197
0.9093797677
0.9058490962
0.9024659482
0.8993605879
0.8961411585
0.893023757
0.8900785495
0.8882118897
0.8866594312
0.8856343058
0.8845907313
0.8830137467
0.8823712535
0.8834007566
0.8846162468
0.8857908753
0.8887785538
0.8963157081
0.9144186072
0.9437213362
0.9755056244
1.006668224
1.030485799
1.039272542
1.042117601
1.041463804
1.041328088
0.9221659226
0.9202904794
0.9184894357
0.9167913929
0.914184791
0.9108554458
0.9069327525
0.9035568736
0.9005963394
0.8971203363
0.8945310778
0.8917781685
0.89016965
0.8891300033
0.8884948621
0.887697773
0.8862814389
0.8854427495
0.8859713698
0.8865958683
0.8878323936
0.8910200093
0.8992004399
0.9181876235
0.9465383202
0.9778174204
1.006897264
1.027341685
1.036400176
1.039659452
1.039271949
1.039841945
0.9221223683
0.9213202291
0.9204848367
0.9192930934
0.9166687452
0.9128521674
0.9083491163
0.904469008
0.9014857863
0.8980531283
0.8959263876
0.8942106036
0.8925962618
0.8917724963
0.8911556146
0.8902441039
0.8889599177
0.8881193372
0.888158921
0.8885085131
0.8896052055
0.8926694337
0.901272288
0.9206521748
0.9487913091
0.9808714311
1.008770448
1.026890865
1.035424331
1.037689948
1.037335226
1.038322847
0.9214221608
0.9204574736
0.9201671604
0.919226533
0.9168678165
0.9131231616
0.9089779955
0.9047926701
0.901865382
0.8991010549
0.8974339949
0.8964111681
0.8943554762
0.8930280013
0.8916577323
0.8899385719
0.8885225594
0.8878609743
0.8880116335
0.8884202299
0.889326097
0.8925171991
0.9022074549
0.9227926062
0.9518318112
0.98439923
1.010865456
1.027647965
1.035064768
1.036009384
1.035466655
1.036756363
0.9214239769
0.9190335148
0.9187698875
0.9181827727
0.9161517335
0.9127535266
0.909020428
0.9047902127
0.9015197641
0.8992875662
0.8975220843
0.8961507409
0.8940463475
0.8918941066
0.8905956474
0.8894020901
0.8882180477
0.8880061708
0.8886042097
0.8891193567
0.8898861158
0.8935660188
0.9044312327
0.9263174093
0.9565750681
0.9891922566
1.013094162
1.02816762
1.034031603
1.0346765
1.034683557
1.036509232
0.9214990009
0.9185166407
0.9170489469
0.9156756346
0.9133563613
0.9103912702
0.9069786615
0.903412342
0.9003294555
0.898561461
0.896601981
0.8949676756
0.8931401302
0.8913026575
0.8906053943
0.8904058131
0.8898646655
0.8901856663
0.8910977539
0.891561481
0.8923403508
0.8967243688
0.9087202113
0.9311437039
0.9618466568
0.9947656448
1.016990386
1.030385539
1.034453049
1.03477839
1.0344155
1.036070398
0.921902887
0.9194259506
0.9176493008
0.915552883
0.9123601725
0.9093547444
0.9064459385
0.9029023896
0.8998297616
0.8979824192
0.8962302253
0.894577673
0.8932759972
0.8921703615
0.8920655411
0.8926113294
0.8924817266
0.8929043746
0.8936848322
0.8937421255
0.8948742375
0.9003410209
0.9137028745
0.937107607
0.9680729666
1.000362954
1.020884155
1.031708956
1.034301801
1.034215459
1.033854663
1.035901056
0.9226123137
0.9208384735
0.9197498363
0.9183296212
0.9158494983
0.9131364712
0.9100160931
0.9054070664
0.9013376441
0.8991472384
0.8975494768
0.8960311158
0.8950134265
0.8942953944
0.894327443
0.8947900963
0.8943055533
0.8942618586
0.8947257571
0.8948637176
0.8968215798
0.9032391686
0.9172642863
0.9411933916
0.9718139857
1.003726201
1.023078434
1.032006479
1.034506003
1.034765806
1.034860643
1.036726065
0.9234525988
0.9217979741
0.9214057868
0.9209834352
0.9195837839
0.9174347001
0.9142808036
0.9094466854
0.9044592194
0.9014686072
0.8992966171
0.8976395817
0.8965422393
0.8958399302
0.8955680144
0.895541732
0.8944245903
0.8939901645
0.8944890899
0.8949198966
0.8971922854
0.9038149232
0.917923246
0.9416471344
0.9708448339
1.002888678
1.023861362
1.032650846
1.035084287
1.035397071
1.034790022
1.036320136
0.92536207
0.9231874488
0.9217012887
0.9205687423
0.9192482395
0.9172029478
0.9139156218
0.9093416632
0.9044363784
0.9012888437
0.8981892799
0.89633272
0.8954279071
0.8944968189
0.8945983034
0.8937900883
0.8926710171
0.8925662639
0.8930662728
0.8930983126
0.8951165817
0.9019605965
0.9164893812
0.9399500793
0.9683351113
1.000446653
1.023028235
1.032030595
1.034861158
1.035298414
1.03547298
1.03750586
0.9253019601
0.9235034615
0.9211094812
0.9190168725
0.9172594432
0.9149964629
0.9113128757
0.9062842202
0.9024643841
0.9000964602
0.8989522182
0.8986270463
0.8984337206
0.8971355102
0.8951595421
0.8935494827
0.8913913715
0.889631582
0.889065652
0.8887345279
0.8905476332
0.8975417628
0.9128219468
0.9368445032
0.9660582021
0.9991250549
1.022939472
1.032517467
1.035653786
1.036163063
1.036742932
1.038601321
0.9198828088
0.9182905722
0.917250101
0.9171406366
0.9165422527
0.9140588872
0.9096034858
0.9044583621
0.9025270723
0.9006602177
0.8997365892
0.8994901779
0.8988142862
0.8974372282
0.8960773991
0.8948343511
0.892648785
0.8897459761
0.8873833162
0.8865630407
0.887815075
0.894043985
0.9088437561
0.9325799044
0.9615726673
0.9936953062
1.018500014
1.030546665
1.03558209
1.03810221
1.040936895
1.041988734
0.9170522882
0.9144922657
0.9131997411
0.9131711962
0.914591548
0.9131246743
0.9091924682
0.9046801488
0.9026795372
0.9008996506
0.8999336001
0.8996160213
0.8988616079
0.8972673951
0.8956793321
0.8944145674
0.8928732743
0.8910660471
0.8888407114
0.8878657818
0.8886725903
0.8940927108
0.9085008906
0.9319768239
0.9606776759
0.9926790642
1.016716312
1.026907208
1.031192523
1.033070825
1.0384028
1.041071063
0.9153442578
0.912398545
0.9110485943
0.9106655058
0.9118041613
0.911341797
0.9085328771
0.9049235051
0.9030061537
0.9017546584
0.9006034797
0.9000795761
0.8989978329
0.8975794625
0.8956759775
0.8938868145
0.8925841012
0.8910389286
0.8893950879
0.8888643146
0.8902011786
0.8960477358
0.9102315957
0.933206685
0.9615210526
0.9931277602
1.015237585
1.024603312
1.028600904
1.030372376
1.034163402
1.037943732
0.9138503312
0.9104616073
0.9091082412
0.9085985824
0.9095141658
0.9094833102
0.9070737741
0.904545818
0.9031990123
0.9029424962
0.9020059718
0.9013378646
0.8997579958
0.8976790691
0.895419406
0.8938586023
0.8924106047
0.8907816123
0.8895168787
0.8893607062
0.8912039936
0.8978131194
0.9125917549
0.9356846478
0.9638158742
0.9948598513
1.015995105
1.024270326
1.027832477
1.028758683
1.032383903
1.035332705
0.9138380904
0.9092658786
0.9077728331
0.9069835178
0.9076244482
0.9080700038
0.906111675
0.9041697543
0.902918577
0.9032846907
0.9030211256
0.9024188609
0.9008664505
0.8982602742
0.8953300565
0.8936415307
0.8919272531
0.8905197957
0.889478284
0.8896785661
0.8920056668
0.8992743186
0.9147973037
0.9383876572
0.9668239785
0.9976273894
1.018175528
1.025092186
1.027513378
1.028072424
1.032041199
1.034274756
0.9141308277
0.9090168984
0.9074249388
0.9065189693
0.9067722696
0.9070233481
0.9053462816
0.9032085254
0.9024347329
0.9032350665
0.9038913736
0.9034050659
0.9018186196
0.8989713935
0.8954948805
0.893395374
0.8914793039
0.8902872376
0.8895251231
0.8898859098
0.8924255945
0.9001159779
0.916384896
0.9405766989
0.9695576603
1.00091055
1.021442395
1.02797715
1.029121667
1.02888934
1.032744191
1.034578552
0.9156760187
0.9095817751
0.9074891974
0.906617243
0.9063442176
0.9062722995
0.9045591918
0.9023426186
0.9021455149
0.9027641327
0.9040763643
0.9038358711
0.9023727795
0.8997401757
0.8959172141
0.893143325
0.8911555192
0.8901874143
0.8897434929
0.889896918
0.8926102703
0.9006091439
0.9173697331
0.9420720696
0.971299209
1.002529327
1.023083206
1.030731092
1.031713404
1.031282702
1.033549202
1.034850219
0.9193370664
0.9129869056
0.9093760294
0.9077994296
0.9066999206
0.9057760545
0.9038774646
0.9018442344
0.9015669146
0.9019678092
0.9036667135
0.9038575863
0.9025570304
0.9003130829
0.8967930013
0.8933352178
0.8910206816
0.8901705432
0.8898543298
0.8898546149
0.8928163865
0.9010732272
0.9181772978
0.9430981763
0.9723341623
1.003943395
1.024004408
1.031763979
1.033068129
1.033262965
1.033957753
1.035365601
0.9227923011
0.9193859
0.915493336
0.912384155
0.9095400506
0.9065032755
0.9035908577
0.9014498666
0.9007795407
0.9012062684
0.9032046326
0.9036591568
0.9024546819
0.9006012987
0.897758024
0.8943221724
0.8913290549
0.8902165278
0.8897828747
0.8898600579
0.8931163372
0.9016284073
0.9190015476
0.9442647838
0.9733397381
1.003881735
1.023725559
1.031880901
1.03348297
1.034427833
1.035346896
1.036600083
0.9249742218
0.9240704478
0.9217847967
0.9187857232
0.9148568411
0.9094104807
0.9043072246
0.901255726
0.9001474762
0.9008941826
0.9029861118
0.9031217725
0.9021322392
0.9006661759
0.8984437744
0.895572761
0.892430433
0.8904567529
0.8896584024
0.8899345072
0.8933259614
0.9020055739
0.9197377293
0.9447127019
0.973536779
1.003187473
1.023246802
1.031821985
1.033743931
1.035363034
1.036559548
1.037902625
0.924729824
0.9245106946
0.9232915915
0.9214158332
0.9181034907
0.9125475495
0.9060234771
0.9016417364
0.9000847091
0.9007279324
0.9022285867
0.9022085877
0.9016182396
0.9004381101
0.8986881641
0.896372211
0.8938931494
0.8912904127
0.8898917013
0.890179478
0.8934441998
0.9022559684
0.9200799598
0.9444327934
0.9721873516
1.001469566
1.021334576
1.030685376
1.033584023
1.036002445
1.037567433
1.039080291
0.9250075587
0.9255056374
0.9246385253
0.9229144205
0.9197315091
0.9141869085
0.907689632
0.9028747633
0.9012796268
0.9009821319
0.9017644819
0.9017136287
0.9009389222
0.9001447171
0.8985798114
0.8966782606
0.8948300889
0.8927410698
0.8910381297
0.8910060636
0.8937505501
0.9024762161
0.9197474403
0.9435438434
0.9705902781
0.9979843574
1.016229958
1.025200641
1.030055051
1.034134926
1.037298837
1.039674195
0.9252896747
0.9259608391
0.9248112207
0.9227494937
0.919393751
0.9141004459
0.9084296387
0.9042449361
0.9031745749
0.9026390062
0.9023163513
0.9017404967
0.9005859794
0.8994187863
0.8982892643
0.8966697329
0.895008521
0.8939246904
0.8928800195
0.8927261763
0.894423171
0.9022888474
0.9192303258
0.9428914745
0.9700708988
0.9968044297
1.013106193
1.019938775
1.024145172
1.028831778
1.033999708
1.038703113
0.924979003
0.9256720421
0.9245228992
0.9225174108
0.9192995122
0.9142884178
0.9086985402
0.9052890943
0.9047036107
0.9049920055
0.9041997848
0.9027718681
0.9005813803
0.8990452729
0.8979770981
0.8966942889
0.8950894327
0.8943536157
0.8940523776
0.8944828398
0.8962158255
0.902762715
0.9190150583
0.9428260876
0.970197281
0.9970681317
1.012579709
1.018026904
1.021125387
1.025553457
1.031041514
1.037027693
0.9248792329
0.9256556136
0.9246976058
0.9229835165
0.9197774468
0.9142926276
0.9084510067
0.9059147838
0.9057057821
0.9065631138
0.9063760958
0.9048699026
0.9019297638
0.8992355819
0.8979012019
0.8964884455
0.894872843
0.8941505902
0.8941087321
0.8953102782
0.8984981423
0.9055007727
0.9210815134
0.9443406137
0.9711944241
0.9975691434
1.012663709
1.017646925
1.020211244
1.0243458
1.029780735
1.036284118
0.9249153074
0.9255755593
0.924656687
0.9228454436
0.9194598021
0.9140582302
0.9084595932
0.9061607454
0.9059482458
0.9069413285
0.907355341
0.9061795765
0.9040683945
0.9003770078
0.89758951
0.895810561
0.8943700862
0.8938275693
0.893803754
0.895300246
0.8996213687
0.9085966623
0.9263265863
0.9506234583
0.9760612137
0.9995368895
1.013671458
1.017936056
1.020526159
1.024138748
1.029371923
1.035946812
0.9254452155
0.9248577373
0.9250375954
0.9237367576
0.9216176374
0.9188595638
0.9139223286
0.9087729314
0.9062138218
0.9058637347
0.9070697978
0.907685096
0.9066995216
0.9053261904
0.9024037313
0.8980207294
0.8954566131
0.8933069509
0.8927570086
0.893121278
0.8952709583
0.8999944475
0.9101232219
0.9296807369
0.9561550046
0.9836362038
1.005661167
1.017975435
1.020180232
1.021612085
1.024573044
1.028849592
1.035141578
0.9265372887
0.925423509
0.9246468942
0.923130936
0.920014264
0.9170978831
0.9136309525
0.9086464988
0.9059600075
0.9056338225
0.9069578795
0.907933936
0.9071267388
0.9059085122
0.9038185055
0.9001917501
0.8958837688
0.8928917479
0.891404759
0.8914744522
0.894442504
0.9002563741
0.9110657532
0.9312503965
0.9582468796
0.9877630257
1.010676727
1.022861905
1.025498415
1.023937775
1.025582602
1.028527582
1.034032654
0.9277375833
0.9266855792
0.9250242899
0.9229753916
0.9197935701
0.9154987312
0.9116644141
0.9077544076
0.90515724
0.9051015278
0.9067483874
0.9081129775
0.9073577591
0.9059349029
0.9043459215
0.9023234568
0.8986217889
0.8933396607
0.8910034636
0.8905341749
0.8923725487
0.8988145378
0.9110486139
0.9317327462
0.9589917376
0.9888498631
1.012657413
1.025373421
1.029063351
1.028381617
1.027454869
1.02933567
1.033611274
0.9284284694
0.9275343271
0.9259636323
0.9234257652
0.9194664854
0.9146576803
0.9100659076
0.9060229088
0.9036390484
0.9040948487
0.9054485179
0.9068919337
0.9072159893
0.9060585753
0.9047193158
0.9033690982
0.9013010813
0.8966466501
0.8914205348
0.8904737305
0.8914109616
0.8960467043
0.9085141456
0.9310559701
0.959271871
0.989335212
1.014311611
1.026881037
1.031183858
1.031550617
1.030858504
1.031006396
1.034160516
0.9287156588
0.9277827914
0.9262273521
0.923612667
0.9195289913
0.914570741
0.909431498
0.9050732615
0.9031529774
0.9037079068
0.9044798861
0.9046435636
0.9052880901
0.9058275299
0.9050602881
0.9040828726
0.9023107492
0.8996783485
0.8951583842
0.8909842488
0.8912985695
0.8951004798
0.9058681286
0.9279208149
0.9573272221
0.9889450904
1.015691045
1.027957413
1.032792172
1.033956455
1.0338043
1.033319321
1.035255082
0.9285789586
0.9277814251
0.9262505671
0.9236161655
0.9195545971
0.9145707861
0.9092888483
0.9045267975
0.9032897514
0.9039398572
0.9042837855
0.9036401814
0.9030799414
0.9036092606
0.9047260827
0.9042256644
0.9026199923
0.9006192307
0.8988232267
0.8955777431
0.8928368541
0.8950712693
0.9054590756
0.9257218967
0.95314121
0.9849179388
1.014169917
1.026999963
1.032845293
1.035093621
1.035847515
1.035382973
1.036725677
0.9275801589
0.9276474776
0.9262033081
0.9235497711
0.9194671772
0.9142972583
0.9091889748
0.9045630391
0.9037590687
0.9042794978
0.904119535
0.9032648223
0.902458144
0.9019616769
0.9023776204
0.9036550323
0.9027082548
0.9008831155
0.8997261492
0.8997914277
0.8987196253
0.8983911757
0.9064152159
0.9258370543
0.9512894948
0.9809979885
1.009281018
1.021412581
1.028109962
1.03177075
1.034192311
1.035479001
1.037851411
0.925854621
0.9260078918
0.9251379806
0.9228471904
0.9186120707
0.9137038831
0.9091669365
0.9048303996
0.9040140447
0.9043555963
0.9048359575
0.9038943171
0.9024512419
0.9016103557
0.9008424057
0.9009367552
0.901626649
0.9007698458
0.9000787587
0.9013225214
0.9034514635
0.9061272198
0.9132867972
0.9281313013
0.9518272788
0.980415924
1.006379123
1.017336797
1.023624537
1.027147383
1.030361779
1.033503213
1.037805233
0.9251955564
0.9239931021
0.922507537
0.9204425158
0.9166705156
0.9120838749
0.9086446906
0.9049211662
0.9039779002
0.9044050986
0.9055297817
0.9048176643
0.9034286168
0.9016674774
0.9003317375
0.8992287221
0.8987571205
0.8990461695
0.8999392734
0.9019799195
0.9052073598
0.91083051
0.9221321766
0.9380067801
0.9553071035
0.9809545621
1.006528792
1.016646084
1.021889001
1.024988937
1.028163225
1.031325876
1.037043938
0.9252179537
0.9236723412
0.9210381929
0.918317609
0.9152968666
0.9112103106
0.9076731105
0.9044645809
0.9034275474
0.9044497937
0.9059580603
0.9054508217
0.9045729935
0.9027230229
0.9002033773
0.8987563894
0.8969793457
0.896081833
0.8976989393
0.9021311551
0.9062835527
0.9127224948
0.9262818643
0.947151333
0.9664334371
0.9857978376
1.008108937
1.017815895
1.021965402
1.024584539
1.02750212
1.029789439
1.03575667
0.9257451733
0.9235324677
0.9207487383
0.9176113061
0.9145170336
0.9108254423
0.9071419913
0.9038337005
0.9027509506
0.9040566018
0.9061855547
0.906029458
0.9052723761
0.9037713847
0.9018228993
0.8991066342
0.8966931875
0.8946413468
0.8950003135
0.8996123687
0.9064385895
0.9135402154
0.9272794744
0.9505171506
0.975093936
0.9949068949
1.013383018
1.0200255
1.023091359
1.025043809
1.027630011
1.029116741
1.034396643
0.9265102985
0.9244956087
0.9210367193
0.9171105521
0.9141552746
0.9107913051
0.9069850001
0.9035478544
0.9024428204
0.9035767135
0.9058724954
0.9063952085
0.905813597
0.9046335425
0.9032068664
0.9010554487
0.897005005
0.8946246845
0.894286236
0.8963589858
0.9029932145
0.9130594756
0.9280338907
0.9517015964
0.9785008662
1.001126703
1.01936006
1.024694784
1.025140656
1.025994314
1.027926021
1.02904863
1.033312566
0.9266656621
0.9249981429
0.9222960712
0.917440342
0.9140661282
0.9109636425
0.907145055
0.9035360139
0.9025842401
0.9034279856
0.9049857004
0.9063743352
0.9061434442
0.9053567724
0.9041562145
0.9022726035
0.8991199538
0.8952471895
0.8945038246
0.895394824
0.8992755339
0.9089436007
0.9271003825
0.9524680526
0.9798810384
1.005081513
1.022854751
1.028824965
1.028438646
1.027734506
1.028442904
1.029192194
1.032680978
0.9267383397
0.9251183082
0.9227054479
0.9190892179
0.9140711653
0.9110421823
0.9073933145
0.9035159016
0.9027253867
0.9032101303
0.904002814
0.9053120544
0.9060422547
0.9057471497
0.9048220885
0.9032940062
0.9004736208
0.897374437
0.8953774748
0.8957155566
0.8984150974
0.9052678038
0.9212248508
0.9502276422
0.9805895947
1.007970373
1.025708446
1.032189302
1.032486485
1.030431956
1.029687592
1.030057138
1.032767037
0.9263377132
0.9249737155
0.9227881828
0.9198907769
0.9151767605
0.9109909074
0.9075106688
0.9032419133
0.9024908137
0.9024164052
0.9028181073
0.9037887363
0.9048830148
0.9052529501
0.9051849446
0.9040058992
0.9013144589
0.8985385691
0.8975754182
0.8975691701
0.8988629761
0.9047523766
0.9176969316
0.9432417097
0.9776532794
1.009097677
1.027004135
1.034313422
1.03520074
1.032992915
1.031465072
1.031498278
1.033366735
0.9253673252
0.9241881953
0.9225741602
0.9200486496
0.9172282285
0.9126347273
0.9075912212
0.9030122612
0.902422286
0.9018406625
0.9017218207
0.9022607725
0.9034438333
0.9042541709
0.9047252271
0.9043118206
0.9017828941
0.8991702552
0.8986605907
0.8993291963
0.901085936
0.9052614028
0.917611504
0.9395247245
0.9693040848
1.004921861
1.024174462
1.0329591
1.035208256
1.033903012
1.03277959
1.032893622
1.034274602
0.9271588979
0.9250432489
0.9227176997
0.9217021914
0.9201636508
0.9185124
0.9157857433
0.9105481395
0.9044179094
0.902674716
0.9018837734
0.901352358
0.9010902366
0.901863689
0.9034984441
0.9040971074
0.903507359
0.9013435188
0.8994296526
0.8992467705
0.9002554219
0.9028180364
0.9082396573
0.9193086606
0.9396572028
0.9645851967
0.9998007354
1.020660758
1.031105049
1.034949643
1.034007949
1.033200638
1.03389144
1.035142726
0.9274422202
0.9251965565
0.9220621744
0.9206146648
0.9201945938
0.9194649013
0.9177405492
0.9140732416
0.9084999511
0.905440705
0.903244733
0.9017254374
0.9004375073
0.9005602429
0.9024008245
0.903596865
0.9025846422
0.9002343167
0.8989489259
0.8994290596
0.900935937
0.9038834771
0.9101838558
0.9229622217
0.9420491536
0.9646682929
0.9969819414
1.018365862
1.030290966
1.035311869
1.034432676
1.033102299
1.034212939
1.035709473
0.9278535858
0.9257195638
0.9220336647
0.9201413786
0.9199672006
0.9201522143
0.9188535368
0.9158205916
0.9111699474
0.9080329516
0.9056301936
0.9023314892
0.9004808469
0.8998064007
0.9008373195
0.9025188356
0.9020147514
0.8997044592
0.8982825889
0.8987024211
0.9008927588
0.9047301877
0.9115781011
0.9251911489
0.9467599786
0.9670741864
0.9962868029
1.01663616
1.028883929
1.035093429
1.034730618
1.032544904
1.033991683
1.035631774
0.9279740911
0.9258126794
0.9223183589
0.9201523438
0.9198391864
0.9205296894
0.9196165632
0.9167616151
0.9125034858
0.9095512083
0.9069659034
0.9042327559
0.9010141068
0.8996325734
0.8994636192
0.9003852478
0.9012577982
0.9000925376
0.8986219186
0.8984862231
0.8999842317
0.9042376298
0.9122655666
0.9270049752
0.9498385048
0.9716517737
0.9970814672
1.015606247
1.026039441
1.03287989
1.034172256
1.032244842
1.033405192
1.03467039
0.9270193834
0.9249670245
0.9221511655
0.9202826157
0.9198044909
0.9206755272
0.9200661855
0.9172475404
0.9131537124
0.910451134
0.9080484071
0.9051663883
0.9026149943
0.900208378
0.8986514853
0.8978584674
0.8986759725
0.900209456
0.8997350017
0.8992498472
0.9001727423
0.9033101454
0.9108527123
0.9267602425
0.9519253966
0.9752008762
0.9990284219
1.015874501
1.024137951
1.029475842
1.032815053
1.032124136
1.032847422
1.034308816
0.9258790519
0.9232988477
0.9208618833
0.9194581855
0.9190239926
0.9195685298
0.9197043264
0.9170681439
0.913507558
0.9110421817
0.9089982565
0.9062519989
0.9034935122
0.9012214612
0.8987772186
0.8968002676
0.8963298379
0.897758137
0.8999758653
0.9004820288
0.9013985782
0.9039984425
0.9103395411
0.924636376
0.9501723817
0.9770065703
1.001313067
1.017477824
1.02408267
1.027757177
1.030945804
1.031543284
1.032870814
1.034419036
)
;

boundaryField
{
    inlet
    {
        type            fixedValue;
        value           nonuniform 0();
    }
    outlet
    {
        type            zeroGradient;
    }
    bottom
    {
        type            slip;
    }
    top
    {
        type            slip;
    }
    obstacle
    {
        type            zeroGradient;
    }
    defaultFaces
    {
        type            empty;
    }
    procBoundary11to5
    {
        type            processor;
        value           nonuniform List<scalar> 
33
(
0.5475844637
0.6822283677
0.7851718195
0.8496634037
0.8593763798
0.8793724926
0.8770158304
0.8687051114
0.8664119284
0.8688747237
0.8721626762
0.8812346515
0.9031235918
0.950466877
1.026706106
1.138964836
1.243616784
1.39472202
0.4728785297
0.4664674538
0.4592283017
0.4503452467
0.4456485259
0.4429743974
0.4387887703
0.432782048
0.4246883555
0.4230202244
0.4240238023
0.4335471344
0.4969589966
0.6097063754
0.6097063754
)
;
    }
    procBoundary11to10
    {
        type            processor;
        value           nonuniform List<scalar> 
70
(
0.4704079968