/*--------------------------------*- C++ -*----------------------------------*\
  =========                 |
  \\      /  F ield         | OpenFOAM: The Open Source CFD Toolbox
   \\    /   O peration     | Website:  https://openfoam.org
    \\  /    A nd           | Version:  7
     \\/     M anipulation  |
\*---------------------------------------------------------------------------*/
FoamFile
{
    version     2.0;
    format      ascii;
    class       volVectorField;
    location    "1.8";
    object      U;
}
// * * * * * * * * * * * * * * * * * * * * * * * * * * * * * * * * * * * * * //

dimensions      [0 1 -1 0 0 0 0];

internalField   nonuniform List<vector> 
22
(
(2.866205188 -2.427217166e-05 0)
(2.827819398 -0.001138500591 0)
(2.845237916 0.001695492232 0)
(2.852176908 0.000597607129 0)
(2.865592536 0.0008400004473 0)
(2.846377647 -0.006550717143 0)
(2.85676094 0.001581867926 0)
(2.862303475 -0.0007618963685 0)
(2.87307199 2.389009032e-05 0)
(2.891273537 -0.008610785401 0)
(2.887503956 0.006038321173 0)
(2.888690192 0.004532135998 0)
(2.892960278 0.004169519818 0)
(2.928644909 0.0005175040065 0)
(2.926590133 -0.0007190997906 0)
(2.926558031 -0.003090504064 0)
(2.968146244 -0.0009391829695 0)
(2.964805039 -0.0006802135492 0)
(2.963898956 -0.001375913105 0)
(2.998797557 0.004123917319 0)
(2.995963295 0.001919453766 0)
(2.994849924 -0.003103635388 0)
)
;

boundaryField
{
    inlet
    {
        type            fixedValue;
        value           nonuniform 0();
    }
    outlet
    {
        type            inletOutlet;
        inletValue      nonuniform 0();
        value           nonuniform 0();
    }
    bottom
    {
        type            slip;
    }
    top
    {
        type            slip;
    }
    obstacle
    {
        type            slip;
    }
    defaultFaces
    {
        type            empty;
    }
    procBoundary22to16
    {
        type            processor;
        value           nonuniform List<vector> 5((2.872331988 -0.001762091504 0) (2.831170863 0.001259581254 0) (2.845680948 -0.001421346572 0) (2.854554565 0.001757698518 0) (2.854554565 0.001757698518 0));
    }
    procBoundary22to17
    {
        type            processor;
        value           uniform (2.879779092 -0.002527814288 0);
    }
    procBoundary22to21
    {
        type            processor;
        value           nonuniform List<vector> 7((2.758459814 -0.03317869316 0) (2.801469645 -0.06603703938 0) (2.875794281 -0.09372374221 0) (2.932419034 -0.01704009801 0) (2.932419034 -0.01704009801 0) (2.96771858 -0.03904482735 0) (3.009386587 -0.06705987808 0));
    }
    procBoundary22to23
    {
        type            processor;
        value           nonuniform List<vector> 5((2.879594301 0.002626254287 0) (2.885624452 0.004098044853 0) (2.904185193 0.008028074976 0) (2.9348731 0.003905073901 0) (2.968456637 0.00712017857 0));
    }
    procBoundary22to28
    {
        type            processor;
        value           nonuniform List<vector> 3((3.017882116 -0.002465213525 0) (3.015948819 0.005527888005 0) (3.012581669 0.003409724244 0));
    }
    procBoundary22to29
    {
        type            processor;
        value           uniform (2.99642282 0.006685632448 0);
    }
}


// ************************************************************************* //
