/*--------------------------------*- C++ -*----------------------------------*\
  =========                 |
  \\      /  F ield         | OpenFOAM: The Open Source CFD Toolbox
   \\    /   O peration     | Website:  https://openfoam.org
    \\  /    A nd           | Version:  7
     \\/     M anipulation  |
\*---------------------------------------------------------------------------*/
FoamFile
{
    version     2.0;
    format      ascii;
    class       volScalarField;
    location    "4.7";
    object      rho;
}
// * * * * * * * * * * * * * * * * * * * * * * * * * * * * * * * * * * * * * //

dimensions      [1 -3 0 0 0 0 0];

internalField   nonuniform List<scalar> 
2222
(
1.379927351
1.371881
1.370326411
1.374407382
1.378836933
1.377440226
1.377199138
0.8637937423
0.8921363941
0.9093980617
0.9247246757
0.9302947641
0.9301927128
0.9260926709
0.9195539338
0.9134417465
0.9078970496
0.9042357324
0.9030673074
0.9008576478
0.8989443148
0.8982531504
0.8981153146
0.8995117486
0.9063447502
0.9410083871
1.060617386
1.230943813
1.334638782
1.365007605
1.37143257
1.377786388
1.380374787
1.372100324
1.369634283
1.373061445
1.378347977
1.377104148
1.376922858
0.8032938218
0.8185740039
0.8598960846
0.894533768
0.9105158796
0.9252539784
0.930273999
0.929881878
0.9263729001
0.9197327471
0.9137116758
0.9084583911
0.9043930769
0.902972142
0.9010621252
0.8990806741
0.8981390622
0.8979866915
0.8988173594
0.9034807449
0.9259281832
1.0180698
1.193253965
1.31783016
1.360743351
1.371289616
1.378344313
1.379743878
1.371904759
1.368516659
1.37093738
1.377666123
1.376718501
1.376618372
0.8028365015
0.8151895581
0.8563138636
0.8960532886
0.9122235761
0.9251682171
0.9294711172
0.9299287962
0.9268823822
0.9196896364
0.913724411
0.9086304241
0.9042816168
0.9029704898
0.9013211144
0.8989878002
0.8980257768
0.897955088
0.8984529858
0.9019142371
0.9171892554
0.9791744321
1.140267416
1.294035003
1.35503042
1.372164211
1.378111424
1.379206005
1.372082232
1.3673454
1.369162969
1.377291209
1.376898927
1.376713656
0.8018962108
0.8120019593
0.8538866145
0.8968764076
0.9134545045
0.9238579513
0.9289750367
0.9302370084
0.9268568955
0.9196493973
0.9138824695
0.9088492455
0.9043976577
0.9033397588
0.9020562549
0.8992122585
0.8979533157
0.8978249055
0.8982380582
0.900986294
0.9114998544
0.961158822
1.089322058
1.26345366
1.355167253
1.372968996
1.37630379
1.378906238
1.373112122
1.366652921
1.368546601
1.377233663
1.377153824
1.376947273
0.7998601897
0.8086209594
0.8509772819
0.8968515225
0.913506541
0.9226807595
0.9289783131
0.930283114
0.9266687307
0.9196602586
0.9142831732
0.9094749419
0.905014736
0.9039754413
0.9024249177
0.8997285235
0.8978798981
0.8977393103
0.8982159462
0.9000791202
0.9070888995
0.9458323103
1.064859572
1.231983626
1.350329079
1.372498873
1.374417219
1.380725246
1.373114271
1.366790828
1.368228754
1.377420382
1.377331569
1.377290282
1.378261843
0.7985661347
0.805138656
0.8483930904
0.8964058172
0.9134117451
0.9226946585
0.929170528
0.9301955415
0.9263920545
0.9197134499
0.9146636254
0.9101959991
0.9057609625
0.9041157753
0.9024152926
0.8998174283
0.8977993043
0.8977838508
0.898203489
0.8995215847
0.9039739475
0.9280238053
1.035992041
1.209249813
1.329832661
1.368165735
1.373690248
1.381680266
1.373306867
1.367082202
1.368291087
1.377576085
1.37788166
1.377873852
1.378780058
0.797792266
0.8015847815
0.8457393427
0.8951985427
0.9144926662
0.9232899343
0.9286862214
0.9292222696
0.9259757515
0.9198861291
0.9147493554
0.91043727
0.9060034383
0.9040483184
0.9024639022
0.9000135507
0.8979027279
0.8979289882
0.8982280902
0.8990846838
0.9023128423
0.9181397365
0.9896681085
1.174034827
1.309625975
1.359989005
1.375148038
1.381946466
1.373240069
1.366992646
1.367525747
1.377598201
1.378658965
1.377951363
1.37882643
0.7971245797
0.7983615618
0.8432976571
0.8949949692
0.9164653761
0.9234528004
0.9266222712
0.9274874741
0.9257380521
0.9199239736
0.9146786246
0.9105030281
0.9061238556
0.904209214
0.9031551998
0.9009813941
0.8983386507
0.8980412663
0.898241107
0.8990047494
0.9011645963
0.9127838705
0.9623565792
1.108043823
1.28735361
1.355755189
1.375535806
1.381201555
1.373003674
1.366698433
1.366513567
1.377755018
1.378957734
1.377786805
1.378288808
0.7958657429
0.7949716361
0.8408411196
0.8953759403
0.9175477115
0.9224531185
0.9250888702
0.9268228284
0.925773048
0.9197930207
0.9146609337
0.910802413
0.9065129392
0.9047903844
0.9035402811
0.9015707746
0.899116603
0.8982742419
0.8982453961
0.898845996
0.9002890431
0.9078947315
0.9482023972
1.059137593
1.245377803
1.349032378
1.375060294
1.379166474
1.373827237
1.366092389
1.365845716
1.377830273
1.378918292
1.377322007
1.377602181
0.7955940747
0.7912707389
0.838152825
0.8943569115
0.9180725258
0.9210686232
0.9247297417
0.9265763449
0.9253849695
0.9193705219
0.9147794959
0.9112293044
0.9070490794
0.9050835197
0.9036089754
0.9018567394
0.8995117788
0.8985168376
0.8983837139
0.8988099375
0.8998030424
0.9045662705
0.9326743869
1.036082927
1.195340813
1.334086741
1.370988218
1.378669779
1.377414368
1.366181706
1.365604034
1.377690987
1.37857396
1.376565308
1.376511522
0.7958588131
0.7875927324
0.8351606852
0.8928231986
0.9191454128
0.9206200203
0.9248544849
0.9257580321
0.9246236477
0.9188815711
0.9148595952
0.9114261741
0.907252841
0.9050624081
0.9036695416
0.9021823112
0.8995664798
0.8985352598
0.8984748438
0.8988144806
0.8996119345
0.9028343304
0.9208325116
1.00334524
1.166960745
1.308909585
1.360471199
1.380247685
1.379890362
1.366609999
1.364858243
1.377256893
1.377999923
1.375564267
1.375546213
0.797098431
0.7842766845
0.8318571288
0.8914336104
0.9200877
0.9209752363
0.9234363088
0.923264152
0.9227470664
0.9184285299
0.9150295597
0.9115426782
0.9072571189
0.905047142
0.9039215181
0.9027033491
0.8996259347
0.8985039759
0.8984682571
0.8988186712
0.8993860138
0.9015300791
0.9142044218
0.9702391529
1.133707889
1.285031197
1.355794519
1.383307698
1.380312442
1.366989807
1.363712001
1.376666064
1.377386289
1.37501215
1.375352963
0.7996363252
0.781510838
0.8279465549
0.8899190881
0.9228974473
0.920719614
0.9204556414
0.9202592104
0.9206934885
0.9178634299
0.9150637475
0.911519033
0.9074965907
0.9052144547
0.9043775939
0.9032698486
0.900474473
0.8987415159
0.8984578561
0.8988008083
0.8994383198
0.9007050167
0.9092577936
0.9524889102
1.081111136
1.268473623
1.358201468
1.383053882
1.379764603
1.367142907
1.362257576
1.37538071
1.377249181
1.375219316
1.375645425
1.37829273
0.803271646
0.7795591693
0.8233824274
0.8885548462
0.9245342252
0.9194215448
0.918653348
0.918715365
0.9195293651
0.9170194718
0.9148729698
0.911515114
0.9078139252
0.9054770903
0.9046317968
0.9036469537
0.9013147641
0.8990687941
0.8985403815
0.898724997
0.8993722219
0.9001611847
0.9056670132
0.937716793
1.046437261
1.234555046
1.352063979
1.381317585
1.37772614
1.367200892
1.360358824
1.374308484
1.377526696
1.375261248
1.375640253
1.378254006
0.8080064551
0.778298891
0.8195215725
0.8876286471
0.9272265642
0.9190532436
0.9176826808
0.9177935166
0.9186534137
0.9165059257
0.9144833212
0.9116003015
0.9080364416
0.9055643553
0.904659448
0.9038879878
0.9016982541
0.899232465
0.8986316285
0.8986307301
0.8992717338
0.899647328
0.9034839603
0.92407083
1.014944799
1.181933906
1.328282073
1.37628627
1.376848829
1.367406159
1.359226562
1.373369895
1.377784073
1.375216478
1.375388037
1.377554649
0.81401632
0.7784884794
0.8167221513
0.8872701366
0.9296093298
0.9201109813
0.9168754335
0.9162596942
0.9166451036
0.9157165101
0.9140799035
0.911797723
0.908111725
0.9055198726
0.9046890849
0.9041177524
0.9020972619
0.8993612201
0.8986230141
0.8985908304
0.8991684913
0.8995545734
0.9020542554
0.9163209729
0.9777872993
1.141441964
1.290376548
1.369809984
1.377565136
1.367848887
1.358666041
1.373219903
1.377456306
1.37468456
1.374726719
1.376594546
0.8213340456
0.7779443021
0.8114126792
0.8878677629
0.932532721
0.9210718582
0.9154003611
0.9134356771
0.9135149986
0.9139430845
0.9140260033
0.9117412724
0.908235791
0.9055029998
0.9047448437
0.9043617326
0.9027134398
0.8997793183
0.8988597992
0.8985424168
0.8990790559
0.8994419427
0.9011112214
0.911512323
0.9574951227
1.09901557
1.263858028
1.363432151
1.37838814
1.368074126
1.35715982
1.37296666
1.377592741
1.374345133
1.373925021
1.37536095
0.8302002145
0.7802502992
0.8086300111
0.887567982
0.9363125827
0.9220183574
0.9137687895
0.9113473455
0.9114823669
0.9122866156
0.9137165307
0.9118054796
0.9085036729
0.905460951
0.9048132897
0.9045420819
0.903145336
0.9001451139
0.8990564782
0.8985984528
0.8990310721
0.8994033458
0.9006287278
0.9076261276
0.9440438678
1.054919177
1.2490628
1.357118764
1.377786029
1.368324218
1.356059095
1.373002335
1.377418146
1.373664815
1.372997745
1.373988948
0.840153796
0.7829814098
0.8062047265
0.8917454224
0.9405257445
0.9242969784
0.9147148513
0.9098332873
0.9095682466
0.9110671671
0.9131125526
0.9118064442
0.9087816494
0.9054107017
0.9047664998
0.9046785638
0.9034461527
0.9005000532
0.8991792907
0.8986192539
0.899054476
0.8993735596
0.9003305782
0.9051047389
0.9292478333
1.028360043
1.217803201
1.344447212
1.371426641
1.368832166
1.354727825
1.37174165
1.376467864
1.372448163
1.371521665
1.372724386
0.8509292003
0.7851113464
0.8096140063
0.9005926731
0.9453404246
0.9264891199
0.9150207421
0.9081894248
0.9074841455
0.9097187467
0.9121435791
0.9114586905
0.9088803877
0.9052739134
0.9047233026
0.9047346246
0.903500955
0.9008836371
0.8995524812
0.8986360495
0.899100292
0.8994169743
0.9001137486
0.9036866046
0.9199917848
0.9958631126
1.164321677
1.321809699
1.365678143
1.369188029
1.353244362
1.370059631
1.37525473
1.371546835
1.370926996
1.37280436
0.8916542061
0.7905050591
0.808373746
0.9018415304
0.9511013393
0.9308242872
0.9165242056
0.9061387121
0.9047685321
0.9072183708
0.910502213
0.9110987528
0.9089402019
0.9054330926
0.9049689062
0.9049015559
0.9036816266
0.9013273245
0.9001657644
0.8990498186
0.8992046019
0.8994672285
0.8998940885
0.9022526424
0.9115543084
0.9617814007
1.101546498
1.286961495
1.355679528
1.367117722
1.352020225
1.367695309
1.375580958
1.371731296
1.371129749
1.37304054
1.45577477
1.02292753
0.9682841833
0.9821404418
0.9681480287
0.932302119
0.9158565894
0.9027435706
0.8996985396
0.9000197168
0.8994531938
0.896481841
0.8958468252
0.8975157165
0.9007504303
0.9028182329
0.90347268
0.9017228274
0.8999337461
0.8995868569
0.9004698299
0.9010690008
0.9011655711
0.9012544004
0.902924735
0.9177207636
0.9764537566
1.124559548
1.276249264
1.328888989
1.349314896
1.369856192
1.379357495
1.373239046
1.373370603
1.375777765
1.377123442
1.760274754
1.545835292
1.313567164
1.160943075
1.018046587
0.9185839579
0.9103557535
0.8975500816
0.8960250808
0.9010062631
0.8979078769
0.8881189632
0.8883772692
0.8933661714
0.8979495773
0.9001089348
0.9014854127
0.9012972214
0.9008014752
0.9020805057
0.9047260062
0.9050377709
0.9048245847
0.9038549745
0.9038743179
0.9041074454
0.9085120359
0.9402204379
1.034849308
1.192158631
1.300167053
1.359010106
1.366554054
1.367553888
1.375968221
1.381034404
1.37948979
1.817646656
1.73932129
1.557624038
1.342159768
1.168253629
1.018850549
0.9974747935
0.9766028237
0.9442864826
0.9150296181
0.8958276763
0.8828694929
0.8858050267
0.8940105414
0.8965395076
0.8971977651
0.8984126386
0.8993989239
0.9000482141
0.9026064912
0.9049937329
0.9051365286
0.9053361366
0.9057954026
0.9057706976
0.9051653935
0.90527618
0.9067571927
0.9211767941
0.9805667824
1.104434913
1.253147627
1.305928496
1.342168601
1.37630778
1.38087361
1.379679006
1.823919801
1.804914241
1.727116145
1.559331716
1.404536656
1.248317661
1.117508979
1.058918747
0.9856598472
0.940373992
0.9249692894
0.9146100049
0.9154001821
0.9136639213
0.9044292223
0.8979133435
0.8986421488
0.8989017245
0.899557434
0.9023892111
0.9037945051
0.9034636164
0.9036924961
0.9048778998
0.9055014828
0.9057570597
0.9056711046
0.9058170033
0.9062685901
0.911193265
0.9478094809
1.032349504
1.168335034
1.281704887
1.366307651
1.368351735
1.374871179
1.824541264
1.821126207
1.795147769
1.713985593
1.57879083
1.432665479
1.275435469
1.178357863
1.079637216
1.031926787
1.01510491
0.9799346642
0.9452644985
0.9307098171
0.9127896604
0.9037674957
0.908316076
0.9074157524
0.9027510164
0.9026135498
0.90262009
0.9017631916
0.901869907
0.9030675183
0.9043318054
0.9042701895
0.9043022197
0.9045468872
0.9045339776
0.9047671946
0.9074754633
0.9218031116
0.9832792964
1.088375445
1.223803372
1.285810241
1.352884079
1.824891566
1.824367084
1.817611491
1.786711597
1.706981243
1.593262979
1.453411348
1.328834717
1.240534174
1.142945666
1.081579142
1.029732861
0.9718730188
0.9661059175
0.9546377684
0.9311113624
0.9296079296
0.923980236
0.9111050958
0.906099034
0.9057277381
0.9026919241
0.902249641
0.9034429793
0.9033560577
0.9026084522
0.9025874228
0.9029083313
0.9033801365
0.9038426852
0.9042643288
0.9051628105
0.9114790607
0.9402772653
1.014763721
1.152110338
1.284197854
1.825113884
1.82506348
1.823619381
1.813860395
1.778262765
1.704950959
1.598743425
1.468278074
1.364703423
1.257880109
1.17655757
1.131669374
1.072901092
1.03935178
1.009790454
0.9634877928
0.9427129174
0.9383062193
0.9216375665
0.9175882191
0.918773432
0.9127063508
0.9078765376
0.9086848326
0.9076772079
0.9042626337
0.9034104986
0.9039060841
0.9038980464
0.9036415659
0.9038695062
0.9040614294
0.9042651428
0.9063864564
0.9178179648
0.9700168674
1.06724116
1.825220617
1.82513224
1.824972768
1.8225324
1.809850158
1.771666404
1.7015877
1.599011493
1.493840937
1.388855737
1.290201004
1.230713221
1.161115118
1.098185861
1.063262472
1.019778935
0.9883662315
0.9833938285
0.9618541522
0.9395751842
0.9339435459
0.923883098
0.9122355612
0.9127233825
0.9120870201
0.907764614
0.9068562885
0.9078007702
0.9070289916
0.9055047968
0.9057377242
0.9057780699
0.9050550654
0.9044806381
0.9049268903
0.9098813033
0.9331141596
1.825206397
1.825222667
1.825108435
1.824818937
1.821235462
1.805786309
1.766549019
1.695853784
1.604007714
1.509233447
1.404762759
1.324733534
1.246583776
1.171655331
1.14275464
1.108268313
1.062067449
1.03389391
1.005245424
0.9637135217
0.953852687
0.9462282356
0.9257718295
0.9226776732
0.9204357935
0.9117978836
0.909562641
0.9110628726
0.910147013
0.9076585014
0.9072145498
0.9072334906
0.9062518483
0.9056316345
0.9059527457
0.905845863
0.9065914542
1.825292564
1.825342109
1.825297179
1.825183716
1.824426231
1.819387216
1.801754468
1.760884095
1.692904039
1.610631345
1.512971694
1.428317308
1.355883901
1.270198323
1.217549261
1.169550096
1.107835399
1.075692962
1.05608412
1.019912047
1.003363821
0.9927986394
0.9656929881
0.9486665944
0.9430375299
0.9278808649
0.9135647309
0.9138133538
0.9117033091
0.9070458542
0.9062257416
0.9070383691
0.9059056883
0.9052698715
0.905976943
0.9059535242
0.9054563795
1.825280223
1.82539526
1.825447297
1.825422114
1.82522639
1.823802993
1.817238591
1.797592175
1.755585316
1.692970258
1.611491487
1.521307139
1.446711946
1.362828316
1.296568913
1.248011863
1.181095641
1.142668974
1.120065687
1.07787749
1.042185852
1.026077073
1.001221474
0.9725010552
0.9682097051
0.9583897042
0.9377437908
0.9341252554
0.9291297175
0.9143870998
0.9103607753
0.9100937058
0.9073151448
0.9051263416
0.9059206268
0.9057358802
0.9044935502
1.825017103
1.825490193
1.82563757
1.825574153
1.825441543
1.824999109
1.822949513
1.815135044
1.793608886
1.75199394
1.690599679
1.611677739
1.535961744
1.453263313
1.375259513
1.32757403
1.266493393
1.209891462
1.176180566
1.131054259
1.084969038
1.069918944
1.050549848
1.018550645
1.00493047
0.9921354744
0.9653242443
0.9537897977
0.9495443407
0.93573088
0.9268930033
0.9258907016
0.9198750148
0.9105081837
0.9100973843
0.9086063665
0.9051444557
1.825061347
1.825467497
1.825587981
1.825556848
1.825438541
1.825262684
1.824702729
1.822161355
1.813078104
1.790081562
1.748369787
1.685698594
1.615554981
1.542208392
1.459965611
1.399651459
1.336524966
1.269784374
1.237630633
1.202455947
1.15366261
1.128061425
1.101919865
1.057601479
1.034110482
1.02263096
0.9982514796
0.9775305585
0.9715424213
0.9594045367
0.9427539429
0.9416862373
0.9376232582
0.926182351
0.9221622359
0.9200731359
0.9127193722
1.824908342
1.825039627
1.825286319
1.825394716
1.825379044
1.825267128
1.825095484
1.824546609
1.821523386
1.810918933
1.786460761
1.743199459
1.68351335
1.617572185
1.541052291
1.476265005
1.417506278
1.343507154
1.299345324
1.261876209
1.206022544
1.172249722
1.149569919
1.108391995
1.080558506
1.069855117
1.047282631
1.018595155
1.005958886
0.9918638782
0.9647486991
0.9557297743
0.950554738
0.9363432006
0.929056003
0.9289897185
0.9241123128
1.82418951
1.824347443
1.824754442
1.825200593
1.825186028
1.825095415
1.825173992
1.825308273
1.824488274
1.820239431
1.807787292
1.781580489
1.738170876
1.683631608
1.615562411
1.546025966
1.489462631
1.420804744
1.365059802
1.324308507
1.263725943
1.221249158
1.201623579
1.16577734
1.128165726
1.110689786
1.086138576
1.049741546
1.03588425
1.025826912
1.002462719
0.9862999006
0.978488869
0.9610635575
0.944059405
0.9406790733
0.9349263884
1.824090123
1.824518849
1.824873744
1.824681347
1.824368018
1.824669039
1.825294599
1.825763285
1.82552641
1.823736105
1.818045417
1.804292332
1.776893927
1.7355418
1.681545976
1.616026895
1.557540165
1.4912893
1.426841772
1.387222483
1.335166518
1.281357343
1.252774482
1.214140733
1.166121752
1.14751722
1.128984903
1.093751432
1.076501586
1.064772074
1.039538341
1.016460327
1.007827539
0.9938861992
0.9736520644
0.9658439093
0.9586192534
1.827224542
1.826239474
1.824722878
1.823084843
1.823464465
1.824494155
1.826274163
1.826390641
1.825788521
1.824628732
1.822324482
1.816152311
1.801468349
1.773834524
1.733184897
1.677652606
1.621070338
1.562376906
1.493314789
1.444654671
1.394612319
1.334850205
1.303147227
1.271113968
1.221223208
1.195711124
1.175779663
1.136863831
1.109422506
1.095994379
1.072350288
1.044946218
1.035181437
1.02349287
1.000241379
0.9911553697
0.98527076
1.831467672
1.827275612
1.821774755
1.821388339
1.822854529
1.826112941
1.827755547
1.827202871
1.825863372
1.824771719
1.824043645
1.822068098
1.815481034
1.799482467
1.771604187
1.729411421
1.677104885
1.623938282
1.559656667
1.505446711
1.457902668
1.393540663
1.352508014
1.322666663
1.273904744
1.23968941
1.218648673
1.18156728
1.147582492
1.134439045
1.114285754
1.084372546
1.070329619
1.057240482
1.031430114
1.015166316
1.006948663
1.826404955
1.823622932
1.821205417
1.82170438
1.825026295
1.827574874
1.827904743
1.826985879
1.825511426
1.825047306
1.824977851
1.824461948
1.821890543
1.814064647
1.797147358
1.768321975
1.726144221
1.678821515
1.620836926
1.561682346
1.516241722
1.458317462
1.407582808
1.373810131
1.323277338
1.280046957
1.260770955
1.230398296
1.192685764
1.175000949
1.153618305
1.11798443
1.099537805
1.087750498
1.06432632
1.044496088
1.035455101
1.812655485
1.824218506
1.822561827
1.825200187
1.827817046
1.827587539
1.826799207
1.825792077
1.825385467
1.825398476
1.825552915
1.825448641
1.82459442
1.821320537
1.812565832
1.794898102
1.764513006
1.724749039
1.676764721
1.619044894
1.57068558
1.516342684
1.459780497
1.425415146
1.382036958
1.331515108
1.305442747
1.273854381
1.229440575
1.208482691
1.190537779
1.156276297
1.135462981
1.12423087
1.101940596
1.077335899
1.066102158
1.808367388
1.817965673
1.820856984
1.827091174
1.826560252
1.825174062
1.82512288
1.825269873
1.825281272
1.825312427
1.825378532
1.825463278
1.825372357
1.824323163
1.820492144
1.810934167
1.791845772
1.761398184
1.722402495
1.671646824
1.623187787
1.574435272
1.514668583
1.47343061
1.433079928
1.380513294
1.349886323
1.321344575
1.275094566
1.247949934
1.229878537
1.195909941
1.168363765
1.155260078
1.13363201
1.105383559
1.093193093
1.729832653
1.77097394
1.805633819
1.826440698
1.824547921
1.824575554
1.825570213
1.825468494
1.824604816
1.824406651
1.824596263
1.825106883
1.825857054
1.825677011
1.824252096
1.819628963
1.808800554
1.788367347
1.75880411
1.717765342
1.670612784
1.626039837
1.57068619
1.524153499
1.48489606
1.429861103
1.391983985
1.365788615
1.323032812
1.289409606
1.269490961
1.236202482
1.201808312
1.187348585
1.168161819
1.137752414
1.124379277
1.560675739
1.701163113
1.799675082
1.817971883
1.820410726
1.82573598
1.826706293
1.824793165
1.8234336
1.823522604
1.823875095
1.824807056
1.826176533
1.826435662
1.825948341
1.823965965
1.818454423
1.806337518
1.78562935
1.755148174
1.714306932
1.672709905
1.622352802
1.571732036
1.533913528
1.484203041
1.438993901
1.409751947
1.366425327
1.325606895
1.306236243
1.278420556
1.24141861
1.223863953
1.20539152
1.171955529
1.152530503
1.436414439
1.568098315
1.719567203
1.765778418
1.801005526
1.82613731
1.825633261
1.823339274
1.82310761
1.823050608
1.823312865
1.824366394
1.825989498
1.826334405
1.826453741
1.826001318
1.823451606
1.817038264
1.804162049
1.782999596
1.750952001
1.713768591
1.670830411
1.620074862
1.579660418
1.533356132
1.48388803
1.453813893
1.415874051
1.369399904
1.345078062
1.317702899
1.276577441
1.255690243
1.239219615
1.207178754
1.183834558
1.403492544
1.453448218
1.568316946
1.68958537
1.789563732
1.817988271
1.819290934
1.824218975
1.825402052
1.824192288
1.823345626
1.823346915
1.824581154
1.825163656
1.825406991
1.825398583
1.825225781
1.822547794
1.815427762
1.802009686
1.779520589
1.748468456
1.71211764
1.665903544
1.624273538
1.582378828
1.529948974
1.494679021
1.460233196
1.413046306
1.384652798
1.359333008
1.316552507
1.289134727
1.272836725
1.24243142
1.214157783
1.400172502
1.408971176
1.453571267
1.570102751
1.710956809
1.765073026
1.797384126
1.825033833
1.82523881
1.823191924
1.823495813
1.823692939
1.824229787
1.824141573
1.824287991
1.824663667
1.824797579
1.824504366
1.821388042
1.813686403
1.799318995
1.776217555
1.746725924
1.707579748
1.665462109
1.626874842
1.577786619
1.537567395
1.504208668
1.455484355
1.420795661
1.398014212
1.359711262
1.326560442
1.308869865
1.279979893
1.244821133
1.400009227
1.400895933
1.409802717
1.461432844
1.568010211
1.68476877
1.784751565
1.816827492
1.814949075
1.819018816
1.823776464
1.824939058
1.824869854
1.824268801
1.824220716
1.824493564
1.824640197
1.824390595
1.823467848
1.820007977
1.811860655
1.796513551
1.773913006
1.743240586
1.704656149
1.667759969
1.622685548
1.578263994
1.546282191
1.502542151
1.460830112
1.435757392
1.398791943
1.359220161
1.341493398
1.318025785
1.280712489
1.400005106
1.400054564
1.401119652
1.412795084
1.4568535
1.569791108
1.710779424
1.761554722
1.790597746
1.820257923
1.824490222
1.824500299
1.825508377
1.825065316
1.824582554
1.824541513
1.824562422
1.824535212
1.824196039
1.822833135
1.818858093
1.809940829
1.794255838
1.771351822
1.739144286
1.704760925
1.665926371
1.62010437
1.585440073
1.54578671
1.500292613
1.473617197
1.441725896
1.397182673
1.374368015
1.352878499
1.314543619
1.400005041
1.400006692
1.400083194
1.40163807
1.411675147
1.465079049
1.570790469
1.680890934
1.779181089
1.815168784
1.81481477
1.819230525
1.824894579
1.824847738
1.82433722
1.824614574
1.824686497
1.824592565
1.824447084
1.823875202
1.822152285
1.817690859
1.80817259
1.792294084
1.767978477
1.737234837
1.703623991
1.661352887
1.624407784
1.588601405
1.540808217
1.50851169
1.480690022
1.437556516
1.408936056
1.388812303
1.351286134
1.40000504
1.400005071
1.40000891
1.400132633
1.401545098
1.41507189
1.459515641
1.570002076
1.706438441
1.767681827
1.792522982
1.819513311
1.82349731
1.822417671
1.823239412
1.824640771
1.825335886
1.825200104
1.82497908
1.824554789
1.823649275
1.821555701
1.816572222
1.80661559
1.789825076
1.765109996
1.73632631
1.699758003
1.661090222
1.627954139
1.584429346
1.545838533
1.518211465
1.476308808
1.440192985
1.42200089
1.391472922
1.40000504
1.400005041
1.400005178
1.400011659
1.400136388
1.402140502
1.412981796
1.467660369
1.570179011
1.680624131
1.779835747
1.814933972
1.813303494
1.816663236
1.822741069
1.825060269
1.825366606
1.825678473
1.825660359
1.82545616
1.824783407
1.823456964
1.820929451
1.815459489
1.804943989
1.7871505
1.763429778
1.733840309
1.697208276
1.664071682
1.625208353
1.582542187
1.554598418
1.519070517
1.476015819
1.45362226
1.426665357
1.40000504
1.40000504
1.400005044
1.400005254
1.400012835
1.400193511
1.40181092
1.416420958
1.461031192
1.569624186
1.70506113
1.76998859
1.790483677
1.81173113
1.823478126
1.823261526
1.824008322
1.825633372
1.825922873
1.82589051
1.825614478
1.824797596
1.823332234
1.820475733
1.814509391
1.80315235
1.785168807
1.761689584
1.730277852
1.697713998
1.664063989
1.62097456
1.588333399
1.557586561
1.5141607
1.486527205
1.46309569
1.40000504
1.40000504
1.40000504
1.400005045
1.400005366
1.400016075
1.400170111
1.402445972
1.413748868
1.467889573
1.569904455
1.677668777
1.773630168
1.813691545
1.815619033
1.817015962
1.821817204
1.825460956
1.825990285
1.825898062
1.825743152
1.825562695
1.824862931
1.823360799
1.820164518
1.813535023
1.801360948
1.783583632
1.758878326
1.728247924
1.697961427
1.659707908
1.622996602
1.594020594
1.552522996
1.517269375
1.496318398
1.40000504
1.40000504
1.40000504
1.40000504
1.40000505
1.400005472
1.400015575
1.400235191
1.401998493
1.416949854
1.461448952
1.568311974
1.69998827
1.773337975
1.792964694
1.809075129
1.823259048
1.823935543
1.823712145
1.824677824
1.825698261
1.825623123
1.825477198
1.8249961
1.823528118
1.819957423
1.8125176
1.799899818
1.781628671
1.755929856
1.727911387
1.695072087
1.656751409
1.627827253
1.592863131
1.551791916
1.527618282
1.40000504
1.40000504
1.40000504
1.40000504
1.40000504
1.400005052
1.400005544
1.400020008
1.400202105
1.40268635
1.414454149
1.468746729
1.570640621
1.677628877
1.769934185
1.81295972
1.81793132
1.817512384
1.820317429
1.824098963
1.825243735
1.825305307
1.825471582
1.825649356
1.825249817
1.823556511
1.819436259
1.811342437
1.798453848
1.77890658
1.754060213
1.726522051
1.690851361
1.65912907
1.628729001
1.587787261
1.559300355
1.40000504
1.40000504
1.40000504
1.40000504
1.40000504
1.40000504
1.400005059
1.400005745
1.400019054
1.400283093
1.402235973
1.417888223
1.462845493
1.569469503
1.696607579
1.777814208
1.795108608
1.808196889
1.82192898
1.82332723
1.823077443
1.824014762
1.825130738
1.825687229
1.825845185
1.825361215
1.823371957
1.818702875
1.810182568
1.796527314
1.776312181
1.752776515
1.722712361
1.689980276
1.661798533
1.623883289
1.58952656
1.40000504
1.40000504
1.40000504
1.40000504
1.40000504
1.40000504
1.400005041
1.400005064
1.400005767
1.400024506
1.400237348
1.402941621
1.415263704
1.46976794
1.571359571
1.678956359
1.765349716
1.810096114
1.818633937
1.817682711
1.819866748
1.823729114
1.824579026
1.825032914
1.82570237
1.825827769
1.825163804
1.822839572
1.817766959
1.808835592
1.794180448
1.774665792
1.750321936
1.719266994
1.691622405
1.659370108
1.621895862
1.40000504
1.40000504
1.40000504
1.40000504
1.40000504
1.40000504
1.40000504
1.400005041
1.400005068
1.400005981
1.400021783
1.400319034
1.402416674
1.418541416
1.463606697
1.568829305
1.693887047
1.777199568
1.794397986
1.80825778
1.821532688
1.823259092
1.823102282
1.823892143
1.824988936
1.82563473
1.82558486
1.824760995
1.822071526
1.816717866
1.807148728
1.79222916
1.773070294
1.746800561
1.719132156
1.690880987
1.65429742
1.40000504
1.40000504
1.40000504
1.40000504
1.40000504
1.40000504
1.40000504
1.40000504
1.400005041
1.400005072
1.400005902
1.400027342
1.400260826
1.403083034
1.415693479
1.469286598
1.570766333
1.678219515
1.760290266
1.808267728
1.818752395
1.817803878
1.820038348
1.823892668
1.824926169
1.825143038
1.825315347
1.825031005
1.824011101
1.821224123
1.81565139
1.805587727
1.790988988
1.770466418
1.744779488
1.719331318
1.68630286
1.40000504
1.40000504
1.40000504
1.40000504
1.40000504
1.40000504
1.40000504
1.40000504
1.40000504
1.400005041
1.400005072
1.400006128
1.400023506
1.400340082
1.402515452
1.418687243
1.463959102
1.566907113
1.692105338
1.77844024
1.793481464
1.807221485
1.821090062
1.823801349
1.824015818
1.824683198
1.825104075
1.82479465
1.824477367
1.82355555
1.820848442
1.814858342
1.804578204
1.789424657
)
;

boundaryField
{
    inlet
    {
        type            calculated;
        value           nonuniform 0();
    }
    outlet
    {
        type            calculated;
        value           nonuniform 0();
    }
    bottom
    {
        type            calculated;
        value           nonuniform 0();
    }
    top
    {
        type            calculated;
        value           nonuniform 0();
    }
    obstacle
    {
        type            calculated;
        value           nonuniform List<scalar> 
20
(
0.8032938218
0.8028365015
0.8018962108
0.7998601897
0.7985661347
0.797792266
0.7971245797
0.7958657429
0.7955940747
0.7958588131
0.797098431
0.7996363252
0.803271646
0.8080064551
0.81401632
0.8213340456
0.8302002145
0.840153796
0.8509292003
0.8916542061
)
;
    }
    defaultFaces
    {
        type            empty;
    }
    procBoundary27to20
    {
        type            processor;
        value           nonuniform List<scalar> 
31
(
1.824109225
1.824220898
1.824363142
1.82449701
1.82456421
1.824838521
1.825066103
1.825139253
1.825053254
1.825206084
1.825249559
1.824855149
1.824424906
1.825247547
1.825098128
1.823958582
1.826282463
1.832306766
1.827721627
1.798188634
1.755451112
1.614719383
1.459252483
1.404333191
1.400025778
1.400005007
1.400005039
1.40000504
1.40000504
1.40000504
1.40000504
)
;
    }
    procBoundary27to21
    {
        type            processor;
        value           nonuniform List<scalar> 
36
(
1.378439269
1.370547741
1.370130868
1.374497251
1.379134831
1.377684972
1.377427614
0.8668351323
0.8901672012
0.9101257383
0.9241676376
0.9298599791
0.9306501215
0.9261105096
0.919116111
0.9127089704
0.9068516896
0.9036417306
0.9029283232
0.9005088606
0.8986235262
0.8982861632
0.8983106651
0.9005757371
0.9110802114
0.9593199027
1.090429104
1.26257951
1.353066374
1.370729143
1.372170856
1.377195511
1.377195511
0.8038582155
0.8222168895
0.8222168895
)
;
    }
    procBoundary27to26
    {
        type            processor;
        value           nonuniform List<scalar> 9(1.40000504 1.40000504 1.40000504 1.40000504 1.40000504 1.40000504 1.40000504 1.40000504 1.40000504);
    }
    procBoundary27to28
    {