/*--------------------------------*- C++ -*----------------------------------*\
  =========                 |
  \\      /  F ield         | OpenFOAM: The Open Source CFD Toolbox
   \\    /   O peration     | Website:  https://openfoam.org
    \\  /    A nd           | Version:  7
     \\/     M anipulation  |
\*---------------------------------------------------------------------------*/
FoamFile
{
    version     2.0;
    format      ascii;
    class       volScalarField;
    location    "3.9";
    object      rho;
}
// * * * * * * * * * * * * * * * * * * * * * * * * * * * * * * * * * * * * * //

dimensions      [1 -3 0 0 0 0 0];

internalField   nonuniform List<scalar> 
2223
(
1.595696442
1.561380343
1.520193318
1.40000504
1.40000504
1.40000504
1.400005041
1.400005363
1.400054904
1.403767233
1.488354061
2.109405535
2.650587745
2.789833111
2.856486499
2.862499168
2.837575736
2.807487394
2.78133321
2.743838955
2.701994425
2.636388468
2.555487616
2.477239998
2.388208857
2.308221813
2.238820248
2.165573125
2.07846308
2.011448378
1.9588981
1.901840049
1.84220052
1.794951484
1.75293612
1.705035467
1.662777925
1.627761179
1.592561251
1.549261275
1.40000504
1.40000504
1.40000504
1.40000504
1.400005058
1.400008894
1.40040405
1.416879362
1.693600518
2.416619972
2.729439555
2.850507819
2.857930999
2.84129969
2.825946733
2.809248876
2.768777475
2.728612938
2.671013186
2.594538848
2.517044695
2.427979807
2.349044731
2.280652323
2.20737377
2.117470477
2.05001657
1.996992576
1.938113634
1.878408835
1.829857772
1.785915868
1.735786431
1.692776848
1.657504642
1.621736059
1.577466046
1.40000504
1.40000504
1.40000504
1.40000504
1.400005041
1.400005334
1.400042255
1.402585288
1.474837462
2.045198326
2.57680898
2.831394739
2.85398776
2.840532367
2.823306857
2.815191257
2.783022174
2.75143023
2.705864793
2.634813449
2.558566695
2.470904144
2.39171503
2.323110184
2.248663231
2.15540468
2.086953191
2.033947463
1.974159028
1.915142183
1.866083927
1.821167307
1.768206958
1.724139065
1.688022548
1.650946815
1.605158027
1.40000504
1.40000504
1.40000504
1.40000504
1.40000504
1.400005056
1.400007723
1.400283477
1.413352167
1.654326289
2.265409311
2.7354561
2.853252181
2.844844926
2.830580412
2.816618056
2.79038231
2.775582437
2.743848173
2.674769199
2.597613928
2.511661131
2.433621443
2.366668616
2.291652886
2.195319099
2.126403276
2.0717392
2.008765487
1.949452759
1.900253453
1.855005823
1.800658759
1.755177769
1.717742147
1.679010306
1.631592458
1.40000504
1.40000504
1.40000504
1.40000504
1.40000504
1.400005041
1.400005147
1.400023033
1.401472992
1.451985512
1.850724855
2.441971854
2.829419472
2.83547506
2.82029647
2.810598719
2.802831093
2.801848612
2.774445729
2.708080861
2.635579164
2.553902202
2.473902971
2.406860684
2.331279469
2.233790522
2.166042851
2.111475906
2.046199561
1.985652935
1.935448583
1.889234301
1.832745179
1.787025498
1.748597103
1.707869979
1.658589907
1.40000504
1.40000504
1.40000504
1.40000504
1.40000504
1.40000504
1.400005042
1.400005592
1.400086105
1.405608536
1.521707497
2.002355578
2.700550364
2.814004708
2.793378057
2.809398336
2.822694206
2.829436262
2.79746822
2.732292312
2.669002148
2.596814459
2.517722058
2.4501613
2.372391655
2.274219154
2.207260368
2.151479115
2.083135218
2.020350155
1.969417686
1.923014213
1.865581159
1.819651286
1.780455236
1.738075147
1.687075105
1.40000504
1.40000504
1.40000504
1.40000504
1.40000504
1.40000504
1.40000504
1.400005049
1.400007424
1.400324562
1.416170669
1.621530566
2.326278354
2.754090191
2.788119532
2.819398624
2.845110875
2.850441399
2.81428216
2.754449105
2.699404783
2.632891129
2.556183996
2.491413216
2.413332105
2.315962187
2.24972672
2.1936414
2.124145309
2.058861827
2.005667129
1.95578174
1.895563955
1.850818438
1.811737127
1.768563098
1.717178454
1.40000504
1.40000504
1.40000504
1.40000504
1.40000504
1.40000504
1.40000504
1.400005041
1.400005122
1.400019691
1.401434383
1.446505819
1.857230218
2.587914234
2.759054511
2.820513628
2.853652553
2.853458044
2.819995745
2.770919392
2.72646541
2.66652721
2.59387171
2.533969881
2.456833962
2.359641896
2.290819342
2.233067551
2.163563472
2.098389407
2.045081877
1.991918031
1.928760207
1.883628707
1.843383459
1.798787857
1.746362633
1.40000504
1.40000504
1.40000504
1.40000504
1.40000504
1.40000504
1.40000504
1.40000504
1.400005047
1.400006128
1.400125492
1.406962116
1.544815397
2.246883744
2.673432101
2.805090731
2.850773781
2.848867819
2.820797987
2.784311548
2.747208056
2.694372394
2.628698762
2.574660475
2.500532371
2.405594249
2.333587324
2.273982359
2.201518503
2.134469536
2.081893665
2.026718585
1.962926682
1.917633226
1.876005326
1.830010986
1.776055259
1.40000504
1.40000504
1.40000504
1.40000504
1.40000504
1.40000504
1.40000504
1.40000504
1.400005041
1.400005143
1.400016815
1.400901343
1.431175389
1.826969794
2.503141109
2.76185032
2.850051447
2.846602151
2.826746098
2.800380235
2.771337611
2.723432308
2.664929567
2.612460759
2.539540538
2.447307929
2.374928501
2.315960601
2.24085475
2.171260701
2.119231936
2.063271053
2.00058519
1.953872469
1.909399982
1.860375112
1.803618708
1.40000504
1.40000504
1.40000504
1.40000504
1.40000504
1.40000504
1.40000504
1.40000504
1.40000504
1.400005047
1.40000606
1.400100861
1.405413793
1.533960141
2.175334192
2.632890937
2.830507889
2.835234001
2.817105492
2.805263511
2.786927216
2.749591315
2.704594832
2.650107624
2.574454393
2.484556695
2.413756569
2.356490537
2.279620998
2.20712757
2.154482992
2.09783792
2.03831487
1.991663783
1.945742022
1.894678526
1.833968047
1.40000504
1.40000504
1.40000504
1.40000504
1.40000504
1.40000504
1.40000504
1.40000504
1.40000504
1.40000504
1.400005091
1.400012368
1.400661091
1.425577735
1.757434558
2.36883957
2.777587112
2.821078179
2.801272419
2.791391016
2.786457148
2.772604973
2.745003254
2.687648288
2.606922874
2.516583172
2.448738322
2.395407377
2.320304748
2.247989073
2.193691055
2.133695074
2.074103874
2.027010771
1.980964769
1.928700331
1.866332625
1.40000504
1.40000504
1.40000504
1.40000504
1.40000504
1.40000504
1.40000504
1.40000504
1.40000504
1.40000504
1.400005041
1.400005327
1.40004867
1.402939448
1.485738147
1.95126215
2.563954672
2.832382468
2.813369068
2.789741134
2.790316111
2.789758123
2.77667577
2.720350188
2.639674198
2.549598165
2.480403559
2.429001673
2.357035495
2.288460893
2.235041592
2.172752696
2.111136258
2.061889437
2.015321011
1.960667873
1.89677096
1.40000504
1.40000504
1.40000504
1.40000504
1.40000504
1.40000504
1.40000504
1.40000504
1.40000504
1.40000504
1.40000504
1.400005045
1.400006376
1.400171471
1.410408673
1.581480013
2.142182855
2.748008425
2.815294762
2.792232594
2.795767265
2.798463696
2.795740812
2.74417752
2.667733064
2.582430817
2.513461258
2.46280121
2.394466962
2.329467394
2.275984074
2.212518304
2.148323605
2.096006192
2.048504703
1.990750374
1.928142903
1.40000504
1.40000504
1.40000504
1.40000504
1.40000504
1.40000504
1.40000504
1.40000504
1.40000504
1.40000504
1.40000504
1.40000504
1.400005063
1.400010069
1.400720881
1.428817889
1.731834115
2.457265705
2.758816119
2.772690354
2.795563395
2.814136878
2.806204326
2.756929739
2.687583577
2.611719928
2.547017379
2.496799859
2.432560147
2.369448611
2.313310677
2.24877349
2.183809705
2.129960465
2.081307673
2.018491031
1.958017246
1.40000504
1.40000504
1.40000504
1.40000504
1.40000504
1.40000504
1.40000504
1.40000504
1.40000504
1.40000504
1.40000504
1.40000504
1.400005042
1.400005229
1.400043079
1.402849368
1.483427868
1.985553748
2.638089984
2.752995513
2.816160221
2.836607625
2.815602495
2.765482636
2.704461967
2.638341301
2.579644087
2.531652952
2.472073474
2.409104645
2.348695599
2.280601762
2.213999957
2.16224947
2.114749233
2.049013864
1.992344749
1.40000504
1.40000504
1.40000504
1.40000504
1.40000504
1.40000504
1.40000504
1.40000504
1.40000504
1.40000504
1.40000504
1.40000504
1.40000504
1.400005058
1.400007792
1.40024646
1.413146701
1.614455126
2.361530599
2.69814059
2.803929928
2.830178838
2.816815852
2.774736079
2.726130093
2.667696271
2.610742081
2.565879346
2.511032307
2.447366309
2.383835786
2.31268519
2.241558916
2.191216474
2.145081274
2.07982026
2.027764288
1.40000504
1.40000504
1.40000504
1.40000504
1.40000504
1.40000504
1.40000504
1.40000504
1.40000504
1.40000504
1.40000504
1.40000504
1.40000504
1.400005042
1.400005292
1.400028156
1.401773989
1.451493284
1.94397067
2.569126537
2.752512506
2.813132815
2.810972787
2.783149839
2.748998487
2.697092891
2.642465856
2.599937412
2.546464196
2.480617732
2.415681122
2.344826998
2.271505444
2.221302958
2.174747883
2.111210086
2.063408547
1.40000504
1.40000504
1.40000504
1.40000504
1.40000504
1.40000504
1.40000504
1.40000504
1.40000504
1.40000504
1.40000504
1.40000504
1.40000504
1.40000504
1.400005058
1.400007151
1.40020666
1.409519246
1.589477489
2.292541508
2.659188836
2.813174583
2.808891976
2.79392385
2.776464774
2.727510114
2.675513155
2.634927959
2.57823593
2.507644179
2.442414592
2.374161425
2.302964401
2.253391906
2.20493385
2.141557087
2.095886404
1.40000504
1.40000504
1.40000504
1.40000504
1.40000504
1.40000504
1.40000504
1.40000504
1.40000504
1.40000504
1.40000504
1.40000504
1.40000504
1.40000504
1.400005041
1.400005158
1.400021201
1.401216558
1.440701841
1.875711132
2.44289233
2.782950187
2.81437411
2.800086338
2.78135167
2.745282185
2.704430698
2.66913975
2.608773784
2.532595855
2.467915149
2.401041488
2.333120256
2.286156573
2.236842553
2.172436412
2.126039105
1.40000504
1.40000504
1.40000504
1.40000504
1.40000504
1.40000504
1.40000504
1.40000504
1.40000504
1.40000504
1.40000504
1.40000504
1.40000504
1.40000504
1.40000504
1.400005043
1.400005699
1.400093108
1.405514551
1.537495918
2.078286873
2.616477686
2.816626862
2.81342564
2.794135951
2.75421881
2.72545976
2.698847352
2.636766493
2.557433888
2.495350893
2.42922334
2.364099297
2.319183276
2.269779379
2.205245224
2.156654832
1.40000504
1.40000504
1.40000504
1.40000504
1.40000504
1.40000504
1.40000504
1.40000504
1.40000504
1.40000504
1.40000504
1.40000504
1.40000504
1.40000504
1.40000504
1.40000504
1.400005051
1.400008288
1.400408806
1.419976536
1.674295871
2.240977342
2.769876438
2.815383565
2.796051116
2.760770175
2.749058962
2.728799001
2.662336256
2.582948121
2.525204865
2.460169965
2.397969475
2.352818457
2.301527776
2.23634627
2.186342855
1.40000504
1.40000504
1.40000504
1.40000504
1.40000504
1.40000504
1.40000504
1.40000504
1.40000504
1.40000504
1.40000504
1.40000504
1.40000504
1.40000504
1.40000504
1.40000504
1.40000504
1.400005109
1.400020779
1.401619992
1.454734014
1.811689461
2.554846569
2.789836849
2.775535607
2.769695943
2.773454917
2.755548655
2.685697132
2.607414907
2.553309158
2.491289919
2.432871349
2.387262415
2.333063512
2.264145212
2.212344462
1.40000504
1.40000504
1.40000504
1.40000504
1.40000504
1.40000504
1.40000504
1.40000504
1.40000504
1.40000504
1.40000504
1.40000504
1.40000504
1.40000504
1.40000504
1.40000504
1.40000504
1.400005043
1.400005574
1.400093086
1.406161707
1.522080976
2.119702237
2.707187623
2.748557878
2.775384662
2.792228926
2.773346276
2.706269588
2.634197567
2.581821821
2.521350483
2.466983368
2.421751902
2.36509116
2.292010153
2.237890291
1.40000504
1.40000504
1.40000504
1.40000504
1.40000504
1.40000504
1.40000504
1.40000504
1.40000504
1.40000504
1.40000504
1.40000504
1.40000504
1.40000504
1.40000504
1.40000504
1.40000504
1.400005041
1.400005075
1.400010405
1.40052922
1.422440813
1.693520091
2.469705322
2.699508236
2.771345481
2.798055738
2.779784515
2.722273915
2.662543428
2.613357457
2.553316688
2.500566578
2.454302561
2.39591533
2.320694471
2.264987516
1.40000504
1.40000504
1.40000504
1.40000504
1.40000504
1.40000504
1.40000504
1.40000504
1.40000504
1.40000504
1.40000504
1.40000504
1.40000504
1.40000504
1.40000504
1.40000504
1.40000504
1.40000504
1.400005044
1.400005478
1.40005164
1.403148297
1.475595259
2.064597646
2.585194595
2.750771505
2.792764579
2.777730637
2.73519554
2.69107233
2.643733059
2.584292623
2.533274137
2.485002833
2.424016818
2.34773091
2.292710618
1.40000504
1.40000504
1.40000504
1.40000504
1.40000504
1.40000504
1.40000504
1.40000504
1.40000504
1.40000504
1.40000504
1.40000504
1.40000504
1.40000504
1.40000504
1.40000504
1.40000504
1.40000504
1.40000504
1.400005075
1.400009488
1.400371096
1.41497481
1.669927029
2.347867744
2.682733736
2.795164301
2.782527896
2.750651367
2.713129593
2.66499466
2.612799948
2.565631418
2.51489656
2.451977703
2.375636852
2.32139939
1.40000504
1.40000504
1.40000504
1.40000504
1.40000504
1.40000504
1.40000504
1.40000504
1.40000504
1.40000504
1.40000504
1.40000504
1.40000504
1.40000504
1.40000504
1.40000504
1.40000504
1.40000504
1.40000504
1.400005042
1.400005357
1.400039477
1.402294674
1.466780359
1.983373833
2.487922566
2.774938867
2.790725014
2.768998812
2.737213624
2.686225977
2.64005063
2.59564584
2.542804938
2.478414555
2.402603781
2.349404263
1.40000504
1.40000504
1.40000504
1.40000504
1.40000504
1.40000504
1.40000504
1.40000504
1.40000504
1.40000504
1.40000504
1.40000504
1.40000504
1.40000504
1.40000504
1.40000504
1.40000504
1.40000504
1.40000504
1.40000504
1.400005052
1.400007078
1.400223473
1.410732251
1.608288991
2.15122425
2.666617063
2.792063003
2.780957714
2.757924144
2.705325147
2.667801361
2.626038497
2.568857267
2.50368937
2.430770784
2.378219011
1.40000504
1.40000504
1.40000504
1.40000504
1.40000504
1.40000504
1.40000504
1.40000504
1.40000504
1.40000504
1.40000504
1.40000504
1.40000504
1.40000504
1.40000504
1.40000504
1.40000504
1.40000504
1.40000504
1.40000504
1.40000504
1.400005094
1.400015577
1.40096658
1.436248498
1.745366439
2.338693858
2.772024355
2.784254305
2.761454341
2.721011253
2.700347003
2.659677992
2.594601745
2.529065562
2.460683131
2.408670554
1.40000504
1.40000504
1.40000504
1.40000504
1.40000504
1.40000504
1.40000504
1.40000504
1.40000504
1.40000504
1.40000504
1.40000504
1.40000504
1.40000504
1.40000504
1.40000504
1.40000504
1.40000504
1.40000504
1.40000504
1.40000504
1.400005041
1.400005268
1.400046889
1.403264793
1.481209328
1.890169088
2.626429258
2.762119531
2.749801645
2.740292881
2.735725044
2.694268802
2.621509069
2.555708736
2.490474439
2.437696635
1.40000504
1.40000504
1.40000504
1.40000504
1.40000504
1.40000504
1.40000504
1.40000504
1.40000504
1.40000504
1.40000504
1.40000504
1.40000504
1.40000504
1.40000504
1.40000504
1.40000504
1.40000504
1.40000504
1.40000504
1.40000504
1.40000504
1.400005046
1.400006318
1.400183545
1.410306219
1.564205082
2.258011384
2.684126309
2.725257159
2.748578571
2.761044295
2.721840687
2.647935998
2.584313887
2.521748955
2.467174685
1.40000504
1.40000504
1.40000504
1.40000504
1.40000504
1.40000504
1.40000504
1.40000504
1.40000504
1.40000504
1.40000504
1.40000504
1.40000504
1.40000504
1.40000504
1.40000504
1.40000504
1.40000504
1.40000504
1.40000504
1.40000504
1.40000504
1.400005041
1.400005111
1.400015943
1.40099128
1.434845987
1.806637725
2.520480136
2.690808032
2.762575704
2.771362724
2.734264131
2.669160407
2.6137101
2.554346545
2.496754768
1.40000504
1.40000504
1.40000504
1.40000504
1.40000504
1.40000504
1.40000504
1.40000504
1.40000504
1.40000504
1.40000504
1.40000504
1.40000504
1.40000504
1.40000504
1.40000504
1.40000504
1.40000504
1.40000504
1.40000504
1.40000504
1.40000504
1.40000504
1.400005047
1.400005992
1.400098271
1.405614736
1.52036426
2.183895383
2.592385661
2.747552476
2.767969385
2.740333553
2.689979085
2.639894756
2.58091722
2.525607404
1.40000504
1.40000504
1.40000504
1.40000504
1.40000504
1.40000504
1.40000504
1.40000504
1.40000504
1.40000504
1.40000504
1.40000504
1.40000504
1.40000504
1.40000504
1.40000504
1.40000504
1.40000504
1.40000504
1.40000504
1.40000504
1.40000504
1.40000504
1.400005041
1.400005119
1.400013938
1.400710191
1.424582866
1.773328897
2.387687734
2.696939818
2.763312802
2.747120424
2.710004884
2.664206809
2.605198846
2.554112567
1.40000504
1.40000504
1.40000504
1.40000504
1.40000504
1.40000504
1.40000504
1.40000504
1.40000504
1.40000504
1.40000504
1.40000504
1.40000504
1.40000504
1.40000504
1.40000504
1.40000504
1.40000504
1.40000504
1.40000504
1.40000504
1.40000504
1.40000504
1.40000504
1.400005044
1.400005669
1.400070888
1.403808888
1.502898426
2.047439516
2.532605152
2.753778411
2.751314243
2.72635751
2.686110992
2.627707484
2.583071278
1.40000504
1.40000504
1.40000504
1.40000504
1.40000504
1.40000504
1.40000504
1.40000504
1.40000504
1.40000504
1.40000504
1.40000504
1.40000504
1.40000504
1.40000504
1.40000504
1.40000504
1.40000504
1.40000504
1.40000504
1.40000504
1.40000504
1.40000504
1.40000504
1.40000504
1.400005064
1.400008996
1.400375832
1.416876844
1.659913709
2.183609706
2.690843346
2.749357571
2.737111784
2.701926697
2.648968037
2.616527426
1.40000504
1.40000504
1.40000504
1.40000504
1.40000504
1.40000504
1.40000504
1.40000504
1.40000504
1.40000504
1.40000504
1.40000504
1.40000504
1.40000504
1.40000504
1.40000504
1.40000504
1.40000504
1.40000504
1.40000504
1.40000504
1.40000504
1.40000504
1.40000504
1.40000504
1.400005041
1.400005154
1.400023912
1.401549252
1.450123968
1.774685995
2.416940432
2.736039866
2.731008668
2.699689321
2.671870188
2.653771642
1.40000504
1.40000504
1.40000504
1.40000504
1.40000504
1.40000504
1.40000504
1.40000504
1.40000504
1.40000504
1.40000504
1.40000504
1.40000504
1.40000504
1.40000504
1.40000504
1.40000504
1.40000504
1.40000504
1.40000504
1.40000504
1.40000504
1.40000504
1.40000504
1.40000504
1.40000504
1.400005042
1.400005511
1.400076308
1.404935553
1.498562771
1.967230569
2.646416123
2.697672432
2.693642975
2.697709839
2.689667327
1.40000504
1.40000504
1.40000504
1.40000504
1.40000504
1.40000504
1.40000504
1.40000504
1.40000504
1.40000504
1.40000504
1.40000504
1.40000504
1.40000504
1.40000504
1.40000504
1.40000504
1.40000504
1.40000504
1.40000504
1.40000504
1.40000504
1.40000504
1.40000504
1.40000504
1.40000504
1.40000504
1.400005053
1.400007592
1.400315381
1.414937299
1.60779563
2.340351498
2.640878828
2.694698418
2.727297914
2.719228758
1.40000504
1.40000504
1.40000504
1.40000504
1.40000504
1.40000504
1.40000504
1.40000504
1.40000504
1.40000504
1.40000504
1.40000504
1.40000504
1.40000504
1.40000504
1.40000504
1.40000504
1.40000504
1.40000504
1.40000504
1.40000504
1.40000504
1.40000504
1.40000504
1.40000504
1.40000504
1.40000504
1.400005041
1.400005201
1.400026576
1.401751076
1.44834568
1.898549086
2.50976483
2.672794124
2.735001336
2.729927924
1.40000504
1.40000504
1.40000504
1.40000504
1.40000504
1.40000504
1.40000504
1.40000504
1.40000504
1.40000504
1.40000504
1.40000504
1.40000504
1.40000504
1.40000504
1.40000504
1.40000504
1.40000504
1.40000504
1.40000504
1.40000504
1.40000504
1.40000504
1.40000504
1.40000504
1.40000504
1.40000504
1.40000504
1.400005056
1.400007058
1.400187416
1.40850075
1.56771354
2.229750259
2.586235139
2.724468654
2.728972946
1.40000504
1.40000504
1.40000504
1.40000504
1.40000504
1.40000504
1.40000504
1.40000504
1.40000504
1.40000504
1.40000504
1.40000504
1.40000504
1.40000504
1.40000504
1.40000504
1.40000504
1.40000504
1.40000504
1.40000504
1.40000504
1.40000504
1.40000504
1.40000504
1.40000504
1.40000504
1.40000504
1.40000504
1.400005042
1.40000521
1.400022323
1.401183318
1.437100601
1.844488451
2.39396466
2.689332514
2.728962059
1.40000504
1.40000504
1.40000504
1.40000504
1.40000504
1.40000504
1.40000504
1.40000504
1.40000504
1.40000504
1.40000504
1.40000504
1.40000504
1.40000504
1.40000504
1.40000504
1.40000504
1.40000504
1.40000504
1.40000504
1.40000504
1.40000504
1.40000504
1.40000504
1.40000504
1.40000504
1.40000504
1.40000504
1.40000504
1.400005049
1.400006223
1.400118338
1.406089228
1.536943128
2.064093572
2.549468763
2.725831387
1.40000504
1.40000504
1.40000504
1.40000504
1.40000504
1.40000504
1.40000504
1.40000504
1.40000504
1.40000504
1.40000504
1.40000504
1.40000504
1.40000504
1.40000504
1.40000504
1.40000504
1.40000504
1.40000504
1.40000504
1.40000504
1.40000504
1.40000504
1.40000504
1.40000504
1.40000504
1.40000504
1.40000504
1.40000504
1.40000504
1.400005081
1.400011514
1.400598754
1.422849673
1.681537587
2.202264637
2.68352135
1.40000504
1.40000504
1.40000504
1.40000504
1.40000504
1.40000504
1.40000504
1.40000504
1.40000504
1.40000504
1.40000504
1.40000504
1.40000504
1.40000504
1.40000504
1.40000504
1.40000504
1.40000504
1.40000504
1.40000504
1.40000504
1.40000504
1.40000504
1.40000504
1.40000504
1.40000504
1.40000504
1.40000504
1.40000504
1.40000504
1.400005041
1.400005209
1.400033371
1.402049873
1.457872346
1.791498308
2.46204997
1.40000504
1.40000504
1.40000504
1.40000504
1.40000504
1.40000504
1.40000504
1.40000504
1.40000504
1.40000504
1.40000504
1.40000504
1.40000504
1.40000504
1.40000504
1.40000504
1.40000504
1.40000504
1.40000504
1.40000504
1.40000504
1.40000504
1.40000504
1.40000504
1.40000504
1.40000504
1.40000504
1.40000504
1.40000504
1.40000504
1.40000504
1.400005043
1.400005747
1.400103231
1.406176678
1.512321564
2.03129535
1.40000504
1.40000504
1.40000504
1.40000504
1.40000504
1.40000504
1.40000504
1.40000504
1.40000504
1.40000504
1.40000504
1.40000504
1.40000504
1.40000504
1.40000504
1.40000504
1.40000504
1.40000504
1.40000504
1.40000504
1.40000504
1.40000504
1.40000504
1.40000504
1.40000504
1.40000504
1.40000504
1.40000504
1.40000504
1.40000504
1.40000504
1.40000504
1.400005065
1.400009462
1.400460318
1.419492324
1.64646493
1.40000504
1.40000504
1.40000504
1.40000504
1.40000504
1.40000504
1.40000504
1.40000504
1.40000504
1.40000504
1.40000504
1.40000504
1.40000504
1.40000504
1.40000504
1.40000504
1.40000504
1.40000504
1.40000504
1.40000504
1.40000504
1.40000504
1.40000504
1.40000504
1.40000504
1.40000504
1.40000504
1.40000504
1.40000504
1.40000504
1.40000504
1.40000504
1.400005043
1.400005371
1.400041209
1.402571239
1.460882265
1.40000504
1.40000504
1.40000504
1.40000504
1.40000504
1.40000504
1.40000504
1.40000504
1.40000504
1.40000504
1.40000504
1.40000504
1.40000504
1.40000504
1.40000504
1.40000504
1.40000504
1.40000504
1.40000504
1.40000504
1.40000504
1.40000504
1.40000504
1.40000504
1.40000504
1.40000504
1.40000504
1.40000504
1.40000504
1.40000504
1.40000504
1.40000504
1.400005041
1.400005071
1.400008448
1.40028674
1.411178497
1.40000504
1.40000504
1.40000504
1.40000504
1.40000504
1.40000504
1.40000504
1.40000504
1.40000504
1.40000504
1.40000504
1.40000504
1.40000504
1.40000504
1.40000504
1.40000504
1.40000504
1.40000504
1.40000504
1.40000504
1.40000504
1.40000504
1.40000504
1.40000504
1.40000504
1.40000504
1.40000504
1.40000504
1.40000504
1.40000504
1.40000504
1.40000504
1.40000504
1.400005042
1.400005302
1.400031195
1.401599869
1.40000504
1.40000504
1.40000504
1.40000504
1.40000504
1.40000504
1.40000504
1.40000504
1.40000504
1.40000504
1.40000504
1.40000504
1.40000504
1.40000504
1.40000504
1.40000504
1.40000504
1.40000504
1.40000504
1.40000504
1.40000504
1.40000504
1.40000504
1.40000504
1.40000504
1.40000504
1.40000504
1.40000504
1.40000504
1.40000504
1.40000504
1.40000504
1.40000504
1.40000504
1.400005052
1.400006729
1.400155834
1.40000504
1.40000504
1.40000504
1.40000504
1.40000504
1.40000504
1.40000504
1.40000504
1.40000504
1.40000504
1.40000504
1.40000504
1.40000504
1.40000504
1.40000504
1.40000504
1.40000504
1.40000504
1.40000504
1.40000504
1.40000504
1.40000504
1.40000504
1.40000504
1.40000504
1.40000504
1.40000504
1.40000504
1.40000504
1.40000504
1.40000504
1.40000504
1.40000504
1.40000504
1.40000504
1.400005094
1.400013061
1.40000504
1.40000504
1.40000504
1.40000504
1.40000504
1.40000504
1.40000504
1.40000504
1.40000504
1.40000504
1.40000504
1.40000504
1.40000504
1.40000504
1.40000504
1.40000504
1.40000504
1.40000504
1.40000504
1.40000504
1.40000504
1.40000504
1.40000504
1.40000504
1.40000504
1.40000504
1.40000504
1.40000504
1.40000504
1.40000504
1.40000504
1.40000504
1.40000504
1.40000504
1.40000504
1.400005041
1.400005238
1.40000504
1.40000504
1.40000504
1.40000504
1.40000504
1.40000504
1.40000504
1.40000504
1.40000504
1.40000504
1.40000504
1.40000504
1.40000504
1.40000504
1.40000504
1.40000504
1.40000504
1.40000504
1.40000504
1.40000504
1.40000504
1.40000504
1.40000504
1.40000504
1.40000504
1.40000504
1.40000504
1.40000504
1.40000504
1.40000504
1.40000504
1.40000504
1.40000504
1.40000504
1.40000504
1.40000504
1.400005044
1.40000504
1.40000504
1.40000504
1.40000504
1.40000504
1.40000504
1.40000504
1.40000504
1.40000504
1.40000504
1.40000504
1.40000504
1.40000504
1.40000504
1.40000504
1.40000504
1.40000504
1.40000504
1.40000504
1.40000504
1.40000504
1.40000504
1.40000504
1.40000504
1.40000504
1.40000504
1.40000504
1.40000504
1.40000504
1.40000504
1.40000504
1.40000504
1.40000504
1.40000504
1.40000504
1.40000504
1.400005041
1.40000504
1.40000504
1.40000504
1.40000504
1.40000504
1.40000504
1.40000504
1.40000504
1.40000504
1.40000504
1.40000504
1.40000504
1.40000504
1.40000504
1.40000504
1.40000504
1.40000504
1.40000504
1.40000504
1.40000504
1.40000504
1.40000504
1.40000504
1.40000504
1.40000504
1.40000504
1.40000504
1.40000504
1.40000504
1.40000504
1.40000504
1.40000504
1.40000504
1.40000504
1.40000504
1.40000504
1.40000504
1.40000504
1.40000504
1.40000504
1.40000504
1.40000504
1.40000504
1.40000504
1.40000504
1.40000504
1.40000504
1.40000504
1.40000504
1.40000504
1.40000504
1.40000504
1.40000504
1.40000504
1.40000504
1.40000504
1.40000504
1.40000504
1.40000504
1.40000504
1.40000504
1.40000504
1.40000504
1.40000504
1.40000504
1.40000504
1.40000504
1.40000504
1.40000504
1.40000504
1.40000504
1.40000504
1.40000504
1.40000504
1.40000504
1.40000504
1.40000504
1.40000504
1.40000504
1.40000504
1.40000504
1.40000504
1.40000504
1.40000504
1.40000504
1.40000504
1.40000504
1.40000504
1.40000504
1.40000504
1.40000504
1.40000504
1.40000504
1.40000504
1.40000504
1.40000504
1.40000504
1.40000504
1.40000504
1.40000504
1.40000504
1.40000504
1.40000504
1.40000504
1.40000504
1.40000504
1.40000504
1.40000504
1.40000504
1.40000504
1.40000504
1.40000504
1.40000504
1.40000504
1.40000504
1.40000504
1.40000504
1.40000504
1.40000504
1.40000504
1.40000504
1.40000504
1.40000504
1.40000504
1.40000504
1.40000504
1.40000504
1.40000504
1.40000504
1.40000504
1.40000504
1.40000504
1.40000504
1.40000504
1.40000504
1.40000504
1.40000504
1.40000504
1.40000504
1.40000504
1.40000504
1.40000504
1.40000504
1.40000504
1.40000504
1.40000504
1.40000504
1.40000504
)
;

boundaryField
{
    inlet
    {
        type            calculated;
        value           nonuniform 0();
    }
    outlet
    {
        type            calculated;
        value           nonuniform 0();
    }
    bottom
    {
        type            calculated;
        value           nonuniform 0();
    }
    top
    {
        type            calculated;
        value           nonuniform List<scalar> 
37
(
1.40000504
1.40000504
1.40000504
1.40000504
1.40000504
1.40000504
1.40000504
1.40000504
1.40000504
1.40000504
1.40000504
1.40000504
1.40000504
1.40000504
1.40000504
1.40000504
1.40000504
1.40000504
1.40000504
1.40000504
1.40000504
1.40000504
1.40000504
1.40000504
1.40000504
1.40000504
1.40000504
1.40000504
1.40000504
1.40000504
1.40000504
1.40000504
1.40000504
1.40000504
1.40000504
1.40000504
1.40000504
)
;
    }
    obstacle
    {
        type            calculated;
        value           nonuniform 0();
    }
    defaultFaces
    {
        type            empty;
    }
    procBoundary33to26
    {
        type            processor;
        value           nonuniform List<scalar> 
24
(
1.40000504
1.40000504
1.40000504
1.40000504
1.40000504
1.40000504
1.40000504
1.40000504
1.40000504
1.40000504
1.40000504
1.40000504
1.40000504
1.40000504
1.40000504
1.40000504
1.40000504
1.40000504
1.40000504
1.40000504
1.40000504
1.40000504
1.40000504
1.40000504
)
;
    }
    procBoundary33to27
    {
        type            processor;
        value           nonuniform List<scalar> 
38
(
1.563626459
1.530443599
1.49122173
1.40000504
1.40000504
1.40000504
1.400005069
1.40001206
1.400768517
1.429141773
1.72885952
2.544789319
2.753074047
2.804771573
2.839074303
2.852827644
2.833067903
2.799986539
2.765405283
2.724086634
2.673663088
2.60077261
2.516062904
2.435969162
2.346450382
2.264572193
2.195367142
2.123757518
2.039687585
1.973232185
1.92067182
1.864748203
1.805948172
1.759853053
1.718796844
1.672641412
1.630263752
1.630263752
)
;
    }
    procBoundary33to32
    {
        type            processor;
        value           nonuniform List<scalar> 
36
(
1.40000504
1.40000504
1.40000504
1.40000504
1.40000504
1.40000504
1.40000504
1.40000504
1.40000504
1.40000504
1.40000504
1.40000504
1.40000504
1.40000504
1.40000504
1.40000504
1.40000504
1.40000504
1.40000504
1.40000504
1.40000504
1.40000504
1.40000504
1.40000504
1.40000504
1.40000504
1.40000504
1.40000504
1.40000504
1.40000504
1.40000504
1.40000504
1.40000504
1.40000504
1.40000504
1.40000504
)
;
    }
    procBoundary33to34
    {
        type            processor;
        value           nonuniform List<scalar> 
61
(
1.48323595
1.511324682
1.539756279
1.567772323
1.594660655
1.621573739
1.649264227
1.678842696
1.707736427
1.736933122
1.764727014
1.793751066
1.826300203
1.857954444
1.891378117
1.923306756
1.957805967
1.992884863
2.027938639
2.059951846
2.088850566
2.117467094
2.146377634
2.173278794
2.199565654
2.226559547
2.255186172
2.284547634
2.313480532
2.343046945
2.372612598
2.401225072
2.429283738
2.456577412
2.485369927
2.513962937
2.54310339
2.574084021
2.60452598
2.634024642
2.660456155
2.679777972
2.69546558
2.70865925
2.715510059
2.715524174
2.700188249
2.624504026
2.363529856
1.951346342
1.602620483
1.446668009
1.407475688
1.40069255
1.400036592
1.400005957
1.400005083
1.400005044
1.400005041
1.40000504
1.40000504
)
;
    }
}


// ************************************************************************* //
