/*--------------------------------*- C++ -*----------------------------------*\
  =========                 |
  \\      /  F ield         | OpenFOAM: The Open Source CFD Toolbox
   \\    /   O peration     | Website:  https://openfoam.org
    \\  /    A nd           | Version:  7
     \\/     M anipulation  |
\*---------------------------------------------------------------------------*/
FoamFile
{
    version     2.0;
    format      ascii;
    class       volScalarField;
    location    "3.8";
    object      T;
}
// * * * * * * * * * * * * * * * * * * * * * * * * * * * * * * * * * * * * * //

dimensions      [0 0 0 1 0 0 0];

internalField   nonuniform List<scalar> 
2222
(
1.012758596
1.012585405
1.01290897
1.01262465
1.012658894
1.012705083
1.0118543
1.0117403
1.01182979
1.01185165
1.011908791
1.011918341
1.011884113
1.012007648
1.012143324
1.012268068
1.012377619
1.012289577
1.012112706
1.01204583
1.011737313
1.011874081
1.011896812
1.012022782
1.011979734
1.011631165
1.011825898
1.012077104
1.012750054
1.013253566
1.013238635
1.012918164
1.012977067
1.012974424
1.012925754
1.013058953
1.013013387
1.012998375
1.011533787
1.011644788
1.01189977
1.011916054
1.011797979
1.012042159
1.012125137
1.012223045
1.012182519
1.012261051
1.012408361
1.012477689
1.012286496
1.012339861
1.012423599
1.012429368
1.012140349
1.012148909
1.012414546
1.01237855
1.012493214
1.012213582
1.012021866
1.011798035
1.011698853
1.011849081
1.012460069
1.013037142
1.013100735
1.012962921
1.013236233
1.013072453
1.013341803
1.013303893
1.013174136
1.011861042
1.011956624
1.012055512
1.011985342
1.012048224
1.012373883
1.012507992
1.012568638
1.012520401
1.012537611
1.012674602
1.012738325
1.012709072
1.012731993
1.01292212
1.012991169
1.012844586
1.012674746
1.012607852
1.012833211
1.012575249
1.012422915
1.01257452
1.012035148
1.011876631
1.011560748
1.011748523
1.012310131
1.012928411
1.012986079
1.013105889
1.013248857
1.013362533
1.013384013
1.013371014
1.012074551
1.012166694
1.012172846
1.012145011
1.012223244
1.012515843
1.012618657
1.012697332
1.012719577
1.012750208
1.012885594
1.012947478
1.012980258
1.013033437
1.013227517
1.013307046
1.013252655
1.013156428
1.013055376
1.013277694
1.013110904
1.012970738
1.012627905
1.012412506
1.012282454
1.011754108
1.011609699
1.011623791
1.01200066
1.012434746
1.012491406
1.01284863
1.01298267
1.013324076
1.013464069
1.0117938
1.011975936
1.01202218
1.012090466
1.012282612
1.012392081
1.01235124
1.012399617
1.012475299
1.012655188
1.012831734
1.012891811
1.013032669
1.013182975
1.013309943
1.013477735
1.013454909
1.013379941
1.01336661
1.013417443
1.013373397
1.013314016
1.013077443
1.012918424
1.012419845
1.012157056
1.011715729
1.011442385
1.011470079
1.011538218
1.011736305
1.011793485
1.012087981
1.012549616
1.012912228
1.011269306
1.011585852
1.011639596
1.011550261
1.01163343
1.011817019
1.011854877
1.01193736
1.011945329
1.012065111
1.012317305
1.012466343
1.012575918
1.012748909
1.012976529
1.013302861
1.013436888
1.013440729
1.013522596
1.01344203
1.013372178
1.013351173
1.013285008
1.013170811
1.012696163
1.012198079
1.011898197
1.011463703
1.011259778
1.011262644
1.011284035
1.01115759
1.011366901
1.011558274
1.011789414
1.010958794
1.011259746
1.011277161
1.010892553
1.0108117
1.011084999
1.01125937
1.011317539
1.011262707
1.011282485
1.011537318
1.0118035
1.011976744
1.012060433
1.012211246
1.012435385
1.012770452
1.012912834
1.012974221
1.013033398
1.012935394
1.013047937
1.013218931
1.013190887
1.012857199
1.012394476
1.012090615
1.011574122
1.011203608
1.011108304
1.011087147
1.011195617
1.011188292
1.011136918
1.011124437
1.010912175
1.011007199
1.010939077
1.010544158
1.010622455
1.010724808
1.010778033
1.010786002
1.010755551
1.010762887
1.010966051
1.011251107
1.011499363
1.011584691
1.011541912
1.011482808
1.011642089
1.011700328
1.011762513
1.01189875
1.01202942
1.012319842
1.012507812
1.012721649
1.012587702
1.012478993
1.012158929
1.01167199
1.011247645
1.011109822
1.011125357
1.01132004
1.011222962
1.011111701
1.011055771
1.010935688
1.010875613
1.010724584
1.010592484
1.010732993
1.010810754
1.010686249
1.010479819
1.01039006
1.010585745
1.010808516
1.011064311
1.011270338
1.011287347
1.011251865
1.011135434
1.010925299
1.010801071
1.010848374
1.010756618
1.010945488
1.011151941
1.011323588
1.011512788
1.011621845
1.012035188
1.011798842
1.011657328
1.011301864
1.011238862
1.011253046
1.011181579
1.011225666
1.011220448
1.010953099
1.01081948
1.010796771
1.010684936
1.010666562
1.010853727
1.011001185
1.010848261
1.010539357
1.010525378
1.010738288
1.010979157
1.011250578
1.0113769
1.011365641
1.011210813
1.01105402
1.010771039
1.010403814
1.010126943
1.010107052
1.010190713
1.010319083
1.010444026
1.010432139
1.010561925
1.01100128
1.01116792
1.011372357
1.011299417
1.011295248
1.011289865
1.011283683
1.011419779
1.011342933
1.010625038
1.010532714
1.010597821
1.010608103
1.0106059
1.010774786
1.010951497
1.010769333
1.010735056
1.01073487
1.010917158
1.011156599
1.011434656
1.011565208
1.011599205
1.01148423
1.011072646
1.01072158
1.010347584
1.010093235
1.009957969
1.009985798
1.010023493
1.009871351
1.009822979
1.009887302
1.010093154
1.010481403
1.010773721
1.011030909
1.011095885
1.011185193
1.011260244
1.011356875
1.011244021
1.010300596
1.010206652
1.010237111
1.010342561
1.010341348
1.010452388
1.010738495
1.010738027
1.010751814
1.010779676
1.01099351
1.011202403
1.0114132
1.011582527
1.011582884
1.011555822
1.011511325
1.011143915
1.010702921
1.010333108
1.009987175
1.009826814
1.009804673
1.009637239
1.009522657
1.009536648
1.009770777
1.00985148
1.010118074
1.010474899
1.010680061
1.010865721
1.011061133
1.011207514
1.011085
1.010014819
1.009902012
1.009750512
1.00978305
1.009636828
1.009930991
1.010442424
1.010591482
1.010528009
1.010602547
1.010925503
1.011089908
1.0112069
1.01131431
1.01142452
1.011418996
1.011458263
1.01131299
1.011024949
1.0107911
1.010588792
1.010262323
1.00987464
1.009715229
1.009474458
1.009422941
1.009489188
1.009515167
1.009614021
1.009932629
1.010192302
1.010350713
1.01045636
1.010657196
1.010742933
1.009660454
1.009499447
1.009132405
1.008972471
1.008977055
1.009456431
1.009906335
1.010096581
1.010069561
1.010143712
1.010287537
1.010393962
1.010570992
1.010899934
1.011144257
1.011175983
1.011203434
1.011125488
1.010929647
1.010746459
1.010723354
1.010532691
1.010264481
1.010044996
1.009820978
1.00972852
1.009466542
1.009260979
1.009298793
1.009514563
1.009659959
1.009741343
1.009781662
1.009777224
1.010017338
1.009224404
1.008982637
1.008565371
1.008378743
1.0087009
1.009200593
1.009371847
1.00935292
1.009406866
1.009308539
1.0091441
1.009247299
1.009484069
1.00994656
1.01031947
1.010443208
1.010497095
1.010676851
1.010653906
1.010482294
1.010427742
1.010242893
1.010035975
1.009795507
1.009631494
1.009531167
1.009409274
1.009183065
1.009063794
1.009066686
1.009155492
1.009105645
1.009090838
1.008943942
1.009048996
1.008676072
1.008473956
1.008237502
1.008072486
1.008469785
1.008882496
1.008913613
1.008793804
1.008696802
1.008516622
1.008438218
1.008447612
1.008567426
1.008775915
1.009036607
1.00912781
1.009185847
1.009412929
1.009668114
1.00983305
1.009830279
1.009761767
1.009622073
1.009428828
1.009298535
1.009181434
1.009051009
1.0087332
1.008654294
1.008541322
1.008561432
1.008397484
1.008364199
1.008235502
1.0081272
1.00813879
1.0079875
1.007802853
1.007667779
1.007595127
1.00805433
1.008447168
1.008476353
1.008202567
1.007975204
1.007843295
1.00787658
1.00786166
1.007904338
1.007884998
1.007832681
1.007803016
1.007746333
1.007853108
1.008171221
1.008529187
1.008694603
1.008765458
1.008796638
1.008692829
1.008515269
1.008369031
1.008264264
1.008075757
1.007941791
1.00784484
1.007764761
1.007593833
1.007526925
1.00747597
1.007288606
1.007215354
1.007127786
1.006751117
1.006755472
1.006817339
1.007276187
1.007656927
1.007685211
1.007601379
1.007451378
1.007441471
1.007541199
1.007458207
1.007259118
1.007115635
1.006976959
1.006740233
1.006561237
1.006512926
1.00676191
1.007030036
1.007262258
1.007474454
1.007586811
1.007490575
1.00730312
1.00715914
1.006980335
1.006870321
1.00675921
1.006814627
1.006731107
1.006717806
1.00660256
1.006547066
1.006403793
1.006298297
1.006175145
1.005586717
1.005325071
1.005426988
1.005831139
1.006236805
1.006508665
1.006593823
1.006623886
1.006730541
1.007034972
1.007203375
1.007062823
1.006634616
1.006159101
1.005836561
1.005641565
1.00553379
1.00554991
1.005692225
1.005855069
1.006133114
1.006253167
1.006151567
1.006029175
1.005914474
1.005686303
1.005557203
1.005421486
1.00545246
1.005569239
1.005672013
1.005595329
1.00552045
1.005419408
1.005215659
1.005133028
1.004319612
1.00365112
1.003584302
1.003879643
1.004318007
1.004612724
1.004898146
1.005281432
1.005620116
1.006030696
1.006366181
1.006473537
1.00631787
1.005832717
1.00518064
1.004703198
1.004444686
1.004393814
1.004425803
1.004499326
1.004734999
1.004859213
1.00483764
1.00474044
1.004623713
1.00442025
1.004276358
1.00420651
1.004187002
1.004326533
1.004467632
1.004511144
1.004442341
1.004338215
1.00419987
1.004035334
1.002982663
1.001980901
1.001907264
1.002297928
1.002690086
1.00289587
1.003116108
1.003392742
1.003950201
1.004614056
1.005126253
1.005274337
1.005227048
1.005077336
1.004701534
1.004239352
1.0036492
1.00313422
1.003064773
1.003140542
1.003281963
1.003391404
1.003409429
1.003325338
1.003218346
1.003078817
1.002945512
1.002889943
1.002875652
1.003067986
1.00318656
1.003287105
1.003271273
1.00319513
1.002773095
1.002569453
1.00186646
1.000762261
1.000313466
1.000731618
1.001057552
1.001239821
1.001476378
1.001745759
1.002084143
1.002535289
1.003171535
1.003616206
1.003709301
1.003647386
1.003546262
1.003419549
1.003193355
1.002565153
1.001901466
1.001700619
1.001744017
1.001854931
1.001920382
1.001984187
1.002015011
1.002010854
1.001957742
1.00190572
1.001799775
1.001819401
1.001886501
1.002107712
1.002242432
1.002250522
1.000972775
1.000563397
1.000125087
0.9996406083
0.9992943572
0.9997157649
0.9998396507
0.9998407594
0.9998636357
1.000010696
1.000238433
1.000586073
1.00107163
1.001554047
1.001864912
1.002005102
1.002072765
1.002019921
1.001992796
1.001916699
1.001500447
1.000899345
1.000681849
1.000718718
1.000802696
1.000901156
1.000908654
1.000926497
1.000979611
1.001065527
1.001102033
1.001011615
1.000960254
1.001146275
1.001287536
0.9990456055
0.9991066007
0.9986558232
0.9984034852
0.9981620715
0.9982803583
0.9988760031
0.9991351491
0.9991447024
0.9988975563
0.9985555049
0.998418464
0.9986952755
0.9990987633
0.9995757843
0.9999150006
1.000071299
1.000270656
1.000451385
1.000567929
1.000628082
1.000612342
1.00024873
0.9998962173
0.9997979651
0.9997720274
0.9997427101
0.9995911817
0.9996142197
0.9997340816
0.9998925009
1.000065171
1.000128377
1.000150784
1.000207787
1.000254314
0.9975652174
0.9975851657
0.9969999876
0.9967205434
0.9967295014
0.9969473479
0.9976468249
0.9981133609
0.9982584077
0.9983110098
0.9980845549
0.9975626666
0.997125307
0.9973715391
0.997875113
0.9981951596
0.9982610897
0.9984252691
0.9986434617
0.9988972723
0.9992551541
0.9993351333
0.9991668486
0.9989119258
0.9987846742
0.9987582887
0.9985676812
0.9984182712
0.9983784495
0.9984539081
0.9986753961
0.9989509373
0.999017177
0.9991927706
0.9992722575
0.9992706318
0.9962555238
0.9961235476
0.9954842504
0.9951292525
0.9951997805
0.9955436951
0.9964381139
0.9969900083
0.9972192642
0.9972317005
0.9972627122
0.9972183222
0.9967581786
0.996247029
0.9963803507
0.9966266401
0.9966660536
0.9968110541
0.997074161
0.9974263579
0.9978480488
0.9980401035
0.9980143039
0.9979054727
0.9978182503
0.9977324214
0.9975408457
0.997342513
0.997236542
0.9972968282
0.9974797369
0.9977678926
0.9979937808
0.9982420608
0.9983363364
0.9983391423
0.9950471262
0.9948914265
0.994273608
0.9938480467
0.9938908367
0.9941674084
0.9950125942
0.9956060939
0.9959365075
0.9961469891
0.9963044587
0.9964507096
0.9964690887
0.9960478577
0.9955639114
0.9955241361
0.9955946418
0.9956903919
0.9960068774
0.9964230588
0.996796125
0.9970744694
0.9970879414
0.997178009
0.9971231812
0.9968783314
0.9966781525
0.9964688473
0.9963473213
0.9963923376
0.9965259795
0.9967200953
0.9970102912
0.9973204974
0.9974514803
0.9974904242
0.9942326879
0.9939336077
0.9932546984
0.9928110438
0.9928181375
0.9931275845
0.9937704177
0.9942227074
0.9945628955
0.994878602
0.9952709263
0.9957279983
0.996016871
0.9960170995
0.995613604
0.9951947069
0.9950656987
0.9950538905
0.995285075
0.9957113808
0.9960692134
0.9963500377
0.9966259276
0.9968373619
0.9966614324
0.9963105236
0.9960071625
0.9958216294
0.9957120887
0.9957204188
0.995807441
0.9959702822
0.9962899057
0.9965658121
0.9967188804
0.9967632112
0.9940700517
0.9938270668
0.9931283961
0.9923802471
0.9921328821
0.9924510793
0.9929372187
0.9932595013
0.9935743098
0.9939565501
0.9943810212
0.9948703918
0.9953983882
0.9957263916
0.9957959975
0.9956896038
0.9955096248
0.9952182412
0.995122864
0.9953346616
0.9956732294
0.9959504409
0.996190164
0.9963155865
0.9961525337
0.9958766073
0.9957096596
0.9956510861
0.9956057027
0.9955678951
0.9955298585
0.9955420847
0.9957990748
0.996010483
0.9961728351
0.9962404157
0.9935778261
0.9940580778
0.9938584739
0.9933415032
0.9927417001
0.9920880253
0.9923247119
0.9925359237
0.992697351
0.9929650507
0.9933264345
0.9937133063
0.9941843611
0.9947449619
0.9953327603
0.9957002077
0.9958969714
0.9959841936
0.9958685347
0.9956425985
0.9954152742
0.995545142
0.9956642818
0.9957247744
0.9958872556
0.9958598966
0.9957415197
0.9956715134
0.9957317847
0.9958041758
0.9958490247
0.9958438251
0.9957452119
0.9957117809
0.9958003631
0.9959684703
0.9960664097
0.993527628
0.9937490499
0.9934733932
0.9930920206
0.9928556888
0.9925859313
0.9928662025
0.9927683819
0.9925392508
0.9927163574
0.9930217885
0.9933216868
0.9937675041
0.994417069
0.995020386
0.9955143842
0.9958911512
0.996127594
0.9961713431
0.9960672564
0.9957376182
0.9955542062
0.9955452419
0.9955399253
0.9956298227
0.9956967821
0.9957082767
0.9957189638
0.9957346806
0.9958354924
0.9959399864
0.9960280146
0.9961099569
0.9960945923
0.9961537913
0.996180691
0.9962291368
0.9934758289
0.9934578199
0.9930554134
0.9927290827
0.9927858965
0.9928430297
0.9933601914
0.9934918133
0.993382223
0.99328032
0.9932693436
0.9933219022
0.993742843
0.994379334
0.9948948566
0.9953570848
0.9958476491
0.9960189983
0.9960487979
0.9959539826
0.9957757179
0.9954492139
0.9953768335
0.9953428141
0.9953998549
0.9955199843
0.9956276415
0.9956956049
0.9957418243
0.9958136529
0.9959375634
0.9961270532
0.9962815167
0.9963365572
0.9964832843
0.9964519068
0.9964206341
0.9934294193
0.993298643
0.9928904059
0.9925233994
0.9926534483
0.9929903368
0.9935971932
0.9941157709
0.994365751
0.9944594096
0.9944328275
0.9943551962
0.9943792673
0.9945793075
0.9949518795
0.9953653256
0.9954847129
0.9955916914
0.9956504676
0.9956300094
0.995569321
0.9953043048
0.9951672682
0.9951152514
0.9951555119
0.9953172009
0.995497467
0.9956012351
0.9956930854
0.9957596607
0.995874555
0.9960273326
0.9961910131
0.9963306069
0.9965274185
0.9965749795
0.9965415617
0.9934858882
0.9932961116
0.9928562855
0.9924985863
0.9925555535
0.9929333214
0.9936190872
0.9943642063
0.9949325526
0.9952491874
0.9953828124
0.9954074715
0.9952991416
0.9950998761
0.9951043355
0.9951816475
0.9951531063
0.9951980292
0.9952555355
0.9952790842
0.9952746579
0.9951527907
0.9950220189
0.9949616924
0.9949852129
0.9951672525
0.9953784396
0.9955062173
0.9955928107
0.9956785534
0.9957997263
0.9959075356
0.9960864992
0.9962903952
0.9964500482
0.9965473967
0.9966127992
0.9937704462
0.9937756693
0.9934071935
0.9929785661
0.9928587463
0.9929852214
0.9936861596
0.9944195635
0.9950771894
0.9955378039
0.9958267286
0.9959498571
0.9958706153
0.9955999711
0.9952596689
0.9950590689
0.9950045054
0.9950311991
0.9950945735
0.9951362004
0.9950949157
0.9951572838
0.9950574718
0.9950077457
0.9950468293
0.9951957855
0.9953722535
0.9955078127
0.9955580761
0.9956716073
0.9958171535
0.9959225969
0.9961099974
0.9963226323
0.9964216792
0.9965468652
0.996692412
0.9947259893
0.9947920177
0.9944440417
0.9940910197
0.99374756
0.9936291795
0.994117251
0.9946388885
0.9952188604
0.9956749503
0.9959744836
0.9961440054
0.9962352638
0.9961074
0.9957036471
0.9953810796
0.9952112057
0.9952473207
0.9953383114
0.995376344
0.9954588365
0.9956642863
0.995781221
0.9958537036
0.9958836122
0.9958153088
0.9958273752
0.9958925496
0.9958371966
0.9959358585
0.9960873074
0.99618792
0.9963570713
0.9965478837
0.9965833511
0.9967488012
0.9969451537
0.9955932398
0.9957553321
0.995677119
0.99518371
0.9949014755
0.9945757082
0.9945438021
0.994925713
0.9951755959
0.9955874644
0.9959732186
0.9962461149
0.9964503532
0.9966188844
0.9966919364
0.9966061748
0.9963609614
0.9960165233
0.9958894553
0.9959377035
0.9960906701
0.9964080001
0.9967918742
0.9972276339
0.9974926526
0.997445617
0.9971250431
0.9968703623
0.9968512878
0.9967733272
0.9968324284
0.9969073161
0.9970116178
0.9971055266
0.9971600355
0.997149454
0.9973326647
0.9967980865
0.9968288162
0.9966555078
0.9960610244
0.9957938904
0.9955096123
0.9956599258
0.9960555032
0.9962429446
0.9965203672
0.9968422082
0.9970469923
0.9972043115
0.9974062723
0.99757119
0.9977158026
0.9976290379
0.9974219176
0.9972122146
0.9972280828
0.9976221597
0.998098221
0.998541381
0.9989352827
0.9990886341
0.9989520042
0.9986205551
0.9982786815
0.9981763746
0.998164941
0.9982558005
0.9983255592
0.9984402911
0.9984936751
0.9983904714
0.9983136038
0.9984249226
0.9985074523
0.9984145888
0.9981358974
0.9975200438
0.9971947896
0.9970425856
0.9973738795
0.9978280547
0.9980836822
0.9984431475
0.9987066659
0.9987422285
0.9987538992
0.9988263036
0.9989573778
0.9991486772
0.9992678464
0.999265064
0.9993092916
0.9994773414
0.9999396153
1.000281967
1.000595109
1.000840047
1.000855201
1.000655777
1.000384882
1.000099507
0.9999706694
0.9999872667
1.000104344
1.000256215
1.000424692
1.000494422
1.000394562
1.000246229
1.000210914
1.001255998
1.001158072
1.000839637
1.000281284
0.9998439255
0.9998462469
1.000297182
1.000760477
1.000926958
1.001279137
1.0015195
1.001533591
1.001386569
1.001234354
1.001212437
1.001371394
1.001592464
1.001797316
1.002086811
1.002371101
1.002689795
1.00290272
1.00301046
1.003055716
1.002930489
1.00277291
1.002625175
1.002475098
1.002370725
1.002400632
1.002505963
1.002704202
1.002917328
1.003008494
1.003008618
1.002880925
1.002773959
1.00511946
1.005048264
1.004746175
1.004231843
1.003853914
1.003767183
1.00416773
1.004574344
1.004757401
1.004989515
1.00504309
1.004968466
1.004714789
1.004472334
1.004479415
1.00466121
1.004991211
1.005372113
1.005771973
1.006002972
1.006012562
1.006008069
1.005902134
1.005761645
1.005616006
1.005542883
1.005576574
1.005512022
1.005433046
1.005496656
1.005575601
1.005755578
1.005958748
1.006030531
1.006117531
1.006025911
1.005938322
1.009978061
1.009853685
1.009490057
1.008977043
1.008512157
1.008299652
1.008593807
1.00885359
1.009037402
1.009282211
1.00929489
1.009128358
1.00887937
1.008648877
1.008710391
1.009071511
1.009647581
1.010051831
1.010232822
1.010204511
1.009972587
1.009741151
1.009491902
1.009200654
1.009091926
1.009109678
1.009276078
1.009292171
1.009227226
1.009324457
1.009389997
1.009504106
1.009660141
1.009706125
1.009815538
1.009750871
1.00969845
1.015549787
1.015516115
1.015287111
1.014778602
1.01425253
1.013758165
1.01340074
1.013565215
1.013677513
1.013809799
1.014050596
1.014114263
1.013972708
1.013852124
1.013819264
1.014020696
1.014470882
1.015030697
1.015332563
1.015334114
1.015104518
1.014730234
1.0142823
1.013897215
1.013575022
1.013421334
1.013493248
1.01371673
1.013807151
1.013784711
1.013881052
1.013958468
1.013989981
1.014068677
1.014097281
1.01415832
1.014094513
1.014063965
1.021280321
1.021207903
1.020893265
1.020254509
1.019764414
1.01935731
1.018983812
1.019039595
1.019007957
1.019099815
1.019390325
1.019506832
1.019463772
1.019481254
1.019603267
1.019881937
1.020272707
1.020587376
1.020831648
1.02081716
1.0205662
1.02017463
1.01969524
1.019230342
1.018909447
1.01871612
1.018788448
1.018911553
1.018998981
1.019044932
1.019119344
1.019193868
1.019179275
1.019158734
1.019161945
1.019093542
1.018999833
1.018962781
1.027110589
1.026963705
1.026592091
1.025930893
1.025512981
1.025225518
1.024974366
1.025008133
1.024833647
1.024889724
1.025246548
1.025479091
1.025670102
1.025844384
1.026017634
1.026142757
1.026173807
1.026226566
1.026386818
1.026371114
1.026259359
1.025980849
1.025701847
1.025362593
1.025135486
1.024907389
1.024862774
1.024781807
1.024828095
1.024903933
1.024938275
1.024960226
1.024969284
1.024856977
1.024797631
1.024637313
1.024558534
1.024516313
1.032948413
1.032769201
1.032418232
1.031843463
1.031399559
1.031071404
1.030955505
1.031350485
1.031189546
1.03122592
1.031554251
1.031813357
1.032114767
1.03219343
1.032129912
1.032008046
1.031898431
1.031939615
1.032054556
1.032113158
1.032100306
1.032058317
1.031939428
1.031748624
1.031648032
1.031513869
1.031340084
1.03120876
1.03117465
1.031196095
1.031189269
1.031209177
1.031275949
1.031152427
1.031015482
1.030767952
1.030601056
1.030463653
1.038331968
1.038130367
1.037911133
1.037570978
1.037180468
1.036851833
1.036768396
1.037394617
1.037629643
1.037819056
1.038037969
1.038186067
1.038136238
1.038050487
1.037935785
1.037800894
1.037622141
1.037544378
1.037532737
1.037676382
1.038048262
1.03829861
1.038264053
1.03821287
1.038284714
1.038198791
1.037925393
1.037682878
1.037639689
1.037674822
1.037700119
1.037783042
1.037887122
1.037813764
1.037669398
1.037411617
1.037087415
1.03685968
1.043894075
1.043793821
1.043618268
1.043390535
1.043008688
1.042590241
1.042455547
1.043107706
1.043600455
1.043959276
1.044149689
1.04402161
1.043808717
1.043649304
1.043475144
1.043391111
1.043333084
1.043300882
1.043275378
1.043330187
1.043681134
1.044399906
1.044711998
1.044783563
1.044758023
1.044605721
1.044357796
1.044138942
1.044143456
1.044220008
1.044325845
1.044467799
1.044588083
1.044560484
1.044432961
1.04427237
1.044021567
1.04373026
1.049517409
1.049520887
1.049388966
1.049173485
1.04874812
1.048144922
1.047961105
1.048677817
1.049365887
1.050007063
1.050098709
1.049948601
1.049565802
1.049356844
1.049262792
1.049239793
1.049271607
1.04931973
1.049488917
1.04961422
1.049865429
1.05024855
1.050686086
1.050818919
1.050871743
1.050806292
1.050727271
1.050613094
1.050680456
1.050806329
1.050977352
1.051180388
1.051312464
1.05135156
1.051254235
1.05125506
1.051118221
1.050815142
1.05517815
1.05524623
1.055311239
1.055233135
1.054978275
1.05447536
1.053946754
1.053841109
1.054467467
1.05537808
1.056095577
1.056221034
1.056043184
1.055528141
1.055252733
1.055197691
1.055201222
1.05548173
1.055661223
1.055867335
1.056078457
1.056313393
1.056383657
1.056574325
1.05661879
1.056565506
1.056628325
1.056817624
1.056838085
1.057025488
1.05719581
1.057540605
1.057811532
1.057949566
1.058084236
1.058072362
1.058253851
1.058160887
1.061056935
1.061060057
1.061093296
1.061033459
1.060800944
1.060361161
1.059997569
1.059931596
1.060440213
1.061247672
1.062016383
1.06231421
1.062092178
1.061498829
1.0611313
1.061193032
1.06157283
1.061985574
1.062156937
1.062377483
1.062636543
1.062772807
1.062725608
1.062666246
1.062562408
1.062303773
1.062365259
1.062719694
1.062905784
1.063086786
1.063329271
1.063732726
1.06420527
1.064334271
1.064570446
1.064665429
1.064708909
1.064614831
1.066921009
1.066759652
1.066774787
1.066836378
1.066733253
1.066406445
1.066218095
1.066328557
1.06675213
1.067443435
1.067987337
1.068133732
1.067878588
1.067353206
1.067219583
1.067429527
1.067865429
1.068365487
1.068562634
1.068713078
1.068835034
1.068885375
1.068798784
1.068591021
1.068297288
1.068182007
1.06825656
1.068572365
1.068872893
1.069006952
1.069201099
1.069538667
1.069876107
1.070156591
1.070345253
1.070605786
1.070599475
1.070502457
1.072581975
1.072387169
1.07243981
1.072588213
1.072594114
1.072369531
1.072238625
1.072436083
1.072787569
1.073441054
1.073872945
1.073703272
1.073463128
1.073123913
1.073124526
1.073342768
1.073817629
1.074318928
1.074510605
1.07451233
1.074537661
1.074505009
1.074313043
1.074052323
1.073809543
1.073817759
1.073862925
1.074114109
1.074399923
1.074521409
1.074685519
1.074879738
1.075146528
1.075335008
1.075470421
1.075673797
1.075586508
1.075567875
1.078311381
1.07794893
1.077929049
1.078037664
1.078025373
1.077797101
1.077798919
1.078038243
1.078366652
1.078911221
1.079244558
1.079072494
1.0788447
1.078562641
1.078375607
1.078445284
1.078788386
1.079216673
1.079557849
1.079651207
1.079510525
1.079312648
1.079081596
1.078906037
1.079003301
1.079159855
1.079163791
1.079229008
1.079225123
1.079305945
1.07945458
1.079543362
1.079707294
1.079868407
1.079907495
1.079928404
1.079758172
1.079729779
1.083553884
1.082992203
1.082837997
1.082819746
1.082677676
1.08242191
1.082227631
1.082503547
1.082906009
1.083448709
1.083794714
1.083679608
1.083454193
1.083145481
1.082821912
1.082721814
1.082890959
1.083161816
1.083477253
1.083677506
1.083548873
1.083425181
1.083417944
1.083379712
1.083564557
1.08374646
1.083680746
1.083486866
1.083257049
1.083250523
1.083344165
1.083355133
1.083415685
1.083531701
1.083484043
1.083325775
1.083136138
1.082970974
1.088232621
1.087537029
1.086835461
1.086639991
1.086563051
1.086295969
1.085944676
1.085678655
1.086027169
1.086657397
1.087266724
1.08759653
1.087523137
1.087231677
1.086766548
1.086329804
1.086127615
1.086152919
1.086346096
1.086598089
1.086719041
1.086770765
1.086807128
1.086869111
1.086893994
1.087045703
1.087149746
1.087041866
1.086730942
1.086413576
1.086290641
1.086324232
1.086252749
1.086206073
1.08619433
1.086084279
1.085796254
1.085716022
1.085537034
1.091044336
1.090172275
1.089559686
1.089404245
1.08929371
1.088936122
1.08847379
1.088213899
1.088486984
1.089342062
1.090190448
1.090558752
1.090520232
1.090107913
1.089417807
1.088757214
1.088498836
1.088426837
1.088639889
1.08896638
1.089136424
1.089157106
1.089299728
1.089346721
1.089463096
1.0894869
1.089418922
1.089263426
1.088956634
1.088648493
1.088390066
1.088354083
1.088250057
1.088099411
1.087946576
1.087808474
1.087553627
1.087561278
1.087475418
1.092453796
1.09173185
1.091416327
1.091398644
1.091289145
1.0908397
1.090301309
1.090131386
1.090517962
1.09146369
1.092362347
1.092626529
1.092508836
1.09198446
1.091221726
1.090592206
1.090281249
1.090200802
1.09041436
1.090721442
1.090876776
1.09082097
1.090835957
1.090885763
1.090937453
1.090740669
1.0905212
1.090412977
1.090257489
1.08992
1.089529979
1.089398538
1.089317921
1.089205551
1.089070343
1.088964207
1.08881177
1.088791714
1.0887408
1.093221589
1.092425308
1.09226762
1.092473951
1.092542555
1.09215118
1.091614116
1.091441126
1.091919271
1.092832617
1.093603647
1.093678147
1.093401354
1.092800398
1.092150301
1.091758404
1.09158148
1.091519502
1.091651097
1.091856379
1.092003172
1.091935974
1.091615602
1.091463514
1.091354075
1.09119131
1.090989881
1.090952104
1.090846096
1.090410588
1.090028196
1.090034631
1.09009975
1.090041343
1.089899561
1.089752371
1.08962494
1.089541404
1.089545267
1.094010556
1.093131838
1.092852187
1.092911927
1.093110726
1.092809331
1.092264329
1.092164074
1.092617494
1.093528151
1.093967521
1.093870093
1.093500155
1.092902913
1.09245475
1.092298191
1.092403971
1.092544842
1.092593987
1.092623181
1.092644091
1.092461945
1.092178077
1.091841652
1.091537981
1.091328571
1.091174602
1.091003864
1.090865145
1.090490283
1.090431307
1.090425014
1.090497908
1.090523567
1.09046027
1.090379205
1.090298459
1.090044794
1.09005594
1.09470891
1.093787504
1.093450241
1.093360927
1.093069081
1.09262498
1.092212305
1.09229485
1.092991016
1.093865495
1.094095475
1.093987736
1.093595165
1.093010103
1.092586582
1.092407152
1.092623921
1.092855189
1.092953125
1.092952604
1.092869065
1.092677325
1.092383215
)
;

boundaryField
{
    inlet
    {
        type            fixedValue;
        value           nonuniform 0();
    }
    outlet
    {
        type            inletOutlet;
        inletValue      nonuniform 0();
        value           nonuniform 0();
    }
    bottom
    {
        type            slip;
    }
    top
    {
        type            slip;
    }
    obstacle
    {
        type            zeroGradient;
    }
    defaultFaces
    {
        type            empty;
    }
    procBoundary16to10
    {
        type            processor;
        value           nonuniform List<scalar> 
36
(
1.012382829
1.012392487
1.012566818
1.012523973
1.012549947
1.012384346
1.01194107
1.011877197
1.011975324
1.012123576
1.012082175
1.011878866
1.011663105
1.011767949
1.011918807
1.012089651
1.012156637
1.012073518
1.011986075
1.011961135
1.011836953
1.011589359
1.011830089
1.011710805
1.011822059
1.012084105
1.01257956
1.013288902
1.013609666
1.013450582
1.013100082
1.012716084
1.012716084
1.011350221
1.011769053
1.011769053
)
;
    }
    procBoundary16to11
    {
        type            processor;
        value           uniform 1.012624541;
    }
    procBoundary16to15
    {
        type            processor;
        value           nonuniform List<scalar> 
69
(
1.011330169
1.011818272
1.012034011
1.012181863
1.011692396
1.011038137
1.010884318
1.010995348
1.011100028
1.011100028
1.010919759
1.010622425
1.010299412
1.009968194
1.009659754
1.009292907
1.00880391
1.00880391
1.007848923
1.007057747
1.006192098
1.005247463
1.004135795
1.002554169
1.000783512
1.000783512
0.998884176
0.9976007805
0.996394348
0.9952881802
0.9943637191
0.9937914516
0.9937914516
0.9932997234
0.9934652438
0.9935231038
0.9935695249
0.9935599331
0.9936658566
0.9944688666
0.9944688666
0.9952883191
0.9966648023
0.9985481876
1.001300522
1.00506905
1.009942661
1.009942661
1.01547619
1.021164382
1.027017557
1.032942785
1.038479111
1.043985396
1.04953165
1.04953165
1.055172973
1.061078499
1.067079781
1.072863837
1.078637414
1.083982741
1.083982741
1.088358702
1.091525492
1.093443756
1.094399273
1.0951812
1.09573073
)
;
    }
    procBoundary16to17
    {
        type            processor;
        value           nonuniform List<scalar> 
64
(
1.012672337
1.013067452
1.013299963
1.013336635
1.012876024
1.011887285
1.011141122
1.010815873
1.011122986