/*--------------------------------*- C++ -*----------------------------------*\
  =========                 |
  \\      /  F ield         | OpenFOAM: The Open Source CFD Toolbox
   \\    /   O peration     | Website:  https://openfoam.org
    \\  /    A nd           | Version:  7
     \\/     M anipulation  |
\*---------------------------------------------------------------------------*/
FoamFile
{
    version     2.0;
    format      ascii;
    class       volScalarField;
    location    "4.4";
    object      p;
}
// * * * * * * * * * * * * * * * * * * * * * * * * * * * * * * * * * * * * * //

dimensions      [1 -1 -2 0 0 0 0];

internalField   nonuniform List<scalar> 
2222
(
2.736559331
2.662650007
2.593361845
2.527709394
2.463142067
2.396568877
2.327877792
2.25828201
2.190004973
2.127113
2.072291705
2.024810189
1.98152262
1.939281295
1.896313383
1.851698516
1.805211994
1.757560555
1.710397333
1.665742495
1.625865013
1.59112404
1.55979277
1.530084804
1.500580687
1.469584504
1.436636482
1.402687611
1.369496895
1.337545364
1.312075502
1.273323675
2.762761253
2.687643639
2.617993179
2.552158553
2.487334105
2.420360134
2.350691854
2.280682899
2.212146774
2.148987146
2.093658278
2.045383163
2.001271058
1.958221143
1.914511026
1.869298092
1.822348051
1.774346468
1.726878158
1.681954436
1.641746988
1.60673993
1.575267717
1.545329673
1.515309926
1.483680006
1.450101257
1.415624731
1.382155252
1.350094182
1.324470091
1.285267392
2.742529393
2.666292405
2.594767259
2.527793562
2.462538254
2.396668712
2.328257571
2.260022277
2.193027521
2.130815638
2.075351464
2.026403677
1.982323016
1.939975818
1.896837766
1.851898258
1.805155956
1.757645874
1.711128879
1.667091574
1.627183229
1.592217112
1.560835025
1.530941726
1.501054186
1.469850293
1.436981962
1.403247864
1.370367296
1.338833094
1.313690826
1.275031784
2.741035441
2.662874076
2.589464068
2.522710929
2.457481794
2.391621598
2.323644962
2.254706622
2.187863519
2.126877417
2.072352303
2.023480205
1.979064428
1.93681585
1.893884662
1.848851624
1.802024334
1.754617172
1.708512734
1.6650799
1.625457017
1.590440228
1.559010491
1.529024129
1.499036998
1.467866202
1.435198875
1.401697047
1.368939462
1.337532558
1.312578022
1.274176425
2.728392717
2.658099831
2.589953657
2.524422598
2.459368275
2.393220184
2.325898299
2.256650557
2.19124507
2.131613944
2.076889904
2.026560728
1.980593386
1.937847119
1.895277011
1.850428987
1.803424267
1.755889871
1.709774557
1.666578678
1.627165972
1.591954127
1.560340088
1.530136443
1.499973562
1.468760808
1.43613447
1.402714822
1.370076986
1.338825814
1.31400908
1.275688523
2.723020836
2.654826641
2.601107802
2.540995473
2.477302729
2.410778727
2.34313524
2.272284623
2.207009471
2.148418493
2.093681777
2.04233234
1.995011439
1.951285961
1.908666163
1.863848063
1.816258298
1.768519488
1.722421981
1.679516688
1.64042038
1.604649399
1.572032504
1.540962117
1.510468002
1.479264607
1.446588647
1.413034661
1.380424099
1.349330357
1.324603439
1.286029
2.722886272
2.652079256
2.580367333
2.513771925
2.4500799
2.385274101
2.318069642
2.251078472
2.186853674
2.128610323
2.075256207
2.024999771
1.977113821
1.931552085
1.888573578
1.845067159
1.797830071
1.750625096
1.706168006
1.664766349
1.626893462
1.591575038
1.558141929
1.526653273
1.496591885
1.465993354
1.433743071
1.4005686
1.368565214
1.33833833
1.314345035
1.276355526
2.720449391
2.648339191
2.578229899
2.511287604
2.445258658
2.379213654
2.311834133
2.24663969
2.185327939
2.127352062
2.074196547
2.024319949
1.976795683
1.930303237
1.885449725
1.840759575
1.796053058
1.749446449
1.705284209
1.664137891
1.626472792
1.591537125
1.558093367
1.526998761
1.497114585
1.466423061
1.43398507
1.400593172
1.368498769
1.338448238
1.314663916
1.276638416
2.71689694
2.647986401
2.583443276
2.51714224
2.447778316
2.378947765
2.310164905
2.243839932
2.189930072
2.138456164
2.086192784
2.036985841
1.98984538
1.941313787
1.887414166
1.83738549
1.796728791
1.757307516
1.715072616
1.674910823
1.637487667
1.602787312
1.568866575
1.536764748
1.505666329
1.474435056
1.442200473
1.409110582
1.377105016
1.347131768
1.323538883
1.285074819
2.710202528
2.643235002
2.575061343
2.505974854
2.438621037
2.371703549
2.305269772
2.243065197
2.17944858
2.118100323
2.06428319
2.015603221
1.968569792
1.922532342
1.879353953
1.836203678
1.789734239
1.741425003
1.697581813
1.658966786
1.622594974
1.587847354
1.555738297
1.524696351
1.492607567
1.460427099
1.429119325
1.39752472
1.366026906
1.33498749
1.311681057
1.273964649
2.70463406
2.636304847
2.572143705
2.504963522
2.438165498
2.370589151
2.302564652
2.237413939
2.173578432
2.114253757
2.06045511
2.011122121
1.964710885
1.920363078
1.87881202
1.834966501
1.785496153
1.737160942
1.693821071
1.655345659
1.621490017
1.588081704
1.556436302
1.525111713
1.49243793
1.458370074
1.425809632
1.394643359
1.364291248
1.333378475
1.309317776
1.273215183
2.698409182
2.625983193
2.569077682
2.515254727
2.449502992
2.377353412
2.305634217
2.235336418
2.170878177
2.111936012
2.056294914
2.005329904
1.961249094
1.921744369
1.882153209
1.838240295
1.787409722
1.737814752
1.692868637
1.652022591
1.620049897
1.59486975
1.56548222
1.534169036
1.501509487
1.464736116
1.427729184
1.394458307
1.363839513
1.333892908
1.308223523
1.273916673
2.697452206
2.626307281
2.561352001
2.490830875
2.420571143
2.353288051
2.291613844
2.230223123
2.169687331
2.11175141
2.056199317
2.005565309
1.957913375
1.910692901
1.865652274
1.823396513
1.782189602
1.737336876
1.693164968
1.653984291
1.620079865
1.586061127
1.55264016
1.51936238
1.488084535
1.45802248
1.427328913
1.395629484
1.365211479
1.33524364
1.310070083
1.272124901
2.714514743
2.639340862
2.558243298
2.483183288
2.412355463
2.342873893
2.279904026
2.229306424
2.178505635
2.123072832
2.067729565
2.011050383
1.95633927
1.906894656
1.859673085
1.815023027
1.77830906
1.742832544
1.702745951
1.664833935
1.626594595
1.587308245
1.551225957
1.516730919
1.484606836
1.458335408
1.432298506
1.402792899
1.373244935
1.344390134
1.319629029
1.276463363
2.686287693
2.6142806
2.542676667
2.472397908
2.402643702
2.336796639
2.274743818
2.21209067
2.153771707
2.098957364
2.047634279
1.999778269
1.952724979
1.903819118
1.854538343
1.810793725
1.769562618
1.727092744
1.68580702
1.647967177
1.612799093
1.580016201
1.547364159
1.514906082
1.48350473
1.451857778
1.420394902
1.390301426
1.361562533
1.333493905
1.308773005
1.267890871
2.678332974
2.606835189
2.534341311
2.461938539
2.393119874
2.328947322
2.266376067
2.203826332
2.145880475
2.093924342
2.045237433
1.999673455
1.9533566
1.904256746
1.854287397
1.807040608
1.762330222
1.722127285
1.684545482
1.6475127
1.612695868
1.580101442
1.547772864
1.515465627
1.483383109
1.451679283
1.420758583
1.390648821
1.362075388
1.334092406
1.309411211
1.268810453
2.670536736
2.598980275
2.52589549
2.454140457
2.38692769
2.322347243
2.260496742
2.201303089
2.141239674
2.093826645
2.053510831
2.009962946
1.964546076
1.916033834
1.864733616
1.811237986
1.76033759
1.717610445
1.686857222
1.654681766
1.620354462
1.587681547
1.555583697
1.52269757
1.489809671
1.45870677
1.427992494
1.397531775
1.368740604
1.340420723
1.315909169
1.275129585
2.658981895
2.587086891
2.518318534
2.44883754
2.379090292
2.313351459
2.251385524
2.191887051
2.13666172
2.084042265
2.031742462
1.984115686
1.940499684
1.897030044
1.84929949
1.798584855
1.753445709
1.716689119
1.676840189
1.639025671
1.604280426
1.571719394
1.540956577
1.508244559
1.473837071
1.442332194
1.413509625
1.383858614
1.355363526
1.327568062
1.30407367
1.263827581
2.645979478
2.574292505
2.510482674
2.445569225
2.374370436
2.305750385
2.243041422
2.184065317
2.130003324
2.077499687
2.026713606
1.977681598
1.931166094
1.889109355
1.844525801
1.796728034
1.750399829
1.710452416
1.673268954
1.637541275
1.603154999
1.569495849
1.537667364
1.504528515
1.47020986
1.43735108
1.408826947
1.381780395
1.354281218
1.326663662
1.303248406
1.263145855
2.632822797
2.563975478
2.49720134
2.434271239
2.368281036
2.300190018
2.236970351
2.176755389
2.122124135
2.071912968
2.0238194
1.976831432
1.930255925
1.884490039
1.841062651
1.796029505
1.750029327
1.70480317
1.673004441
1.644108494
1.611704303
1.577419998
1.541161178
1.505294655
1.47160911
1.437222527
1.404369303
1.381379483
1.358824003
1.332350942
1.30895209
1.269121844
2.621880895
2.556115443
2.486620622
2.419681128
2.362639619
2.301363366
2.232510871
2.170436814
2.116571172
2.066730435
2.019306248
1.973400707
1.925559264
1.87580275
1.835041845
1.800133867
1.756554237
1.707673739
1.663373923
1.627688219
1.596313043
1.563421445
1.530914551
1.50605573
1.478264633
1.44306566
1.404945765
1.370534275
1.342112897
1.317116519
1.29494024
1.256302385
2.613898766
2.549959114
2.482594082
2.413247147
2.342997533
2.275211629
2.21340702
2.158299844
2.107020532
2.059652045
2.016688682
1.9718409
1.92210782
1.873850819
1.826157139
1.77958698
1.736551509
1.695730818
1.656124599
1.621837799
1.591643238
1.560157133
1.529511175
1.496088229
1.462487818
1.430206901
1.397858934
1.364468553
1.335109111
1.310108769
1.290126936
1.252784499
2.610130955
2.534153705
2.464498309
2.399595772
2.332621023
2.266327546
2.204879324
2.150463901
2.10125186
2.052445191
2.003884631
1.959250441
1.916474681
1.870685341
1.822393847
1.774710399
1.731396825
1.690318897
1.652946257
1.617743042
1.586410499
1.55930457
1.528602555
1.494273457
1.459797828
1.427078186
1.393119212
1.36090703
1.332924322
1.306301831
1.287297492
1.251919768
2.607036013
2.518655769
2.450802836
2.388702636
2.326184724
2.261894789
2.19907999
2.143462005
2.094679554
2.047535562
1.999143491
1.950872008
1.911603172
1.873914392
1.828200657
1.777882909
1.729456049
1.687613614
1.65087224
1.617356823
1.583899488
1.556943366
1.532398431
1.500627759
1.46507041
1.427943177
1.392002496
1.359863128
1.331326439
1.302068886
1.281640726
1.254112587
2.571417132
2.50715722
2.443417765
2.375581348
2.307807533
2.244810174
2.186172355
2.134544345
2.089120611
2.046917185
2.001287839
1.951156799
1.902083704
1.852447587
1.805899032
1.761233208
1.719490811
1.686288433
1.654841311
1.6232923
1.590416182
1.553495041
1.516852302
1.483749162
1.45036407
1.418909932
1.393385564
1.363758254
1.331847142
1.301754925
1.278998209
1.241678647
2.567260386
2.511063241
2.440709604
2.366844446
2.299247925
2.239776328
2.183155987
2.130077981
2.080655306
2.030560285
1.984772414
1.942983174
1.897231012
1.849743399
1.801986951
1.757603574
1.715233262
1.672993591
1.633886068
1.600477247
1.572608563
1.544961128
1.512505966
1.479175726
1.447116303
1.414671775
1.381060542
1.350303404
1.322249052
1.295748227
1.272817508
1.235930312
2.57224917
2.527652977
2.449646892
2.370751259
2.303910749
2.246428809
2.190408229
2.129840081
2.070520533
2.017918414
1.972958534
1.938254614
1.901815479
1.85723455
1.807559607
1.757546969
1.711415851
1.669295869
1.631374146
1.596951047
1.565682648
1.538913654
1.512804278
1.48093329
1.44729124
1.412186851
1.37872707
1.348719613
1.321219785
1.295073454
1.271972138
1.234355966
2.529151397
2.465061914
2.390016419
2.331760396
2.276482158
2.21809359
2.159353582
2.105199656
2.056433094
2.013658858
1.972924255
1.927453992
1.879785205
1.834267788
1.787934718
1.744036186
1.709909233
1.674506174
1.638014906
1.601556882
1.565860397
1.532757823
1.499025906
1.466308391
1.436180133
1.410870209
1.382540681
1.353329067
1.326362478
1.300248055
1.27706166
1.234807299
2.405014955
2.407146832
2.38318352
2.33490332
2.275265456
2.210522143
2.150689845
2.096461621
2.047948317
2.003335857
1.963162562
1.919265762
1.871985127
1.823834641
1.778739633
1.738081995
1.693493533
1.653021545
1.619541042
1.588416233
1.558586456
1.526159447
1.491919889
1.459749065
1.43044806
1.398215715
1.3654207
1.336200397
1.310399315
1.284424507
1.262471904
1.227178095
2.204173393
2.395057201
2.386773096
2.350868481
2.286084825
2.215785288
2.154327633
2.097219198
2.040024032
1.992445693
1.951244794
1.908836633
1.86202081
1.813849325
1.771066712
1.730532557
1.687677425
1.6481512
1.614113574
1.58322556
1.55323464
1.521629985
1.48927266
1.456834763
1.423187224
1.390207913
1.359826438
1.331775022
1.305726952
1.279665289
1.257771659
1.223370204
1.86793675
2.334325772
2.349577743
2.302613872
2.236559994
2.179687266
2.125887358
2.074100571
2.030853503
1.991945058
1.948703692
1.901759216
1.853111355
1.804665928
1.758413299
1.719043276
1.687111779
1.650197738
1.610816657
1.57654544
1.545035318
1.514950991
1.485224181
1.451718734
1.414817507
1.380619158
1.353195629
1.328207234
1.303049349
1.277992106
1.25699731
1.22077536
1.468873123
2.03828066
2.262424934
2.258118575
2.229985255
2.182033009
2.126713593
2.06997952
2.020228677
1.974780497
1.931056557
1.885980933
1.840126501
1.795116603
1.752228767
1.711304903
1.670755429
1.632507575
1.598544221
1.568304312
1.538584606
1.508825197
1.477040296
1.442152147
1.408219148
1.377274592
1.347205889
1.320387965
1.296168264
1.271516993
1.25146911
1.217665657
1.182034142
1.610376324
2.083315749
2.242656373
2.231837486
2.195441597
2.138864415
2.074576505
2.009309096
1.956742781
1.913119411
1.87050119
1.828614788
1.788978355
1.747781594
1.705063377
1.66333492
1.625365292
1.592103873
1.559875407
1.528044943
1.498635385
1.470281022
1.438757466
1.405773098
1.373283635
1.342083549
1.314439938
1.290031967
1.266895212
1.248382093
1.214495211
1.066011905
1.246628984
1.736318104
2.169044573
2.186847737
2.154302896
2.098403008
2.040113198
1.987914649
1.941663363
1.900492489
1.858761605
1.816383479
1.778556844
1.742749055
1.702099977
1.658571257
1.618455723
1.582455665
1.54997635
1.522041608
1.49463075
1.463789021
1.43043302
1.396675894
1.365979317
1.338915395
1.31325871
1.28992532
1.266906675
1.245454259
1.208348178
1.025626341
1.062514111
1.366057303
1.907496958
2.128459357
2.118786448
2.084349373
2.034412106
1.981979463
1.932988566
1.886917881
1.845270729
1.808424686
1.770274767
1.729391969
1.689382167
1.651096061
1.61420616
1.579971388
1.54838439
1.516737268
1.484407785
1.452221585
1.422834328
1.393946193
1.363124221
1.332788817
1.305888714
1.281235223
1.260057504
1.243169902
1.207526127
0.9981908908
1.001726998
1.099261331
1.509645759
1.978585794
2.09492312
2.077409564
2.039880917
1.986772419
1.929788791
1.87939189
1.836097965
1.79523627
1.754154819
1.71444252
1.678849369
1.644711923
1.608330083
1.571063668
1.535592152
1.504478572
1.477479891
1.449354459
1.418244254
1.386360035
1.354945564
1.32531224
1.300163134
1.278439177
1.256371446
1.235478991
1.199329519
0.9780154718
0.9727023784
0.9912612612
1.17604023
1.644316819
2.015532246
2.038514558
2.01146317
1.962914276
1.908873077
1.858585401
1.816465144
1.779521265
1.742417104
1.704178792
1.66759699
1.634015187
1.600139263
1.564877699
1.530871245
1.499540236
1.469097093
1.438374175
1.40735851
1.378760077
1.351474741
1.324544644
1.298246674
1.273287373
1.248528462
1.22729982
1.194555747
0.9642878913
0.9519445262
0.9536644589
0.9960397659
1.290549054
1.789906673
1.989447672
1.978232037
1.944508951
1.897534643
1.848629643
1.806956154
1.770014427
1.733130907
1.696635704
1.660905606
1.624706079
1.588237577
1.5538339
1.52098208
1.488159063
1.457144514
1.430984176
1.404508148
1.374702871
1.34406293
1.315232075
1.288244441
1.264890225
1.243007996
1.224388221
1.190097754
0.9521977485
0.9358585764
0.9310046836
0.9373449491
1.034904376
1.424626285
1.859629599
1.953072208
1.934137986
1.89355754
1.84460378
1.800129286
1.76077247
1.723959668
1.687934714
1.65153118
1.614559605
1.577644591
1.543835156
1.514090749
1.484241518
1.454530033
1.423948299
1.392893917
1.362955098
1.336390503
1.311176238
1.285786289
1.261549373
1.237153492
1.217389417
1.184845318
0.9383937379
0.9233513217
0.912514276
0.9080965747
0.9259115934
1.108225536
1.551711299
1.880078368
1.900793102
1.877737354
1.841513847
1.797929877
1.754526347
1.715141593
1.677384741
1.641419075
1.607812612
1.575320864
1.542480898
1.508335163
1.47478394
1.442500953
1.412804464
1.386175482
1.360006565
1.333717697
1.306929297
1.280571015
1.25609977
1.232056479
1.212766805
1.17981176
0.9207343852
0.9112779883
0.8988141027
0.8881388875
0.8895006187
0.9327786773
1.224787189
1.678917204
1.853383509
1.843190111
1.814109989
1.772651338
1.733443081
1.698852616
1.665814961
1.632807187
1.598442919
1.562861714
1.528026681
1.494252585
1.461561013
1.431934381
1.404870665
1.377212739
1.349752799
1.323752323
1.300395145
1.277789243
1.25439169
1.228955317
1.207093799
1.172741129
0.9034888508
0.8963082364
0.8863418096
0.8718986039
0.863271669
0.8687330753
0.9732741634
1.356121921
1.752209562
1.818672009
1.798551778
1.762684012
1.725768652
1.689510043
1.654081509
1.6194443
1.585862599
1.553988476
1.52208118
1.489383728
1.456513575
1.424732066
1.395325452
1.368737058
1.34439606
1.321252993
1.296295504
1.269819464
1.245755905
1.22211509
1.202152873
1.169239261
0.8893752971
0.8800871601
0.8733605278
0.8591914123
0.8440365391
0.8420515327
0.8637795176
1.061123717
1.490366158
1.770438548
1.780265858
1.764474911
1.727302367
1.685229326
1.646434359
1.611371898
1.577565638
1.542419273
1.508337084
1.476222685
1.445126205
1.415120534
1.387424856
1.361611831
1.336564465
1.311913131
1.286265333
1.260390446
1.237231814
1.214118605
1.193145014
1.159162117
0.8751780022
0.8637968258
0.8577392474
0.8472678424
0.8286253068
0.8217116321
0.8247838708
0.8825534935
1.191836522
1.600338767
1.747626669
1.740122807
1.71482106
1.67764223
1.638275571
1.601598739
1.567028943
1.533095002
1.500123369
1.468788087
1.438455213
1.408531413
1.379890206
1.353260992
1.328847531
1.305985876
1.283152554
1.259373464
1.235520474
1.210688278
1.188374641
1.154415264
0.8616180881
0.8498373157
0.8418644028
0.8337713535
0.8173311551
0.8037688089
0.8023484424
0.8140610253
0.9426307194
1.325129546
1.670860213
1.709300621
1.695371637
1.663642224
1.624153851
1.585484731
1.551492986
1.519849147
1.488576489
1.458056964
1.428433404
1.399939334
1.373403059
1.348455889
1.324320445
1.300542573
1.276619759
1.252879176
1.229473254
1.205076222
1.183324314
1.148550128
0.845974447
0.8357611366
0.8266438647
0.8183370107
0.8065425825
0.7917288826
0.7859216218
0.7874769221
0.8184246041
1.044328449
1.464241375
1.675333963
1.672383052
1.651037905
1.6144079
1.574441693
1.538918084
1.50736064
1.475966899
1.445124814
1.415246244
1.387397324
1.362184851
1.337624631
1.313140004
1.289196541
1.265593645
1.24339335
1.222111086
1.199368193
1.178276841
1.143499352
0.8313227723
0.8218754193
0.812411114
0.8025533936
0.7921236454
0.7808892155
0.7710521944
0.7685739197
0.7734704552
0.8507851772
1.170867593
1.55210614
1.648707202
1.636925816
1.607654374
1.568888043
1.533722411
1.501738285
1.470676183
1.440113949
1.410080238
1.382135089
1.356817371
1.33100398
1.305441704
1.282290425
1.261055577
1.24030658
1.218158953
1.194478215
1.173716344
1.138953074
0.8172872125
0.8082862021
0.799820167
0.7895319249
0.7781480919
0.7702975148
0.760061793
0.753036869
0.7504517446
0.7663661893
0.9201167321
1.299518386
1.587784574
1.605878498
1.591417287
1.562097063
1.526852686
1.492733472
1.460703854
1.431044632
1.403027355
1.376242845
1.350237851
1.324175446
1.299478355
1.276705348
1.254023328
1.230298222
1.205935404
1.181805646
1.162097989
1.129490156
0.802933296
0.7933797484
0.7853048782
0.7754498449
0.7623722784
0.7561712279
0.7494977144
0.7400094093
0.7332130318
0.7342532618
0.7746034805
1.033914074
1.430585276
1.572650449
1.561107649
1.537834968
1.507039901
1.475683689
1.448246037
1.422357231
1.39670376
1.370635757
1.343514056
1.316838049
1.291810557
1.268134391
1.244211098
1.220611616
1.198777649
1.176784798
1.157963114
1.127020651
0.7903843521
0.7807936082
0.7723058489
0.7629975433
0.7499328865
0.7426943592
0.7381393074
0.7293300827
0.7195045178
0.7147118459
0.7214096975
0.8241746585
1.168297746
1.495936657
1.54248605
1.526439686
1.496167769
1.464372811
1.434296398
1.408123718
1.383739979
1.35956108
1.333579361
1.308381787
1.285803553
1.263633254
1.241017303
1.218217763
1.193797414
1.169853249
1.149662081
1.11688071
0.775298982
0.7663858852
0.7581963167
0.7497536237
0.738446376
0.7302576276
0.7259421522
0.7192794034
0.707508097
0.6986547323
0.6967193491
0.7228390039
0.9163324834
1.291712926
1.504978383
1.507020359
1.491892243
1.461548285
1.428389998
1.399829066
1.371977138
1.344824566
1.322509749
1.301992604
1.279045907
1.255481648
1.231766541
1.207825979
1.185092432
1.163328767
1.14372813
1.111818708
0.7621395201
0.7533299883
0.7447251472
0.7360356707
0.725729667
0.7178942575
0.7122261874
0.7077041895
0.6971789005
0.6850218459
0.6804365551
0.6848256136
0.7496406484
1.048508764
1.384027431
1.474191956
1.468718139
1.451119266
1.424910594
1.394984507
1.366188636
1.340349589
1.316204315
1.290815382
1.266038551
1.242558159
1.220131553
1.19924034
1.179223792
1.158322982
1.139868181
1.108409214
0.7480641954
0.7402057922
0.7323789733
0.7240788338
0.7144884902
0.7076006005
0.7008528282
0.6959599211
0.6877386518
0.673650888
0.6672743503
0.6668806191
0.6827700195
0.8222373241
1.184037103
1.416787075
1.447660268
1.435420262
1.411017656
1.38185417
1.352173254
1.324540642
1.299993322
1.279299904
1.259593713
1.237912799
1.215371736
1.192212528
1.16965237
1.146957382
1.128114654
1.099430487
0.7348866721
0.7269539873
0.71934321
0.7112349894
0.7014571639
0.6952967803
0.6890330916
0.6829502252
0.6761476476
0.6638392316
0.6537904069
0.6522233961
0.655380246
0.6977404439
0.9406774504
1.284495572
1.424199702
1.424669118
1.409627596
1.380768813
1.349772251
1.319538897
1.29280607
1.270318501
1.249794058
1.228401149
1.20672048
1.183563623
1.159965874
1.137931
1.121194074
1.095202926
0.7226422699
0.7147397505
0.7070681497
0.6987669405
0.6886084069
0.6827522335
0.6772514524
0.6705904977
0.6633492
0.6539971023
0.643888016
0.6402112284
0.6395763357
0.6495859235
0.7490693779
1.07357487
1.337979515
1.404859991
1.399940452
1.379786547
1.34861463
1.317210912
1.286216404
1.258456655
1.236196952
1.21603708
1.195778368
1.174101323
1.154066802
1.135861037
1.117896883
1.086356532
0.7086439361
0.7009993642
0.6937881892
0.6863203832
0.676963421
0.6712165035
0.6664941163
0.660089125
0.6519236131
0.6432750289
0.6356998598
0.6301702388
0.6272079196
0.6286714493
0.6549162369
0.8525723292
1.182704574
1.358334741
1.37250118
1.36022256
1.33439352
1.303492506
1.276059481
1.252340397
1.231500005
1.211645271
1.191655755
1.172190564
1.152339086
1.131423044
1.113462076
1.08156195
0.6965804007
0.6890312072
0.6818378959
0.6746568737
0.6656936885
0.6596202674
0.6549811812
0.649235819
0.6404058891
0.6306056823
0.6257792339
0.6203122685
0.6158074465
0.6139749276
0.6197823942
0.6903375885
0.9747546518
1.269788535
1.359450589
1.353837247
1.330591735
1.298711957
1.270154994
1.243630277
1.218967686
1.195559766
1.172704096
1.153776687
1.139741756
1.128022744
1.114403906
1.08342437
0.6830837067
0.6760542418
0.6690566115
0.6619276802
0.6533014214
0.6474051376
0.6425400847
0.6373597386
0.6288538664
0.6179406714
0.6144673157
0.610862286
0.6053825789
0.6003055464
0.6005014095
0.6179568828
0.7745137317
1.086863117
1.30552242
1.332371489
1.322704206
1.302967737
1.274351215
1.242502686
1.214708647
1.187929784
1.165881244
1.148724532
1.133508552
1.115964416
1.098805985
1.06922523
0.670772391
0.6638298745
0.657017275
0.6502734778
0.6423074555
0.6368069013
0.6319024283
0.6269932194
0.6194328101
0.6089558735
0.6047511875
0.6021813938
0.5966288996
0.5893778387
0.5871217092
0.5903410513
0.6425318878
0.8887896611
1.194107245
1.292581156
1.285509436
1.27161587
1.253929357
1.237713967
1.214989066
1.187799672
1.163621478
1.144003397
1.12617142
1.106402411
1.089562024
1.061538763
0.6587605349
0.6520569556
0.645557363
0.6390962447
0.6310500809
0.6255914049
0.6207373791
0.6155835648
0.6081802581
0.598818182
0.5934792953
0.5916590323
0.5880783983
0.5801791329
0.5760348109
0.576590861
0.5904468276
0.707390394
1.006917108
1.255627421
1.275439967
1.264361379
1.242923007
1.21738078
1.19288907
1.171679207
1.152399208
1.13383988
1.116564826
1.100236312
1.087312851
1.062406918
0.6467839636
0.6401218197
0.6335911795
0.6268774794
0.6185783392
0.61343233
0.6089555132
0.6037587373
0.5966306351
0.5890083858
0.583524664
0.5809786906
0.5785247167
0.5715578832
0.5636453856
0.5627377904
0.5652639499
0.6039459293
0.8003374658
1.115204219
1.256842366
1.257745222
1.247177506
1.219984407
1.189036505
1.162577222
1.140895984
1.125130004
1.108891128
1.091747092
1.076503981
1.049409246
0.6338481514
0.6272634691
0.6209034433
0.6145757883
0.6070325946
0.602388184
0.5984162858
0.5936016711
0.5869513212
0.5800770626
0.5752815621
0.5714975462
0.5688591474
0.5637410792
0.5550554771
0.5523388984
0.5530954396
0.5617993432
0.647774664
0.9205429968
1.187239277
1.228505067
1.223020698
1.207522097
1.188477952
1.163942161
1.139451198
1.117812493
1.099980353
1.084390464
1.069085805
1.041736491
0.6223516036
0.6161241141
0.6102270449
0.6045419612
0.5975404835
0.5927931178
0.5889492776
0.5844532534
0.5776699991
0.5704497744
0.5662753429
0.562167096
0.5588773084
0.5543075288
0.5476569609
0.5426749822
0.5423987044
0.5443674681
0.5693242201
0.7332941117
1.058853747
1.20437623
1.20428727
1.192466723
1.169411163
1.143192159
1.123283407
1.110157045
1.095788832
1.081602069
1.068649886
1.040679264
0.6102967018
0.6043966619
0.5986327146
0.5929447611
0.5860354276
0.5813322639
0.5773998116
0.5729011127
0.5659545845
0.5587320303
0.5552981173
0.5517505623
0.5478109993
0.5427712877
0.538312415
0.5333895198
0.530987522
0.531230265
0.5367716106
0.60531728
0.8534380836
1.123161136
1.190540192
1.187270682
1.170144423
1.142279029
1.118381645
1.098668688
1.080764333
1.067097401
1.05606642
1.033188945
0.5984436348
0.5928213127
0.5871652299
0.5816491593
0.5752457508
0.5707108053
0.5668356746
0.562523108
0.556088463
0.5492563717
0.5456715373
0.5425098972
0.538554699
0.5328604409
0.5297077794
0.5266026986
0.522890464
0.5210866532
0.5219991311
0.5405685935
0.6839643677
0.972112098
1.140842316
1.164327122
1.157634093
1.145128383
1.124347067
1.101851813
1.079955489
1.061499283
1.045703757
1.020968644
0.5872448605
0.5817690647
0.5763640182
0.5711384242
0.5648764472
0.5604418422
0.5567300291
0.5526244807
0.5466457428
0.5403396406
0.5366655672
0.5337901218
0.5299211045
0.5235055285
0.5204839761
0.5187479855
0.515148077
0.5113490514
0.5107559949
0.5145224817
0.5693309865
0.7899233846
1.07851328
1.136856973
1.130346823
1.121035904
1.103500697
1.091223565
1.081408979
1.063780839
1.045364518
1.013940287
0.5758088739
0.5705010273
0.5653083661
0.5601318741
0.5539049669
0.5496844414
0.5461621925
0.5420699542
0.5362929008
0.5304973097
0.526978957
0.5241971629
0.5207789431
0.5146342081
0.5111784462
0.5102772941
0.5077833863
0.5032877992
0.5004242535
0.500277295
0.5152813126
0.6336209439
0.9313929831
1.095630024
1.121598648
1.116913552
1.100314783
1.083911495
1.066552252
1.048041152
1.035859618
1.012933879
0.564353165
0.5591963911
0.5541797345
0.5491217367
0.5429485041
0.538918375
0.535606463
0.5317088367
0.5262993048
0.521197738
0.5179519707
0.5151344691
0.511912897
0.5063354602
0.5026922811
0.5020245807
0.5002986825
0.4957140711
0.4906536989
0.4895644621
0.4925343342
0.5380097314
0.7423389847
1.020053194
1.103393436
1.104655604
1.094775022
1.077769492
1.059817847
1.040493702
1.025102708
1.000171089
0.5527081968
0.5477359678
0.5430107316
0.5382618537
0.5327059793
0.5290105521
0.5258264843
0.5220780809
0.5169840046
0.5120435915
0.5087813769
0.5059025223
0.5024353788
0.4971447275
0.4939336909
0.4926792229
0.4914711052
0.4874547889
0.4813875816
0.4796837517
0.4795468424
0.491676429
0.5960226374
0.8754725667
1.047627244
1.083559654
1.082593483
1.0758776
1.062347811
1.042493312
1.024309311
0.9973147314
0.541154473
0.5366921976
0.5325403289
0.528411769
0.5235709449
0.5201235134
0.517084823
0.5135451895
0.5087451384
0.5040018134
0.5006357668
0.497566243
0.493732713
0.4883752311
)
;

boundaryField
{
    inlet
    {
        type            fixedValue;
        value           nonuniform 0();
    }
    outlet
    {
        type            zeroGradient;
    }
    bottom
    {
        type            slip;
    }
    top
    {
        type            slip;
    }
    obstacle
    {
        type            zeroGradient;
    }
    defaultFaces
    {
        type            empty;
    }
    procBoundary5to4
    {
        type            processor;
        value           nonuniform List<scalar> 
69
(
2.816270841
2.844534862
2.821948402
2.817572168
2.811580293
2.809877211
2.801365315
2.795295656
2.790925618
2.78565109
2.781358457
2.778284877
2.776946118
2.791184416
2.759491385
2.750001227
2.741168471
2.730972969
2.719887458
2.705952112
2.692175481
2.679046312
2.684226006
2.704260638
2.657182052
2.592255443
2.581572359
2.534752302
2.24993841
1.765734529
1.344613273
1.147079569
1.085848987
1.051926585
1.030180932
1.013495823
1.000364977
0.9878296448
0.9703182643
0.9524240189
0.9351576712
0.9203007577
0.9064140336
0.8905191439
0.8754722944
0.8593033876
0.8449202939
0.8304959678
0.8156154972
0.8022156639
0.7868694575
0.7735344856
0.7590265612
0.7458153716
0.7329601538
0.7189709277
0.7067941818
0.6926781893
0.6801038405
0.6677883321
0.6555495251
0.6425405559
0.6306792579
0.6183498353
0.6058076989
0.5942141481
0.5826785232
0.5709375749
0.5592318862
)
;
    }
    procBoundary5to10
    {
        type            processor;
        value           uniform 0.5475077309;
    }
    procBoundary5to11
    {
        type            processor;
        value           nonuniform List<scalar> 
33
(
0.4860547862
0.4842695986
0.482991151
0.48014522
0.4739968514
0.4706726353
0.4699954687
0.4729465498
0.5105380135
0.6929562516
0.9676423767
1.07002872
1.069141761
1.059222033
1.044140576
1.022429139
1.01003115
0.988762227
0.5305136615
0.5264037947
0.5225355557
0.5186226041
0.5140035058
0.5104278726
0.5072889301
0.503713336
0.4988268537
0.4939447834
0.4907512556
0.487818101
0.4842062636
0.4860547862
0.4790966356
)
;
    }
}


// ************************************************************************* //
