/*--------------------------------*- C++ -*----------------------------------*\
  =========                 |
  \\      /  F ield         | OpenFOAM: The Open Source CFD Toolbox
   \\    /   O peration     | Website:  https://openfoam.org
    \\  /    A nd           | Version:  7
     \\/     M anipulation  |
\*---------------------------------------------------------------------------*/
FoamFile
{
    version     2.0;
    format      ascii;
    class       volScalarField;
    location    "2.7";
    object      T;
}
// * * * * * * * * * * * * * * * * * * * * * * * * * * * * * * * * * * * * * //

dimensions      [0 0 0 1 0 0 0];

internalField   nonuniform List<scalar> 
560
(
0.8742223516
0.8787850268
0.9003445773
0.9317425606
0.9654228297
0.9817555976
0.9960090743
0.998815545
1.002248985
1.004665016
1.005488103
1.006132151
1.006143936
1.006331053
1.0062913
1.006315487
0.8752265566
0.8759978895
0.8779874304
0.8878789069
0.9147251803
0.9530037473
0.9845901515
0.9924615024
1.000635645
1.005331987
1.00522093
1.005421096
1.005377752
1.004867233
1.004592208
1.005319394
0.8852411968
0.8814770084
0.8780123092
0.8779228205
0.8822632065
0.9020344485
0.9320104618
0.9639010457
0.9911724545
1.001120229
1.001351649
1.002993914
1.002366131
1.002278689
1.003184864
1.004933444
0.8954618785
0.88986463
0.8841196223
0.8788402601
0.8797841776
0.8825622649
0.8916831427
0.9175025673
0.9480819612
0.9738178295
0.9876965686
0.9993719116
1.000148291
1.001659703
1.003841858
1.005511245
0.9080188842
0.9020320228
0.8970589187
0.8890578256
0.8842228215
0.8824628035
0.8825394943
0.8865460977
0.9007376004
0.9321847039
0.9660216019
0.99069772
0.9975459118
1.002803597
1.005214323
1.004978776
0.920279979
0.9117888838
0.9067121496
0.9008411507
0.8920099869
0.8859095605
0.8833222488
0.8844356855
0.8861729449
0.8950406517
0.9162356445
0.9445063605
0.9729876591
0.9958249819
1.002307368
1.00159452
0.9330048799
0.9241554609
0.9182414956
0.9131329177
0.9060269143
0.8981078383
0.8920955389
0.8889421443
0.8860966997
0.8861767781
0.8890935823
0.9026588024
0.9334138761
0.9617739794
0.9807010691
0.9946072582
0.9431617823
0.935744312
0.9271936847
0.9224850132
0.9173343593
0.9097369185
0.9027692327
0.8958921869
0.8897885419
0.8869270418
0.8879585995
0.8893864652
0.8968464076
0.9164254017
0.946858265
0.984947518
0.9526542586
0.9464541219
0.9376555491
0.9312353374
0.9273087831
0.9220565071
0.9146803385
0.9081847305
0.9015353688
0.8953830363
0.8924823317
0.8899765464
0.8893662859
0.8922780824
0.9044209439
0.9463372685
0.9624911417
0.9570946827
0.9500040001
0.9408325942
0.9353672251
0.9305978803
0.9245604206
0.9180568921
0.9116838121
0.9051123463
0.8987024576
0.8940517869
0.8904381036
0.8908982197
0.8918235264
0.9105456429
0.9730372356
0.9661763577
0.960132397
0.9526698218
0.9440629407
0.9392107126
0.9344609327
0.9283982238
0.9227922681
0.9159886741
0.9095555336
0.9046298409
0.8993850458
0.8950775628
0.8924027696
0.8943734429
0.9848466268
0.9755267612
0.9693487699
0.9631892738
0.9546241
0.9479197496
0.9425981334
0.9375238415
0.9317142521
0.9257351205
0.9189764303
0.9131325446
0.9083209928
0.9021136928
0.8951824607
0.8947939966
0.9962772965
0.9865033407
0.9785007605
0.9728459103
0.9654368943
0.9572997921
0.9507636919
0.9452229176
0.9404526182
0.935494655
0.929167193
0.9228846429
0.9176877923
0.9129768137
0.9067304904
0.8999327609
1.007261717
0.9977499112
0.9880893698
0.9817098397
0.9753584095
0.9682498249
0.960222387
0.9537616145
0.9480466753
0.9432844934
0.9383856528
0.9315674902
0.9254542697
0.9211264776
0.9164042363
0.907404663
1.016610616
1.008758563
0.9995501443
0.9900336729
0.9843924434
0.9780292544
0.970231558
0.963504679
0.955931204
0.9507951702
0.9465166619
0.9411739335
0.9346680653
0.9291315418
0.9252304716
0.9172775644
1.025118634
1.018162126
1.010845489
1.000498626
0.9925661632
0.9864643933
0.979907326
0.9730479991
0.9655536906
0.9588227309
0.9536156724
0.9494175544
0.943776356
0.9371556347
0.9325950267
0.9252199495
1.035430869
1.026081116
1.019922803
1.012045688
1.002358928
0.9942435211
0.9885106407
0.9822368708
0.9752783351
0.9682800393
0.9609334701
0.9564913341
0.951927368
0.9460288748
0.9408214243
0.9332880741
1.046245846
1.035898695
1.027311584
1.021212917
1.013716098
1.003240161
0.9963918765
0.990133009
0.9840917479
0.977859516
0.9699682481
0.9640626732
0.9590844957
0.954119072
0.9489779546
0.9408088243
1.055486331
1.047118513
1.036309617
1.028627412
1.022438191
1.01421451
1.005457847
0.9974337399
0.9920084718
0.986101973
0.9794718146
0.9728296405
0.966167224
0.9615738828
0.9568507282
0.9485047632
1.063529607
1.055950939
1.047183693
1.037297024
1.029400501
1.023361223
1.015585504
1.006338721
0.9996914765
0.9931854719
0.9878888255
0.9815790048
0.9742195891
0.9691450153
0.964137234
0.9558192214
1.072584676
1.063676434
1.056276625
1.047525339
1.037678285
1.030623261
1.023966233
1.016464416
1.008465745
1.000430798
0.9953834386
0.9892813935
0.9829902299
0.9771082538
0.9708564825
0.9630239736
1.081867721
1.07228122
1.06380125
1.056083866
1.047622375
1.0385617
1.030906582
1.02501672
1.017602627
1.009464984
1.002928985
0.9962118615
0.9913146195
0.984558594
0.9778559097
0.9712836641
1.089886521
1.081370376
1.071992753
1.063474644
1.056314397
1.047845684
1.039100066
1.032068704
1.02538275
1.018796131
1.011100419
1.003771708
0.9987596082
0.9906831709
0.9850149311
0.9829469124
1.096952881
1.08965143
1.080971331
1.071903145
1.06349553
1.055929255
1.048213934
1.039758954
1.032737176
1.0264894
1.019128743
1.012756993
1.005130518
0.9968796469
0.9942493223
0.9994802116
1.101653973
1.09652926
1.089078951
1.080823748
1.07159757
1.063579302
1.056135994
1.048298168
1.040914188
1.033277596
1.027119836
1.019812971
1.011591828
1.00702241
1.007304407
1.022484798
1.103503233
1.101202912
1.096077352
1.088959588
1.080651855
1.072055689
1.063552897
1.056389603
1.048469538
1.041219286
1.033854197
1.025728591
1.021492604
1.021842331
1.02653013
1.053250493
1.103677835
1.102678258
1.100527644
1.095776376
1.088780435
1.080239005
1.072029668
1.063766044
1.056275421
1.04865664
1.040281727
1.035008567
1.035578156
1.042530832
1.05803019
1.085099136
1.100043679
1.101308005
1.102341154
1.100589088
1.095509869
1.088458866
1.080165063
1.071945898
1.063672246
1.05509181
1.049460422
1.050176348
1.05621591
1.072426405
1.099136438
1.107887892
1.091951547
1.10096312
1.102783443
1.102124012
1.099735603
1.09490927
1.087697658
1.079777847
1.070643244
1.064602738
1.06518494
1.07264188
1.09022246
1.109529387
1.127116559
1.124019626
1.080058134
1.099596497
1.100178487
1.100612575
1.100924588
1.099167731
1.094348272
1.087113301
1.080846663
1.08159245
1.089125536
1.105366274
1.127631968
1.137269202
1.136346053
1.130369527
1.051430794
1.083135555
1.091361816
1.098400187
1.101172806
1.100667437
1.098636905
1.095926837
1.097796722
1.107516185
1.125609996
1.144376602
1.157565753
1.155258085
1.146474749
1.131581927
1.023273014
1.051152427
1.078559674
1.096658857
1.100512736
1.100197078
1.10272549
1.110421838
1.124871721
1.143297556
1.160569452
1.166737338
1.165641498
1.16267048
1.156673871
1.140306458
1.006786018
1.022092523
1.050931563
1.079786464
1.092108139
1.101492458
1.116656068
1.135633264
1.160497404
1.18260217
1.188003561
1.183754034
1.173357282
1.163841064
1.155363035
1.137100297
1.001253359
1.006408657
1.02318233
1.051852663
1.084095942
1.112740969
1.144062374
1.164480474
1.182612087
1.194295725
1.194411242
1.190530876
1.180760908
1.167683396
1.156009787
1.13619563
1.000153532
1.001254016
1.007139983
1.027133922
1.069718658
1.122104404
1.16056182
1.197119456
1.209159048
1.207617692
1.201314732
1.193333415
1.184200254
1.171230563
1.157134094
1.135721857
)
;

boundaryField
{
    inlet
    {
        type            fixedValue;
        value           nonuniform 0();
    }
    outlet
    {
        type            inletOutlet;
        inletValue      uniform 1;
        value           nonuniform List<scalar> 
35
(
1.006318985
1.005329512
1.004939017
1.005501372
1.004972698
1.001589044
0.9946077486
0.9849549335
0.9463377827
0.9105459006
0.8943700172
0.8947945921
0.8999271286
0.9074002027
0.9172835925
0.9252290638
0.9332887431
0.9408010166
0.9484964505
0.9558180411
0.9630300046
0.9712865501
0.9829458959
0.9994847895
1.02249013
1.053250739
1.085098132
1.107887817
1.124019473
1.130368308
1.131581649
1.140307076
1.137100048
1.136194603
1.135720744
)
;
    }
    bottom
    {
        type            slip;
    }
    top
    {
        type            slip;
    }
    obstacle
    {
        type            zeroGradient;
    }
    defaultFaces
    {
        type            empty;
    }
    procBoundary35to29
    {
        type            processor;
        value           nonuniform List<scalar> 
16
(
0.8890750533
0.915427186
0.9523154033
0.9850070102
1.000091134
1.000759316
1.003068691
1.004471262
1.005613273
1.006039084
1.006260123
1.00617097
1.006418151
1.006641975
1.00672761
1.006752007
)
;
    }
    procBoundary35to34
    {
        type            processor;
        value           nonuniform List<scalar> 
35
(
0.8736398246
0.8781050557
0.8910885034
0.9028455288
0.9175411669
0.9287998991
0.9389363408
0.9488283296
0.9595106627
0.9716951312
0.9830184134
0.9940114556
1.004838135
1.014489122
1.024121459
1.034980392
1.045738134
1.054948621
1.063288032
1.072632199
1.082096665
1.09029914
1.097358462
1.102214481
1.103657775
1.102972929
1.104009334
1.100470067
1.080734939
1.051683275
1.022899348
1.006527072
1.00119071
1.000149164
1.000011573
)
;
    }
}


// ************************************************************************* //
