/*--------------------------------*- C++ -*----------------------------------*\
  =========                 |
  \\      /  F ield         | OpenFOAM: The Open Source CFD Toolbox
   \\    /   O peration     | Website:  https://openfoam.org
    \\  /    A nd           | Version:  7
     \\/     M anipulation  |
\*---------------------------------------------------------------------------*/
FoamFile
{
    version     2.0;
    format      ascii;
    class       volScalarField;
    location    "3.7";
    object      T;
}
// * * * * * * * * * * * * * * * * * * * * * * * * * * * * * * * * * * * * * //

dimensions      [0 0 0 1 0 0 0];

internalField   nonuniform List<scalar> 
2222
(
0.8799205307
0.8765897613
0.8723404577
0.8710511779
0.8693316853
0.8649530979
0.9911503264
0.9862980952
0.9765483664
0.9683444969
0.9650359826
0.9589524831
0.9498319427
0.9462029417
0.9425923301
0.9344978622
0.9293680868
0.9267048368
0.9211520167
0.9143136146
0.9120893129
0.909290919
0.9030569836
0.8992449103
0.8972018911
0.8927332228
0.8876498921
0.8858053491
0.8832332686
0.8781785514
0.876225781
0.875006986
0.8718100171
0.8676738161
0.8658252735
0.8621842626
0.8580897397
0.9818938571
0.9768883764
0.9668450321
0.9604268292
0.9569021223
0.9494721239
0.9413456941
0.9380783705
0.9334223772
0.9249787016
0.9213552182
0.9191045812
0.9135792378
0.908094735
0.9056955371
0.9018578401
0.895174369
0.8922850086
0.8901107512
0.8852049251
0.881564701
0.8805748455
0.878081622
0.8736523417
0.8711145213
0.8689763623
0.8640815696
0.8605443938
0.858777836
0.8567366885
0.8568917662
0.9733976665
0.9672233967
0.9567164278
0.9514592925
0.9475115707
0.9389622172
0.9328256955
0.9305215008
0.9258103319
0.9184386709
0.9148208715
0.9115223902
0.9046157071
0.8999916663
0.8977347803
0.8933237402
0.8876162138
0.8860911966
0.8843066992
0.879797604
0.8765294253
0.8746154733
0.8709531061
0.8661833695
0.863834192
0.8613343382
0.8571532241
0.857004923
0.8568051678
0.8567320994
0.8585013593
0.9636366072
0.9564362041
0.9466648788
0.942763828
0.9386204605
0.9302853944
0.9251386166
0.9223507874
0.9166354217
0.90972737
0.9067517608
0.9030362238
0.8962533575
0.8931939984
0.891410942
0.8871124429
0.8822376734
0.8800086544
0.8771124435
0.8718047925
0.869203256
0.8672828019
0.8628897016
0.8601992254
0.8593226062
0.8570733502
0.855277142
0.8554577182
0.8562057951
0.8629099581
0.8833259661
0.9537226574
0.9459742643
0.9378498432
0.9346095414
0.9301053624
0.9218778795
0.9173104404
0.9138724404
0.9069928969
0.9012020226
0.8989480616
0.8952713117
0.8892432239
0.8862249446
0.8838209147
0.8784250673
0.8743526064
0.8724624663
0.869164879
0.8648192937
0.8638791065
0.8625207373
0.8587143076
0.8568897755
0.8555736946
0.8537532889
0.8538565823
0.856897091
0.8706192235
0.9052641207
0.9474664907
0.944607604
0.9361664623
0.9289045006
0.9252451822
0.9195081611
0.9112920736
0.9080186043
0.9051652983
0.8989313526
0.8942907306
0.8916469794
0.8868142634
0.8808380425
0.8785607751
0.8760264719
0.8708291334
0.8685522738
0.8673835316
0.8644470476
0.8607402007
0.8593604731
0.8565294517
0.8528630357
0.852414808
0.8524979828
0.8533769816
0.8621227746
0.8877177433
0.9262915105
0.967001982
0.9978686906
0.9342016225
0.9253304797
0.9197079367
0.9165996184
0.9107606388
0.9036691522
0.9002673206
0.8964375076
0.8892235736
0.885458698
0.8831258499
0.8783017759
0.8738419182
0.8725082885
0.8702949347
0.8660010201
0.8634278673
0.8614175999
0.8569447887
0.8538802381
0.852267198
0.8507001525
0.8507117009
0.8515031781
0.8564566057
0.8725208232
0.9133888953
0.9527358278
0.9839016869
0.9918157368
1.002917087
0.9235926988
0.9149609058
0.9102177115
0.9071707604
0.9009104375
0.8946875523
0.8919740891
0.8880111289
0.8817339021
0.8789131732
0.8767393991
0.8720076209
0.8679179817
0.8657711629
0.8624296954
0.8578142446
0.8557999205
0.8538352739
0.8501086317
0.8499996676
0.8503157737
0.8502877329
0.8518471015
0.861999523
0.8938940053
0.9345513229
0.9661213544
0.9869750198
1.004215831
1.003079665
1.004428603
0.9144720174
0.9063582813
0.9018294193
0.8980630763
0.8909247602
0.8855910851
0.8833871293
0.8795646275
0.874045196
0.8711858143
0.8682860433
0.8625408288
0.8595067202
0.8579445512
0.8544782568
0.85209197
0.8520377349
0.8508264813
0.8494345696
0.8496489323
0.8503850825
0.8557731917
0.87486617
0.9125888305
0.9606072117
0.9943807162
0.9993912631
1.003102754
1.007111042
1.008006849
1.007362079
0.9033601631
0.8957718356
0.8923785439
0.8891004498
0.8824779828
0.8779140973
0.8750725513
0.869686588
0.8646049256
0.8632392237
0.8609939039
0.8565835488
0.855408852
0.8542871977
0.8510941048
0.8500937445
0.8497914835
0.8488301066
0.8486607934
0.8514589399
0.8634750131
0.89728999
0.9355685731
0.9752917491
0.9876949813
1.001925526
1.004098691
1.005335455
1.007024694
1.008309261
1.008149884
0.8930483681
0.8860354152
0.8828445896
0.8788438611
0.8714884281
0.8686660015
0.8667427231
0.8622533467
0.85938548
0.8586669202
0.8564716873
0.8531239372
0.8518606365
0.8497687721
0.8468263446
0.8467644861
0.8470120856
0.8480377669
0.8554001643
0.8825855485
0.9215303808
0.9612615083
0.9901810718
1.00566521
1.00381925
1.005065393
1.005066589
1.004604315
1.004754645
1.006085335
1.007295446
0.8818670257
0.8763934928
0.8745695378
0.8710694847
0.8656256219
0.8635893803
0.8613339277
0.8567278773
0.854408533
0.8530725428
0.8495216301
0.8471846219
0.8466359231
0.8457184847
0.8454655569
0.8458938086
0.850092103
0.8664047699
0.9040498834
0.9500513335
0.9847881254
0.9908862915
0.9986098237
1.00730056
1.0080248
1.007876653
1.007214224
1.005849659
1.005319951
1.005716435
1.006598278
0.8726718442
0.8684182962
0.8669077396
0.8631674793
0.8588940999
0.8567811144
0.8534487018
0.8486306946
0.8477530506
0.8468790741
0.8449933018
0.8448410314
0.8455346114
0.8454833722
0.8471067357
0.8562941172
0.8862364529
0.927135296
0.9650375374
0.9839869259
1.001993321
1.004707216
1.004865144
1.006380238
1.007977144
1.008072699
1.007894743
1.007331274
1.006741295
1.006592631
1.006870502
0.864165243
0.8605328372
0.8581844143
0.8528363186
0.8503086462
0.8498525008
0.8481519687
0.8458620445
0.8460619233
0.8457642272
0.8449161007
0.844962624
0.8459705608
0.8517024966
0.873331948
0.9087198782
0.9533691711
0.9899612424
1.003015342
1.003102002
1.005336365
1.008121179
1.008494598
1.008077199
1.007846604
1.00774361
1.007722496
1.007537555
1.00748887
1.007433519
1.007418014
0.8535783165
0.8527691103
0.8515918707
0.8484493077
0.8479474656
0.8480069424
0.846597009
0.845432175
0.8454790686
0.8453383893
0.8450811219
0.8475721936
0.8603111935
0.8963627644
0.9390725162
0.9760776562
0.9863001833
0.9983662832
1.007084359
1.005781534
1.006185842
1.007586178
1.008736797
1.008604169
1.007963787
1.007597943
1.007393761
1.007289794
1.007294975
1.007330279
1.007385909
0.8509054705
0.8506132948
0.8490379836
0.8464259595
0.8462658806
0.8459408303
0.8444210466
0.8440783254
0.8441982987
0.8451402467
0.8516851485
0.8776347252
0.9174245724
0.9576424811
0.9839148081
1.005125543
1.005522572
1.004970133
1.005813739
1.0054142
1.005260397
1.005885309
1.007292461
1.008032432
1.007974386
1.007732892
1.007501455
1.007125215
1.006902831
1.00694135
1.007072105
0.8477961315
0.8473189901
0.845152994
0.8432675984
0.8432919623
0.8431953858
0.843105025
0.8434707775
0.8472311723
0.863638419
0.8967743154
0.9458638629
0.9859586492
0.9990592804
1.002441571
1.007656021
1.009156926
1.008711789
1.007804603
1.006817012
1.006181646
1.006320423
1.006838138
1.007504449
1.007746581
1.007862258
1.007717731
1.007339558
1.007094904
1.007106747
1.007223803
0.8434977725
0.8434120128
0.8427741219
0.8425197588
0.8426327116
0.842917462
0.8447235345
0.8535270387
0.8827711012
0.9232937213
0.9666703396
0.9824011761
0.9971998958
1.004529573
1.003915542
1.005605604
1.008332633
1.008856093
1.008468682
1.008060996
1.007683237
1.007397578
1.007419536
1.007540693
1.007692132
1.00785685
1.007862679
1.007752298
1.007576203
1.007548255
1.007622429
0.8424954518
0.8427370649
0.8425856583
0.8425727098
0.843411601
0.8484035961
0.8697702621
0.9050951849
0.9510708971
0.984383213
1.004621208
1.004983886
1.004731337
1.005277379
1.004203746
1.004445283
1.006565275
1.008110834
1.008249671
1.008144086
1.008028177
1.007994643
1.007915896
1.007746572
1.007749312
1.007798387
1.007888128
1.007924481
1.007920432
1.007919563
1.007933922
0.8427846806
0.8429538758
0.8431434425
0.8456471505
0.8585437027
0.8913001537
0.9356425697
0.9731166889
0.9857508583
0.9951380722
1.006945052
1.00855358
1.008033824
1.007617601
1.00648783
1.006243981
1.007084487
1.007893681
1.008051446
1.007954287
1.007709107
1.00774584
1.007722809
1.007649207
1.007689805
1.007760585
1.007838
1.00794273
1.008055609
1.008068291
1.008065899
0.842805912
0.8440498694
0.8504891131
0.8754946603
0.9140142932
0.9577796405
0.9852915289
1.003523645
1.005618708
1.003378768
1.005400246
1.007496459
1.008281738
1.008022265
1.007842794
1.007957618
1.008259968
1.008318982
1.00809749
1.00772925
1.007293465
1.007219915
1.007283559
1.00740443
1.007585007
1.007747054
1.007831922
1.007911937
1.007994636
1.008017604
1.008010788
0.8463132982
0.8632386727
0.8959651305
0.9442572421
0.9815923748
1.000421596
1.001860421
1.00641388
1.00839592
1.008009071
1.007437761
1.007952162
1.007917449
1.007774633
1.007883468
1.008150588
1.008376624
1.008284645
1.00802224
1.007600234
1.007283232
1.007247782
1.007299544
1.007451424
1.007649916
1.007799478
1.007883629
1.007972027
1.008029863
1.008030446
1.008026843
0.882006221
0.9246618475
0.9688998444
0.9822468611
0.9951188919
1.004528982
1.00328751
1.004304419
1.006451404
1.008328998
1.008457991
1.008357517
1.008027309
1.007526452
1.007279408
1.007398326
1.007675912
1.007807293
1.007754883
1.007615774
1.007429498
1.007434491
1.007482465
1.007619395
1.00780731
1.007903867
1.007961582
1.008053664
1.008128154
1.008123286
1.008114514
0.9464373952
0.9809516446
1.00354232
1.004002244
1.004168713
1.00549638
1.005260584
1.005702316
1.007073385
1.00805812
1.008545125
1.00852311
1.008295581
1.007766534
1.007265472
1.007116354
1.007221797
1.007392973
1.007504654
1.007569838
1.007631738
1.007749274
1.007859962
1.007947945
1.008056296
1.00811501
1.008143508
1.008213555
1.00827753
1.00826275
1.008219019
0.9977028287
1.001822755
1.006502232
1.00811569
1.007661463
1.007914973
1.008274906
1.00818934
1.008248903
1.008369409
1.008465665
1.008523304
1.008483117
1.008117854
1.00750261
1.007225816
1.007288119
1.007478437
1.007642647
1.00777312
1.007888665
1.008027882
1.008144831
1.008197754
1.008259969
1.008330803
1.008370308
1.008417415
1.00845571
1.008440528
1.00838001
1.003207038
1.00285559
1.005136498
1.007592644
1.007971014
1.008174903
1.008400978
1.008528142
1.008679351
1.00866226
1.008577504
1.008558047
1.008411832
1.008020405
1.007888592
1.00783969
1.00789565
1.008048313
1.008148417
1.008162206
1.008200087
1.008295748
1.008393115
1.008459786
1.008539925
1.008609524
1.008648633
1.008692411
1.008727657
1.008737656
1.008714191
1.005793951
1.00605386
1.007220236
1.008515813
1.00859451
1.008462138
1.008515353
1.008652589
1.008813268
1.00878302
1.008718534
1.008541649
1.008316476
1.008180982
1.008200755
1.008310284
1.008460834
1.008639311
1.008763694
1.008775154
1.008809776
1.008888231
1.008937492
1.008972062
1.009026337
1.009069922
1.00907966
1.009092903
1.00914847
1.0092633
1.009314611
1.008890807
1.009310314
1.00976386
1.009764371
1.009558029
1.009095415
1.008837601
1.008940485
1.009074227
1.009101751
1.009078624
1.009046266
1.008929474
1.008897046
1.008972542
1.009137934
1.009320217
1.009498758
1.009636996
1.009652839
1.009678938
1.009696887
1.009690288
1.009672295
1.009624916
1.00962444
1.009654502
1.009708968
1.009808814
1.009952227
1.010029995
1.010773605
1.010851161
1.010964076
1.01093724
1.010791668
1.010459862
1.01025572
1.010256512
1.010294195
1.010334591
1.010341935
1.010328068
1.010290954
1.010142308
1.010072608
1.010123573
1.010267221
1.010421784
1.010524345
1.010598927
1.010684381
1.010742919
1.010761619
1.010755558
1.010695942
1.010657655
1.010651768
1.010662575
1.01071388
1.010811834
1.010853805
1.012051855
1.012141643
1.012188456
1.012169407
1.012113172
1.012037161
1.012059997
1.012064433
1.012012697
1.01192973
1.011845953
1.011766591
1.011672368
1.011609455
1.011431363
1.011383801
1.01142591
1.011428182
1.011390512
1.01133153
1.011296245
1.011292407
1.011329055
1.011395285
1.011449249
1.011485101
1.011500841
1.011507703
1.011489751
1.011499028
1.011493532
1.012391726
1.013081572
1.013102208
1.012949459
1.012749991
1.012514337
1.012431398
1.01254912
1.012727484
1.012808122
1.012793446
1.012694655
1.012573537
1.012438035
1.012356758
1.012795419
1.01321811
1.013696196
1.013838619
1.013763407
1.013414188
1.012790956
1.011729927
1.010627333
1.010352541
1.010350229
1.010550947
1.010915473
1.011443884
1.012034648
1.012578076
1.012552645
1.012599305
1.013209707
1.013307819
1.01331922
1.013039874
1.012693612
1.01257679
1.012625364
1.012738019
1.012769931
1.012748258
1.01264957
1.01251382
1.012342795
1.012118908
1.012419622
1.012682677
1.013463012
1.013986642
1.014002835
1.01407874
1.013964124
1.013761652
1.012521063
1.01089708
1.010555359
1.010678878
1.010709208
1.011012988
1.011239392
1.011927385
1.012567048
1.012652983
1.01329219
1.013558121
1.013624684
1.013524233
1.013336789
1.013184068
1.012942738
1.012785934
1.012773111
1.012748426
1.012622384
1.012475327
1.012314053
1.012083586
1.012210597
1.012153111
1.012649251
1.013717832
1.014232494
1.01433984
1.014379289
1.014209895
1.01400765
1.012840355
1.011332887
1.010830039
1.010905607
1.010999856
1.011199104
1.01152682
1.012202105
1.012660614
1.013113776
1.013380063
1.013550968
1.013539988
1.013497053
1.013499386
1.013430158
1.013207929
1.012934918
1.012732981
1.012554061
1.012417612
1.01228518
1.012075391
1.012107392
1.01204691
1.012170556
1.012784236
1.013822152
1.014178727
1.014454861
1.014486429
1.014479184
1.014135353
1.013072691
1.011690572
1.011191145
1.011112818
1.011325239
1.011565797
1.011862526
1.012560788
1.012854176
1.013100315
1.013344955
1.013360695
1.013350708
1.013422313
1.013496872
1.013413832
1.013157622
1.012919675
1.012688826
1.012492274
1.012328936
1.012109753
1.011970485
1.011964507
1.011984504
1.012082763
1.012604292
1.013434533
1.014120793
1.014411531
1.014440498
1.014228912
1.013909264
1.013224484
1.012214896
1.011538704
1.011445217
1.011650186
1.011787313
1.012548304
1.012664983
1.012787653
1.013082677
1.013198779
1.013244751
1.013361359
1.013427242
1.013342328
1.013179408
1.012999137
1.012855105
1.012751372
1.012646959
1.012427808
1.012016254
1.011824842
1.011733088
1.011782025
1.011752124
1.012231201
1.01313997
1.01401845
1.014238397
1.01431314
1.014281808
1.013752188
1.013215979
1.012570899
1.01191057
1.011720079
1.011802838
1.012533248
1.012667386
1.012653218
1.012892217
1.013044214
1.013097391
1.013174578
1.013220944
1.013162692
1.01305677
1.012944579
1.012870832
1.012908409
1.012989705
1.012873475
1.012525414
1.011931364
1.011505835
1.011478542
1.011475981
1.011446104
1.011904429
1.012790323
1.013970738
1.014284923
1.0140888
1.013952393
1.013664148
1.013205052
1.012796335
1.012266091
1.011866861
1.012338915
1.012627742
1.012706834
1.012869922
1.012919037
1.012896716
1.012921378
1.012929795
1.012904898
1.012917341
1.012837202
1.012794498
1.012911829
1.013092553
1.013122916
1.013066139
1.012631689
1.011873217
1.01134525
1.011230447
1.011095098
1.011248168
1.011649187
1.012453823
1.013576973
1.013702624
1.013731525
1.013463731
1.013173765
1.013138984
1.012933787
1.012299827
1.012070309
1.012556132
1.012804711
1.012977169
1.012968917
1.012802362
1.012724488
1.012664292
1.012689444
1.012705422
1.012689516
1.012674625
1.012724519
1.012982339
1.013124577
1.013180308
1.013293649
1.012881345
1.012003807
1.011210479
1.011032586
1.010898683
1.011195945
1.011506633
1.012105847
1.013278798
1.01334878
1.013266618
1.013233727
1.013143461
1.013070626
1.012846299
1.010927542
1.011918152
1.012476518
1.012780971
1.01295758
1.012905363
1.012765453
1.012649079
1.012573384
1.012587291
1.012542411
1.012522839
1.012508227
1.012613581
1.012873393
1.013008196
1.01328525
1.013342556
1.013352943
1.013094996
1.01229721
1.01137714
1.010973666
1.01091308
1.011113683
1.011443159
1.011887769
1.012642029
1.013085163
1.013190259
1.013044541
1.012995738
1.013082561
1.010756473
1.011626718
1.012279855
1.012610658
1.012779869
1.012682119
1.01265792
1.012614
1.012611796
1.012611543
1.012562511
1.012452598
1.012416963
1.012635534
1.012747419
1.012889088
1.013171233
1.013523596
1.01365986
1.01361721
1.013394787
1.012704006
1.011732082
1.011096275
1.010870252
1.011072365
1.011235323
1.011634902
1.011937667
1.012494686
1.012880993
1.012837696
1.01291671
1.010785769
1.011422797
1.01183785
1.012310064
1.012561558
1.012508724
1.012488741
1.012566454
1.012601651
1.012600602
1.012555036
1.012460636
1.012433688
1.012574676
1.012677506
1.012855399
1.013090473
1.013470496
1.013518044
1.013555474
1.013682968
1.01355886
1.013096225
1.012119081
1.011243738
1.010888676
1.011013742
1.011217774
1.011359458
1.011583934
1.01206692
1.012448616
1.012714294
1.011066238
1.011331422
1.011547744
1.011821659
1.012109901
1.012170394
1.012299366
1.01245195
1.012524434
1.012518237
1.012482802
1.012406551
1.012458765
1.012509373
1.012670549
1.012866555
1.013168316
1.013420894
1.013485956
1.013685472
1.013615465
1.013764758
1.013610278
1.013256479
1.012400779
1.011379908
1.011056695
1.0110434
1.011210959
1.011338637
1.01144497
1.01156384
1.012396123
1.011374627
1.011623113
1.011514897
1.011680006
1.011812434
1.011864895
1.011913865
1.011970647
1.012054777
1.012175677
1.01225943
1.012343678
1.012462334
1.012481068
1.012485138
1.012394314
1.012677647
1.013194648
1.013555
1.013734056
1.013705043
1.013642622
1.013783267
1.013475149
1.013184386
1.012555945
1.011728583
1.011227621
1.011163159
1.011211707
1.011268097
1.011225277
1.011462652
1.011514092
1.011938986
1.011847163
1.011803455
1.011870274
1.011845577
1.011803058
1.011697016
1.011629092
1.011648992
1.011786162
1.011983656
1.012312049
1.012435253
1.012375474
1.012119311
1.011936313
1.012206282
1.012948915
1.013598695
1.013695519
1.013662508
1.01376595
1.013742784
1.013552263
1.013023746
1.012559199
1.012044237
1.011557584
1.01131732
1.011236482
1.011232103
1.01116214
1.011667222
1.012208659
1.012228808
1.012264575
1.012143972
1.0119813
1.011890646
1.011776511
1.011709252
1.011683293
1.011711292
1.011757227
1.011968938
1.012247436
1.012285565
1.012045649
1.011613404
1.011607769
1.011748099
1.012445731
1.013230916
1.013668221
1.013674257
1.013804873
1.01359576
1.013298758
1.012946424
1.012457173
1.012200761
1.011942312
1.011643547
1.011325286
1.01117895
1.011635645
1.012363872
1.012511019
1.012605202
1.012618627
1.012476272
1.012314763
1.012076993
1.01194879
1.011861138
1.011781401
1.011791267
1.011903682
1.012142147
1.012165868
1.012002245
1.011663178
1.011308122
1.011244858
1.011289388
1.011739188
1.012821345
1.013569953
1.013726584
1.013561693
1.013395161
1.013036431
1.012717499
1.012569428
1.012416453
1.012260244
1.011824303
1.011110723
1.011523
1.012318342
1.012679058
1.01278836
1.012797217
1.012785752
1.012694163
1.012497837
1.012390742
1.012294073
1.012140683
1.012019106
1.01200754
1.01218664
1.012198448
1.012088054
1.011902267
1.011456378
1.011424158
1.011282758
1.010989211
1.011440572
1.01238529
1.013220469
1.013548622
1.013419668
1.013082414
1.012853684
1.012711057
1.012520557
1.012560841
1.012423221
1.01136074
1.011623374
1.01209507
1.012678739
1.01292455
1.012970608
1.013016167
1.012970227
1.012846358
1.012746796
1.012666601
1.012599166
1.012506708
1.01244277
1.012501314
1.012515637
1.012438407
1.01232225
1.012146138
1.011670285
1.011191487
1.011136547
1.010982764
1.011385439
1.011931316
1.012674444
1.013097373
1.013083944
1.012863926
1.012726226
1.012698702
1.012708404
1.012693972
1.011551605
1.011755703
1.012051215
1.012418689
1.012845709
1.013037677
1.013118479
1.013093212
1.01297832
1.012911744
1.012863379
1.012784042
1.012737367
1.012762613
1.012809384
1.012825776
1.012804474
1.012714066
1.012547841
1.012216939
1.011533759
1.011187413
1.011224724
1.011163449
1.011469163
1.0117316
1.012164922
1.012438524
1.012602759
1.012716485
1.012837155
1.012831861
1.012875637
1.011653538
1.012107025
1.012186412
1.012304005
1.012504317
1.012604596
1.012648801
1.012723779
1.012872559
1.012931002
1.012922106
1.012888704
1.012961728
1.01306698
1.013081997
1.013083632
1.013045847
1.012979677
1.012860228
1.012692306
1.012122259
1.011345205
1.011539271
1.011383147
1.01134869
1.011485132
1.011806374
1.011899339
1.012060257
1.012283413
1.012609357
1.012860217
1.013003957
1.011763835
1.012385475
1.012446144
1.012391228
1.0123514
1.012279062
1.012133226
1.011997165
1.012075722
1.012321259
1.012641308
1.012922255
1.013131993
1.013286136
1.013238639
1.013209451
1.013162089
1.013118104
1.013087048
1.0129662
1.01256031
1.012064948
1.011692365
1.011773462
1.011621762
1.011742402
1.011722006
1.01181213
1.011956826
1.01197322
1.012090879
1.012385971
1.012912598
1.011636822
1.012476499
1.012722845
1.012638905
1.012564877
1.01237022
1.011975556
1.011782178
1.011698122
1.011699728
1.011961612
1.012493911
1.013012223
1.013212057
1.01308975
1.012891765
1.012699847
1.012801205
1.013092463
1.01308031
1.012744153
1.01261314
1.012280565
1.012102025
1.012094619
1.012140958
1.01203322
1.012069962
1.011940551
1.011914795
1.011930686
1.012065718
1.012317353
1.011615993
1.012327723
1.012885097
1.0129271
1.012834805
1.012429001
1.012138822
1.011899068
1.011703476
1.011589267
1.011736568
1.011984054
1.012461869
1.012743404
1.012686745
1.012478395
1.012179036
1.01216261
1.012524191
1.013006427
1.012915484
1.01286186
1.012849761
1.012610227
1.0124379
1.01227963
1.012403671
1.01248436
1.01232457
1.012280763
1.012179304
1.012125419
1.012040416
1.011845329
1.01232484
1.01288344
1.01307441
1.012905127
1.012705701
1.012570862
1.012334498
1.012033383
1.011833366
1.011835709
1.011902448
1.012187293
1.012540291
1.012539445
1.012414905
1.012075642
1.0119608
1.011989783
1.01252261
1.01296098
1.013103775
1.013135528
1.013054889
1.012827698
1.012684364
1.012711014
1.012728874
1.01279767
1.012881686
1.012763679
1.012358827
1.012042689
1.012111856
1.012188211
1.012584997
1.012911434
1.013162284
1.013087233
1.013003448
1.012872071
1.012734212
1.012611083
1.01237416
1.012218484
1.012287143
1.012409905
1.012469506
1.012654336
1.012564163
1.012313445
1.012025434
1.012026875
1.012053682
1.012564211
1.013300703
1.01330745
1.013355164
1.013190564
1.013108981
1.012943454
1.012933434
1.01309647
1.013143021
1.013095409
1.012994031
1.012458201
1.012403858
1.012532285
1.012941896
1.012993661
1.013085001
1.013189372
1.013186076
1.013125057
1.013090555
1.012985559
1.012829959
1.012661297
1.012712634
1.012691355
1.012637667
1.012888941
1.012814503
1.012741721
1.012382185
1.012127466
1.011899622
1.012073525
1.013040266
1.013455007
1.013449051
1.013453717
1.013380763
1.013214411
1.013186928
1.013227401
1.013315516
1.013386562
1.013293002
1.013072362
1.012532295
1.012671724
1.01303699
1.013010587
1.012860905
1.012793048
1.01287477
1.013049881
1.013224003
1.013202133
1.013148403
1.013035602
1.012816714
1.012744045
1.012929417
1.013110734
1.013103888
1.013045399
1.012805304
1.012486126
1.01221585
1.01208175
1.01242584
1.013131266
1.01333795
1.013347318
1.013294926
1.013300187
1.013277432
1.013237174
1.013406362
1.013591137
1.013568529
1.013348604
1.012355864
1.012587398
1.012919245
1.012888041
1.012674308
1.012324154
1.012207902
1.012378537
1.012727833
1.013027568
1.013273248
1.013168722
1.012959329
1.012942679
1.013124716
1.013174453
1.013287188
1.013178728
1.013126094
1.012863222
1.012636478
1.012038038
1.012216923
1.012394909
1.012735538
1.012772977
1.012803738
1.012747212
1.01265398
1.012688774
1.012899117
1.013368738
1.013668185
1.013551544
1.012224519
1.012547728
1.012864021
1.012897076
1.012822905
1.012516424
1.01199545
1.011868607
1.012056693
1.012339151
1.012762694
1.013141241
1.013139093
1.013158192
1.013147567
1.013045341
1.012987431
1.013081029
1.013133218
1.013123345
1.012746062
1.012303008
1.012061985
1.012266825
1.012202944
1.012487869
1.01254835
1.012239291
1.012138975
1.012105796
1.012135941
1.012478967
1.013195902
1.013607184
1.012411011
1.012762909
1.012995844
1.013048757
1.013076932
1.012806241
1.012242102
1.01200226
1.011957484
1.011944754
1.012193595
1.012707265
1.013056266
1.01314445
1.013141379
1.012989634
1.012623698
1.012558627
1.012748272
1.012959206
1.012723847
1.012601417
1.012344329
1.012252325
1.012442441
1.012361103
1.012447034
1.012519322
1.012362367
1.01210646
1.01196102
1.012070866
1.01231309
1.013097117
1.01273127
1.013128951
1.013373154
1.013413933
1.013280411
1.012814291
1.012362119
1.012078327
1.012113044
1.01217092
1.012208141
1.012405164
1.01294268
1.013187747
1.013173999
1.013002548
1.012564614
1.012155578
1.012314178
1.012377051
1.012551209
1.012572377
1.012667363
1.012447662
1.012731379
1.01259159
1.012619621
1.012853
1.012681268
1.012332202
1.012148617
1.011903414
1.012131702
1.012356918
1.012950553
1.013439637
1.01380444
1.013836901
1.013648991
1.013201162
1.012689116
1.01238953
1.012402008
1.012517246
1.012403327
1.012476852
1.01287849
1.013291919
1.013298197
1.013035704
1.012748601
1.012323852
1.012073528
1.012224406
1.012220674
1.012413659
1.012633007
1.012800202
1.01273304
1.012968041
1.01298423
1.01278148
1.012649202
1.012533775
1.012489358
1.012196446
1.012164662
1.012879614
1.012999007
1.013563147
1.014083501
1.014110673
1.013911021
1.013530994
1.013018915
1.012718487
1.012732178
1.012693314
1.012672675
1.012702287
1.012873921
1.013325574
1.013449285
1.013347472
1.013141028
1.012682244
1.012245132
1.012214985
1.012221171
1.012401336
1.01266211
1.013068632
1.012949307
1.013241515
1.013268402
1.013020386
1.013062309
1.013105204
1.012879689
1.012744773
1.012339192
1.012620361
1.012767917
1.013244316
1.013751666
1.013890548
1.013878509
1.013670645
1.013286551
1.012980944
1.013003547
1.012905432
1.012907963
1.012867725
1.012784251
1.013039795
1.013390314
1.013557103
1.013373376
1.012872205
1.012655798
1.012231779
1.012433948
1.012610727
1.012937268
1.013086534
1.013240398
1.013137705
1.013247305
1.013380692
1.013403649
1.013450393
1.013280312
1.013061509
1.01276971
1.012535374
1.012512284
1.012764391
1.012819615
1.012773253
1.013047615
1.01324647
1.013246307
1.012983604
1.012919749
1.012939495
1.012961666
1.012777945
1.012517495
1.012502308
1.012729601
1.013157104
1.013326464
1.013065826
1.012813833
1.012665842
1.012554379
1.012816172
1.013215811
1.013152037
1.013396913
1.013164451
1.013216015
1.013596192
1.013595548
1.013601136
1.013573407
1.013324612
1.013115862
1.012606608
1.012501063
1.01267965
1.012593629
1.012214779
1.012033646
1.012296013
1.012522401
1.01250535
1.012488495
1.012631311
1.012692418
1.012617635
1.01248556
1.012360359
1.012270944
1.012283131
1.012794569
1.013142243
1.012956309
1.012955576
1.012860278
1.013145336
1.013158852
1.013273056
1.013174124
1.013150967
1.013056676
1.013157777
1.01330385
1.01353682
1.013650209
1.013576496
1.013360054
1.012751047
1.012591179
1.012714623
1.012534238
1.012308779
1.011876659
1.011725946
1.011806118
1.0119972
1.012009899
1.012198147
1.012424825
1.012599442
1.012665224
1.012559351
1.012461948
1.012146694
1.012024472
1.012549876
1.012935013
1.013018678
1.013085887
1.013337654
1.013071787
1.013054963
1.012704139
1.012641672
1.012415499
1.012224832
1.012404471
1.012849463
1.01336428
1.013677586
1.013540047
1.012895325
1.012922958
1.01302805
1.012879688
1.012359643
1.01178337
1.011424768
1.011648138
1.011803786
1.011860478
1.012036509
1.012389115
1.012780687
1.012834755
1.012893425
1.012582334
1.012083316
1.011809092
1.011797865
1.012286781
1.012685113
1.012838625
1.01301286
1.012861516
1.012497447
1.012478419
1.012052175
1.011826394
1.01283925
1.013126109
)
;

boundaryField
{
    inlet
    {
        type            fixedValue;
        value           nonuniform 0();
    }
    outlet
    {
        type            inletOutlet;
        inletValue      nonuniform 0();
        value           nonuniform 0();
    }
    bottom
    {
        type            slip;
    }
    top
    {
        type            slip;
    }
    obstacle
    {
        type            zeroGradient;
    }
    defaultFaces
    {
        type            empty;
    }
    procBoundary10to4
    {
        type            processor;
        value           nonuniform List<scalar> 
32
(
0.886296565
0.8834105699
0.8783419343
0.8760053912
0.8742025181
0.8701659003
1.000051792
0.9956091642
0.9873335632
0.9770788259
0.9730781551
0.9679157946
0.9580327012
0.9534784129
0.9505290731
0.9434181137
0.9368663191
0.9342033703
0.9297196972
0.9219938805
0.9186678275
0.9159339554
0.9096569682
0.9053661458
0.9039329589
0.9006519551
0.8952132773
0.8925281968
0.8901531052
0.8848131518
0.8815347482
0.8815347482
)
;
    }
    procBoundary10to5
    {
        type            processor;
        value           uniform 0.8626889329;
    }
    procBoundary10to9
    {
        type            processor;
        value           nonuniform List<scalar> 
55
(
0.9982855731
0.9871260169
0.9780013909
0.9680479994
0.957819903
0.9488772536
0.9387329546
0.9286419833
0.9195274823
0.908962537
0.8995633074
0.8888861144
0.8794771241
0.871069183
0.8600144592
0.8540647843
0.8492745082
0.8435114643
0.8423244455
0.8426462062
0.8427495767
0.8426927969
0.8528794558
0.9024531527
0.9751543482
0.9936301866
1.004999492
1.008845068
1.010641327
1.011501533
1.011501533
1.011773021
1.011854447
1.011858112
1.011983009
1.011962696
1.011924929
1.011742207
1.011464473
1.011217647
1.011217647
1.010540707
1.010406931
1.01047609
1.010675105
1.010879489
1.011050353
1.011103102
1.011034191
1.011034191
1.011012377
1.011272348
1.011443562
1.011492027
1.011488699
)
;
    }
    procBoundary10to11
    {
        type            processor;
        value           nonuniform List<scalar> 
70
(
0.858167661
0.8579203424
0.870580055
0.9251113848
0.9752036079
1.003277218
1.007028844
1.006078772
1.006889483
1.00769315
1.007506756
1.007193265
1.007163346
1.007344734
1.007385311
1.007281843
1.007440522
1.007758025
1.007953208
1.008055824
1.008010826
1.008023354
1.008087708
1.008169007
1.00832446
1.008674886
1.009299143
1.010050483
1.010866472