/*--------------------------------*- C++ -*----------------------------------*\
  =========                 |
  \\      /  F ield         | OpenFOAM: The Open Source CFD Toolbox
   \\    /   O peration     | Website:  https://openfoam.org
    \\  /    A nd           | Version:  7
     \\/     M anipulation  |
\*---------------------------------------------------------------------------*/
FoamFile
{
    version     2.0;
    format      ascii;
    class       volScalarField;
    location    "4";
    object      rho;
}
// * * * * * * * * * * * * * * * * * * * * * * * * * * * * * * * * * * * * * //

dimensions      [1 -3 0 0 0 0 0];

internalField   nonuniform List<scalar> 
2222
(
1.40000504
3.33984568
5.379056688
5.392034881
5.308895644
5.262323539
5.207138037
5.150970343
5.091061347
5.02805982
4.961777643
4.892649453
4.82074962
4.7461214
4.668529114
4.588759779
4.50747674
4.424812442
4.340403169
4.254590723
4.168813623
4.085846629
3.998648929
3.908829598
3.820543163
3.736662139
3.654559139
3.573865348
3.493659946
3.412946622
3.33155138
3.250722775
3.172421247
3.097858375
3.026704555
2.957707792
2.889562348
3.343916818
5.380569629
5.391771112
5.308679614
5.262204192
5.207005694
5.150800766
5.090915036
5.027976646
4.961633355
4.892267777
4.82003581
4.745363284
4.66819613
4.588758327
4.507330707
4.424237907
4.339546299
4.253560005
4.167162371
4.083543963
3.997558994
3.908271174
3.820554916
3.736164099
3.653785995
3.572928062
3.492690216
3.412114276
3.330985293
3.250438565
3.172298479
3.097711686
3.02644135
2.957354951
2.889202424
3.351635555
5.382445661
5.391908217
5.308976694
5.2624729
5.207158329
5.150825511
5.090903023
5.028015406
4.961687343
4.892187908
4.81962201
4.744650494
4.667642896
4.588574044
4.507285382
4.424021031
4.339178902
4.25335214
4.167614663
4.083220664
3.998338118
3.909250048
3.820600807
3.735488203
3.652636401
3.571482544
3.491153276
3.410774382
3.330105002
3.25003026
3.172112097
3.097424582
3.025904198
2.956627574
2.888441638
3.361935849
5.383401641
5.391684563
5.309174174
5.262696645
5.207263729
5.150748766
5.090710012
5.0278189
4.961550747
4.892126267
4.81946849
4.744205518
4.667008935
4.587957136
4.506691911
4.423339662
4.338488551
4.252573862
4.166581277
4.081530003
3.997533284
3.909180659
3.820823627
3.73488128
3.651207122
3.569518096
3.489004606
3.408848121
3.328804255
3.24946045
3.171968105
3.097229307
3.025367561
2.955745479
2.88741465
3.375169831
5.383683636
5.390627437
5.30865672
5.262209629
5.206719289
5.150067089
5.089887833
5.026912325
4.960705017
4.891532885
4.81906453
4.743676625
4.66606517
4.586636222
4.505303075
4.422073968
4.337430519
4.251466461
4.164994293
4.079603522
3.99630705
3.908704028
3.82077602
3.734129245
3.649544379
3.567240089
3.486536247
3.406649823
3.327274556
3.248731678
3.171734231
3.096927477
3.024610646
2.95447585
2.885866731
3.391725195
5.383913735
5.389169485
5.308005481
5.261695818
5.20629381
5.149631517
5.089356027
5.026167508
4.959795181
4.890700959
4.81850611
4.743227667
4.665155716
4.584956795
4.503395543
4.42052076
4.336392252
4.250432313
4.163083378
4.077072158
3.994141894
3.90755189
3.820139517
3.73317485
3.64782694
3.564795829
3.483800545
3.404208281
3.325577794
3.247852459
3.171319983
3.096413208
3.023554423
2.952796598
2.883871174
3.411761773
5.383663905
5.387146214
5.30707234
5.260904835
5.205639661
5.148998738
5.088663682
5.025245259
4.958605191
4.889318081
4.81711342
4.741911546
4.663624325
4.582831164
4.500999145
4.418398998
4.334736281
4.248878035
4.160744265
4.073826268
3.991054071
3.905694221
3.818975359
3.731850739
3.645871796
3.562155625
3.480880266
3.401531798
3.323516473
3.246474816
3.170335718
3.095353322
3.022002154
2.950631157
2.881326907
3.435004332
5.382789359
5.384694977
5.305981584
5.259860606
5.204707299
5.14808187
5.087762319
5.024230748
4.957245732
4.887435214
4.814745397
4.739404941
4.66122228
4.580232157
4.498100729
4.415576503
4.332231051
4.246485713
4.15773514
4.070034588
3.986971055
3.902963998
3.816696253
3.729842312
3.64350375
3.559218943
3.477638128
3.398446772
3.320964955
3.244529643
3.168712888
3.093615256
3.019782554
2.947837624
2.878203525
3.461461279
5.381502327
5.382017597
5.304900777
5.258667695
5.203603932
5.146901071
5.086564716
5.023093083
4.9559632
4.885574829
4.812083553
4.736184804
4.658084811
4.577372519
4.494945441
4.41207146
4.328797244
4.243457475
4.154559026
4.065909937
3.982192723
3.899086551
3.813448342
3.72687798
3.640466363
3.5557796
3.473908642
3.39476288
3.317564747
3.241463916
3.165909283
3.090872437
3.01686309
2.944666782
2.874931331
3.491242796
5.380295647
5.37885561
5.303743105
5.257306716
5.202335744
5.145425826
5.084840706
5.021306478
4.954189712
4.883536404
4.809403797
4.732735412
4.654368968
4.573855224
4.49102091
4.407613225
4.324404899
4.239548588
4.150300996
4.060816306
3.976593945
3.894282935
3.809293243
3.722990863
3.636640614
3.55166897
3.469456916
3.390196996
3.313142823
3.237345599
3.162121198
3.087295639
3.013310723
2.941007541
2.871180067
3.524427825
5.379561212
5.374187718
5.30228591
5.255620789
5.200828647
5.143738153
5.082759434
5.018836794
4.951529993
4.880950616
4.80683861
4.729611438
4.650402573
4.569739621
4.486452536
4.402339168
4.319017208
4.235023227
4.146150121
4.055697674
3.970405646
3.888441048
3.804124004
3.718163526
3.631944852
3.54676415
3.464195612
3.384732589
3.307731474
3.232204862
3.157368563
3.082916801
3.009175951
2.93698029
2.867238905
3.560875147
5.379270167
5.368091317
5.300277527
5.253389015
5.198902212
5.141784542
5.080491005
5.015916262
4.947962324
4.877271336
4.803557411
4.726393387
4.646301472
4.565077115
4.481148415
4.396163221
4.31258856
4.229694256
4.141225004
4.049642351
3.963251892
3.881420354
3.797841426
3.71231188
3.626274255
3.541021638
3.458188421
3.37850078
3.301496013
3.226224942
3.15182929
3.077872352
3.004548821
2.932625784
2.863029712
3.600284209
5.37889162
5.361637336
5.297751654
5.250498738
5.196317451
5.139325196
5.078011007
5.012874763
4.943943123
4.872621606
4.798916173
4.722134924
4.641762219
4.559818362
4.475354042
4.389396852
4.305259265
4.223101725
4.135671178
4.043298323
3.955540884
3.873530847
3.790508515
3.705312192
3.619610785
3.534568251
3.451669996
3.371793863
3.294722349
3.219624005
3.14562378
3.072189375
2.999380758
2.92784371
2.858468197
3.642548852
5.378407722
5.355199651
5.29500153
5.247153612
5.193079908
5.136107427
5.074943648
5.009611985
4.939860137
4.867471066
4.792924979
4.716211273
4.636095731
4.553703931
4.469004496
4.382306953
4.297248062
4.215425817
4.12945648
4.036511948
3.947371973
3.864870713
3.782036146
3.697194384
3.612102923
3.527615256
3.444901363
3.364883259
3.287620845
3.21251148
3.138770086
3.065829822
2.993611663
2.922582639
2.853520739
3.687582129
5.377907461
5.349007266
5.292285449
5.243713943
5.189474133
5.132111801
5.070859859
5.005569457
4.93561561
4.862314874
4.786299501
4.70892341
4.629137379
4.546715895
4.462045722
4.375041935
4.288886123
4.206727188
4.122345938
4.029788682
3.939199876
3.855704637
3.772659932
3.688223889
3.604028666
3.520400392
3.438065892
3.357903449
3.280271968
3.204921599
3.13127624
3.058779037
2.987189821
2.916750513
2.848072231
3.735190236
5.377439204
5.343161795
5.289630373
5.240373134
5.185872163
5.127714802
5.065806745
5.00029077
4.930590497
4.857033404
4.77985016
4.70131312
4.621418814
4.539181383
4.454681215
4.367522388
4.280384659
4.197462742
4.114383583
4.022549795
3.930877724
3.846225733
3.762665903
3.678760165
3.595653003
3.513025482
3.431141962
3.350792504
3.272640864
3.196878924
3.123211365
3.051094478
2.98011334
2.910288125
2.842048674
3.785098992
5.376985575
5.337670169
5.286958741
5.237123625
5.182495812
5.123488906
5.060491794
4.994166812
4.924587339
4.851248609
4.773793141
4.694270655
4.613584332
4.53132673
4.447114802
4.359553796
4.271573767
4.187858115
4.105777426
4.015733041
3.923100368
3.836827279
3.752567387
3.669216813
3.587153035
3.505436715
3.423937192
3.343364959
3.264667001
3.188468996
3.114737911
3.042922562
2.972460646
2.903204987
2.835418837
3.837060885
5.376564465
5.33249006
5.28413269
5.233778449
5.179257113
5.119784577
5.055857512
4.988338063
4.918228138
4.844964145
4.767833178
4.687816313
4.605928163
4.523343419
4.439416477
4.351143523
4.262199963
4.177922947
4.096546819
4.00765521
3.914865574
3.82728974
3.742633024
3.659790292
3.578528823
3.49745375
3.416199367
3.335448681
3.256354831
3.179850604
3.106073833
3.034457569
2.964369063
2.895581482
2.828224804
3.890929284
5.376272112
5.32758127
5.281084786
5.230198719
5.175894743
5.116444975
5.052252199
4.983750859
4.912253003
4.838253162
4.761285911
4.681341263
4.598600711
4.515547286
4.43185438
4.343149512
4.252860446
4.167998619
4.087227774
3.99966681
3.907349279
3.818119208
3.732988955
3.650432217
3.569612494
3.488836297
3.407733654
3.32697533
3.247772683
3.171178191
3.097394486
3.025864262
2.955988574
2.887545875
2.820573182
3.946565599
5.376322096
5.322966526
5.277947465
5.226552832
5.172381294
5.113147912
5.049286061
4.980479897
4.907415232
4.831969316
4.754282235
4.674508404
4.591564138
4.508049855
4.424229354
4.33519479
4.243145413
4.157518252
4.077375076
3.990870898
3.898944361
3.809139659
3.723432091
3.64091027
3.560105156
3.479355646
3.398434781
3.317936602
3.238960675
3.162500537
3.088745374
3.017200271
2.947402525
2.879198663
2.812570128
4.003673223
5.376991141
5.31880628
5.275112109
5.223370634
5.169116414
5.10966962
5.046181227
4.977720004
4.903890962
4.827076619
4.747745899
4.667370333
4.584415883
4.500637719
4.416702717
4.32819253
4.234573935
4.147134859
4.066569872
3.981674761
3.890637662
3.800142958
3.713647414
3.630836516
3.549745646
3.468946142
3.38832543
3.30833301
3.22985419
3.153701404
3.080002517
3.008380126
2.93858692
2.870570595
2.804277058
4.061266956
5.378825538
5.315563054
5.273038529
5.221084511
5.166345996
5.105927372
5.042177813
4.974207362
4.900823957
4.823579088
4.742653371
4.660660585
4.576997288
4.492458009
4.408037179
4.320363655
4.22562162
4.135381538
4.053822081
3.970781081
3.88096895
3.790409276
3.703295943
3.619896009
3.538386447
3.457626165
3.377458085
3.298139526
3.220312213
3.144554903
3.070917164
2.999194029
2.929406119
2.861601916
2.795673463
4.119828683
5.381674191
5.313459016
5.271884609
5.219782405
5.164568262
5.102857434
5.037840914
4.969451742
4.896601294
4.81940507
4.737552797
4.653744213
4.568959133
4.483573402
4.398613257
4.31174694
4.217044211
4.124837113
4.041917784
3.959082231
3.870115792
3.779703911
3.692092117
3.608064585
3.526171102
3.445558954
3.365935257
3.28734893
3.210195471
3.134816648
3.061209945
2.989404586
2.919696193
2.852191013
2.786665575
4.17675085
5.38486558
5.312484949
5.271336445
5.219049994
5.16399956
5.101773797
5.035139068
4.964926193
4.89179574
4.815067462
4.733158556
4.647302002
4.56017826
4.473123793
4.387401704
4.301294326
4.207182044
4.112365338
4.027551762
3.945422617
3.857697779
3.768052571
3.680277366
3.595687612
3.513463145
3.433014045
3.353916918
3.276027099
3.199486938
3.124391828
3.050752656
2.978914036
2.909407531
2.842314056
2.777202837
4.235272691
5.386812649
5.311501319
5.270095879
5.217383357
5.162416676
5.100184678
5.032486755
4.960073737
4.885568665
4.808509835
4.726644942
4.639696373
4.550390639
4.461628052
4.37498866
4.289115331
4.195941677
4.09976472
4.013480619
3.93131818
3.844447474
3.755714631
3.668317582
3.583432298
3.501027499
3.420674797
3.341930168
3.264539916
3.188418691
3.113443344
3.039734465
2.967965058
2.898767093
2.832105074
2.767302274
4.297199596
5.389982581
5.312629519
5.270924153
5.217389702
5.16191771
5.099686217
5.031344437
4.956644141
4.879480002
4.800459037
4.717946366
4.631024175
4.539941382
4.449492484
4.362154001
4.276773697
4.184051975
4.087327414
3.999992581
3.917893455
3.832005715
3.744354632
3.657681538
3.572882084
3.490201587
3.409600893
3.330825035
3.253610586
3.177654902
3.102644621
3.028857527
2.957234739
2.888345806
2.821972519
2.757257293
4.361945574
5.39205637
5.313194348
5.271272872
5.216772922
5.160511229
5.097958011
5.029570549
4.953446795
4.873632112
4.791527606
4.707448053
4.620938555
4.528942058
4.437325359
4.349476576
4.264808612
4.173384058
4.077920127
3.989988764
3.907604249
3.822512556
3.735881416
3.649847984
3.565131753
3.482079322
3.401065256
3.322159376
3.244995617
3.168961269
3.093589257
3.019455422
2.94780915
2.879027716
2.812634639
2.747727689
4.425962754
5.393258149
5.31382362
5.271877521
5.216302137
5.15830953
5.093976554
5.025080311
4.948449373
4.867264124
4.782184353
4.696562436
4.610292923
4.518506304
4.426519064
4.339605519
4.256445728
4.166839042
4.073024345
3.985478293
3.903744381
3.819416729
3.733377259
3.647666954
3.562950378
3.479684044
3.398346965
3.319078491
3.241395293
3.164509949
3.088158189
3.013511395
2.9416892
2.872695783
2.805692587
2.740108706
4.489909309
5.393509197
5.314253389
5.272460478
5.216321449
5.156363471
5.088889772
5.017875453
4.940733115
4.859963697
4.773261874
4.687192069
4.600631595
4.510982356
4.419643252
4.333501219
4.253199132
4.167948878
4.077483979
3.990796906
3.911372518
3.829773749
3.745039587
3.659401261
3.57358733
3.488356916
3.404823828
3.323670974
3.244353451
3.16594985
3.088475207
3.013116424
2.940618446
2.870815589
2.802572512
2.736065436
4.554492405
5.392117132
5.313579286
5.272161529
5.216145962
5.154945006
5.084332198
5.009870522
4.931723094
4.851356021
4.7653754
4.681214799
4.594362139
4.50778678
4.421149537
4.338114045
4.266174678
4.192333255
4.105270043
4.018747346
3.93837479
3.856230686
3.770154197
3.682970785
3.595593704
3.508540812
3.422890867
3.339536509
3.257988057
3.177444592
3.097830307
3.019912786
2.944900127
2.872957234
2.80333823
2.736356219
4.622829441
5.392132147
5.314351299
5.272364577
5.215548832
5.15319525
5.08070877
5.003427961
4.92333971
4.843350573
4.759864759
4.67930957
4.599163224
4.521706454
4.445830022
4.369217344
4.300761544
4.232857522
4.152086773
4.066556808
3.987562386
3.9073666
3.822126626
3.734053661
3.644097098
3.553277507
3.462943784
3.374220463
3.286963706
3.200698474
3.115644965
3.033560503
2.955499347
2.881376576
2.810661341
2.742726917
4.691844131
5.39104016
5.314659485
5.271399812
5.21297176
5.149893312
5.077840524
5.000423138
4.918779383
4.83710226
4.761562975
4.691594709
4.628038439
4.561918528
4.492937363
4.426481968
4.36779562
4.309929169
4.236461287
4.150619048
4.067245939
3.981360143
3.890313461
3.797782072
3.703750684
3.60869038
3.514049923
3.421170335
3.329312908
3.238427841
3.149924821
3.064486367
2.981768132
2.902214667
2.826282407
2.754165127
4.758589147
5.389615974
5.314853808
5.269531189
5.208686515
5.145125434
5.075598631
4.999957171
4.923451467
4.849645464
4.785698749
4.730681026
4.685529752
4.636566204
4.583990113
4.523747061
4.463916226
4.40466524
4.328238352
4.238179346
4.151066057
4.062723806
3.971692017
3.876988677
3.77864931
3.6800979
3.582303095
3.485429312
3.388232657
3.291029414
3.196273362
3.104769535
3.016028003
2.931034939
2.851115891
2.776239278
4.822669808
5.386740784
5.313976442
5.26769398
5.205130669
5.141092023
5.072410312
5.005206641
4.942546215
4.888445643
4.844202127
4.810170804
4.781169643
4.744929767
4.691735967
4.627424261
4.562071514
4.500416454
4.425971961
4.329052106
4.233948786
4.139309497
4.042858221
3.944002259
3.843461824
3.742455879
3.64228288
3.544693103
3.44649907
3.348215099
3.251134863
3.156188688
3.063081247
2.973298928
2.888523597
2.808701038
4.885234695
5.381992764
5.312020287
5.266175881
5.205200534
5.139052748
5.075641235
5.02259687
4.987055148
4.964859201
4.949254358
4.931975109
4.906225402
4.86396482
4.805018196
4.729154512
4.651385692
4.579118518
4.485461267
4.384290457
4.29243073
4.199457122
4.098216127
4.000443717
3.899211269
3.796087264
3.6976418
3.601032161
3.502132323
3.402293884
3.303830717
3.208333703
3.113125842
3.01984542
2.931065314
2.847181558
4.94965451
5.376153711
5.309575839
5.267103716
5.209622858
5.152489917
5.102689987
5.079383671
5.076156507
5.080041881
5.07254971
5.050902188
5.016463751
4.966150616
4.889475525
4.790271553
4.69745022
4.621607117
4.527398604
4.418900148
4.31694019
4.219034481
4.123149238
4.027382151
3.925695468
3.82514925
3.730510467
3.636418091
3.540702149
3.447800145
3.353868224
3.258073832
3.161825905
3.068025693
2.977845141
2.891655342
5.008228861
5.371895216
5.308798344
5.270472051
5.220920932
5.184857705
5.173516669
5.187431872
5.215264728
5.230174143
5.213533467
5.170367147
5.103144871
5.023951662
4.933914324
4.8247593
4.718601058
4.632031911
4.532796483
4.426576425
4.329107934
4.229396944
4.139578695
4.037380744
3.940875049
3.850259036
3.750785348
3.653199573
3.5594345
3.470317734
3.380294843
3.29077438
3.200096846
3.10911394
3.019265537
2.931611916
5.055742704
5.370177222
5.3120283
5.279609497
5.248197529
5.2533617
5.285524822
5.32961384
5.353712835
5.350066815
5.300521246
5.22460466
5.140978578
5.056975226
4.936878027
4.816266899
4.720136379
4.632250322
4.520245506
4.403557182
4.307165335
4.213694018
4.116150465
4.02045365
3.932808571
3.839155266
3.74306755
3.651306884
3.573558339
3.494836898
3.409574825
3.312030582
3.221563553
3.13529499
3.050093338
2.96602642
5.081349564
5.372053906
5.32042955
5.310685699
5.32049214
5.376967334
5.449520366
5.497585722
5.496496902
5.450411276
5.362394998
5.252779679
5.141035902
5.043381053
4.924759656
4.785015315
4.686816016
4.596140772
4.481640014
4.373354028
4.277545626
4.186390214
4.087678673
3.997809822
3.911563253
3.817876433
3.728501832
3.643488624
3.562057661
3.479367838
3.397624516
3.310704982
3.227010972
3.145508546
3.065010183
2.984543486
5.102459379
5.372514693
5.351060305
5.38292767
5.453013315
5.54938089
5.610863959
5.607208582
5.557617309
5.482598167
5.368625835
5.236331661
5.117202115
5.010174176
4.87801176
4.739717486
4.643193256
4.548807222
4.432852436
4.337139269
4.242445112
4.144025487
4.056492282
3.97716684
3.881855506
3.793612716
3.71754628
3.634568634
3.546854823
3.466355433
3.386961089
3.316526207
3.240748324
3.163725056
3.087379178
3.011778537
5.139845418
5.401944233
5.412076117
5.514853132
5.643418847
5.744865268
5.764272546
5.702192577
5.601737041
5.480205641
5.343059645
5.195821212
5.072806467
4.962281521
4.822336227
4.686025797
4.598485121
4.499121198
4.380295051
4.281575797
4.187328548
4.093806481
4.010393177
3.925531915
3.836338298
3.752695846
3.673451219
3.594494608
3.517134785
3.441374063
3.364526634
3.290901582
3.216284901
3.142653793
3.070562923
3.000212238
5.224036825
5.454567948
5.55368159
5.71832666
5.840411346
5.868662466
5.820871734
5.715885994
5.591394596
5.452954794
5.296205536
5.148372364
5.029441428
4.911230434
4.761895195
4.632665487
4.543932745
4.440930111
4.32686323
4.229734892
4.134364134
4.043986822
3.964160705
3.877105798
3.793772605
3.715830814
3.635462323
3.557471057
3.484779923
3.412100432
3.338369694
3.266881662
3.195969964
3.126692348
3.059226996
2.992811953
5.36564406
5.613039967
5.766416392
5.947183106
6.022925167
5.971563875
5.860326334
5.70541587
5.557914424
5.404657311
5.245949958
5.088561309
4.968848905
4.85005341
4.698716703
4.576463918
4.492545014
4.385928144
4.274218851
4.176321416
4.086052148
3.999703105
3.914916784
3.831107667
3.753708907
3.673824818
3.593756828
3.521705646
3.452410651
3.379689413
3.310246366
3.243230677
3.175740762
3.108925958
3.045885205
2.984077862
5.631411067
5.876029187
6.023583725
6.119654249
6.086889775
5.989970219
5.851442037
5.675979319
5.517226929
5.35982864
5.184449711
5.03168811
4.916667197
4.792703227
4.636732077
4.521146036
4.438807507
4.330009411
4.218850112
4.123799028
4.039779609
3.953308636
3.866846738
3.7882473
3.709635621
3.629272725
3.553759435
3.484077795
3.414745947
3.343824056
3.276516696
3.209650273
3.144018118
3.081370972
3.021430666
2.962130503
6.003045351
6.172594737
6.255140872
6.235609878
6.140089201
5.991271336
5.825337609
5.6380908
5.46879703
5.304659308
5.128117827
4.975520065
4.862348905
4.733695829
4.57509638
4.466841428
4.385816958
4.273546888
4.162164779
4.076193611
3.993074734
3.903612921
3.822137099
3.746226456
3.663531659
3.585371653
3.514550567
3.446023728
3.377526024
3.30840629
3.242583892
3.177791016
3.114630384
3.054177482
2.995899061
2.939334538
6.356264635
6.435427424
6.356318127
6.267315946
6.141204686
5.979682046
5.796159477
5.605135281
5.426860494
5.256496788
5.073219407
4.920002997
4.808220968
4.673790554
4.513908274
4.414413772
4.33210197
4.213617972
4.107041116
4.02983035
3.940707687
3.852914619
3.779675356
3.70101901
3.617510492
3.544192109
3.474790517
3.406706843
3.340094045
3.272870588
3.208046078
3.144593817
3.083194245
3.024840842
2.967995033
2.912497035
5.95840369
6.535973275
6.419292646
6.293671218
6.142175514
5.964964823
5.768292407
5.567546986
5.385319057
5.206901994
5.018419551
4.866059964
4.753727768
4.611472158
4.452179463
4.362452997
4.275621311
4.152127843
4.055683502
3.978954322
3.884752256
3.805507531
3.735350789
3.652089962
3.57426507
3.505015154
3.434351374
3.367765526
3.303207886
3.237617415
3.173495736
3.111089433
3.051488885
2.994841654
2.93856642
2.884098742
5.113803265
6.431820538
6.42076425
6.31120557
6.145564018
5.957755738
5.744482876
5.535106458
5.344901861
5.157548584
4.963287947
4.81225921
4.697669115
4.546326049
4.390223605
4.308211202
4.214885564
4.092078602
4.003800133
3.92032641
3.8310195
3.759752666
3.685305844
3.602958357
3.533489219
3.464576335
3.392973732
3.328778096
3.26547404
3.202054272
3.139493117
3.078162413
3.019415373
2.963516706
2.908358776
2.855585554
4.458001841
5.950903613
6.37498946
6.326991539
6.152379836
5.947441802
5.721962809
5.50222349
5.303555967
5.107009812
4.907882318
4.758876806
4.639673385
4.478922749
4.328307668
4.250612712
4.152573501
4.033228218
3.946323085
3.860484195
3.780875652
3.709157253
3.631128418
3.557102839
3.491922404
3.421066407
3.351443697
3.289944571
3.228135652
3.167274193
3.106148605
3.045181508
2.986877828
2.931753168
2.878484565
2.82737494
4.273790204
5.204763144
6.239699969
6.330265129
6.168134871
5.94365328
5.699105861
5.468384468
5.261276383
5.055478395
4.852332049
4.705138773
4.579410209
4.410379582
4.265757225
4.189759369
4.090174862
3.970760427
3.883807621
3.806480117
3.728915786
3.651196738
3.57960267
3.513772028
3.445663787
3.374468579
3.309907164
3.250814786
3.190736115
3.131900736
3.072006375
3.012060762
2.95567848
2.902189019
2.850620336
2.80001409
4.24283101
4.561342412
5.858401086
6.291728686
6.187140864
5.942530205
5.677723887
5.435625492
5.218920825
5.003243246
4.796833339
4.650521798
4.516931441
4.341161036
4.202842297
4.128967853
4.02699952
3.903246579
3.823336976
3.755273099
3.668707724
3.59224176
3.533031235
3.467817541
3.395005186
3.327911693
3.268973406
3.211316098
3.152948575
3.095598143
3.036997852
2.97920126
2.925332729
2.872694972
2.821647846
2.771794888
4.255698112
4.306623535
5.177578913
6.150416829
6.173934825
5.944369418
5.661086289
5.404151038
5.175923452
4.950305239
4.741393999
4.594476744
4.45258971
4.271403075
4.140052124
4.068249672
3.959430307
3.834712699
3.768702927
3.698937464
3.602616553
3.540002475
3.486161337
3.414686923
3.343110961
3.283856738
3.227423982
3.16992009
3.113529375
3.058038484
3.002194903
2.947247021
2.894818749
2.842835827
2.793414408
2.745778149
4.263138199
4.263473927
4.542503407
5.711942495
6.107156358
5.947243555
5.647766625
5.374578096
5.132706724
4.896880359
4.686181716
4.537787076
4.387387863
4.201399613
4.078395956
4.006926669
3.887922288
3.769875176
3.714264034
3.633085474
3.540392525
3.492178762
3.433523882
3.357319937
3.294162037
3.240946393
3.184155678
3.127430233
3.073667132
3.020508483
2.966995188
2.913305757
2.861984471
2.812608364
2.76609833
2.720336451
4.26161578
4.261977736
4.300910255
5.039113003
5.922605545
5.920078947
5.641541594
5.350296147
5.090807582
4.843994416
4.631641682
4.479873028
4.320804497
4.131887404
4.017811703
3.942701797
3.814482604
3.709093851
3.654679549
3.564251832
3.486305104
3.440118728
3.373683574
3.300675746
3.24707163
3.195864386
3.138716443
3.084814953
3.033347271
2.981131852
2.930016874
2.879030213
2.830777062
2.78426135
2.738819039
2.693125105
4.264133488
4.264741557
4.261357258
4.46155582
5.438176887
5.810909112
5.63615767
5.329160354
5.051501721
4.792898559
4.578770653
4.42219248
4.253200216
4.062153672
3.956850196
3.876264136
3.741860311
3.647164058
3.588180875
3.500009619
3.433011918
3.380469028
3.313227428
3.246572647
3.199942213
3.148522034
3.092267657
3.042811158
2.991136858
2.940176725
2.89334224
2.845602796
2.798951212
2.753191979
2.708423297
2.6644435
4.267233722
4.265047405
4.253659144
4.260979802
4.7723614
5.555889236
5.586578011
5.309396876
5.015010971
4.743874956
4.526241486
4.362782779
4.183138616
3.992439743
3.894693838
3.80756086
3.668934791
3.581033846
3.522089826
3.440236722
3.371782286
3.317937232
3.254979435
3.192270917
3.151618272
3.098316902
3.045314992
2.999019374
2.947807925
2.901345349
2.857456521
2.810811746
2.765143133
2.721278235
2.679042852
2.637272229
4.265901866
4.264001441
4.253521247
4.210082015
4.286725394
4.996460414
5.423939176
5.28831596
4.981421613
4.696783082
4.473361421
4.301904136
4.110890053
3.922428694
3.8310208
3.737145406
3.59329392
3.51192956
3.459712872
3.376639062
3.304234686
3.25953665
3.195993367
3.13843662
3.102692974
3.045489351
2.996872833
2.954343952
2.907062761
2.863472249
2.818326869
2.77304297
2.730760597
2.69006507
2.64967912
2.608214552
2.566209138
4.264299813
4.263772733
4.25363984
4.204429493
4.122037974
4.374351186
5.063768529
5.189550409
4.949128629
4.656183903
4.422535481
4.239692824
4.037700617
3.854760411
3.7677569
3.665015184
3.515227955
3.445503699
3.39773378
3.303872565
3.237566659
3.203365494
3.132413587
3.085138034
3.050222498
2.98908348
2.949779089
2.912108865
2.866255795
2.822320234
2.777472942
2.736910892
2.698364484
2.658986746
2.618453451
2.576962571
2.536885445
4.265250956
4.264165802
4.250683785
4.202563485
4.073666376
4.014475309
4.451528753
4.967197205
4.897998273
4.620068252
4.374723843
4.177523145
3.966541595
3.790591258
3.703574271
3.58811813
3.437491771
3.38439429
3.332476291
3.227506175
3.177746167
3.145118106
3.066948046
3.033080916
2.992486907
2.933721332
2.906625319
2.868151154
2.821300473
2.779582503
2.738598327
2.701455682
2.663945014
2.625005192
2.585727296
2.546949233
2.510016394
4.266467682
4.263736102
4.247609939
4.192923934
4.067597231
3.866301379
3.929848437
4.489972535
4.747809511
4.571270852
4.331265633
4.115405554
3.896835505
3.729474866
3.640205026
3.510093289
3.365102517
3.324877196
3.258374396
3.152958999
3.122539766
3.079141432
3.002875825
2.979730769
2.92878526
2.884519772
2.863296637
2.818322931
2.776316044
2.739859542
2.700064961
2.663327799
2.627795286
2.592250738
2.556046976
2.518714961
2.481432789
4.266175015
4.26319967
4.244737826
4.180502885
4.063743778
3.848264379
3.667804932
3.879164192
4.415152814
4.48810862
4.2811679
4.055270999
3.831541736
3.669884177
3.572449096
3.428265295
3.299197136
3.265844387
3.180359756
3.087041569
3.068171834
3.005969867
2.94429376
2.923264751
2.865438104
2.839821897
2.814717848
2.764769523
2.733411475
2.698145908
2.658147354
2.625505555
2.594271021
2.560831561
2.524797165
2.487076359
2.45036872
4.265687473
4.262772324
4.241148376
4.167605434
4.036789403
3.846459462
3.584276086
3.499329851
3.883988272
4.292789958
4.197946895
3.997778227
3.769534489
3.610057939
3.504818689
3.350003085
3.237911646
3.197858073
3.098555224
3.029925095
)
;

boundaryField
{
    inlet
    {
        type            calculated;
        value           nonuniform 0();
    }
    outlet
    {
        type            calculated;
        value           nonuniform 0();
    }
    bottom
    {
        type            calculated;
        value           nonuniform List<scalar> 
37
(
1.40000504
3.33984568
5.379056688
5.392034881
5.308895644
5.262323539
5.207138037
5.150970343
5.091061347
5.02805982
4.961777643
4.892649453
4.82074962
4.7461214
4.668529114
4.588759779
4.50747674
4.424812442
4.340403169
4.254590723
4.168813623
4.085846629
3.998648929
3.908829598
3.820543163
3.736662139
3.654559139
3.573865348
3.493659946
3.412946622
3.33155138
3.250722775
3.172421247
3.097858375
3.026704555
2.957707792
2.889562348
)
;
    }
    top
    {
        type            calculated;
        value           nonuniform 0();
    }
    obstacle
    {
        type            calculated;
        value           nonuniform 0();
    }
    defaultFaces
    {
        type            empty;
    }
    procBoundary3to2
    {
        type            processor;
        value           nonuniform List<scalar> 
39
(
1.40000504
1.40000504
1.40000504
1.40000504
1.40000504
1.40000504
1.40000504
1.40000504
1.40000504
1.40000504
1.40000504
1.40000504
1.40000504
1.40000504
1.40000504
1.40000504
1.40000504
1.40000504
1.40000504
1.40000504
1.40000504
1.400005043
1.400006589
1.400592871
1.421910984
1.455572969
1.492208525
1.533233722
1.580289968
1.633534087
1.695080432
1.76913485
1.85799923
1.964710431
2.087420174
2.21646228
2.345318284
2.479975915
2.638608709
)
;
    }
    procBoundary3to4
    {
        type            processor;
        value           nonuniform List<scalar> 
62
(
2.821563102
2.821286485
2.820658999
2.819748757
2.818300812
2.816469873
2.814003684
2.811042197
2.807884703
2.80420644
2.800436925
2.796307621
2.791845711
2.787002459
2.781677987
2.775823842
2.769409083
2.762475202
2.75512797
2.747470277
2.739552269
2.731334916
2.722687801
2.713538886
2.703876886
2.693984117
2.68446438
2.676537887
2.671954131
2.671639849
2.676172427
2.684866786
2.704235459
2.731641426
2.766288296
2.808618941
2.847244871
2.884931809
2.909409259
2.927935427
2.928883102
2.927107235
2.928508656
2.904210674
2.882557823
2.857027778
2.830273692
2.804131126
2.777398463
2.750156158
2.723077656
2.69846984
2.673400914
2.646468294
2.620723925
2.594837038
2.594837038
2.523983682
2.49770631
2.472491287
2.443417274
2.415009158
)
;
    }
    procBoundary3to8
    {
        type            processor;
        value           nonuniform List<scalar> 
24
(
2.830171287
3.037500757
3.206247702
3.298830596
3.257711562
3.122700752
3.070725729
3.632875942
4.058225092
4.182680475
4.265015615
4.289186139
4.248644488
4.251350806
4.275899676
4.270244073
4.258321264
4.262749024
4.268744293
4.265184441
4.263252181
4.266229202
4.268022293
4.266601657
)
;
    }
    procBoundary3to9