/*--------------------------------*- C++ -*----------------------------------*\
  =========                 |
  \\      /  F ield         | OpenFOAM: The Open Source CFD Toolbox
   \\    /   O peration     | Website:  https://openfoam.org
    \\  /    A nd           | Version:  7
     \\/     M anipulation  |
\*---------------------------------------------------------------------------*/
FoamFile
{
    version     2.0;
    format      ascii;
    class       volScalarField;
    location    "1.5";
    object      p;
}
// * * * * * * * * * * * * * * * * * * * * * * * * * * * * * * * * * * * * * //

dimensions      [1 -1 -2 0 0 0 0];

internalField   nonuniform List<scalar> 
555
(
0.6291200831
0.7726944321
0.9139644312
0.9725522185
0.992015139
1.002279064
0.9931085925
0.9757533913
0.5269916034
0.5079608005
0.5243404733
0.5481140631
0.5464021453
0.537600771
0.5390020966
0.5464923983
0.5621944844
0.5995213848
0.7137151308
0.8845357772
0.9721323808
0.9912902519
1.001037384
0.9952978071
0.9747647997
0.5294500722
0.5076868543
0.5222427079
0.546397416
0.5487177142
0.5376123395
0.5376688675
0.5427091302
0.5561484101
0.5862466825
0.6704764843
0.8315089989
0.9570374528
0.9871954685
1.000546998
0.9969461151
0.9731458619
0.5321695119
0.5076087819
0.5201723268
0.544330299
0.5502933652
0.5376321998
0.5360333099
0.5399083252
0.5510088744
0.5802861682
0.6540629913
0.7801703184
0.9230193727
0.9789599699
1.000659383
0.9983669017
0.9719202516
0.5352981013
0.507136966
0.5178748297
0.5425190281
0.5516257982
0.5379016474
0.5351496333
0.5386134396
0.5485430504
0.5703632925
0.6345911657
0.758449982
0.8923392322
0.9726236376
1.002829991
1.000218065
0.9712600213
0.9916946771
0.5390636865
0.5063644814
0.5149470495
0.5406969524
0.5528824958
0.5384405718
0.5345863863
0.5374557845
0.5464262314
0.5609408891
0.6054539857
0.7381142812
0.8798966105
0.9689005096
1.003887942
1.002954653
0.9701824264
0.9915363314
0.5435902178
0.5072550832
0.5121834036
0.5391392062
0.5542397748
0.5387779591
0.5334340056
0.5354270458
0.5434442219
0.5554379948
0.589074945
0.6956447367
0.8735978496
0.9657835513
1.002305311
1.004939284
0.9699125424
0.9922842121
0.5483486185
0.5106646912
0.5093014269
0.5378996452
0.5557326557
0.5395415583
0.5330465446
0.5336251694
0.5411325954
0.551753858
0.5810552109
0.6576668697
0.8336028719
0.9546955498
0.9978541514
1.006842139
0.9693543871
0.9924776521
0.5533703573
0.5120308696
0.5039497684
0.5369674562
0.5571747757
0.5404551918
0.5325200899
0.5322967554
0.5399551551
0.5492777861
0.5712552215
0.6349486284
0.7702267918
0.9238838782
0.9888952213
1.007373236
0.9687103012
0.9919077801
0.5578242531
0.5153461788
0.5019208904
0.5382856683
0.5586390321
0.5411031316
0.5330575635
0.5308909859
0.5385168993
0.5462491749
0.5611061026
0.6134084664
0.733448446
0.8919523668
0.9825928766
1.008314577
0.9674073297
0.9900203698
0.5611628066
0.5183606074
0.5005871121
0.5436909218
0.5613884667
0.5439735323
0.5331518294
0.5296115087
0.5368343983
0.5440275948
0.5567329961
0.5953223423
0.7091284657
0.8681080411
0.9764645465
1.011194665
0.9665355107
0.9882757114
0.5856461815
0.5185001201
0.4972309082
0.5411194229
0.5627241213
0.5466036083
0.5340500571
0.5283242554
0.535202694
0.5420222838
0.5512757258
0.5776853176
0.6645472002
0.8249700247
0.9608869815
1.012194964
0.9660251453
0.9862864065
1.090277461
0.6627070965
0.5845038293
0.5737011162
0.5686498732
0.5573585759
0.5410505061
0.5319772404
0.5326790817
0.5362303456
0.5395293776
0.5455193979
0.575005282
0.6795077139
0.8507442173
0.9197378544
0.9538480819
0.978260961
1.382660782
1.150660094
0.9177024114
0.7518171269
0.6212675398
0.5671571623
0.5516923539
0.5387147201
0.5421323007
0.5452883637
0.5416809776
0.5364146838
0.5365348798
0.5516926463
0.6092072391
0.7361285218
0.8891220762
0.9381950904
1.442364335
1.360934289
1.168516707
0.9608003155
0.7584451779
0.6654896563
0.6393121838
0.606881398
0.5806542094
0.5545016825
0.5369916364
0.5307054477
0.534679424
0.5380939545
0.5446633187
0.5769870419
0.6725449039
0.7915208823
1.446820084
1.426944279
1.344012984
1.175708739
1.01223366
0.8507164175
0.7435089203
0.6841629992
0.6209049679
0.5707563844
0.560212551
0.5654082465
0.5620010848
0.5491630793
0.5418728167
0.5438740567
0.5596657738
0.6190599977
1.449116245
1.441914361
1.414425693
1.329617351
1.194400389
1.034877635
0.8929735844
0.7823559007
0.707734945
0.667984676
0.6346574422
0.6112466517
0.5870880721
0.5609989165
0.5453101691
0.5480313838
0.551606769
0.5548994617
1.455823341
1.448429883
1.436713634
1.403145893
1.322340924
1.20043596
1.067345704
0.9350049508
0.8406984864
0.7724247973
0.695567768
0.6349166501
0.6182407978
0.6054768899
0.5788986055
0.5744831036
0.5688004854
0.5567333503
1.461451334
1.455301037
1.447457841
1.432814104
1.395211698
1.319348255
1.206822377
1.084917401
0.9583854259
0.8724458491
0.8078762507
0.7198343956
0.6891273526
0.6715903868
0.6307064482
0.5946158286
0.5830601687
0.5665653073
1.470355222
1.465439977
1.457075422
1.448191296
1.430968324
1.389568955
1.313929564
1.214223863
1.098578246
0.9810691016
0.9161750829
0.8442508472
0.7575369825
0.717619721
0.6868817613
0.6372916157
0.6233692461
0.6129783475
1.467245948
1.460233284
1.461857448
1.459161795
1.449356242
1.426843518
1.38097063
1.306564616
1.2187187
1.108642707
1.007865684
0.937806843
0.8498543465
0.7851604329
0.7606332928
0.7235510869
0.6817085678
0.6559971407
1.420512714
1.445761294
1.468857622
1.467808828
1.462636361
1.448099454
1.42160872
1.373303586
1.303697361
1.220096626
1.117127137
1.032638016
0.9598398211
0.8784035694
0.8243401348
0.779606153
0.7273714783
0.6972809358
1.341051839
1.447777203
1.470227706
1.466891514
1.4597465
1.456677569
1.444776735
1.417041865
1.368467885
1.302760832
1.218713633
1.126223831
1.049471059
0.9731242496
0.9030054186
0.8485510736
0.7974456596
0.759404332
1.183899905
1.374586418
1.424953322
1.43982162
1.454087811
1.460903748
1.457390767
1.443541566
1.41380874
1.365024096
1.300345679
1.219675703
1.136965731
1.059678563
0.9890736922
0.9283562187
0.8734960457
0.8223996716
1.053984836
1.198318835
1.32889691
1.425529298
1.463060008
1.462340893
1.458372766
1.453343404
1.439306214
1.409016538
1.360657053
1.296192558
1.221912511
1.144823397
1.071527481
1.003863061
0.9408228491
0.8857132158
1.007234488
1.056603914
1.193919948
1.353466485
1.436524096
1.446851243
1.454486019
1.455750375
1.451334411
1.436186222
1.40492896
1.35631584
1.294079289
1.22253856
1.150812943
1.082021934
1.018637465
0.9571646882
1.000431207
1.008900898
1.071605379
1.200656009
1.32034892
1.417122626
1.45831924
1.457395639
1.454547949
1.448952869
1.432707807
1.400581773
1.352266688
1.291768891
1.224365066
1.153775793
1.090593935
1.031073994
1.00001153
1.000789698
1.015682416
1.066653398
1.193908918
1.350496456
1.433019296
1.444993543
1.451512646
1.452982196
1.447449657
1.429961879
1.396639428
1.348007892
1.290216301
1.225458206
1.157354461
1.098706315
1.000000132
1.000043094
1.001979601
1.013805401
1.077962827
1.201487591
1.315547353
1.416082264
1.452736238
1.452405025
1.451180295
1.445653266
1.427516289
1.392749812
1.344655665
1.288814569
1.226002764
1.162656094
1.000000001
1.000001502
1.000150583
1.001750401
1.01924876
1.071500848
1.196574174
1.349118582
1.425749342
1.438718736
1.448419207
1.450699307
1.443884995
1.424299753
1.388793277
1.342123607
1.287646065
1.224366955
1
1.000000036
1.000006785
1.000141347
1.002805459
1.0163424
1.081908532
1.200730228
1.31438539
1.416406836
1.450222691
1.449802232
1.447908167
1.441118578
1.421328669
1.386347284
1.340715945
1.285003571
1
1.000000001
1.000000184
1.000007245
1.00024865
1.002326568
1.020949648
1.07352132
1.198084485
1.348859846
)
;

boundaryField
{
    inlet
    {
        type            fixedValue;
        value           nonuniform 0();
    }
    outlet
    {
        type            zeroGradient;
    }
    bottom
    {
        type            slip;
    }
    top
    {
        type            slip;
    }
    obstacle
    {
        type            zeroGradient;
    }
    defaultFaces
    {
        type            empty;
    }
    procBoundary27to20
    {
        type            processor;
        value           nonuniform List<scalar> 
16
(
1.456770837
1.450188947
1.448015913
1.449066783
1.452806923
1.464902839
1.462318226
1.467432482
1.46707167
1.403709698
1.248327338
1.066600157
1.004691913
1.000029889
0.9999999452
0.9999999881
)
;
    }
    procBoundary27to21
    {
        type            processor;
        value           nonuniform List<scalar> 
18
(
0.6557713608
0.8028519178
0.9254207971
0.9738672817
0.9920777364
1.002361287
0.9911423839
0.9761577488
0.5241354697
0.5086726646
0.5263773345
0.5495456766
0.5469768463
0.5377826378
0.5399036568
0.5485899553
0.5682397159
0.5682397159
)
;
    }
    procBoundary27to26
    {
        type            processor;
        value           nonuniform List<scalar> 4(0.9999999995 1 1 1);
    }
    procBoundary27to28
    {
        type            processor;
        value           nonuniform List<scalar> 
28
(
0.995646783
0.9953520568
0.9943898803
0.9925827827
0.9925827827
0.9967431712
0.9974739323
0.9981555242
0.9983867421
0.9971609184
0.9970228682
0.9968134125
0.997167987
0.9945623819
0.9826786282
0.9237868254
0.7237280166
0.5762100677
0.5551631261
0.5591129326
0.5901349721
0.6226241105
0.6756308085
0.7339592133
0.7799199676
0.8390458502
0.9016784158
0.9689498542
)
;
    }
    procBoundary27to33
    {
        type            processor;
        value           nonuniform List<scalar> 
19
(
1.416007736
1.43390692
1.445328534
1.446115616
1.439434445
1.418812509
1.383736321
1.337791565
1
1
1.000000003
1.000000247
1.000013188
1.00021147
1.003187098
1.017451881
1.083312269
1.416007736
1.20061496
)
;
    }
    procBoundary27to34
    {
        type            processor;
        value           nonuniform List<scalar> 4(1.040752073 1.108490583 1.17027434 1.227431631);
    }
}


// ************************************************************************* //
