/*--------------------------------*- C++ -*----------------------------------*\
  =========                 |
  \\      /  F ield         | OpenFOAM: The Open Source CFD Toolbox
   \\    /   O peration     | Website:  https://openfoam.org
    \\  /    A nd           | Version:  7
     \\/     M anipulation  |
\*---------------------------------------------------------------------------*/
FoamFile
{
    version     2.0;
    format      ascii;
    class       volScalarField;
    location    "1.6";
    object      p;
}
// * * * * * * * * * * * * * * * * * * * * * * * * * * * * * * * * * * * * * //

dimensions      [1 -1 -2 0 0 0 0];

internalField   nonuniform List<scalar> 
22
(
1.012115018
1.022722004
1.023065651
1.001528242
1.017879749
1.020370015
0.9895623639
0.9856860966
1.012875127
1.017000677
0.9880849332
0.9497866184
1.008779011
1.014470573
0.9866316916
0.9081622063
0.972327939
0.9880488146
0.8363120583
0.87935043
0.9519408923
0.896248009
)
;

boundaryField
{
    inlet
    {
        type            fixedValue;
        value           nonuniform 0();
    }
    outlet
    {
        type            zeroGradient;
    }
    bottom
    {
        type            slip;
    }
    top
    {
        type            slip;
    }
    obstacle
    {
        type            zeroGradient;
    }
    defaultFaces
    {
        type            empty;
    }
    procBoundary28to21
    {
        type            processor;
        value           nonuniform List<scalar> 2(0.9321416309 0.8925496302);
    }
    procBoundary28to22
    {
        type            processor;
        value           nonuniform List<scalar> 3(1.019649681 1.017590586 1.016182436);
    }
    procBoundary28to27
    {
        type            processor;
        value           nonuniform List<scalar> 6(0.8497453972 0.7889047013 0.8220351619 0.8220351619 0.8208695698 0.971318519);
    }
    procBoundary28to29
    {
        type            processor;
        value           nonuniform List<scalar> 7(0.9879939717 0.9879939717 0.9939884771 0.9923508053 0.9902972049 0.9974462637 0.9865578717);
    }
    procBoundary28to34
    {
        type            processor;
        value           nonuniform List<scalar> 4(0.8820871146 0.8915742952 0.8820871146 1.008359713);
    }
}


// ************************************************************************* //
