/*--------------------------------*- C++ -*----------------------------------*\
  =========                 |
  \\      /  F ield         | OpenFOAM: The Open Source CFD Toolbox
   \\    /   O peration     | Website:  https://openfoam.org
    \\  /    A nd           | Version:  7
     \\/     M anipulation  |
\*---------------------------------------------------------------------------*/
FoamFile
{
    version     2.0;
    format      ascii;
    class       volVectorField;
    location    "1.8";
    object      U;
}
// * * * * * * * * * * * * * * * * * * * * * * * * * * * * * * * * * * * * * //

dimensions      [0 1 -1 0 0 0 0];

internalField   nonuniform List<vector> 
558
(
(3 1.046473258e-14 0)
(3 8.472869679e-15 0)
(3 7.715388981e-15 0)
(3 4.428254418e-15 0)
(3 2.95619069e-15 0)
(3 1.132545835e-15 0)
(3 -3.241752293e-16 0)
(3 2.847258729e-16 0)
(3 4.047515293e-15 0)
(3 7.784380029e-15 0)
(3 8.496842571e-15 0)
(3 1.100118365e-14 0)
(3 9.247709292e-15 0)
(3 8.574675771e-15 0)
(3 -1.109176243e-16 0)
(3 -1.352754392e-16 0)
(3 -7.164491847e-16 0)
(3 -1.655684182e-15 0)
(3 -1.811498355e-16 0)
(3 2.567111818e-15 0)
(3 2.36957116e-15 0)
(3 1.350173368e-15 0)
(3 2.015057219e-15 0)
(3 1.325577657e-15 0)
(3 -4.627476638e-16 0)
(3 1.280618153e-15 0)
(3 2.953140019e-15 0)
(3 5.830186688e-15 0)
(3 8.091891732e-15 0)
(3 9.950191249e-15 0)
(3 1.14710392e-14 0)
(3 1.13396947e-14 0)
(3 1.144528592e-14 0)
(3 1.068532573e-14 0)
(3 7.266320423e-15 0)
(3 3.629922682e-15 0)
(3 3.585819602e-15 0)
(3 2.42731997e-15 0)
(3 -3.327005445e-16 0)
(3 -1.24188199e-15 0)
(3 -2.251751852e-15 0)
(3 -1.119467555e-15 0)
(3 -1.248486671e-15 0)
(3 -2.727293075e-15 0)
(3 -3.631294961e-15 0)
(3 -3.492088576e-15 0)
(3 -7.037819043e-16 0)
(3 1.830915802e-15 0)
(3 2.185256114e-15 0)
(3 1.213677753e-15 0)
(3 -6.966093807e-16 0)
(3 -4.788211791e-16 0)
(3 -1.621669441e-15 0)
(3 -2.738818788e-15 0)
(3 -7.238027927e-16 0)
(3 5.57195689e-16 0)
(3 2.430865823e-15 0)
(3 4.481739826e-15 0)
(3 5.655609235e-15 0)
(3 5.013332122e-15 0)
(3 4.64221314e-15 0)
(3 4.86463892e-15 0)
(3 3.87654838e-15 0)
(3 6.005366521e-15 0)
(3 8.231339667e-15 0)
(3 9.264559069e-15 0)
(3 1.0264353e-14 0)
(3 9.72426564e-15 0)
(3 8.799623126e-15 0)
(3 8.406098803e-15 0)
(3 4.317878432e-15 0)
(3 1.95500293e-15 0)
(3 1.602260055e-15 0)
(3 -1.154871878e-15 0)
(3 -3.210371746e-15 0)
(3 -4.256205452e-15 0)
(3 -5.978840492e-15 0)
(3 -1.029726396e-14 0)
(3 -1.276383052e-14 0)
(3 -1.268627565e-14 0)
(3 -8.629823305e-15 0)
(3 -7.584051835e-15 0)
(3 -7.921113424e-16 0)
(3 -2.467504299e-15 0)
(3 -3.429319986e-15 0)
(3 -1.701932862e-15 0)
(3 -2.725553019e-15 0)
(3 -4.521028653e-15 0)
(3 -3.307353365e-15 0)
(3 -1.231689305e-15 0)
(3 2.856949851e-16 0)
(3 2.747714326e-15 0)
(3 5.186883901e-15 0)
(3 4.1721126e-15 0)
(3 3.710522967e-15 0)
(3 2.852080058e-15 0)
(3 -2.209695693e-16 0)
(3 -1.744474507e-15 0)
(3 -1.646043584e-15 0)
(3 -3.044226077e-16 0)
(3 5.517644738e-16 0)
(3 2.502297137e-15 0)
(3 6.158015351e-15 0)
(3 7.94764962e-15 0)
(3 6.165165369e-15 0)
(3 2.344989018e-15 0)
(3 4.035773007e-16 0)
(3 1.050544141e-15 0)
(3 2.690885448e-15 0)
(3 1.174413858e-15 0)
(3 -1.368593103e-15 0)
(3 -5.586331528e-15 0)
(3 -8.153582564e-15 0)
(3 -9.275368983e-15 0)
(3 -1.080035734e-14 0)
(3 -1.340413695e-14 0)
(3 1.06374941e-16 0)
(3 8.901180905e-17 0)
(3 1.32012575e-15 0)
(3 7.95401316e-16 0)
(3 -1.654813331e-16 0)
(3 -5.775868755e-16 0)
(3 -1.871708407e-15 0)
(3 -2.347406694e-15 0)
(3 -3.576930237e-15 0)
(3 -4.90288205e-15 0)
(3 -4.378279675e-15 0)
(3 -3.470072507e-15 0)
(3 -3.899776985e-15 0)
(3 -5.197057185e-15 0)
(3 -6.521042884e-15 0)
(3 -9.793586575e-15 0)
(3 -9.526078942e-15 0)
(3 -8.681467325e-15 0)
(3 -8.146048439e-15 0)
(3 -4.840846598e-15 0)
(3 -1.643698475e-15 0)
(3 9.053855489e-16 0)
(3 3.962552637e-15 0)
(3 5.552834572e-15 0)
(3 4.246868681e-15 0)
(3 4.837216477e-15 0)
(3 6.463480313e-15 0)
(3 2.922446751e-15 0)
(3 -2.613873125e-15 0)
(3 -6.660567998e-15 0)
(3 -9.503021961e-15 0)
(3 -1.206626761e-14 0)
(3 -1.505935207e-14 0)
(3 -1.447133849e-14 0)
(3 5.908430047e-16 0)
(3 5.057747616e-16 0)
(3 -3.565054832e-17 0)
(3 -1.615927318e-15 0)
(3 -1.116337995e-15 0)
(3 -1.399088091e-15 0)
(3 -4.672639455e-15 0)
(3 -7.884820041e-15 0)
(3 -9.114275064e-15 0)
(3 -8.253516253e-15 0)
(3 -8.194590727e-15 0)
(3 -5.634949249e-15 0)
(3 -5.422442269e-15 0)
(3 -4.620472371e-15 0)
(3 -3.594830392e-15 0)
(3 -4.232134821e-15 0)
(3 -5.024704618e-15 0)
(3 -5.846520155e-15 0)
(3 -5.709737215e-15 0)
(3 -4.576375065e-15 0)
(3 -3.338928784e-15 0)
(3 -1.033356162e-15 0)
(3 1.721958754e-15 0)
(3 3.701631378e-15 0)
(3 4.15821167e-15 0)
(3 1.372802359e-15 0)
(3 1.96364412e-15 0)
(3 2.138418686e-15 0)
(3 -1.669850188e-15 0)
(3 -3.810043637e-15 0)
(3 -5.301102335e-15 0)
(3 -7.523200989e-15 0)
(3 -7.478062392e-15 0)
(3 -4.094834961e-15 0)
(3 -6.667716997e-16 0)
(3 -1.579883727e-15 0)
(3 -1.915318173e-15 0)
(3 -2.856856907e-15 0)
(3 -1.166387612e-15 0)
(3 -2.543435684e-16 0)
(3 -1.423176769e-15 0)
(3 -2.824528616e-15 0)
(3 -2.944667114e-15 0)
(3 -1.678482419e-15 0)
(3 -1.236200837e-15 0)
(3 -1.35419656e-15 0)
(3 3.408246084e-16 0)
(3 4.346918447e-15 0)
(3 7.420290675e-15 0)
(3 8.033883637e-15 0)
(3 7.849427303e-15 0)
(3 5.278477563e-15 0)
(3 4.386085368e-15 0)
(3 3.128518751e-15 0)
(3 8.309463329e-16 0)
(3 8.763421862e-16 0)
(3 -5.606609171e-16 0)
(3 -4.560715405e-15 0)
(3 -6.902557855e-15 0)
(3 -6.538382592e-15 0)
(3 -6.164354311e-15 0)
(3 -3.713093144e-15 0)
(3 -9.115009767e-16 0)
(3 -6.621091014e-16 0)
(3 -3.456546086e-16 0)
(3 -3.687153231e-15 0)
(3 -5.677699447e-15 0)
(3 -2.764704397e-15 0)
(3 -1.018215752e-15 0)
(3 -4.916162068e-16 0)
(3 5.626702319e-16 0)
(3 1.499442253e-15 0)
(3 8.995076801e-16 0)
(3 1.27695623e-15 0)
(3 3.666801413e-15 0)
(3 4.495906862e-15 0)
(3 4.315138282e-15 0)
(3 2.297568848e-15 0)
(3 2.510842227e-15 0)
(3 1.953907958e-15 0)
(3 3.003732094e-15 0)
(3 3.872748108e-15 0)
(3 5.850778909e-15 0)
(3 7.205774328e-15 0)
(3 7.465538185e-15 0)
(3 6.028784881e-15 0)
(3 4.345655535e-15 0)
(3 2.828414426e-15 0)
(3 1.939701161e-15 0)
(3 1.504534042e-15 0)
(3 -9.451245564e-17 0)
(3 -9.130241514e-16 0)
(3 -5.561915178e-16 0)
(3 -1.692207777e-15 0)
(3 -3.714359313e-15 0)
(3 -3.553506589e-15 0)
(3 -3.146319724e-15 0)
(3 -8.264405652e-16 0)
(3 1.624228024e-15 0)
(3 3.186287874e-15 0)
(3 3.374863083e-15 0)
(3 4.757608736e-15 0)
(3 8.865451011e-16 0)
(3 5.433943137e-16 0)
(3 1.592049201e-16 0)
(3 1.622678276e-15 0)
(3 1.640350906e-15 0)
(3 2.307554802e-15 0)
(3 1.530715244e-15 0)
(3 2.878697664e-15 0)
(3 3.052748019e-15 0)
(3 1.830771321e-15 0)
(3 8.98154524e-17 0)
(3 -2.258262613e-16 0)
(3 -1.112225655e-15 0)
(3 -1.638108389e-15 0)
(3 -2.447569509e-16 0)
(3 6.961616954e-16 0)
(3 -6.917864551e-16 0)
(3 -4.017948748e-16 0)
(3 -1.284231845e-15 0)
(3 -2.070781782e-15 0)
(3 -1.283277597e-15 0)
(3 -1.326212682e-15 0)
(3 7.741594714e-16 0)
(3 2.020899296e-15 0)
(3 5.499009316e-15 0)
(3 6.960438292e-15 0)
(3 7.666956627e-15 0)
(3 7.77182369e-15 0)
(3 1.173090115e-14 0)
(3 1.228087672e-14 0)
(3 1.343781831e-14 0)
(3 1.446745129e-14 0)
(3 1.452353122e-14 0)
(3 1.205300376e-14 0)
(3 8.013909231e-16 0)
(3 8.118661123e-16 0)
(3 -6.749624974e-16 0)
(3 -8.693770126e-16 0)
(3 -1.879482897e-16 0)
(3 2.516410002e-17 0)
(3 -1.642886242e-15 0)
(3 -1.619176481e-15 0)
(3 -5.74609022e-16 0)
(3 -6.951068589e-16 0)
(3 -1.772029502e-15 0)
(3 -2.999340922e-15 0)
(3 -4.012908245e-15 0)
(3 -2.947967974e-15 0)
(3 -6.764193644e-15 0)
(3 -8.0110203e-15 0)
(3 -7.658074793e-15 0)
(3 -6.094204291e-15 0)
(3 -6.180479243e-15 0)
(3 -6.097631754e-15 0)
(3 -5.21593424e-15 0)
(3 -4.538511319e-15 0)
(3 -2.96753251e-15 0)
(3 -7.486252278e-16 0)
(3 4.592452014e-16 0)
(3 2.625475682e-15 0)
(3 8.108612408e-15 0)
(3 1.157464874e-14 0)
(3 1.852411303e-14 0)
(3 1.882864901e-14 0)
(3 2.120013169e-14 0)
(3 2.242681947e-14 0)
(3 2.308129166e-14 0)
(3 1.82794396e-14 0)
(3 8.736748628e-17 0)
(3 1.181913746e-15 0)
(3 1.192680008e-15 0)
(3 5.617967859e-16 0)
(3 -1.548944826e-15 0)
(3 -1.79563305e-15 0)
(3 -1.630882233e-15 0)
(3 -1.878619257e-15 0)
(3 -1.53097312e-15 0)
(3 -9.151286053e-16 0)
(3 -7.090570283e-16 0)
(3 -2.830162325e-15 0)
(3 -4.226255013e-15 0)
(3 -5.719010863e-15 0)
(3 -1.185227446e-14 0)
(3 -1.357509156e-14 0)
(3 -1.28369177e-14 0)
(3 -1.183917658e-14 0)
(3 -1.150102651e-14 0)
(3 -1.128483234e-14 0)
(3 -1.052559837e-14 0)
(3 -8.558331527e-15 0)
(3 -6.426571333e-15 0)
(3 -4.26357549e-15 0)
(3 -2.35376489e-15 0)
(3 -2.835324273e-16 0)
(3 4.595665551e-15 0)
(3 1.333142296e-14 0)
(3 1.961543593e-14 0)
(3 2.217845158e-14 0)
(3 2.531092615e-14 0)
(3 2.527016851e-14 0)
(3 2.061097576e-14 0)
(3 1.526041206e-14 0)
(3 -7.971324201e-17 0)
(3 5.869930232e-16 0)
(3 2.445410865e-16 0)
(3 1.457598806e-15 0)
(3 1.116517438e-15 0)
(3 -2.670911636e-16 0)
(3 6.128844431e-16 0)
(3 1.529235242e-15 0)
(3 1.416734414e-15 0)
(3 1.15191201e-15 0)
(3 4.834283314e-16 0)
(3 2.200757044e-17 0)
(3 -2.343420592e-15 0)
(3 -3.887634404e-15 0)
(3 -3.037786461e-15 0)
(3 -4.053598711e-15 0)
(3 -5.640967731e-15 0)
(3 -8.269596316e-15 0)
(3 -9.161587772e-15 0)
(3 -7.933145245e-15 0)
(3 -9.284225541e-15 0)
(3 -9.257533757e-15 0)
(3 -6.345874964e-15 0)
(3 -3.991478131e-15 0)
(3 9.787632495e-16 0)
(3 4.541881061e-15 0)
(3 8.412514101e-15 0)
(3 1.447694822e-14 0)
(3 1.850600809e-14 0)
(3 2.135390698e-14 0)
(3 2.013295132e-14 0)
(3 1.974827555e-14 0)
(3 1.613789414e-14 0)
(3 1.257461229e-14 0)
(3 1.284251812e-16 0)
(3 -1.074853666e-15 0)
(3 -1.073355551e-15 0)
(3 -1.264493654e-15 0)
(3 8.198114393e-16 0)
(3 1.22338833e-15 0)
(3 8.252187161e-16 0)
(3 1.041363167e-15 0)
(3 8.956335402e-16 0)
(3 1.85678345e-16 0)
(3 2.954527291e-15 0)
(3 4.848582303e-15 0)
(3 5.356415922e-15 0)
(3 6.685369522e-15 0)
(3 7.640751632e-15 0)
(3 8.262158427e-15 0)
(3 7.746253369e-15 0)
(3 5.911301159e-15 0)
(3 2.299500438e-15 0)
(3 1.190479895e-15 0)
(3 -1.475214802e-15 0)
(3 -1.952536898e-15 0)
(3 -1.80816527e-15 0)
(3 -2.871113198e-16 0)
(3 1.112350425e-15 0)
(3 2.854066117e-15 0)
(3 5.294934088e-15 0)
(3 4.718131891e-15 0)
(3 5.859984416e-15 0)
(3 8.121414338e-15 0)
(3 9.239515843e-15 0)
(3 8.069425208e-15 0)
(3 5.941155492e-15 0)
(3 2.633211784e-15 0)
(3 1.030703521e-16 0)
(3 -1.582600861e-15 0)
(3 -2.835070629e-16 0)
(3 -1.658026031e-15 0)
(3 -1.187509388e-15 0)
(3 1.576240456e-15 0)
(3 1.539924689e-15 0)
(3 -5.871247032e-16 0)
(3 -9.20862942e-16 0)
(3 -3.101220122e-16 0)
(3 1.194173801e-15 0)
(3 7.519118231e-16 0)
(3 3.356096515e-15 0)
(3 4.286162404e-15 0)
(3 5.621580273e-15 0)
(3 6.805781616e-15 0)
(3 8.818723262e-15 0)
(3 8.05229948e-15 0)
(3 8.176312315e-15 0)
(3 7.175281808e-15 0)
(3 8.046706487e-15 0)
(3 7.781107424e-15 0)
(3 4.468010503e-15 0)
(3 -3.242697413e-16 0)
(3 -1.067059382e-15 0)
(3 -1.862238766e-15 0)
(3 -2.05779902e-15 0)
(3 -3.771677631e-15 0)
(3 -7.117706788e-15 0)
(3 -5.272887663e-15 0)
(3 -1.59133341e-15 0)
(3 5.49189348e-16 0)
(3 2.437980555e-15 0)
(3 3.14074276e-15 0)
(3 -5.816042379e-16 0)
(3 -3.831068624e-16 0)
(3 1.673358836e-16 0)
(3 6.338688453e-16 0)
(3 1.571404931e-16 0)
(3 -2.323004749e-16 0)
(3 -3.833076221e-16 0)
(3 -6.512301466e-16 0)
(3 -1.227986797e-15 0)
(3 -1.484705058e-16 0)
(3 -2.749161325e-15 0)
(3 -6.748241843e-15 0)
(3 -5.783748365e-15 0)
(3 -4.774449723e-15 0)
(3 -3.239996653e-15 0)
(3 -1.387158565e-15 0)
(3 1.388063793e-15 0)
(3 3.67004507e-15 0)
(3 7.85451886e-15 0)
(3 1.1548888e-14 0)
(3 1.210433327e-14 0)
(3 9.270231135e-15 0)
(3 5.098665067e-15 0)
(3 1.773899021e-15 0)
(3 -2.553549276e-15 0)
(3 -4.899843489e-15 0)
(3 -6.93226349e-15 0)
(3 -9.249658545e-15 0)
(3 -1.132257006e-14 0)
(3 -1.000124981e-14 0)
(3 -7.20637538e-15 0)
(3 -1.677678973e-15 0)
(3 6.690847318e-15 0)
(3 1.506473016e-14 0)
(3 2.657853974e-16 0)
(3 1.919408843e-15 0)
(3 1.519245493e-15 0)
(3 2.058644285e-15 0)
(3 -1.816055009e-16 0)
(3 -3.161563655e-15 0)
(3 -3.67751279e-15 0)
(3 -3.930593349e-15 0)
(3 -4.679524579e-15 0)
(3 -7.250605243e-15 0)
(3 -1.025654952e-14 0)
(3 -9.905749989e-15 0)
(3 -9.723905316e-15 0)
(3 -7.409878067e-15 0)
(3 -5.252340358e-15 0)
(3 -4.084741345e-15 0)
(3 -2.885784699e-15 0)
(3 1.769365619e-17 0)
(3 3.038565206e-15 0)
(3 6.720989152e-15 0)
(3 7.4581629e-15 0)
(3 3.189108302e-15 0)
(3 3.163073626e-15 0)
(3 3.922065613e-15 0)
(3 2.058374944e-15 0)
(3 4.810259855e-16 0)
(3 -2.833610918e-15 0)
(3 -4.968248695e-15 0)
(3 -7.05257212e-15 0)
(3 -5.454556972e-15 0)
(3 -3.243257409e-15 0)
(3 3.929320308e-15 0)
(3 6.644430786e-15 0)
(3 1.017681185e-14 0)
(3 -2.335237767e-16 0)
(3 9.956262525e-16 0)
(3 1.947377133e-15 0)
(3 1.651061504e-15 0)
(3 -3.451707302e-16 0)
(3 -2.014664041e-15 0)
(3 -2.461090871e-15 0)
(3 -4.187207438e-15 0)
(3 -4.999523764e-15 0)
(3 -7.431000722e-15 0)
(3 -1.012617075e-14 0)
(3 -1.088702551e-14 0)
(3 -1.040628007e-14 0)
(3 -8.718474159e-15 0)
(3 -6.983622183e-15 0)
(3 -6.31693844e-15 0)
(3 -3.485407045e-15 0)
(3 -2.021926643e-15 0)
(3 9.614924186e-16 0)
(3 3.714255927e-15 0)
(3 6.726650248e-15 0)
(3 5.737352134e-15 0)
(3 5.604926606e-15 0)
(3 5.286570441e-15 0)
(3 4.162762522e-15 0)
(3 2.384926988e-15 0)
(3 9.834500984e-16 0)
(3 4.724410485e-16 0)
(3 -2.579400887e-15 0)
(3 -2.615611249e-15 0)
(3 -2.048574042e-15 0)
(3 6.740798209e-16 0)
(3 1.791218461e-15 0)
(3 2.249073589e-15 0)
)
;

boundaryField
{
    inlet
    {
        type            fixedValue;
        value           uniform (3 0 0);
    }
    outlet
    {
        type            inletOutlet;
        inletValue      nonuniform 0();
        value           nonuniform 0();
    }
    bottom
    {
        type            slip;
    }
    top
    {
        type            slip;
    }
    obstacle
    {
        type            slip;
    }
    defaultFaces
    {
        type            empty;
    }
    procBoundary30to24
    {
        type            processor;
        value           nonuniform List<vector> 
35
(
(3 5.3797135e-15 0)
(3 7.333546852e-15 0)
(3 7.55955783e-15 0)
(3 8.327798443e-15 0)
(3 8.033785286e-15 0)
(3 6.907177395e-15 0)
(3 5.702430307e-15 0)
(3 4.286334971e-15 0)
(3 6.572528422e-15 0)
(3 9.622108491e-15 0)
(3 1.003406191e-14 0)
(3 1.263719068e-14 0)
(3 1.342030885e-14 0)
(3 1.243987077e-14 0)
(3 -3.507383345e-15 0)
(3 -2.955685145e-15 0)
(3 -2.860200423e-15 0)
(3 -3.905232773e-15 0)
(3 -1.158177438e-15 0)
(3 -2.589011282e-16 0)
(3 -1.19307614e-15 0)
(3 -2.473205145e-15 0)
(3 -4.162814599e-16 0)
(3 -2.974407095e-15 0)
(3 -6.157724523e-15 0)
(3 -4.823121352e-15 0)
(3 -2.922077004e-15 0)
(3 -4.771623404e-16 0)
(3 3.909753684e-15 0)
(3 7.554306616e-15 0)
(3 9.470016889e-15 0)
(3 9.478952821e-15 0)
(3 9.09003645e-15 0)
(3 1.010546788e-14 0)
(3 1.010546788e-14 0)
)
;
    }
    procBoundary30to25
    {
        type            processor;
        value           uniform (3 9.194158175e-15 0);
    }
    procBoundary30to31
    {
        type            processor;
        value           nonuniform List<vector> 
16
(
(3 7.88794294e-16 0)
(3 -6.789407868e-15 0)
(3 -1.211458227e-14 0)
(3 -1.05804452e-14 0)
(3 1.853881933e-15 0)
(3 6.258424373e-16 0)
(3 5.128051834e-15 0)
(3 6.164021514e-15 0)
(3 1.052207143e-14 0)
(3 1.353858701e-14 0)
(3 1.12299434e-14 0)
(3 1.017554037e-15 0)
(3 2.608137557e-15 0)
(3 1.67954413e-14 0)
(3 1.05204486e-14 0)
(3 2.267428802e-15 0)
)
;
    }
}


// ************************************************************************* //
