/*--------------------------------*- C++ -*----------------------------------*\
  =========                 |
  \\      /  F ield         | OpenFOAM: The Open Source CFD Toolbox
   \\    /   O peration     | Website:  https://openfoam.org
    \\  /    A nd           | Version:  7
     \\/     M anipulation  |
\*---------------------------------------------------------------------------*/
FoamFile
{
    version     2.0;
    format      ascii;
    class       volScalarField;
    location    "3.6";
    object      T;
}
// * * * * * * * * * * * * * * * * * * * * * * * * * * * * * * * * * * * * * //

dimensions      [0 0 0 1 0 0 0];

internalField   nonuniform List<scalar> 
555
(
1.007158878
1.007098969
1.006766673
1.005778217
1.005264806
0.8882806238
0.9132912139
0.9510885804
0.9811802405
1.001347468
1.003132266
1.004036216
1.004260001
1.003886045
1.004290455
1.005093801
1.006049064
1.006794237
1.006861066
1.00659297
1.006099119
0.9372092451
0.9729642876
0.9956448306
0.999465981
1.00545093
1.006771907
1.006688343
1.006495637
1.005664157
1.005053977
1.005141935
1.005728075
1.006473437
1.00700849
1.006992186
1.006851143
0.9766847855
0.992663301
1.001156051
1.000717157
1.00292767
1.005229991
1.006902355
1.006999232
1.006739504
1.00637507
1.006149298
1.006356896
1.006776112
1.007050961
1.007216571
1.007193228
1.001920491
1.003989027
1.004776362
1.004011984
1.004406733
1.005645207
1.006451002
1.006762473
1.006832071
1.006865536
1.006934954
1.007076645
1.007271717
1.007286484
1.007274189
1.007247382
1.005951938
1.006380458
1.00665797
1.00711415
1.00710997
1.007041922
1.006801331
1.006521832
1.006630297
1.006784277
1.006996699
1.007180088
1.007412469
1.007492648
1.007434042
1.007393833
1.005449211
1.006489445
1.007009245
1.007377344
1.00752883
1.007413952
1.00718583
1.006850053
1.006630805
1.006643603
1.00674381
1.006947724
1.007251765
1.007522494
1.007647477
1.007668361
1.006590779
1.006299786
1.006387766
1.006604447
1.006994961
1.007236007
1.007266775
1.007153615
1.006996958
1.007023465
1.007111353
1.007275251
1.007564046
1.007815743
1.007970189
1.008000066
1.007556679
1.006797319
1.00628491
1.006252215
1.006434656
1.00686344
1.007308715
1.007541548
1.007607594
1.007704269
1.007821628
1.007931507
1.008119756
1.008248725
1.008340366
1.008357042
1.007927726
1.007739871
1.007330861
1.007241757
1.007363144
1.007767561
1.008120631
1.008247156
1.008392791
1.008475343
1.008523214
1.008589321
1.008687559
1.008766365
1.008810311
1.008814818
1.008451272
1.008629944
1.008718913
1.008846488
1.009026314
1.009361347
1.009483213
1.009454882
1.009396514
1.009369849
1.009371567
1.009405023
1.009385127
1.009363358
1.009352357
1.009407115
1.009493671
1.009721198
1.009933106
1.010165606
1.010391001
1.010705075
1.010805797
1.010771774
1.010682523
1.010575183
1.010452438
1.01038828
1.010324257
1.010277177
1.010259967
1.010335555
1.011135654
1.011254985
1.011404211
1.011593628
1.011772274
1.011951018
1.012048024
1.01201759
1.011935265
1.011837903
1.011809697
1.011752668
1.011683997
1.011621666
1.01158513
1.011646285
1.012811308
1.01276979
1.012667365
1.012672063
1.012697201
1.012741763
1.012751233
1.012763209
1.012843998
1.0130235
1.013111592
1.013088672
1.013063072
1.013026596
1.012959333
1.012938336
1.013660242
1.013755142
1.013718588
1.01360747
1.013557241
1.013565879
1.013564931
1.01357801
1.013606166
1.013724926
1.013828312
1.013798999
1.013796696
1.0137992
1.013787342
1.013745546
1.014210333
1.0141723
1.014155139
1.014141206
1.014233091
1.014378291
1.014433441
1.014427388
1.01433147
1.014239215
1.014017894
1.013815173
1.013733021
1.01367208
1.013636108
1.013810866
1.014701994
1.014570343
1.014244709
1.013940769
1.013837337
1.013990411
1.014375578
1.014774292
1.014907096
1.014844245
1.014557671
1.015236921
1.015369159
1.015233142
1.014659548
1.014515376
1.014917098
1.014918471
1.014617259
1.0140886
1.013653826
1.013409194
1.013466919
1.013937153
1.014563991
1.014866097
1.014686639
1.01503593
1.015448305
1.015535776
1.015360227
1.014972252
1.01473912
1.014860378
1.01467089
1.014283375
1.013705748
1.013363475
1.013177883
1.013245272
1.01357772
1.013846477
1.013601938
1.013722319
1.014114991
1.014545187
1.015114616
1.015036914
1.013740571
1.014102591
1.014258741
1.013984637
1.013671933
1.013413282
1.013138508
1.012920412
1.012890962
1.012991493
1.012698029
1.012594124
1.012763987
1.013070165
1.013610123
1.014086109
1.012518484
1.012799801
1.013087002
1.013258221
1.013236973
1.013160078
1.012992493
1.012653767
1.012326818
1.012049607
1.011671961
1.011703813
1.011815023
1.011862607
1.011990253
1.012429041
1.011355053
1.011457872
1.011706021
1.01220061
1.012520928
1.012588934
1.012464813
1.012076081
1.011726118
1.011437316
1.010887152
1.010580316
1.010555874
1.010571397
1.01066217
1.010860738
1.010280361
1.010302377
1.010337926
1.010798638
1.011526949
1.011999977
1.012051035
1.011901295
1.01148812
1.011081501
1.010163516
1.009476378
1.009319368
1.009287942
1.009297917
1.009296103
1.009251469
1.009191385
1.009199644
1.009475822
1.010160388
1.01095965
1.01134978
1.01132624
1.011120387
1.010404919
1.009716781
1.009430609
1.008915264
1.008457883
1.008343655
1.008381573
1.008263245
1.007918071
1.007880474
1.008178712
1.008560686
1.009012339
1.009562697
1.009890379
1.009921696
1.009948587
1.010015155
1.009862453
1.009455433
1.008947374
1.008548573
1.00819212
1.00779732
1.007092819
1.006550286
1.006631907
1.006659016
1.006854942
1.007119767
1.007642099
1.008337472
1.008596675
1.008709952
1.008691443
1.008525149
1.008265828
1.008134209
1.008047484
1.006704554
1.006661572
1.006274993
1.005245149
1.004968441
1.005042458
1.005247425
1.005755054
1.006430315
1.006700689
1.007022753
1.007240616
1.007228422
1.007102092
1.007070395
1.00727069
1.005257123
1.005420341
1.005208308
1.004916078
1.004394231
1.003942238
1.003913545
1.004309473
1.004687341
1.004908617
1.005365372
1.00557822
1.005607901
1.005607763
1.005856437
1.005897741
1.003469484
1.00369747
1.003657114
1.003653611
1.003576295
1.003332612
1.003065635
1.003084579
1.003153387
1.003171251
1.003695403
1.004122764
1.004234147
1.004160958
1.003964986
1.003791183
1.001117138
1.001487857
1.001612239
1.001755506
1.001882887
1.001987282
1.002092037
1.00218601
1.001978347
1.001711297
1.001673449
1.001971341
1.002206819
1.002219519
1.002018113
1.001842669
1.001296806
0.9992496587
0.9994471976
0.9996808127
0.9995223214
0.9996638736
1.000014078
1.000530745
1.000824896
1.000473629
1.000239441
1.000038757
1.000092924
1.000241627
1.000217715
0.9999320404
0.9996800002
0.9987320325
0.9966704402
0.9968324945
0.9971118342
0.9974922649
0.9977521255
0.9982091497
0.9985552337
0.9986658701
0.9985867934
0.998343874
0.9978235612
0.9977759288
0.9979340326
0.9980245298
0.9977796556
0.9975584377
0.9962934337
0.9941531618
0.9942567484
0.9946612174
0.994797138
0.9949893471
0.9953509703
0.9956141885
0.9960048913
0.9963308712
0.9962285064
0.9956380744
0.9955464089
0.9956080241
0.9957627796
0.995679136
0.9954627436
0.9947354142
0.9915226174
0.9916525709
0.9920683371
0.9922548361
0.9923960688
0.9925940717
0.9927432661
0.9931652243
0.9937960779
0.9941477334
0.9936557979
0.9933399289
0.9932823796
0.9934234378
0.9936157384
0.9937878421
0.9936114678
0.9899156155
0.9896098742
0.9896725086
0.9898653001
0.9900065492
0.9900468977
0.9901492172
0.9905637241
0.9911143009
0.9917273026
0.9921454666
0.9914660108
0.9912000167
0.9914327964
0.9918289983
0.9921629774
0.9924492398
)
;

boundaryField
{
    inlet
    {
        type            fixedValue;
        value           nonuniform 0();
    }
    outlet
    {
        type            inletOutlet;
        inletValue      uniform 1;
        value           nonuniform List<scalar> 
35
(
1.014427243
1.014911322
1.014995234
1.014231093
1.012609647
1.010859316
1.009239767
1.00837815
1.008030015
1.008006649
1.007290477
1.005906025
1.003880138
1.00132141
0.9986965836
0.9962300825
0.9945599034
0.993554055
0.992517403
1.005258835
1.006101649
1.006851458
1.007192503
1.007244889
1.007394723
1.007670002
1.008000433
1.008356777
1.008815563
1.009411051
1.010338607
1.011647384
1.012937772
1.013746786
1.013816722
)
;
    }
    bottom
    {
        type            slip;
    }
    top
    {
        type            slip;
    }
    obstacle
    {
        type            zeroGradient;
    }
    defaultFaces
    {
        type            empty;
    }
    procBoundary11to5
    {
        type            processor;
        value           nonuniform List<scalar> 
17
(
1.006386845
1.00621331
1.005824303
1.005083984
1.005272138
0.8750604865
0.8791867818
0.8999649323
0.9350123247
0.9694625304
0.9820863682
0.9959036284
1.001804611
1.00341969
1.005697672
1.006768486
1.006768486
)
;
    }
    procBoundary11to10
    {
        type            processor;
        value           nonuniform List<scalar> 
34
(
0.8749271389
0.8977119057
0.957559814
0.999719839
1.003635727
1.003815826
1.006977169
1.008270539
1.007865679
1.007806216
1.009083052
1.011050214
1.012685457
1.013653547
1.0142229
1.014647498
1.014777577
1.014437584
1.013422159
1.012255031
1.011208762
1.010337074
1.009398245
1.00869732
1.007873658
1.006572906
1.004971587
1.003042919
1.003042919
1.000881415
0.9987600221
0.996583666
0.9941319179
0.9914925615
)
;
    }
    procBoundary11to16
    {
        type            processor;
        value           uniform 0.9900090864;
    }
    procBoundary11to17
    {
        type            processor;
        value           nonuniform List<scalar> 
17
(
0.9900922435
0.9896254363
0.9884463141
0.9882809156
0.988428189
0.9884795535
0.9885996079
0.988801691
0.9891519187
0.9896496785
0.9906348332
0.9910274259
0.9904051681
0.9899860864
0.9902483602
0.9906323626
0.9913802735
)
;
    }
}


// ************************************************************************* //
