/*--------------------------------*- C++ -*----------------------------------*\
  =========                 |
  \\      /  F ield         | OpenFOAM: The Open Source CFD Toolbox
   \\    /   O peration     | Website:  https://openfoam.org
    \\  /    A nd           | Version:  7
     \\/     M anipulation  |
\*---------------------------------------------------------------------------*/
FoamFile
{
    version     2.0;
    format      ascii;
    class       volVectorField;
    location    "1";
    object      U;
}
// * * * * * * * * * * * * * * * * * * * * * * * * * * * * * * * * * * * * * //

dimensions      [0 1 -1 0 0 0 0];

internalField   nonuniform List<vector> 
2222
(
(2.957045767 0.004384851866 0)
(2.955042597 0.007800088583 0)
(2.955699904 0.008591685831 0)
(2.957731649 0.0046984813 0)
(2.95765527 0.00495172451 0)
(2.957380917 0.00879411642 0)
(2.958327699 0.005155816787 0)
(2.958301538 0.002562558539 0)
(2.958060997 0.001835372172 0)
(3.445179604 0.4404242935 0)
(3.397384314 0.4605811391 0)
(3.271097602 0.4265391912 0)
(3.117143576 0.3907477148 0)
(3.00408066 0.3714909387 0)
(2.942370195 0.3646834431 0)
(2.905488449 0.3736723991 0)
(2.892012587 0.3686731116 0)
(2.906867496 0.3721799411 0)
(2.922822363 0.3739252139 0)
(2.936254251 0.3755754577 0)
(2.952255768 0.3783882785 0)
(2.969485914 0.3832896244 0)
(2.985696946 0.3892775008 0)
(3.002799674 0.391098559 0)
(3.018859704 0.3896942368 0)
(3.032515588 0.391357193 0)
(3.042709543 0.394500031 0)
(3.04963964 0.389481976 0)
(3.048080091 0.3539987312 0)
(3.025609637 0.2527774558 0)
(2.983083854 0.1082577234 0)
(2.959730532 0.02174670194 0)
(2.956918418 0.007028992959 0)
(2.95734575 0.005702184581 0)
(2.955143703 0.005627745081 0)
(2.953303639 0.007896528333 0)
(2.954276778 0.007869857705 0)
(2.956304222 0.004226784871 0)
(2.956377617 0.005358329319 0)
(2.956260004 0.008971025443 0)
(2.957090353 0.005484878606 0)
(2.957050404 0.002282730659 0)
(2.956762135 0.001704412027 0)
(3.449075996 0.4434425704 0)
(3.400482244 0.4544242335 0)
(3.277052845 0.4255463616 0)
(3.124923366 0.3904467985 0)
(3.006152018 0.3715207012 0)
(2.944222585 0.3659766901 0)
(2.907505116 0.3747543842 0)
(2.893494031 0.3695026341 0)
(2.907154285 0.3725709415 0)
(2.922319088 0.3739663432 0)
(2.935460925 0.3753785692 0)
(2.951516037 0.3782613082 0)
(2.968981422 0.3842010981 0)
(2.985977961 0.390095907 0)
(3.002878624 0.3909580172 0)
(3.018489352 0.3898458025 0)
(3.03136366 0.3917869263 0)
(3.041590963 0.3935018026 0)
(3.047703816 0.3849787969 0)
(3.042538761 0.3386779856 0)
(3.015472776 0.2166163488 0)
(2.971974405 0.05927114413 0)
(2.958635023 0.01194376362 0)
(2.95512525 0.005107241241 0)
(2.95519172 0.006913641276 0)
(2.953712075 0.007656001979 0)
(2.952161849 0.008910259436 0)
(2.95301083 0.007868477914 0)
(2.954816551 0.003812878969 0)
(2.954786457 0.005389987906 0)
(2.954953261 0.008974583175 0)
(2.955721999 0.005668143323 0)
(2.955639995 0.002860474197 0)
(2.955374086 0.00213814212 0)
(3.454328773 0.4489533014 0)
(3.402891413 0.452262055 0)
(3.279724905 0.4238100333 0)
(3.13071464 0.3892322185 0)
(3.008796054 0.3721015605 0)
(2.945198632 0.3671339568 0)
(2.909209138 0.3754228886 0)
(2.894909028 0.3701150061 0)
(2.907407469 0.3729661416 0)
(2.921834965 0.3741227163 0)
(2.934970167 0.3756660081 0)
(2.951067708 0.3784169127 0)
(2.969144973 0.3844168393 0)
(2.98618982 0.3908129432 0)
(3.00293612 0.3907205019 0)
(3.017963376 0.3899446443 0)
(3.029964224 0.3921433353 0)
(3.040190439 0.3925629829 0)
(3.045314393 0.3788061586 0)
(3.037456998 0.318208767 0)
(3.002094577 0.1604008404 0)
(2.965824302 0.05627482158 0)
(2.955172608 0.01240241638 0)
(2.953570883 0.004092909762 0)
(2.952680684 0.005437901628 0)
(2.951376168 0.009220794572 0)
(2.95086344 0.009805173166 0)
(2.951590561 0.008425374889 0)
(2.953271438 0.004208312216 0)
(2.953138987 0.005310256069 0)
(2.953431532 0.008581023811 0)
(2.954069636 0.005405520402 0)
(2.954004627 0.00280007126 0)
(3.458443116 0.4477139579 0)
(3.405054182 0.4533899064 0)
(3.281479422 0.4203700517 0)
(3.135297083 0.3886671871 0)
(3.010890094 0.3724892864 0)
(2.94562916 0.3688697419 0)
(2.910616607 0.3759735283 0)
(2.896148063 0.3705095314 0)
(2.907602064 0.3731825722 0)
(2.921564983 0.3742498474 0)
(2.93461749 0.3760644165 0)
(2.950836907 0.3790680766 0)
(2.969414287 0.3848114483 0)
(2.986661033 0.3910296047 0)
(3.002788375 0.3905742533 0)
(3.017066112 0.3897140441 0)
(3.028432905 0.3924105295 0)
(3.038519738 0.3916682117 0)
(3.042638553 0.370411296 0)
(3.027009885 0.2738363456 0)
(2.993301748 0.1539439865 0)
(2.959039944 0.05258610875 0)
(2.95227159 0.009342198155 0)
(2.95207716 0.003467998358 0)
(2.950995948 0.004222741318 0)
(2.949147983 0.007979026547 0)
(2.949001595 0.01012232975 0)
(2.949982269 0.008809460238 0)
(2.951461885 0.004373414744 0)
(2.951430938 0.00503306877 0)
(2.951733329 0.007798914818 0)
(2.952234665 0.004511977342 0)
(2.952178434 0.002615319095 0)
(3.459887937 0.4450412064 0)
(3.406771654 0.4517231874 0)
(3.283122891 0.4177014079 0)
(3.138795337 0.3890738739 0)
(3.011272464 0.3730699676 0)
(2.945199455 0.3704335612 0)
(2.911682479 0.3765818795 0)
(2.897248345 0.3709699182 0)
(2.90767073 0.373173139 0)
(2.921457803 0.3742170155 0)
(2.934662707 0.3763911691 0)
(2.950860347 0.37988602 0)
(2.969704445 0.3856870993 0)
(2.986953837 0.3911413541 0)
(3.002539419 0.3903692406 0)
(3.016080437 0.3895407235 0)
(3.027330954 0.392195672 0)
(3.036796887 0.38973609 0)
(3.03789447 0.3513694311 0)
(3.019810156 0.2606358039 0)
(2.976865978 0.1296321868 0)
(2.951559605 0.03488485149 0)
(2.950796806 0.00677597056 0)
(2.950148179 0.002878779995 0)
(2.949153465 0.003474891788 0)
(2.947268112 0.006746808774 0)
(2.947295793 0.008909866637 0)
(2.948477108 0.008168342583 0)
(2.949658439 0.004759071194 0)
(2.949691636 0.005342836185 0)
(2.949979374 0.007123310621 0)
(2.950408388 0.003929309813 0)
(2.950440091 0.002130920994 0)
(3.461771003 0.4416033822 0)
(3.40687688 0.450015492 0)
(3.284166933 0.4159146604 0)
(3.13958111 0.3887635392 0)
(3.009779112 0.3738233872 0)
(2.944213308 0.3718057601 0)
(2.91243412 0.3773631796 0)
(2.898109719 0.3713903016 0)
(2.907623816 0.373071576 0)
(2.921329262 0.3741463878 0)
(2.935157853 0.3765413773 0)
(2.951393015 0.3804956944 0)
(2.969893303 0.3865129789 0)
(2.987080826 0.3912537455 0)
(3.002116258 0.3902365458 0)
(3.01509517 0.3898035325 0)
(3.02612638 0.3916086727 0)
(3.034325802 0.384092649 0)
(3.033189436 0.343127535 0)
(3.005707097 0.2306682463 0)
(2.960407438 0.08478301406 0)
(2.950520781 0.01745443856 0)
(2.949349037 0.003800268676 0)
(2.948072933 0.003130023907 0)
(2.946122991 0.003813105477 0)
(2.945345304 0.005767958074 0)
(2.945691969 0.007760116115 0)
(2.946839108 0.00657301265 0)
(2.948039606 0.004430828447 0)
(2.94794987 0.005775743159 0)
(2.948244702 0.006913277145 0)
(2.948723781 0.003659775068 0)
(2.94871699 0.001819276764 0)
(3.461156087 0.4403420399 0)
(3.406805616 0.4489395658 0)
(3.284483926 0.4152697323 0)
(3.137900516 0.3886458684 0)
(3.007073428 0.3750369844 0)
(2.94283146 0.3731780715 0)
(2.912926909 0.3780635066 0)
(2.89874413 0.3718158347 0)
(2.907485868 0.3729623588 0)
(2.921174052 0.3741706971 0)
(2.935900464 0.3767504702 0)
(2.952388035 0.3809076709 0)
(2.970255885 0.3873337478 0)
(2.98707394 0.3913135503 0)
(3.001452983 0.3900412977 0)
(3.013647545 0.3901221488 0)
(3.024311677 0.390650463 0)
(3.031726906 0.3797742613 0)
(3.024406013 0.3220235164 0)
(2.989732539 0.1786513326 0)
(2.956020595 0.0468538043 0)
(2.949011931 0.009768791224 0)
(2.946784994 0.003721213093 0)
(2.946205878 0.003979617877 0)
(2.944278282 0.005339653802 0)
(2.943071683 0.006822019863 0)
(2.943959952 0.0076535645 0)
(2.94509956 0.005643385753 0)
(2.946197817 0.004025634422 0)
(2.946159128 0.006232799099 0)
(2.946380649 0.007155399606 0)
(2.946783842 0.004206188915 0)
(2.946775025 0.002151252173 0)
(3.458855091 0.4433426912 0)
(3.406405234 0.4471742331 0)
(3.284740114 0.4146397914 0)
(3.135036981 0.3892851039 0)
(3.003998376 0.3760954913 0)
(2.941279412 0.3743509152 0)
(2.913158008 0.378326672 0)
(2.89906376 0.3723078861 0)
(2.907359451 0.3731227754 0)
(2.921100569 0.3742681377 0)
(2.936606699 0.3770167812 0)
(2.953403163 0.3813465199 0)
(2.970612265 0.3877010418 0)
(2.986863301 0.3912095744 0)
(3.000492077 0.3895029924 0)
(3.012178685 0.390067914 0)
(3.022666426 0.3900316565 0)
(3.028001214 0.3717982657 0)
(3.014832875 0.2877496149 0)
(2.981786331 0.1232730556 0)
(2.952007116 0.04037685622 0)
(2.946067818 0.0108341612 0)
(2.944868478 0.004930091089 0)
(2.943799841 0.004891545173 0)
(2.942472536 0.006869429898 0)
(2.940938488 0.008128621415 0)
(2.942180557 0.008455727267 0)
(2.943482035 0.005500578778 0)
(2.944316257 0.003833709047 0)
(2.944322795 0.006108350539 0)
(2.944356692 0.007325091044 0)
(2.944616325 0.004518888546 0)
(2.944742234 0.002806971375 0)
(3.456884799 0.4479497586 0)
(3.405151678 0.4458793502 0)
(3.28468063 0.4148477928 0)
(3.132430895 0.3913138454 0)
(3.001700722 0.3777953652 0)
(2.939958173 0.3755038245 0)
(2.912908595 0.3779789146 0)
(2.899096182 0.3725541596 0)
(2.907396541 0.3731687694 0)
(2.921235805 0.3744876669 0)
(2.937286483 0.3774472795 0)
(2.954294931 0.3818947402 0)
(2.970846492 0.3882122725 0)
(2.986423234 0.3911212501 0)
(2.999413824 0.3887859637 0)
(3.011071441 0.3894609754 0)
(3.021176765 0.3880905959 0)
(3.023508035 0.3576580209 0)
(3.007326103 0.2381337685 0)
(2.972628322 0.1235715216 0)
(2.947199897 0.03292076436 0)
(2.943669387 0.008386986936 0)
(2.942375475 0.005433611365 0)
(2.940667699 0.005413499073 0)
(2.939146689 0.008138244482 0)
(2.938774305 0.009447575548 0)
(2.940273761 0.009348181219 0)
(2.941604504 0.006220350847 0)
(2.942506971 0.00412392434 0)
(2.942193605 0.005839413872 0)
(2.942202427 0.007010931739 0)
(2.942349689 0.004282402736 0)
(2.942544559 0.00259635255 0)
(3.45517674 0.448206109 0)
(3.403443781 0.4447679064 0)
(3.284402492 0.4137894095 0)
(3.13038677 0.3921630439 0)
(3.000295819 0.3794531594 0)
(2.939186875 0.3770130098 0)
(2.912444743 0.3779654507 0)
(2.899010431 0.372654329 0)
(2.907509278 0.3730484745 0)
(2.921500757 0.3746998748 0)
(2.938020545 0.3778671157 0)
(2.954924237 0.3826451014 0)
(2.970734289 0.3886135693 0)
(2.985742475 0.390849708 0)
(2.998399124 0.3885054246 0)
(3.010456779 0.3882608358 0)
(3.019496005 0.3836744876 0)
(3.019211192 0.33269564 0)
(2.99970827 0.2367475503 0)
(2.952994242 0.09664521773 0)
(2.943067183 0.02226218184 0)
(2.941040488 0.006040054751 0)
(2.938720946 0.005007061257 0)
(2.937297709 0.004481576137 0)
(2.935927884 0.007447458966 0)
(2.936109583 0.009789050465 0)
(2.938119655 0.01006040718 0)
(2.939475857 0.007060171728 0)
(2.940295619 0.00433652346 0)
(2.93990367 0.005704484347 0)
(2.939891723 0.006348469899 0)
(2.939959901 0.00359457573 0)
(2.940097399 0.002106046202 0)
(3.453668489 0.4473246239 0)
(3.400962136 0.4431515824 0)
(3.283133266 0.4112819185 0)
(3.129154002 0.3920522528 0)
(2.999784506 0.3807059995 0)
(2.938944787 0.3782950098 0)
(2.912355656 0.3786337307 0)
(2.899255638 0.3729852873 0)
(2.907641537 0.3729635786 0)
(2.921764743 0.3748007847 0)
(2.938579133 0.378351342 0)
(2.955087617 0.383355626 0)
(2.97028185 0.3890155428 0)
(2.984751366 0.3904160109 0)
(2.997399162 0.3882224945 0)
(3.009470102 0.3872112201 0)
(3.017825708 0.3754442715 0)
(3.015139907 0.3276112534 0)
(2.979898542 0.2005307421 0)
(2.947447854 0.06902794713 0)
(2.940878802 0.01255500997 0)
(2.937103873 0.004248039214 0)
(2.935610597 0.00377533052 0)
(2.934609111 0.003538810292 0)
(2.933357317 0.006239273096 0)
(2.933720279 0.00911975452 0)
(2.935766058 0.009684859687 0)
(2.937317132 0.007238533733 0)
(2.937841058 0.00493211701 0)
(2.937566004 0.005966493639 0)
(2.937441165 0.005767228502 0)
(2.937455005 0.003112701914 0)
(3.450744343 0.4460832612 0)
(3.397778476 0.4422151637 0)
(3.280849357 0.4097019791 0)
(3.12853198 0.3928875756 0)
(3.000479493 0.3815496586 0)
(2.939503481 0.3788754487 0)
(2.912669896 0.3791530081 0)
(2.899804592 0.3732733094 0)
(2.907693661 0.372949816 0)
(2.921946419 0.3748504057 0)
(2.939140754 0.3785070741 0)
(2.954988941 0.3838431209 0)
(2.969499135 0.3891137628 0)
(2.983530717 0.3897901115 0)
(2.996507896 0.3876764352 0)
(3.008603996 0.3857864324 0)
(3.016258184 0.3712876912 0)
(3.003648092 0.297095799 0)
(2.96849952 0.1517660052 0)
(2.946505554 0.04557705632 0)
(2.937203131 0.009684370769 0)
(2.933664258 0.003152489918 0)
(2.932974399 0.002764173196 0)
(2.932023943 0.003142626323 0)
(2.931210162 0.005067441533 0)
(2.931500574 0.007818149609 0)
(2.933309992 0.008550817157 0)
(2.934958893 0.006340547508 0)
(2.935250675 0.004742478744 0)
(2.93486855 0.005835384358 0)
(2.934900054 0.005525301739 0)
(2.935016906 0.003018348797 0)
(3.445851023 0.4429663191 0)
(3.394052225 0.4417663789 0)
(3.278957728 0.4103622013 0)
(3.12817009 0.394415243 0)
(3.001734381 0.382304505 0)
(2.940570752 0.3790838181 0)
(2.913626747 0.3791908358 0)
(2.900717758 0.3734022641 0)
(2.907582352 0.372991422 0)
(2.921740014 0.3750379659 0)
(2.939067029 0.3787842356 0)
(2.954440569 0.3842832403 0)
(2.968682304 0.389499879 0)
(2.982479074 0.3892502515 0)
(2.996070938 0.3863848888 0)
(3.008253495 0.384044015 0)
(3.012550132 0.3571391709 0)
(2.994639853 0.2549274568 0)
(2.964009613 0.1066761583 0)
(2.941805543 0.03383936363 0)
(2.9327438 0.01002498613 0)
(2.93122562 0.004160084382 0)
(2.930221813 0.003786514087 0)
(2.929184462 0.00425670974 0)
(2.928562625 0.005446983337 0)
(2.929327154 0.007155025123 0)
(2.930596436 0.007247657543 0)
(2.932280415 0.005375129209 0)
(2.932357558 0.004624501388 0)
(2.931972203 0.006052233189 0)
(2.932180571 0.005612912636 0)
(2.932397767 0.003197433196 0)
(3.439973313 0.4392404873 0)
(3.388261145 0.4416224354 0)
(3.277181075 0.4116967151 0)
(3.128760996 0.3964271228 0)
(3.003477104 0.384028583 0)
(2.941713834 0.379765536 0)
(2.914901064 0.3786460999 0)
(2.901843704 0.373415807 0)
(2.907224874 0.3730023298 0)
(2.921048918 0.3752088628 0)
(2.938390213 0.379299643 0)
(2.953732989 0.385123862 0)
(2.967789322 0.3897171963 0)
(2.981539954 0.3886649312 0)
(2.995608959 0.3851479371 0)
(3.007341355 0.3785871596 0)
(3.008784163 0.3366361939 0)
(2.991364876 0.208533212 0)
(2.955916991 0.09231886925 0)
(2.935583586 0.02469932461 0)
(2.929037467 0.008602534282 0)
(2.92802782 0.005711710138 0)
(2.927005163 0.004893015169 0)
(2.926270585 0.005583192862 0)
(2.926173845 0.006932552135 0)
(2.927068751 0.007803622496 0)
(2.927975103 0.006918590256 0)
(2.929534598 0.004594346879 0)
(2.929313026 0.004238785586 0)
(2.929073587 0.005631232874 0)
(2.929354406 0.005538443587 0)
(2.92961404 0.003340095294 0)
(3.429589379 0.4384457009 0)
(3.381717758 0.4406834466 0)
(3.275019002 0.4132449703 0)
(3.129290304 0.398198324 0)
(3.005364334 0.3857624431 0)
(2.942742806 0.3809808191 0)
(2.915985507 0.378298481 0)
(2.902902308 0.373383697 0)
(2.906278062 0.3729491648 0)
(2.919421066 0.3753183564 0)
(2.936999781 0.3799017572 0)
(2.952720054 0.3859072573 0)
(2.966978132 0.3899185926 0)
(2.980998533 0.388160833 0)
(2.9951479 0.3831345801 0)
(3.006433849 0.3707326614 0)
(3.006353148 0.3101399149 0)
(2.986398899 0.2035681207 0)
(2.944808218 0.06552059084 0)
(2.927849004 0.01247893557 0)
(2.925693016 0.006823428503 0)
(2.924063803 0.006875696976 0)
(2.923553129 0.005997918546 0)
(2.923215778 0.006621090927 0)
(2.923561996 0.007931444708 0)
(2.924363581 0.008631436695 0)
(2.925462066 0.007643327291 0)
(2.926760929 0.004967501258 0)
(2.926255589 0.004116327025 0)
(2.925975367 0.005557986975 0)
(2.926422452 0.005146614947 0)
(2.926787779 0.002858688506 0)
(3.418025151 0.4411075426 0)
(3.374082948 0.4380371895 0)
(3.27285512 0.4140003048 0)
(3.130269008 0.3993249776 0)
(3.00746151 0.3870988939 0)
(2.94354922 0.3820094731 0)
(2.916938087 0.3783221897 0)
(2.903983443 0.3734866268 0)
(2.904796823 0.3734554226 0)
(2.916808735 0.3758554093 0)
(2.934939426 0.3806522327 0)
(2.951489806 0.3866523709 0)
(2.966237352 0.3898615129 0)
(2.980417053 0.3873433258 0)
(2.994995814 0.3815930365 0)
(3.005784873 0.3620468331 0)
(3.004089916 0.304370114 0)
(2.96056747 0.1543953905 0)
(2.934167895 0.04201091311 0)
(2.923794367 0.005783373831 0)
(2.921632819 0.005337391814 0)
(2.920525758 0.005192845435 0)
(2.920447805 0.005052990064 0)
(2.920273976 0.006011653834 0)
(2.920602849 0.008589037485 0)
(2.921463831 0.009431096308 0)
(2.922449122 0.008219274177 0)
(2.923618983 0.005349472081 0)
(2.923167753 0.004217332208 0)
(2.922854036 0.005020151114 0)
(2.923370232 0.004643323468 0)
(2.923867259 0.002474360298 0)
(3.408284853 0.4486937508 0)
(3.367654944 0.4346088795 0)
(3.27042783 0.4132310868 0)
(3.131096592 0.3995514181 0)
(3.009402972 0.3878623987 0)
(2.944158718 0.3827332453 0)
(2.917877487 0.3784572814 0)
(2.905105576 0.3737342736 0)
(2.90322209 0.374069734 0)
(2.913843913 0.3766168 0)
(2.9324979 0.3815066156 0)
(2.950234862 0.3870743363 0)
(2.965617748 0.3894472784 0)
(2.980204103 0.3861345799 0)
(2.994709703 0.3787961926 0)
(3.004808234 0.3575814179 0)
(2.987393304 0.2597094443 0)
(2.953753821 0.1165494103 0)
(2.928383301 0.03324486132 0)
(2.919114671 0.005004368096 0)
(2.917857725 0.002842141256 0)
(2.917478926 0.003652609724 0)
(2.917608216 0.003827141876 0)
(2.91755367 0.004976718555 0)
(2.917683454 0.00748853209 0)
(2.918420947 0.009124519124 0)
(2.919160866 0.008765845341 0)
(2.920236949 0.005888823258 0)
(2.91996548 0.004587926346 0)
(2.919773543 0.005024272146 0)
(2.920260984 0.004398199975 0)
(2.920884349 0.00222148041 0)
(3.400795963 0.4509992927 0)
(3.361083268 0.4332105866 0)
(3.267281017 0.412877033 0)
(3.131510255 0.3995036668 0)
(3.010751589 0.3885801445 0)
(2.944453275 0.3829755063 0)
(2.918697899 0.3784212859 0)
(2.906173427 0.3737076042 0)
(2.902210109 0.3739523138 0)
(2.911424107 0.3766702187 0)
(2.930297686 0.3816123423 0)
(2.948785668 0.3871751733 0)
(2.964658086 0.3891297033 0)
(2.979904452 0.3848408166 0)
(2.994097753 0.3745751061 0)
(2.998359014 0.3338513626 0)
(2.979669348 0.2198246052 0)
(2.94464659 0.0912514191 0)
(2.920117489 0.02513515971 0)
(2.914428705 0.007408579038 0)
(2.913569619 0.002739197388 0)
(2.914491204 0.002554644105 0)
(2.914884758 0.002902007552 0)
(2.915010097 0.004182825666 0)
(2.914829873 0.006566543993 0)
(2.915240359 0.008020573845 0)
(2.915979103 0.008228108258 0)
(2.916865723 0.005929584528 0)
(2.916695226 0.004966130307 0)
(2.91652305 0.005207874917 0)
(2.917003478 0.004588132645 0)
(3.393481179 0.4510485675 0)
(3.354234903 0.4336425212 0)
(3.264313834 0.4140341633 0)
(3.132276865 0.4008995022 0)
(3.011558688 0.389538973 0)
(2.944269149 0.3831242155 0)
(2.919017498 0.3784621722 0)
(2.906910254 0.3735311872 0)
(2.90215205 0.3735309243 0)
(2.910611327 0.3762623174 0)
(2.929132041 0.3818030071 0)
(2.947469683 0.3873152539 0)
(2.963713854 0.3885545072 0)
(2.979202519 0.3826517296 0)
(2.992407167 0.3645907896 0)
(2.993827542 0.3095779121 0)
(2.970581092 0.1854336697 0)
(2.93046898 0.07197370962 0)
(2.913022608 0.01910255 0)
(2.910914053 0.008700697436 0)
(2.910687021 0.005406359195 0)
(2.911640885 0.003844107684 0)
(2.911918885 0.003638248679 0)
(2.911956718 0.004654542867 0)
(2.911842013 0.00621348718 0)
(2.911942392 0.007356827343 0)
(2.91260351 0.006814646178 0)
(2.913443585 0.005505452168 0)
(2.913386174 0.005220423199 0)
(2.913295166 0.005783720714 0)
(2.91364137 0.005117981803 0)
(3.384884929 0.4485374862 0)
(3.347916855 0.4352143793 0)
(3.26126936 0.4158301376 0)
(3.133324286 0.4028968344 0)
(3.011780059 0.390437263 0)
(2.943420731 0.3834084345 0)
(2.918472275 0.3783145953 0)
(2.90716767 0.3738836758 0)
(2.902397395 0.3739186343 0)
(2.910749172 0.3766594664 0)
(2.928968611 0.3825009424 0)
(2.94691427 0.3875553917 0)
(2.963215133 0.3876718969 0)
(2.978450137 0.3789578628 0)
(2.990718731 0.3551865916 0)
(2.987232576 0.2843403316 0)
(2.95919069 0.1641429889 0)
(2.919425364 0.04295752695 0)
(2.907716886 0.01094460725 0)
(2.906687011 0.008267050565 0)
(2.907720561 0.007646516153 0)
(2.908441314 0.005234401941 0)
(2.908706413 0.005080173328 0)
(2.908665957 0.006036936165 0)
(2.908370908 0.007162801003 0)
(2.908514551 0.007403783004 0)
(2.909051919 0.005927820809 0)
(2.90987635 0.004736550025 0)
(2.909954898 0.004785402204 0)
(2.909924826 0.00579399756 0)
(2.910214291 0.005189169449 0)
(3.377977977 0.4423822708 0)
(3.342683846 0.4372078771 0)
(3.259249442 0.4172729001 0)
(3.134189886 0.4047516958 0)
(3.011741492 0.3916104206 0)
(2.941925563 0.3838047152 0)
(2.916955429 0.3781606026 0)
(2.906880389 0.3745716967 0)
(2.902811491 0.3746568906 0)
(2.911282881 0.3773813359 0)
(2.929016487 0.3832950836 0)
(2.946218968 0.3875523964 0)
(2.961932276 0.3859710966 0)
(2.977578029 0.3745334352 0)
(2.987483269 0.3450808876 0)
(2.980826363 0.2672749169 0)
(2.9323935 0.1094372975 0)
(2.910368602 0.02099713665 0)
(2.902567235 0.005952638647 0)
(2.902101626 0.006995379705 0)
(2.90357433 0.006741277767 0)
(2.904545555 0.006295796042 0)
(2.905021506 0.006000154068 0)
(2.90488677 0.006796912437 0)
(2.904531265 0.008119216776 0)
(2.904901731 0.00830863199 0)
(2.905484616 0.005932759297 0)
(2.906236607 0.004238636893 0)
(2.906366601 0.004320797602 0)
(2.906345246 0.005317105664 0)
(2.906637637 0.004754926197 0)
(3.373138064 0.4422519755 0)
(3.338979971 0.4377208049 0)
(3.25878879 0.4180064514 0)
(3.13511962 0.4059009843 0)
(3.01151325 0.3926485578 0)
(2.940157698 0.3839544544 0)
(2.914907337 0.3776563786 0)
(2.906258509 0.3749287544 0)
(2.903589964 0.3755534657 0)
(2.912153186 0.3781705 0)
(2.929240482 0.3840282116 0)
(2.945565284 0.3872853495 0)
(2.960965915 0.3840975887 0)
(2.976214509 0.370895902 0)
(2.983675176 0.33247381 0)
(2.959822003 0.2115040717 0)
(2.927429088 0.08434303147 0)
(2.903895869 0.0175905406 0)
(2.897953167 0.002369692143 0)
(2.898682477 0.00411467843 0)
(2.899900405 0.00551588073 0)
(2.900700774 0.005030588512 0)
(2.900788012 0.005607416695 0)
(2.900422326 0.007197479961 0)
(2.900165997 0.008614833906 0)
(2.900890003 0.008736429578 0)
(2.901756564 0.006633686631 0)
(2.902609779 0.004218722818 0)
(2.902721865 0.003808936804 0)
(2.90266158 0.004591204268 0)
(2.902855675 0.003903839668 0)
(3.367176948 0.4438838281 0)
(3.335929455 0.4367450703 0)
(3.259145956 0.4192486704 0)
(3.135385834 0.4065966819 0)
(3.011255358 0.3933570861 0)
(2.938688311 0.3835143725 0)
(2.913699495 0.376644142 0)
(2.906263525 0.3746580857 0)
(2.904728239 0.3763975811 0)
(2.913227964 0.3792670817 0)
(2.929302226 0.3848728214 0)
(2.945012321 0.3872510235 0)
(2.960255474 0.3830634755 0)
(2.973499054 0.3630416771 0)
(2.973855915 0.2975091936 0)
(2.951978082 0.1826319015 0)
(2.916641518 0.07501323036 0)
(2.895872584 0.01736806213 0)
(2.892914397 0.003363911431 0)
(2.895149985 0.002697276588 0)
(2.896532898 0.003811097651 0)
(2.896875923 0.003564943604 0)
(2.896554632 0.004421415068 0)
(2.895967109 0.006258866971 0)
(2.895618742 0.008484163013 0)
(2.896574292 0.009013882314 0)
(2.897763181 0.007394560332 0)
(2.898868725 0.004729251098 0)
(2.898977545 0.004150744934 0)
(2.898899734 0.004122099328 0)
(2.898999725 0.003249299635 0)
(3.361067674 0.4445493128 0)
(3.334394646 0.4343415142 0)
(3.259269313 0.4211767587 0)
(3.135196793 0.407765746 0)
(3.011314272 0.3942491052 0)
(2.938330481 0.3833617328 0)
(2.914332772 0.37573469 0)
(2.907459826 0.3742586765 0)
(2.906452471 0.3763436517 0)
(2.914855855 0.3797815686 0)
(2.928818756 0.3856323185 0)
(2.944058796 0.3868079297 0)
(2.958500819 0.3794196499 0)
(2.969792086 0.3482612535 0)
(2.967185075 0.2771057371 0)
(2.938440555 0.1608634184 0)
(2.901348485 0.05310967539 0)
(2.889632174 0.01353097007 0)
(2.889786495 0.006201995126 0)
(2.891559897 0.004019440425 0)
(2.892841139 0.003554282207 0)
(2.893137928 0.003036708401 0)
(2.892562651 0.003521797294 0)
(2.891692441 0.005271717846 0)
(2.891335614 0.007401153128 0)
(2.892407331 0.00824734723 0)
(2.893619236 0.007389497858 0)
(2.894913383 0.005046839051 0)
(2.894993085 0.004468165081 0)
(2.895045745 0.004459348512 0)
(2.895016346 0.003385253648 0)
(3.355297744 0.4438024368 0)
(3.332386791 0.4308448591 0)
(3.258834654 0.4220777485 0)
(3.135266217 0.4092038431 0)
(3.012303538 0.3955045229 0)
(2.939415715 0.3836296781 0)
(2.91536626 0.3755910163 0)
(2.909017679 0.3744213252 0)
(2.908276106 0.375883387 0)
(2.91622408 0.3799449399 0)
(2.928304852 0.3859025138 0)
(2.94273136 0.3855272782 0)
(2.957076363 0.3739838512 0)
(2.966300354 0.3381967769 0)
(2.955635417 0.252599075 0)
(2.920923439 0.119911257 0)
(2.89314043 0.0290336591 0)
(2.885954278 0.009134686605 0)
(2.886894836 0.007806823812 0)
(2.88770243 0.006234483321 0)
(2.889129141 0.004431935626 0)
(2.888958667 0.003804799258 0)
(2.888303845 0.003910635003 0)
(2.887460191 0.00528121927 0)
(2.88722258 0.006883001068 0)
(2.888164482 0.007178257622 0)
(2.88956645 0.006759750807 0)
(2.890720832 0.005133410458 0)
(2.89079978 0.004993141645 0)
(2.890916028 0.004740338426 0)
(2.890836085 0.003745655742 0)
(3.351997655 0.4450280768 0)
(3.330375617 0.4285563266 0)
(3.258541298 0.4211238242 0)
(3.136269853 0.4101850785 0)
(3.014945358 0.3963825994 0)
(2.942152699 0.3839130197 0)
(2.917171912 0.3758195743 0)
(2.91094894 0.3748511984 0)
(2.910481593 0.3760777088 0)
(2.917011113 0.3801828158 0)
(2.927558648 0.3859030324 0)
(2.941526184 0.3837267328 0)
(2.955626316 0.3693665319 0)
(2.960103068 0.3234468271 0)
(2.943732492 0.2162791307 0)
(2.903823651 0.0689276296 0)
(2.887336362 0.01213057673 0)
(2.881506339 0.004839328643 0)
(2.881969171 0.006359889943 0)
(2.883267074 0.007832352993 0)
(2.884492892 0.005800062806 0)
(2.884416179 0.0052570796 0)
(2.883794735 0.005365284742 0)
(2.883127091 0.006446467902 0)
(2.883168094 0.007411972428 0)
(2.88393195 0.006891319223 0)
(2.885320176 0.005653419652 0)
(2.88638123 0.004692552882 0)
(2.886371108 0.004779921869 0)
(2.886463824 0.004859600932 0)
(3.350195318 0.4470910968 0)
(3.329329863 0.4296403572 0)
(3.259519937 0.4213755905 0)
(3.13886529 0.4102063054 0)
(3.019578137 0.3966058477 0)
(2.946684003 0.3839260177 0)
(2.920219987 0.3763355018 0)
(2.913785124 0.3755073003 0)
(2.912939831 0.3765882685 0)
(2.917532305 0.3806143292 0)
(2.926546303 0.3856436433 0)
(2.940206862 0.3820779678 0)
(2.952901302 0.3630819468 0)
(2.951514113 0.2955230806 0)
(2.92730446 0.1579634224 0)
(2.897890001 0.05655868842 0)
(2.880964385 0.01148460098 0)
(2.876428817 0.002436730651 0)
(2.876718564 0.005096196631 0)
(2.878250009 0.006724809842 0)
(2.879456094 0.006817680559 0)
(2.879625927 0.005778533624 0)
(2.879145503 0.00635261088 0)
(2.878586302 0.007574409254 0)
(2.878780449 0.00839025573 0)
(2.879718012 0.0073634503 0)
(2.880839205 0.00561028465 0)
(2.881835943 0.004236303615 0)
(2.881736706 0.004810529851 0)
(2.881711079 0.00473847768 0)
(3.348008013 0.4499668705 0)
(3.329252224 0.4314323768 0)
(3.261680385 0.4229249738 0)
(3.143436226 0.410429084 0)
(3.025731998 0.3958219697 0)
(2.952537906 0.3832815086 0)
(2.924686006 0.3763831672 0)
(2.917135239 0.3763259071 0)
(2.915277721 0.3775449313 0)
(2.918069478 0.3810304331 0)
(2.925534444 0.3852324375 0)
(2.938188709 0.3789267597 0)
(2.947752913 0.3480988741 0)
(2.943217976 0.2551060158 0)
(2.91740126 0.1466770575 0)
(2.887901911 0.05341081351 0)
(2.87322582 0.01113580801 0)
(2.872148312 0.003428926385 0)
(2.872405813 0.003406718441 0)
(2.873152838 0.005243158218 0)
(2.874383768 0.005104734636 0)
(2.874465947 0.005625137245 0)
(2.874148734 0.006554612505 0)
(2.873752355 0.007877933658 0)
(2.874088592 0.008936935078 0)
(2.875083771 0.00800645566 0)
(2.876197413 0.005752999815 0)
(2.876975895 0.004401270998 0)
(2.876829393 0.004575337671 0)
(2.876695038 0.004722611557 0)
(3.346298098 0.4527177141 0)
(3.329836875 0.4333399707 0)
(3.265074887 0.4244240475 0)
(3.148950843 0.4115316279 0)
(3.032990469 0.3946264095 0)
(2.959422744 0.3810894734 0)
(2.929782946 0.3758274602 0)
(2.92087109 0.3769928047 0)
(2.917515337 0.3785450206 0)
(2.918698697 0.3811529728 0)
(2.924611912 0.3846271046 0)
(2.935147596 0.3719868428 0)
(2.94376729 0.3279617717 0)
(2.934342526 0.243524421 0)
(2.902087673 0.129074351 0)
(2.878624602 0.03989135398 0)
(2.867831869 0.009951379992 0)
(2.867415513 0.005033119429 0)
(2.867506291 0.003557089794 0)
(2.868584446 0.003648759411 0)
(2.869364988 0.003282260459 0)
(2.869220334 0.003859519429 0)
(2.868786188 0.005592302398 0)
(2.868506122 0.007529632826 0)
(2.868927502 0.008727193312 0)
(2.869906775 0.008305044505 0)
(2.871056182 0.006226380785 0)
(2.871697781 0.004539605607 0)
(2.871496163 0.004702831238 0)
(2.871151188 0.004799896969 0)
(3.345804297 0.4530086675 0)
(3.33118085 0.4351907977 0)
(3.270069901 0.4262318694 0)
(3.155412354 0.4127834472 0)
(3.039960473 0.3948391104 0)
(2.965906842 0.3798756536 0)
(2.935067381 0.3752261766 0)
(2.924777254 0.3772426981 0)
(2.919575202 0.3800742562 0)
(2.919406083 0.3814851473 0)
(2.923921993 0.3832919625 0)
(2.933125109 0.3644367834 0)
(2.938461476 0.3195048665 0)
(2.918218672 0.2127683676 0)
(2.883145203 0.08389822779 0)
(2.869085167 0.02098801835 0)
(2.862556397 0.008750950655 0)
(2.86166622 0.005701972222 0)
(2.862038448 0.005061439951 0)
(2.863374604 0.003876459446 0)
(2.864152802 0.003118130852 0)
(2.863974965 0.003133680128 0)
(2.863480179 0.004402881454 0)
(2.862942433 0.006308633127 0)
(2.863348637 0.007765229661 0)
(2.864285061 0.007926493404 0)
(2.865333327 0.005875298894 0)
(2.86577986 0.004568572271 0)
(2.865621734 0.004465637596 0)
(2.865226449 0.004578969403 0)
(3.347139777 0.4488840376 0)
(3.334577986 0.4355131998 0)
(3.275791404 0.4275877508 0)
(3.16334637 0.4142428355 0)
(3.048118075 0.3956632414 0)
(2.972282928 0.3802384856 0)
(2.939286213 0.3754427739 0)
(2.927474154 0.3779223955 0)
(2.921229893 0.3809031602 0)
(2.919965422 0.3818881887 0)
(2.923388516 0.3820598972 0)
(2.930211516 0.3610553639 0)
(2.92605764 0.2921724803 0)
(2.900516079 0.1594543493 0)
(2.875832542 0.0449165055 0)
(2.86373564 0.008668709597 0)
(2.856142143 0.005416220526 0)
(2.85534162 0.006007628603 0)
(2.855943327 0.006388803776 0)
(2.857493517 0.005215090361 0)
(2.858312092 0.004174325035 0)
(2.858204065 0.00379679799 0)
(2.857652866 0.004572884616 0)
(2.857054452 0.006210796736 0)
(2.857377907 0.006943668064 0)
(2.85820496 0.006793909508 0)
(2.859120842 0.005662979305 0)