/*--------------------------------*- C++ -*----------------------------------*\
  =========                 |
  \\      /  F ield         | OpenFOAM: The Open Source CFD Toolbox
   \\    /   O peration     | Website:  https://openfoam.org
    \\  /    A nd           | Version:  7
     \\/     M anipulation  |
\*---------------------------------------------------------------------------*/
FoamFile
{
    version     2.0;
    format      ascii;
    class       volScalarField;
    location    "0.4";
    object      rho;
}
// * * * * * * * * * * * * * * * * * * * * * * * * * * * * * * * * * * * * * //

dimensions      [1 -3 0 0 0 0 0];

internalField   nonuniform List<scalar> 
22
(
1.337561633
1.317212657
1.344720897
1.330696623
1.308071152
1.337206445
1.319356378
1.300278485
1.330950126
1.309828368
1.292845173
1.339786275
1.319765763
1.302363666
1.288998738
1.338012524
1.312208388
1.299825108
1.288118361
1.332853835
1.306545818
1.295623776
)
;

boundaryField
{
    inlet
    {
        type            calculated;
        value           nonuniform 0();
    }
    outlet
    {
        type            calculated;
        value           nonuniform 0();
    }
    bottom
    {
        type            calculated;
        value           nonuniform 0();
    }
    top
    {
        type            calculated;
        value           nonuniform 0();
    }
    obstacle
    {
        type            calculated;
        value           nonuniform 0();
    }
    defaultFaces
    {
        type            empty;
    }
    procBoundary16to10
    {
        type            processor;
        value           nonuniform List<scalar> 4(1.339870942 1.325225983 1.344953866 1.344953866);
    }
    procBoundary16to11
    {
        type            processor;
        value           uniform 1.290400534;
    }
    procBoundary16to15
    {
        type            processor;
        value           nonuniform List<scalar> 7(1.312102874 1.333819999 1.344220836 1.344220836 1.253650609 1.279228057 1.330404056);
    }
    procBoundary16to17
    {
        type            processor;
        value           nonuniform List<scalar> 5(1.283335825 1.278114582 1.275477875 1.273703389 1.272328354);
    }
    procBoundary16to22
    {
        type            processor;
        value           nonuniform List<scalar> 5(1.283298742 1.334270207 1.306785017 1.283298742 1.295190358);
    }
}


// ************************************************************************* //
