/*--------------------------------*- C++ -*----------------------------------*\
  =========                 |
  \\      /  F ield         | OpenFOAM: The Open Source CFD Toolbox
   \\    /   O peration     | Website:  https://openfoam.org
    \\  /    A nd           | Version:  7
     \\/     M anipulation  |
\*---------------------------------------------------------------------------*/
FoamFile
{
    version     2.0;
    format      ascii;
    class       volScalarField;
    location    "5";
    object      rho;
}
// * * * * * * * * * * * * * * * * * * * * * * * * * * * * * * * * * * * * * //

dimensions      [1 -3 0 0 0 0 0];

internalField   nonuniform List<scalar> 
2222
(
2.054441327
2.015961249
1.978893017
1.942756844
1.907493462
1.873237348
1.83989419
1.806785033
1.773514193
1.740127078
1.707423164
1.676247555
1.647591534
1.622150529
1.598316052
1.574420991
1.551050437
1.528271845
1.505847538
1.484006285
1.461098078
1.435496873
1.409136947
1.384062442
1.361542498
1.341858552
1.323565144
1.305859229
1.289297106
1.27230121
1.257187732
1.231107192
2.065508936
2.026903033
1.990035066
1.954203143
1.919069651
1.884677918
1.851016624
1.817656543
1.784283156
1.750918422
1.718190313
1.687028779
1.657858623
1.631375913
1.60731753
1.58347692
1.560118465
1.537338851
1.514568828
1.491875256
1.468792501
1.443449938
1.41733583
1.392371132
1.369410038
1.349146761
1.331113903
1.313460832
1.296791719
1.279777581
1.264573552
1.238047372
2.051847592
2.013212564
1.976859673
1.941697469
1.907075448
1.872902083
1.83930863
1.80614287
1.773249813
1.740444873
1.708057897
1.67716044
1.648263349
1.620983304
1.596919101
1.574426867
1.551655176
1.529661146
1.507185281
1.483344165
1.459430808
1.434749102
1.410109189
1.385895479
1.363115894
1.341771775
1.323592013
1.306931932
1.290442422
1.273843843
1.259033409
1.232598945
2.048360329
2.009502291
1.97327521
1.938430184
1.904115173
1.870114078
1.83657389
1.803443004
1.770702959
1.738192488
1.706079747
1.67516861
1.646526752
1.619450826
1.593971091
1.572268396
1.550891086
1.529505019
1.507421067
1.48339498
1.457974367
1.433688341
1.410038403
1.38608635
1.363277713
1.341523846
1.322039315
1.30674064
1.290794094
1.274319441
1.259558779
1.232913853
2.043896852
2.005335889
1.969822952
1.935856579
1.902244204
1.868512586
1.834812613
1.801437036
1.768732855
1.736736082
1.705259153
1.674503432
1.645298148
1.617524652
1.591027128
1.569691547
1.553005728
1.533515352
1.511953719
1.488154641
1.461203674
1.437257792
1.41391143
1.390614676
1.367634702
1.343882138
1.322982289
1.306704057
1.294423156
1.279023867
1.264364611
1.237387313
2.038010416
1.999356414
1.963933128
1.930326718
1.897243511
1.864128494
1.831062037
1.798342418
1.766170771
1.73434872
1.702841857
1.672146378
1.642405995
1.614606716
1.59023903
1.566772422
1.543445262
1.521770243
1.499997776
1.47754124
1.455097295
1.430739966
1.406237137
1.38257394
1.360445603
1.345379945
1.328426842
1.308520609
1.289157494
1.271624486
1.256887645
1.230606749
2.031349877
1.992254745
1.956603952
1.923341364
1.890963277
1.858745563
1.82649199
1.794073427
1.761810062
1.730045328
1.698973339
1.668597555
1.638946961
1.611376518
1.586424409
1.562454532
1.539395992
1.517179473
1.494836026
1.472480032
1.450942471
1.428553953
1.404957208
1.380895211
1.360339786
1.341207459
1.323007233
1.305635037
1.287789397
1.269995855
1.254728567
1.228591132
2.024577627
1.985531502
1.949388624
1.91596104
1.884077355
1.852668993
1.821098826
1.78903869
1.757091169
1.725918782
1.69519168
1.664464246
1.634790036
1.607319096
1.581420952
1.556650581
1.533404733
1.511619126
1.491000893
1.470130242
1.447270786
1.42354986
1.400475023
1.378511522
1.358101262
1.338822586
1.321471956
1.304355807
1.287224275
1.269977811
1.254602544
1.227359719
2.018498862
1.97887566
1.941833767
1.908223409
1.876842244
1.84588925
1.814954632
1.78398984
1.752681544
1.721228613
1.690004775
1.659284381
1.629821453
1.601728266
1.574993087
1.550600454
1.528877668
1.508093018
1.486660418
1.464438918
1.440743323
1.416660704
1.394733859
1.375807026
1.357161549
1.338111251
1.319766695
1.302315952
1.285467959
1.268300993
1.252211361
1.2242213
2.012112204
1.972837479
1.935669731
1.901485743
1.869683411
1.83895869
1.808674913
1.778551865
1.747615805
1.715976674
1.684723109
1.654205976
1.624420067
1.59579051
1.56968982
1.546356094
1.524451596
1.502683205
1.480338708
1.45800341
1.435924252
1.41360803
1.391380569
1.370977579
1.352072343
1.333605431
1.315843597
1.299090976
1.282714812
1.265535612
1.249055901
1.221084615
2.00713321
1.968417221
1.930861973
1.895714338
1.863779152
1.833584751
1.803245949
1.773070191
1.743047496
1.711527915
1.679380203
1.648550222
1.619014307
1.590820376
1.564857107
1.541469429
1.519361724
1.498113242
1.477118093
1.455008048
1.43147064
1.407780806
1.385239391
1.364695791
1.346442301
1.329601822
1.313235382
1.296771994
1.280162026
1.262858913
1.246641923
1.218529735
2.004134632
1.966105579
1.928994403
1.893682713
1.860980838
1.82915752
1.798116513
1.767248796
1.736737748
1.70617587
1.675042606
1.644719626
1.615737585
1.588166144
1.562344723
1.538761193
1.516178588
1.493976322
1.471820782
1.449100841
1.425586941
1.402235232
1.380747874
1.361133298
1.342409394
1.325023522
1.309314138
1.293896559
1.277809419
1.260430177
1.244114748
1.215426153
2.008203139
1.972045318
1.935596297
1.898846391
1.861097589
1.826948164
1.79529096
1.762570379
1.730528945
1.702031364
1.674791372
1.646555895
1.618345036
1.59133234
1.565082882
1.538721101
1.513715831
1.489963169
1.466776341
1.444098536
1.421944638
1.400217947
1.378495201
1.357388353
1.337959257
1.320532773
1.305285716
1.291128564
1.275641542
1.257772655
1.241326182
1.212582067
1.99526823
1.959124001
1.923698951
1.888870518
1.855786053
1.822763201
1.790539091
1.759358522
1.727087914
1.69551494
1.665208699
1.636257451
1.608847929
1.582656817
1.557473223
1.533325938
1.509695774
1.486395687
1.463403732
1.440836114
1.418654476
1.396856136
1.375201744
1.35450828
1.335973482
1.319445181
1.303356863
1.287699188
1.271883939
1.254462234
1.238218377
1.209248781
1.991038129
1.955170353
1.920045501
1.885592413
1.852448521
1.819339498
1.786711942
1.756165427
1.724367544
1.692908609
1.66300055
1.634593627
1.607583374
1.581683174
1.556619855
1.532321789
1.508523569
1.485102674
1.462044044
1.439402816
1.417204178
1.395505564
1.374257952
1.354220703
1.335982191
1.319085782
1.302192373
1.285479404
1.268968372
1.251968112
1.236207947
1.207304351
1.988936374
1.953123448
1.918694467
1.884868616
1.851387896
1.818614375
1.784802772
1.751637245
1.724604572
1.696210915
1.667060599
1.639062508
1.61232564
1.58648081
1.561223915
1.536542073
1.5123621
1.488643615
1.465347004
1.442491789
1.420216871
1.398732615
1.378134781
1.358586383
1.339849801
1.321966585
1.304318994
1.284866737
1.266939697
1.250847112
1.236949696
1.208844767
1.986416801
1.951347206
1.917230207
1.88461119
1.853038169
1.821016607
1.785699748
1.749503341
1.715633871
1.684686233
1.656119272
1.629011875
1.603056762
1.577814269
1.552813337
1.528023808
1.503641604
1.479866425
1.456605884
1.433761277
1.411636285
1.390578987
1.370594982
1.351460596
1.332559905
1.314033424
1.296636604
1.279905068
1.26275228
1.245308769
1.229610793
1.201771745
1.983535723
1.948403447
1.915337884
1.881438427
1.846663939
1.8119822
1.779937929
1.746655217
1.713129862
1.682510005
1.654219636
1.627394395
1.601740013
1.576859989
1.552180345
1.527479447
1.502953829
1.478989295
1.455589591
1.432632237
1.4104681
1.389409846
1.369420025
1.35026903
1.331298341
1.312545306
1.295072284
1.278467902
1.260814833
1.242267427
1.226056409
1.199963712
1.981366102
1.94603125
1.913031433
1.879629834
1.844580239
1.809049996
1.776074965
1.747565434
1.717033792
1.687028957
1.658878712
1.632156741
1.60660441
1.581845148
1.557199851
1.532335727
1.507505245
1.48328456
1.459766069
1.436724451
1.414443036
1.393183564
1.372921965
1.353605026
1.33465762
1.315781507
1.297983314
1.281358768
1.263243163
1.241702409
1.224282884
1.199258992
1.981495232
1.944851741
1.909744048
1.878792512
1.845158592
1.808855409
1.77468218
1.74011563
1.707044013
1.676609317
1.648385915
1.621861938
1.596671709
1.572475763
1.54864289
1.524499429
1.499989899
1.475671896
1.452041659
1.428880822
1.406223451
1.38445337
1.363720351
1.344414208
1.326359556
1.308426247
1.290296281
1.272974749
1.257226772
1.239995168
1.224096807
1.197882282
1.984419319
1.945863613
1.908826816
1.873235656
1.840470857
1.807109953
1.773439255
1.739643715
1.707353598
1.676950427
1.64831002
1.621524497
1.596314449
1.572103493
1.548363262
1.524351859
1.499978067
1.475622292
1.451761173
1.428375001
1.405309576
1.383057493
1.362039429
1.342551764
1.324699805
1.307352664
1.289049773
1.270587233
1.254911115
1.241580847
1.227051056
1.197737751
1.978388324
1.94518681
1.908817447
1.870253164
1.8358043
1.807855306
1.777034733
1.745025917
1.713132501
1.682202237
1.652927903
1.625866396
1.60074371
1.576557863
1.552902115
1.528965496
1.504452751
1.479855185
1.455692815
1.43231057
1.409245199
1.386551516
1.365200523
1.345475489
1.32760206
1.311064194
1.292622714
1.271629853
1.253518856
1.235371374
1.21977617
1.192934516
1.974565586
1.94802178
1.914029794
1.872560753
1.833191018
1.796321624
1.763090741
1.733184807
1.70329211
1.672997332
1.643477591
1.615592923
1.590015433
1.566064583
1.542767097
1.519997994
1.496258108
1.471722346
1.447358558
1.423811943
1.401384306
1.378590711
1.356819042
1.337037761
1.318519628
1.301536747
1.286034562
1.269883046
1.252679199
1.234543676
1.218926015
1.192126818
1.972815889
1.93530487
1.900649506
1.866685472
1.830283625
1.793937299
1.759744623
1.729236069
1.700542021
1.670913975
1.641655125
1.613971081
1.587925261
1.564040606
1.541353069
1.519250451
1.495945963
1.470508307
1.445364511
1.421228283
1.399100508
1.377860448
1.356558184
1.33688668
1.318221175
1.299378074
1.283578561
1.271091001
1.255308371
1.237366813
1.221661391
1.193783573
1.967136094
1.929691318
1.895109176
1.8641876
1.830325574
1.793039168
1.758331592
1.727583251
1.699744678
1.671298691
1.642794892
1.615064221
1.587350078
1.561914725
1.541714877
1.521667223
1.499428641
1.473300266
1.445616633
1.420470913
1.39687177
1.377754818
1.359866389
1.340578261
1.321302303
1.300936357
1.282225654
1.264376174
1.247576627
1.230042797
1.214005267
1.188211067
1.963440239
1.926357742
1.891846202
1.857116527
1.822527689
1.789462994
1.756192186
1.723609585
1.696392898
1.674300836
1.648329405
1.617495463
1.588306927
1.56170053
1.53477899
1.509769158
1.487948568
1.466725586
1.443892064
1.420216011
1.397377432
1.375756653
1.353925798
1.333155989
1.314312344
1.298431625
1.28120988
1.263857146
1.247063535
1.229633491
1.213547614
1.18635604
1.960676425
1.92330749
1.887484511
1.85185297
1.817628661
1.785691904
1.753930336
1.722749361
1.693736733
1.664318133
1.638399109
1.613867467
1.588353777
1.561715866
1.534099356
1.507874094
1.483503669
1.463491074
1.445193938
1.42361037
1.401292169
1.376899554
1.352831384
1.331741675
1.312655222
1.296690531
1.282763843
1.26660406
1.249887185
1.232317844
1.21634685
1.186756241
1.953555726
1.920467398
1.885370136
1.849013944
1.812703872
1.779060215
1.751114861
1.723589235
1.692071567
1.661660151
1.634411055
1.613490369
1.591835768
1.566166459
1.538801184
1.51099545
1.484743369
1.459941412
1.435986651
1.413994685
1.392652395
1.371486528
1.351247548
1.330675696
1.312269975
1.295161564
1.276555886
1.258996165
1.242112827
1.224275816
1.208557903
1.183966971
1.949517571
1.915437781
1.879371201
1.843735324
1.810098932
1.776800285
1.744897404
1.716291796
1.688251548
1.659809739
1.633651676
1.607093867
1.580042327
1.55401342
1.528192358
1.502242888
1.479026868
1.457307055
1.435241504
1.413745663
1.392417929
1.371731952
1.351973082
1.331690695
1.312202496
1.293882847
1.276135877
1.258915317
1.241668819
1.223811933
1.207690244
1.182783868
1.943741469
1.908466263
1.875007289
1.841210502
1.807135228
1.77336463
1.740103709
1.710182301
1.685519451
1.661345568
1.633760693
1.604655134
1.576922686
1.550148965
1.524224171
1.499057685
1.47487731
1.455376388
1.437369167
1.416462187
1.395320674
1.37517662
1.356223757
1.336543281
1.313162898
1.293111289
1.278506958
1.261822277
1.244093886
1.226070619
1.210380372
1.181613059
1.942080036
1.906543328
1.870298616
1.833859314
1.79934715
1.768684591
1.73869023
1.708608564
1.680929205
1.655593403
1.629802061
1.602424992
1.575364423
1.549031884
1.523315717
1.498309495
1.473996685
1.450739977
1.428408367
1.406822121
1.386250272
1.36641461
1.347824396
1.329422185
1.309903619
1.290425288
1.271824572
1.254654176
1.23661921
1.21773373
1.203202009
1.179889181
1.934156155
1.899374429
1.863355734
1.828815984
1.795377924
1.762938123
1.732827183
1.703533427
1.674961648
1.650528685
1.627279683
1.6011951
1.573997376
1.547674576
1.5214999
1.496183802
1.471141365
1.446742712
1.425400209
1.405665035
1.385959111
1.366188882
1.346970246
1.32831107
1.309238292
1.289149911
1.26961462
1.252846354
1.235937502
1.217620053
1.201893315
1.179546979
1.924618217
1.89252499
1.859203923
1.824332966
1.789201339
1.755580555
1.725595847
1.699111367
1.673364218
1.646725744
1.622460535
1.600106677
1.574548449
1.546293116
1.518689584
1.49371072
1.470453692
1.446247877
1.423283792
1.406324168
1.388810084
1.369396422
1.349605917
1.329517086
1.309763503
1.290093405
1.270002327
1.251087984
1.236837169
1.220103462
1.204111625
1.177083629
1.919600555
1.885193343
1.851311966
1.818168799
1.785070713
1.752777562
1.722599816
1.694548098
1.667909007
1.642023388
1.61756424
1.593013826
1.567091648
1.540545041
1.5150576
1.490700627
1.467252639
1.444050102
1.422308806
1.400966654
1.380780981
1.361094165
1.34118551
1.323097106
1.309773888
1.293647153
1.272992408
1.251637858
1.231691712
1.212717046
1.1973964
1.174133038
1.911014959
1.876816008
1.84363897
1.810245186
1.776721537
1.744438977
1.713877997
1.68586071
1.660888096
1.637271488
1.613158282
1.58866945
1.564092569
1.538509118
1.512726098
1.48705917
1.463771039
1.443284536
1.421736417
1.399817373
1.37989709
1.360446479
1.340536239
1.322340834
1.304523626
1.286007709
1.267238044
1.248855236
1.229572009
1.211374619
1.195944008
1.171895179
1.905845412
1.872188952
1.837561391
1.802648039
1.769190773
1.737974281
1.70882655
1.681953264
1.657241764
1.633485653
1.608961617
1.583371074
1.559195791
1.536934132
1.512946759
1.487492837
1.461740453
1.437728495
1.419054331
1.40188052
1.382644274
1.363367959
1.343693646
1.322049453
1.301084644
1.282606193
1.264646318
1.246725748
1.228706675
1.210971848
1.195076457
1.170241351
1.897048187
1.863428697
1.829195637
1.795260224
1.762318897
1.731042005
1.702113165
1.675530987
1.650534834
1.62601634
1.602262648
1.579855636
1.556256505
1.530435646
1.505515477
1.481482646
1.456820634
1.43426352
1.41371263
1.392308658
1.372011634
1.352970075
1.335268963
1.317230879
1.298573963
1.281555212
1.264540169
1.245773486
1.227292517
1.209358418
1.1938115
1.168399076
1.887082595
1.854268436
1.820117215
1.78567444
1.752438544
1.721994716
1.6948634
1.670206797
1.646521162
1.623042492
1.599998657
1.576662314
1.551844549
1.525494155
1.499412256
1.476005142
1.454873274
1.433709545
1.411087883
1.389396145
1.369099439
1.350006545
1.332346458
1.315250552
1.297395092
1.279004192
1.261561197
1.244418063
1.227102706
1.20943988
1.19405451
1.168452348
1.880564228
1.847120556
1.813108494
1.779491069
1.747229776
1.717145049
1.689521726
1.664157832
1.640341191
1.617062405
1.593439557
1.569036184
1.545286446
1.522256511
1.498152279
1.473532486
1.450069807
1.428115089
1.406807621
1.386574143
1.367234035
1.348735826
1.330257672
1.311629943
1.293453475
1.275336969
1.258930158
1.245178352
1.22943331
1.211902394
1.196541396
1.170983476
1.86668035
1.834073096
1.801354341
1.768754962
1.736969394
1.707129483
1.67987828
1.655359834
1.633112592
1.611782001
1.589666179
1.566254051
1.541791215
1.516824429
1.492388923
1.468100086
1.444510851
1.421925451
1.40089521
1.382231474
1.364618429
1.346119966
1.327077566
1.309196414
1.291969862
1.274050519
1.255980523
1.238414967
1.221814916
1.204994992
1.189617368
1.16426505
1.859361948
1.826941785
1.793916933
1.76143562
1.730677446
1.702341151
1.676393429
1.652310547
1.629299135
1.606492312
1.583260473
1.559055486
1.533724516
1.508914065
1.486311475
1.464289005
1.441921759
1.419993112
1.399020562
1.378718216
1.359515202
1.341621641
1.324529
1.307031534
1.288864535
1.270890206
1.252381106
1.234478282
1.218529329
1.202941207
1.188355692
1.163669652
1.846778437
1.814847447
1.782887213
1.751518503
1.721472268
1.693507323
1.667665608
1.643345979
1.619874797
1.597055177
1.575307678
1.553349986
1.530038674
1.506496664
1.482757434
1.459183115
1.436724429
1.415432635
1.395051113
1.375345058
1.356606091
1.33864456
1.320850486
1.302929522
1.285323236
1.268991716
1.252485927
1.234174425
1.215262128
1.199066239
1.188229873
1.165818282
1.836723264
1.805633202
1.77429217
1.743244148
1.713528265
1.686154839
1.661146643
1.637860898
1.61568177
1.593982343
1.571472869
1.547429817
1.522973602
1.498502377
1.474229474
1.451316548
1.430157066
1.410044521
1.390853434
1.372462394
1.354461438
1.336458989
1.318620794
1.301530495
1.285026395
1.267630202
1.249361581
1.230565674
1.21283441
1.195987766
1.180859492
1.157434002
1.82696691
1.796065893
1.765070323
1.734478896
1.705164169
1.677981375
1.653062232
1.629852996
1.607490924
1.584917708
1.561475156
1.538492982
1.516677738
1.493941345
1.470859725
1.448557991
1.426877842
1.405901035
1.385893864
1.366874049
1.349023057
1.331933664
1.314686756
1.297225293
1.279659398
1.262433106
1.246314687
1.229857693
1.213113159
1.194609875
1.178083241
1.15498011
1.816019883
1.785718463
1.755132799
1.724731313
1.695475996
1.668470752
1.644205039
1.62211738
1.600929827
1.579508432
1.557661446
1.535252401
1.511344915
1.486944672
1.463280497
1.440670741
1.419168438
1.398904783
1.379761714
1.361282987
1.343332274
1.325960371
1.30943465
1.293668203
1.277574297
1.260351646
1.24240027
1.224823626
1.207782489
1.190852986
1.176065296
1.154646506
1.808664042
1.77737055
1.74614814
1.716094301
1.687971724
1.662139162
1.638367692
1.615842625
1.593757891
1.57159604
1.548894302
1.525447318
1.502368692
1.480230429
1.457872906
1.435857535
1.414967866
1.395346109
1.376867409
1.359013489
1.341485842
1.324301859
1.307364562
1.290488819
1.273210153
1.255094573
1.236727146
1.219666719
1.2048152
1.188711056
1.173780751
1.151807872
1.795816261
1.764708438
1.734685013
1.705401506
1.677174828
1.651022173
1.627193814
1.605285639
1.58481297
1.56467508
1.54366602
1.521752389
1.49896097
1.474852983
1.451126976
1.428989135
1.40848462
1.389390757
1.371312455
1.353785096
1.336601664
1.319475354
1.302003864
1.284265183
1.266943416
1.2506561
1.234751997
1.218011451
1.200636837
1.182873346
1.169203004
1.148983784
1.789389691
1.75893646
1.728400823
1.698690502
1.671043571
1.645755616
1.62273038
1.601189569
1.579971455
1.55823511
1.535755404
1.512539903
1.488782763
1.465693974
1.444048399
1.423192847
1.403273732
1.384513459
1.366236634
1.348366982
1.331373994
1.315106655
1.298664122
1.281782003
1.264909591
1.247912545
1.230684638
1.212938639
1.19535134
1.178972952
1.166723658
1.145815574
1.77869083
1.747417227
1.716839993
1.688043821
1.661286932
1.636235071
1.612742295
1.590229306
1.56864192
1.548509813
1.528495026
1.507182264
1.484892339
1.461992151
1.439016591
1.417290325
1.397216503
1.378756453
1.361641429
1.344904055
1.328067899
1.311309082
1.294290906
1.276983694
1.259458285
1.241886529
1.225032702
1.209079
1.193824724
1.178033498
1.164038808
1.142864866
1.771157749
1.740579965
1.710361452
1.681238726
1.654000665
1.629108409
1.606450729
1.585294307
1.564973179
1.544108471
1.52179085
1.498587935
1.475013649
1.451608708
1.429555522
1.409333436
1.390566316
1.372912542
1.355953895
1.339031406
1.322157944
1.305086326
1.288047477
1.271965787
1.256192974
1.239829257
1.223166415
1.206239222
1.189995658
1.173603463
1.159804749
1.139251216
1.762092108
1.731238983
1.701284558
1.672784076
1.646178225
1.621670455
1.599034618
1.577183063
1.555185652
1.532850805
1.511659208
1.491196048
1.469685661
1.447650013
1.426059234
1.405351273
1.385751111
1.366790189
1.348970858
1.333398571
1.318820701
1.303186651
1.286772918
1.269913257
1.252377461
1.234966547
1.217484491
1.200270741
1.185118894
1.170872072
1.15866898
1.138010337
1.754840397
1.724121204
1.694230799
1.665857871
1.63945198
1.615049132
1.592446155
1.570831582
1.549841915
1.52927529
1.507793619
1.484527998
1.460928586
1.437779094
1.415848112
1.395463754
1.376791127
1.360874098
1.346171935
1.330772947
1.314564878
1.297851063
1.280745828
1.263233444
1.246219934
1.230610537
1.214630473
1.19849374
1.183121669
1.167596372
1.15517286
1.134685552
1.748813461
1.717321322
1.687281095
1.659048995
1.632877412
1.608502757
1.585711283
1.563855226
1.542313553
1.520159716
1.496936104
1.475049314
1.453952998
1.432310447
1.411433657
1.392120657
1.374192131
1.356782459
1.339574602
1.322744489
1.306777345
1.292254207
1.277523792
1.261356605
1.244829196
1.227880762
1.210470394
1.193739053
1.177915461
1.162566175
1.150635028
1.131439985
1.740876344
1.710405615
1.680815886
1.652418493
1.625777586
1.600902951
1.577886052
1.556219546
1.535190665
1.514088209
1.492653471
1.470163656
1.446781663
1.423954708
1.402778277
1.383289865
1.36490265
1.348391835
1.334026595
1.319518614
1.304884562
1.289332685
1.272231143
1.254767208
1.237335668
1.220302781
1.204413612
1.189746276
1.175418399
1.161279625
1.149650856
1.129342889
1.739268103
1.707571451
1.676847283
1.64776382
1.620759875
1.595840014
1.572631883
1.550202404
1.528071019
1.505707472
1.482676022
1.460024843
1.438543764
1.417279137
1.397091706
1.37860449
1.361814121
1.346206209
1.32999475
1.313495152
1.297235486
1.280727551
1.265303339
1.250185673
1.234070515
1.218150391
1.202314254
1.186353555
1.17120998
1.156940953
1.145015814
1.124514237
1.730545699
1.699050133
1.668948831
1.640510949
1.61361791
1.588286886
1.564551479
1.541529925
1.518698049
1.496281172
1.47503297
1.453944384
1.431763693
1.409924537
1.389949033
1.371596475
1.354259963
1.337574181
1.322094118
1.30802582
1.293483841
1.278352389
1.262534173
1.245164962
1.22777971
1.211129527
1.194601426
1.178990565
1.165204393
1.152776876
1.142108883
1.122847599
1.727488892
1.69657054
1.6664682
1.637597118
1.610075408
1.584042819
1.559951825
1.536996767
1.514432319
1.492278817
1.469798045
1.446591504
1.424098811
1.403019368
1.383783099
1.366191154
1.350032368
1.334934016
1.319858257
1.303606576
1.287011465
1.27044143
1.253961601
1.238352043
1.223163511
1.207468915
1.19167514
1.177110961
1.163973364
1.150730803
1.138793863
1.11858756
1.720324282
1.690086116
1.660533974
1.632299527
1.605357924
1.579502263
1.554841406
1.531031199
1.508045665
1.485748875
1.463145367
1.440165125
1.417789428
1.396516989
1.377188859
1.359476912
1.34276204
1.326626368
1.310438643
1.295356529
1.281539734
1.266998939
1.252005376
1.235766848
1.218613015
1.201989067
1.186086653
1.171188589
1.157412737
1.143698417
1.132228118
1.114735725
1.716485586
1.687256187
1.658106273
1.629845282
1.602842049
1.576493926
1.550783852
1.526037758
1.502513647
1.479778762
1.456771827
1.433686746
1.4113652
1.389896825
1.370416061
1.35298113
1.3369964
1.32196769
1.307495139
1.293032968
1.276987014
1.260482954
1.244095332
1.227492782
1.212447251
1.19770069
1.182585304
1.167780657
1.154253697
1.141289981
1.130371083
1.111210149
1.708174094
1.67923301
1.651172247
1.623869381
1.597389198
1.571687911
1.546786977
1.522337613
1.498204101
1.474451193
1.450908842
1.427773875
1.405652558
1.384644895
1.365093886
1.346987238
1.330518393
1.315305266
1.300102221
1.284572942
1.269908392
1.255907075
1.241148988
1.22561936
1.209712209
1.193490303
1.177870402
1.162813917
1.148975591
1.135799892
1.123956274
1.104615893
1.699313613
1.673513322
1.645481911
1.617283854
1.590417239
1.564525754
1.539403375
1.514987711
1.491336088
1.46833755
1.445065533
1.421796447
1.399417917
1.377846868
1.358271978
1.340248486
1.324132875
1.310319499
1.296246739
1.282022725
1.266902983
1.250492934
1.234409925
1.217771494
1.201689599
1.186762793
1.172809439
1.158653424
1.145108797
1.132358332
1.121188422
1.102775065
1.694504177
1.665730482
1.639216688
1.614525236
1.588830424
1.562885489
1.537964555
1.514127057
1.490334026
1.465568086
1.440451012
1.416537687
1.393798605
1.373087081
1.355599679
1.339073378
1.322375925
1.305306212
1.288840007
1.273263101
1.258205213
1.244857164
1.230956136
1.215606611
1.20041194
1.185104417
1.170187532
1.155541605
1.141409084
1.127940126
1.116194163
1.096790876
1.680885494
1.656590437
1.632685272
1.606411782
1.580158095
1.554564805
1.529972682
1.505991851
1.481730105
1.457567574
1.434342779
1.411324603
1.389538629
1.369060241
1.349275433
1.330788622
1.31367397
1.298174542
1.283631545
1.269449196
1.255241651
1.239954942
1.224629374
1.208828175
1.19310552
1.177643781
1.163112141
1.149361061
1.13637533
1.123910117
1.113197445
1.094795611
1.675657615
1.647793393
1.621325809
1.597928603
1.5748803
1.550757741
1.527012235
1.503631749
1.47999581
1.45657
1.432114864
1.407820282
1.385596086
1.36438807
1.343973054
1.325871469
1.310042003
1.294876553
1.278490577
1.262226248
1.246307273
1.232466045
1.218958713
1.204451838
1.189736231
1.175503277
1.161906432
1.148834009
1.135653847
1.121578442
1.10937584
1.0898109
1.66317809
1.639983613
1.616819123
1.592225196
1.566607509
1.542401356
1.518952553
1.495394744
1.471294418
1.447367232
1.425126052
1.405344318
1.385124261
1.363463081
1.342475675
1.323155341
1.305156171
1.287922453
1.272430423
1.258567302
1.243717365
1.227005511
1.210105867
1.194978028
1.181493011
1.169158523
1.15634678
1.143085133
1.129848408
1.11617493
1.105345793
1.087743478
1.655036297
1.629645807
1.604111435
1.579093295
1.557776534
1.536731076
1.514574349
1.491709015
1.468605153
1.44624289
1.423668276
1.400644289
1.379157202
1.358147758
1.338503735
1.319762199
1.301530488
1.284692979
1.26895221
1.252193507
1.235094727
1.217884949
1.201866888
1.187874036
1.175572061
1.165086195
1.153411817
1.140845714
1.128631105
1.115870058
1.104623667
1.084969944
1.643824209
1.621548509
1.598136226
1.574564553
1.55015389
1.526551826
1.503696928
1.48085349
1.45797454
1.435600088
1.414997638
1.396231201
1.376899732
1.357986498
1.339832874
1.321565667
1.302365515
1.283052087
1.265233588
1.248503225
1.232081697
1.215528002
1.199495635
1.184522108
1.17040334
1.158326903
1.145561287
1.132036122
1.119579477
1.106733501
1.096651288
1.079654332
1.632944778
1.609183871
1.585624555
1.562494028
1.540620415
1.518520403
1.496133821
1.474545194
1.453653881
1.433254555
1.412137109
1.390186995
1.369248422
1.349370635
1.331057024
1.314314335
1.297208337
1.279761937
1.262457249
1.244727844
1.226978128
1.209509008
1.193646447
1.179151871
1.164720806
1.152790504
1.14041165
1.126656679
1.114234851
1.102316019
1.093623862
1.078262994
1.619664075
1.600180294
1.580073031
1.558674375
1.535600865
1.512367807
1.489701255
1.467394982
1.445767924
1.424742438
1.404367086
1.38412057
1.363640729
1.343490324
1.324828741
1.307900683
1.292427097
1.278122337
1.262186031
1.243754874
1.225072016
1.206763191
1.191086903
1.177307638
1.163581719
1.150391847
1.135936869
1.121449297
1.108887274
1.097576608
1.088944442
1.073164302
1.603822837
1.583357174
1.565388152
1.547447538
1.527457726
1.506633428
1.485626275
1.464230331
1.44304983
1.422110547
1.400863516
1.379330376
1.35889738
1.340504552
)
;

boundaryField
{
    inlet
    {
        type            calculated;
        value           nonuniform 0();
    }
    outlet
    {
        type            calculated;
        value           nonuniform List<scalar> 
69
(
1.231108276
1.238051745
1.232607888
1.232921782
1.237394084
1.230606513
1.228585742
1.227365798
1.224238079
1.221104387
1.218557823
1.215459965
1.212610566
1.209284946
1.207340258
1.208873915
1.201797694
1.199977991
1.199240787
1.197904132
1.1977953
1.192937143
1.1921387
1.193838176
1.188212244
1.186354214
1.186803411
1.183980093
1.182756239
1.181646808
1.17990402
1.179500885
1.177102206
1.17413026
1.171876146
1.170242051
1.168406902
1.168460131
1.170988006
1.164270701
1.163674938
1.165812637
1.157422893
1.154972796
1.154638503
1.15180115
1.148943274
1.145810052
1.14285175
1.139218309
1.1380072
1.134674853
1.131395798
1.129336877
1.124510935
1.122831891
1.118582814
1.114676852
1.111202103
1.104602293
1.102749763
1.096781842
1.094774452
1.089811803
1.087719379
1.084990132
1.079624969
1.078230693
1.073150397
)
;
    }
    bottom
    {
        type            calculated;
        value           nonuniform List<scalar> 
32
(
2.054441327
2.015961249
1.978893017
1.942756844
1.907493462
1.873237348
1.83989419
1.806785033
1.773514193
1.740127078
1.707423164
1.676247555
1.647591534
1.622150529
1.598316052
1.574420991
1.551050437
1.528271845
1.505847538
1.484006285
1.461098078
1.435496873
1.409136947
1.384062442
1.361542498
1.341858552
1.323565144
1.305859229
1.289297106
1.27230121
1.257187732
1.231107192
)
;
    }
    top
    {
        type            calculated;
        value           nonuniform 0();
    }
    obstacle
    {
        type            calculated;
        value           nonuniform 0();
    }
    defaultFaces
    {
        type            empty;
    }
    procBoundary5to4
    {
        type            processor;
        value           nonuniform List<scalar> 
69
(
2.09564582
2.106300427
2.093980982
2.090983766
2.08645645
2.080368283
2.073637772
2.0660069
2.05947031
2.052795899
2.047325473
2.043605009
2.041672892
2.03400575
2.029092567
2.02672915
2.022998047
2.021075151
2.01880864
2.018003611
2.018176952
2.010581177
2.008230419
2.012433098
2.002660992
2.00018633
2.002117449
1.988256955
1.982555283
1.9792488
1.976173375
1.967418281
1.956879102
1.95321648
1.94523742
1.938579737
1.930243478
1.918803781
1.913078773
1.899054154
1.89099553
1.878607017
1.867791524
1.857887736
1.84603095
1.839428087
1.827391872
1.820053935
1.810146808
1.802188958
1.793639244
1.785858781
1.781583739
1.772634712
1.771121303
1.762552594
1.758808469
1.750809094
1.745085775
1.737899504
1.725250156
1.721618357
1.707960894
1.700936122
1.686891002
1.679162267
1.664730872
1.657473198
1.638752215
)
;
    }
    procBoundary5to10
    {
        type            processor;
        value           uniform 1.627271838;
    }