/*--------------------------------*- C++ -*----------------------------------*\
  =========                 |
  \\      /  F ield         | OpenFOAM: The Open Source CFD Toolbox
   \\    /   O peration     | Website:  https://openfoam.org
    \\  /    A nd           | Version:  7
     \\/     M anipulation  |
\*---------------------------------------------------------------------------*/
FoamFile
{
    version     2.0;
    format      ascii;
    class       volVectorField;
    location    "1.7";
    object      U;
}
// * * * * * * * * * * * * * * * * * * * * * * * * * * * * * * * * * * * * * //

dimensions      [0 1 -1 0 0 0 0];

internalField   nonuniform List<vector> 
2225
(
(2.514915876 0.5521628777 0)
(2.506894079 0.5431950639 0)
(2.494080455 0.5348035774 0)
(2.48173585 0.5227739749 0)
(2.468869322 0.5116668176 0)
(2.455369027 0.5011366022 0)
(2.439856872 0.4936014516 0)
(2.424099286 0.4842451036 0)
(2.405949858 0.4802201236 0)
(2.38988185 0.4732344207 0)
(2.375259816 0.4689360077 0)
(2.365897557 0.4631264506 0)
(2.360559614 0.4608761413 0)
(2.361845732 0.4564294083 0)
(2.366809225 0.45231771 0)
(2.382851376 0.4425486699 0)
(2.550803538 0.6419395638 0)
(2.531987592 0.6419135806 0)
(2.508075945 0.6533476251 0)
(2.493327154 0.6594464595 0)
(2.49894816 0.6476073309 0)
(2.517533226 0.6347338403 0)
(2.532882434 0.6180442311 0)
(2.540216395 0.6043088603 0)
(2.540838628 0.5971744231 0)
(2.530185947 0.6020703517 0)
(2.513289312 0.610481258 0)
(2.507542672 0.6049497242 0)
(2.514534022 0.5890791913 0)
(2.523275436 0.5741784085 0)
(2.530127724 0.5648794555 0)
(2.533475812 0.559605944 0)
(2.531298778 0.5573311965 0)
(2.525428136 0.5509214045 0)
(2.517273764 0.5442266753 0)
(2.512206468 0.5327865179 0)
(2.506916849 0.5231840583 0)
(2.500144326 0.5144114708 0)
(2.489491626 0.5092006424 0)
(2.475918756 0.5020111941 0)
(2.457671032 0.4977544083 0)
(2.43892842 0.4883390452 0)
(2.418717931 0.4826028199 0)
(2.401561991 0.471952879 0)
(2.38722125 0.4613269376 0)
(2.378466796 0.4527491975 0)
(2.375080779 0.4433211654 0)
(2.381481234 0.4359916327 0)
(2.546217797 0.6528031969 0)
(2.517017 0.6600158313 0)
(2.499282322 0.6631545679 0)
(2.498158322 0.6552627841 0)
(2.51638738 0.6441173417 0)
(2.535570297 0.6296441847 0)
(2.546249595 0.6130379663 0)
(2.549653458 0.6004673209 0)
(2.542345194 0.6008462667 0)
(2.524750523 0.6110491558 0)
(2.510094483 0.6143981091 0)
(2.512910398 0.6015548083 0)
(2.525275183 0.5837847156 0)
(2.534789218 0.5700891458 0)
(2.540999578 0.5628874796 0)
(2.542577437 0.5614443752 0)
(2.538263971 0.5629923518 0)
(2.533020887 0.5594429268 0)
(2.530600368 0.5515417549 0)
(2.532624274 0.5401536433 0)
(2.534202454 0.5314585024 0)
(2.53328924 0.5256435902 0)
(2.52778257 0.5226922296 0)
(2.517841435 0.5178439614 0)
(2.502272558 0.5141889571 0)
(2.485182628 0.5048448837 0)
(2.465999664 0.495921348 0)
(2.447721409 0.4835717848 0)
(2.429833293 0.4733794983 0)
(2.41505531 0.4628572149 0)
(2.404702238 0.4536460274 0)
(2.39699446 0.4460781291 0)
(2.52277328 0.664204903 0)
(2.500575961 0.6658840093 0)
(2.500425972 0.6607806657 0)
(2.511760591 0.6503508261 0)
(2.535008475 0.6388246823 0)
(2.550483293 0.6228656255 0)
(2.556568611 0.607802464 0)
(2.552316924 0.6019698124 0)
(2.537013876 0.6092076102 0)
(2.519302842 0.6191462457 0)
(2.512438875 0.613865282 0)
(2.524402669 0.5964413521 0)
(2.537362963 0.5796629065 0)
(2.545120579 0.5689867798 0)
(2.548804454 0.5649429799 0)
(2.546583962 0.5675645067 0)
(2.538790782 0.5718400815 0)
(2.536046126 0.5673940849 0)
(2.54016878 0.5573339314 0)
(2.547371337 0.5463418187 0)
(2.552640265 0.5398010256 0)
(2.554942265 0.5364307268 0)
(2.552288291 0.5354855154 0)
(2.544857499 0.5323902866 0)
(2.532874515 0.5281951647 0)
(2.520883752 0.5173060712 0)
(2.507118143 0.5071562858 0)
(2.493375929 0.494059736 0)
(2.478189977 0.4819730338 0)
(2.462746674 0.4715028392 0)
(2.449412422 0.461597942 0)
(2.431103096 0.4506327931 0)
(2.495956011 0.6750804261 0)
(2.495889381 0.6689468207 0)
(2.512314833 0.6588159089 0)
(2.530806935 0.6441572991 0)
(2.551178282 0.6286607194 0)
(2.56202165 0.6153085854 0)
(2.561215812 0.6084025534 0)
(2.548341152 0.6094131486 0)
(2.529784907 0.6207964411 0)
(2.518402042 0.6230485685 0)
(2.522597875 0.6102471132 0)
(2.538746243 0.5937499522 0)
(2.548633223 0.5803865938 0)
(2.554377753 0.5715982944 0)
(2.554908428 0.5706947264 0)
(2.547725963 0.5774030678 0)
(2.538133407 0.5812402783 0)
(2.540329354 0.5738758014 0)
(2.549799668 0.5629108362 0)
(2.558969484 0.5530271963 0)
(2.565069282 0.5477055515 0)
(2.567576475 0.5458581043 0)
(2.564762365 0.5458967853 0)
(2.558169906 0.5431980658 0)
(2.550048294 0.5374616058 0)
(2.544443154 0.5253605383 0)
(2.538242495 0.513530737 0)
(2.531117338 0.5012392763 0)
(2.521113743 0.4905250158 0)
(2.508811084 0.4815010556 0)
(2.496148346 0.4729768549 0)
(2.473765178 0.4638203581 0)
(2.479077274 0.6762109508 0)
(2.496272928 0.6614748116 0)
(2.531969717 0.64276601 0)
(2.550758056 0.6309695157 0)
(2.565929411 0.6228182246 0)
(2.567312453 0.6176850392 0)
(2.556541193 0.6159966967 0)
(2.538040388 0.6238503338 0)
(2.523657799 0.6317978609 0)
(2.523443798 0.62416361 0)
(2.537586077 0.6098099056 0)
(2.551636725 0.5947713802 0)
(2.558532511 0.5836469421 0)
(2.561858181 0.5779790626 0)
(2.557127125 0.5828563694 0)
(2.545409124 0.5922112423 0)
(2.539238589 0.5913924899 0)
(2.548630399 0.5807556403 0)
(2.559851264 0.5690242351 0)
(2.568397425 0.5596680195 0)
(2.573220793 0.5548513744 0)
(2.573091309 0.5539904077 0)
(2.567860049 0.554601174 0)
(2.562054473 0.5509119283 0)
(2.559102926 0.5418975667 0)
(2.559963767 0.5279925766 0)
(2.560022242 0.5166375717 0)
(2.558460075 0.5063844238 0)
(2.553433672 0.4977470403 0)
(2.544985744 0.4919891498 0)
(2.535174635 0.4854797335 0)
(2.515864513 0.4767049462 0)
(2.476333483 0.6679004442 0)
(2.522413632 0.6449221517 0)
(2.549977466 0.6290751637 0)
(2.568658741 0.6267809044 0)
(2.574281474 0.6255899248 0)
(2.567530081 0.6253719668 0)
(2.547676595 0.6299868318 0)
(2.52730042 0.6394815925 0)
(2.523550352 0.6357500563 0)
(2.535851522 0.6224278626 0)
(2.551749919 0.6100198324 0)
(2.561174643 0.597937707 0)
(2.566681013 0.5901792298 0)
(2.565952066 0.5900104154 0)
(2.555688949 0.6000764314 0)
(2.544075264 0.6066538785 0)
(2.546131744 0.6000834291 0)
(2.559590226 0.5867780734 0)
(2.569727451 0.5736786836 0)
(2.57632969 0.564431877 0)
(2.577963381 0.5596861093 0)
(2.573554883 0.5602411116 0)
(2.566054868 0.5609602138 0)
(2.56299927 0.5543642661 0)
(2.565730339 0.5418258874 0)
(2.571243768 0.5277502569 0)
(2.575081453 0.5179409084 0)
(2.576367714 0.5107028441 0)
(2.574196781 0.5049653781 0)
(2.568498798 0.5024616036 0)
(2.562167822 0.4976324216 0)
(2.549973082 0.4898974523 0)
(2.513758315 0.6561128055 0)
(2.553051675 0.6300038422 0)
(2.569372221 0.6283611724 0)
(2.577585516 0.6329655664 0)
(2.568446122 0.6384813373 0)
(2.547719223 0.6449342082 0)
(2.526889957 0.6509498137 0)
(2.519993507 0.6482710992 0)
(2.531598757 0.6367804451 0)
(2.548068067 0.6268699309 0)
(2.562280368 0.6144117577 0)
(2.569045265 0.60592931 0)
(2.572438216 0.6009095485 0)
(2.56527555 0.6069603667 0)
(2.55189868 0.6187728979 0)
(2.546662844 0.6184400026 0)
(2.557236361 0.6055999988 0)
(2.570798252 0.5885350321 0)
(2.578639029 0.5753040785 0)
(2.582034906 0.5664902201 0)
(2.579258449 0.5634404362 0)
(2.570714004 0.5662988062 0)
(2.563387337 0.5652332759 0)
(2.565155925 0.5543511995 0)
(2.572734076 0.5395761783 0)
(2.580513635 0.5267745509 0)
(2.585361994 0.5201655871 0)
(2.586869801 0.5163403676 0)
(2.585322765 0.5133693588 0)
(2.58041789 0.5139214351 0)
(2.577931756 0.5092721659 0)
(2.574293883 0.5014186033 0)
(2.557928911 0.6377760597 0)
(2.569885577 0.6263867751 0)
(2.577702493 0.6278181369 0)
(2.573046389 0.6400726761 0)
(2.547134207 0.657427233 0)
(2.520731268 0.6635899032 0)
(2.512988462 0.6610623524 0)
(2.522581534 0.6521784037 0)
(2.540885559 0.6428211935 0)
(2.560308642 0.6312376834 0)
(2.56989489 0.6211156419 0)
(2.575902547 0.6133335099 0)
(2.572604322 0.613920764 0)
(2.559863945 0.6254634472 0)
(2.548894639 0.6316249615 0)
(2.554078137 0.6220536183 0)
(2.568663966 0.6051620433 0)
(2.580019909 0.5879127968 0)
(2.585330896 0.5750025848 0)
(2.584961897 0.5674442123 0)
(2.577956922 0.5681481068 0)
(2.567157438 0.5719978211 0)
(2.563186915 0.5669123036 0)
(2.570588335 0.5523834751 0)
(2.580759709 0.5377030668 0)
(2.588418711 0.5277470474 0)
(2.59237202 0.5245735388 0)
(2.592261151 0.5240488841 0)
(2.589453554 0.5242140736 0)
(2.584625472 0.5257107923 0)
(2.586872458 0.5196204282 0)
(2.590641972 0.5108934034 0)
(2.587700951 0.6170232881 0)
(2.576205586 0.6191460801 0)
(2.571066464 0.6298558229 0)
(2.550205806 0.6567067408 0)
(2.517789859 0.6704849738 0)
(2.505674397 0.6678241355 0)
(2.511590472 0.6631123476 0)
(2.530896981 0.6536885001 0)
(2.553060749 0.6403242262 0)
(2.567575385 0.629258861 0)
(2.575579097 0.6214838457 0)
(2.575452788 0.6196442141 0)
(2.566073796 0.6274898871 0)
(2.552637524 0.6354022806 0)
(2.549865458 0.631912055 0)
(2.563487026 0.6189482091 0)
(2.577552891 0.6020777656 0)
(2.586209105 0.5855804836 0)
(2.588936016 0.5735018684 0)
(2.584707167 0.5705340009 0)
(2.574274586 0.5751801736 0)
(2.564776567 0.5769873284 0)
(2.567429903 0.5664915483 0)
(2.579497253 0.5503416901 0)
(2.589285879 0.5378245912 0)
(2.595318509 0.5311775064 0)
(2.597136426 0.5314755507 0)
(2.594182426 0.5342275489 0)
(2.589557939 0.5364569434 0)
(2.586504164 0.5360087364 0)
(2.593579285 0.527802446 0)
(2.601756521 0.5173897568 0)
(2.662455232 0.5520421665 0)
(2.568474763 0.6201671129 0)
(2.547084962 0.6491625714 0)
(2.512611918 0.6762426551 0)
(2.496223992 0.6773628837 0)
(2.500697245 0.6713300601 0)
(2.51876238 0.6608228834 0)
(2.548705534 0.6450719733 0)
(2.562277006 0.6341291617 0)
(2.571961296 0.6258052951 0)
(2.574940512 0.6216642763 0)
(2.569549794 0.6241332454 0)
(2.557398912 0.6335387616 0)
(2.548400856 0.6357586074 0)
(2.555545939 0.6269263061 0)
(2.571908094 0.6132101741 0)
(2.582803682 0.5971975194 0)
(2.588860309 0.5825701653 0)
(2.588609451 0.5747822613 0)
(2.581000635 0.5770713405 0)
(2.570491667 0.5825178498 0)
(2.56623456 0.5790599587 0)
(2.576720819 0.5653337506 0)
(2.589622207 0.5511220557 0)
(2.597278456 0.5417837047 0)
(2.601026833 0.5380115309 0)
(2.599553537 0.5417466651 0)
(2.593518018 0.5464090223 0)
(2.588869121 0.5478142167 0)
(2.590148746 0.5436139583 0)
(2.600320552 0.5325058865 0)
(2.609439387 0.520223915 0)
(2.755573939 0.3937970733 0)
(2.614275365 0.5596122901 0)
(2.53779898 0.6362794516 0)
(2.504852797 0.6813185827 0)
(2.500453491 0.6801178549 0)
(2.507475987 0.6668289801 0)
(2.539461656 0.6489923386 0)
(2.556431726 0.6360809458 0)
(2.567282141 0.6299774967 0)
(2.571936382 0.6263892642 0)
(2.567581482 0.625269759 0)
(2.555887484 0.6308305938 0)
(2.546111882 0.6353022551 0)
(2.548105062 0.630353271 0)
(2.563774038 0.6201671095 0)
(2.577108909 0.6061390796 0)
(2.585027899 0.5928481302 0)
(2.588566747 0.5822876126 0)
(2.585266318 0.5796360393 0)
(2.576032797 0.585821469 0)
(2.568853823 0.5881306254 0)
(2.57305829 0.5791355172 0)
(2.588640569 0.5664080543 0)
(2.599025294 0.5549231099 0)
(2.604334044 0.5485162466 0)
(2.605211356 0.5478849916 0)
(2.599260502 0.5546550978 0)
(2.591947784 0.5584649964 0)
(2.590298462 0.5560890111 0)
(2.596378858 0.547131719 0)
(2.607252978 0.5334343994 0)
(2.614647016 0.5207828189 0)
(2.981814884 -0.06926308771 0)
(2.75638316 0.3654473768 0)
(2.5256006 0.6535221791 0)
(2.514549255 0.6974696121 0)
(2.509428773 0.6790579692 0)
(2.532925807 0.6525778323 0)
(2.54967902 0.6337772049 0)
(2.562564157 0.6309709186 0)
(2.569049911 0.6303725304 0)
(2.563692504 0.6302117152 0)
(2.550109388 0.632984266 0)
(2.540588594 0.6364842253 0)
(2.540425436 0.6335784858 0)
(2.553331766 0.6250651614 0)
(2.569878744 0.6133182951 0)
(2.579333494 0.602139145 0)
(2.584907972 0.5925708695 0)
(2.585203785 0.5860061598 0)
(2.578947214 0.5887888207 0)
(2.570703551 0.595201239 0)
(2.571193077 0.5914538526 0)
(2.584327572 0.5811112769 0)
(2.598819073 0.5697891788 0)
(2.606036332 0.5610358042 0)
(2.609140437 0.5569240987 0)
(2.606201975 0.5602351936 0)
(2.596606287 0.5681277224 0)
(2.591776999 0.5678596876 0)
(2.594887891 0.5601793696 0)
(2.604177669 0.5465513192 0)
(2.61410947 0.5320571326 0)
(2.618092409 0.5208365024 0)
(3.074677417 -0.2728757246 0)
(2.972629589 0.006969803935 0)
(2.613351162 0.5378454878 0)
(2.562945666 0.6541916886 0)
(2.541294614 0.6451879244 0)
(2.545708852 0.639575225 0)
(2.552345423 0.6294099685 0)
(2.562242264 0.628527461 0)
(2.559747961 0.63364335 0)
(2.544372495 0.6398928383 0)
(2.533886911 0.6434259481 0)
(2.534142989 0.6407851889 0)
(2.541318905 0.6312823019 0)
(2.559493774 0.6199762215 0)
(2.572290842 0.6095113655 0)
(2.579085016 0.6024208536 0)
(2.581927953 0.595850831 0)
(2.578268022 0.5937531479 0)
(2.570567727 0.6004611681 0)
(2.568283098 0.6020971038 0)
(2.578538874 0.5947769234 0)
(2.593697547 0.5862931319 0)
(2.60459658 0.5756277296 0)
(2.60910629 0.5689987044 0)
(2.608969438 0.5675796165 0)
(2.601655958 0.57451159 0)
(2.593071791 0.5790903703 0)
(2.594609954 0.5725850969 0)
(2.602013153 0.5596423298 0)
(2.612496792 0.5433170678 0)
(2.620423298 0.5302897292 0)
(2.62018307 0.5218583885 0)
(3.083385008 -0.2965443623 0)
(3.073259873 -0.2579901366 0)
(2.834546136 0.1846185468 0)
(2.681216752 0.5045183626 0)
(2.561814256 0.6628460867 0)
(2.546793521 0.6482754739 0)
(2.545893691 0.63174305 0)
(2.544813475 0.6300555596 0)
(2.542417159 0.6403255138 0)
(2.532832853 0.650120648 0)
(2.529518579 0.6499517841 0)
(2.534883775 0.6434097953 0)
(2.5466018 0.6293423642 0)
(2.562374779 0.6177051826 0)
(2.570877799 0.6114084455 0)
(2.575667249 0.6070411772 0)
(2.574792948 0.6038029842 0)
(2.568766729 0.6068324116 0)
(2.564154691 0.6113804894 0)
(2.570845111 0.6074995155 0)
(2.585664033 0.6012745263 0)
(2.598897579 0.5927823511 0)
(2.605627888 0.584642967 0)
(2.607803214 0.579462306 0)
(2.60389856 0.5807363267 0)
(2.595391664 0.5861244785 0)
(2.592613604 0.5838703571 0)
(2.600202134 0.5714651197 0)
(2.610066916 0.5561486092 0)
(2.620195216 0.5399163666 0)
(2.62516493 0.5299595404 0)
(2.620637226 0.5247771255 0)
(3.083778855 -0.2963821268 0)
(3.083114361 -0.2942492676 0)
(3.050357327 -0.2096146362 0)
(2.837224423 0.2760949735 0)
(2.650544566 0.5981248782 0)
(2.570488583 0.6260009576 0)
(2.548297986 0.6216796174 0)
(2.538881245 0.6291128472 0)
(2.534176132 0.6494400827 0)
(2.529406522 0.6562867638 0)
(2.530847549 0.6540473413 0)
(2.541179587 0.6449059206 0)
(2.551532202 0.6308128406 0)
(2.561133652 0.6218650621 0)
(2.567914608 0.6175756552 0)
(2.569489167 0.6171338802 0)
(2.564898306 0.6184085791 0)
(2.559926463 0.6214107805 0)
(2.563037818 0.6189076558 0)
(2.575647332 0.6132854131 0)
(2.58962569 0.6069757089 0)
(2.599456519 0.5986523831 0)
(2.604506948 0.5906863241 0)
(2.603495298 0.5860327823 0)
(2.596759472 0.5889607484 0)
(2.590566302 0.5899650308 0)
(2.595153844 0.5820657988 0)
(2.606577135 0.5675648515 0)
(2.617222938 0.5526526068 0)
(2.625402614 0.5381986767 0)
(2.626412174 0.5329203396 0)
(2.618980632 0.5304114455 0)
(3.08258491 -0.2942688331 0)
(3.083160033 -0.2948345904 0)
(3.081949115 -0.2892808302 0)
(3.02893589 -0.1503789731 0)
(2.851681601 0.2727724814 0)
(2.651441804 0.5704736034 0)
(2.541901 0.6430413967 0)
(2.531800301 0.6424583336 0)
(2.528515063 0.6598185583 0)
(2.529831454 0.6620195352 0)
(2.535644552 0.6550760277 0)
(2.547408291 0.6436703544 0)
(2.553091677 0.6348115788 0)
(2.560256042 0.6281959526 0)
(2.56402309 0.6241528358 0)
(2.560447154 0.6251620496 0)
(2.555565045 0.6275049667 0)
(2.557260298 0.6259295723 0)
(2.566624131 0.6220864077 0)
(2.578970719 0.6159892863 0)
(2.589999271 0.607818818 0)
(2.597666666 0.5986626301 0)
(2.600551301 0.5908404616 0)
(2.596526459 0.5888355613 0)
(2.588954057 0.5921166628 0)
(2.588523041 0.5889748012 0)
(2.599220614 0.5775548872 0)
(2.611858873 0.5631330745 0)
(2.621124232 0.5507807409 0)
(2.626100787 0.5398033046 0)
(2.623021405 0.5398085345 0)
(2.616030262 0.5382302985 0)
(3.081974965 -0.2923843894 0)
(3.082785137 -0.294897842 0)
(3.083476989 -0.2940652931 0)
(3.079564496 -0.2818936885 0)
(3.054242156 -0.1513322459 0)
(2.729658969 0.4479437241 0)
(2.62214217 0.5651948963 0)
(2.55277862 0.6180977393 0)
(2.538965189 0.6550806409 0)
(2.538825958 0.6605953685 0)
(2.541968069 0.6550190163 0)
(2.547840852 0.6459979739 0)
(2.55358752 0.6377199282 0)
(2.558514852 0.6308296433 0)
(2.557514767 0.6295973619 0)
(2.552968692 0.6318880701 0)
(2.552106058 0.6302443149 0)
(2.559498191 0.6267421374 0)
(2.570137008 0.6215277836 0)
(2.580078145 0.613487828 0)
(2.588454051 0.604852833 0)
(2.594206707 0.5969898398 0)
(2.59418406 0.5920988344 0)
(2.588016618 0.5927767026 0)
(2.582901032 0.5925550224 0)
(2.58957516 0.5848685598 0)
(2.603417346 0.5723728152 0)
(2.6137748 0.5609091438 0)
(2.620135826 0.5521607281 0)
(2.621580954 0.5456383294 0)
(2.615817795 0.5498720171 0)
(2.613668201 0.5472886878 0)
(3.081698098 -0.2887298168 0)
(3.081760572 -0.2893267176 0)
(3.082551582 -0.290131052 0)
(3.082546634 -0.2910842772 0)
(3.080347932 -0.2803607389 0)
(2.964122127 -0.03407444684 0)
(2.785916332 0.3513503973 0)
(2.566532473 0.629892231 0)
(2.549469591 0.6870023812 0)
(2.539702914 0.6691278059 0)
(2.542685922 0.6488001668 0)
(2.547066234 0.6410692978 0)
(2.552901112 0.6361170805 0)
(2.554729026 0.634338965 0)
(2.552646978 0.6359355561 0)
(2.550445683 0.6364018554 0)
(2.553248412 0.631426744 0)
(2.562535162 0.6261507383 0)
(2.572068481 0.6182371976 0)
(2.579702577 0.6101487275 0)
(2.586208322 0.6028255195 0)
(2.588695411 0.5970977289 0)
(2.584563206 0.5952388946 0)
(2.579696354 0.5949676156 0)
(2.580665355 0.5906085514 0)
(2.592585866 0.5806357936 0)
(2.604542524 0.5697745056 0)
(2.611643061 0.5618765925 0)
(2.616078189 0.5560043727 0)
(2.615087676 0.554140215 0)
(2.608759522 0.5592009751 0)
(2.613923843 0.5550398802 0)
(3.079314156 -0.278597208 0)
(3.080037516 -0.2846070173 0)
(3.08109756 -0.2857003256 0)
(3.082685031 -0.2906097902 0)
(3.08223659 -0.2903765955 0)
(3.070016837 -0.2585958287 0)
(3.003039359 -0.01276929739 0)
(2.64672404 0.5277537649 0)
(2.594278258 0.6386224029 0)
(2.552613465 0.6455688642 0)
(2.551246723 0.6447547143 0)
(2.550510172 0.6380134787 0)
(2.5523029 0.6348864495 0)
(2.552819698 0.6366639602 0)
(2.551229251 0.6402452845 0)
(2.550646324 0.6402140414 0)
(2.555697718 0.6338256265 0)
(2.564695672 0.626295058 0)
(2.57251917 0.6163839228 0)
(2.577920612 0.6085133659 0)
(2.58146763 0.6026123833 0)
(2.579431815 0.5999326345 0)
(2.574901985 0.5998140763 0)
(2.575091632 0.5967071229 0)
(2.581445677 0.5884673479 0)
(2.594146525 0.5782052471 0)
(2.602648734 0.5702826007 0)
(2.607952844 0.5650207476 0)
(2.610871963 0.5615628758 0)
(2.607483307 0.564297923 0)
(2.60402738 0.5669682903 0)
(2.616548769 0.5617009158 0)
(3.078970785 -0.2730061093 0)
(3.080058809 -0.2798781205 0)
(3.079893307 -0.2827970488 0)
(3.081251996 -0.284453152 0)
(3.081676369 -0.2857281778 0)
(3.081048814 -0.2862372558 0)
(3.074043991 -0.2527737743 0)
(2.856657719 0.1575464314 0)
(2.703137226 0.465311948 0)
(2.57379949 0.6660748188 0)
(2.55390205 0.6623244043 0)
(2.546781859 0.6444358167 0)
(2.548261014 0.6348661684 0)
(2.55021433 0.6358362212 0)
(2.551667869 0.6396059515 0)
(2.552915439 0.6401025397 0)
(2.558317215 0.634312905 0)
(2.56608617 0.625920445 0)
(2.571640875 0.6156130558 0)
(2.574794446 0.6085312307 0)
(2.574833295 0.6056814365 0)
(2.57160088 0.6062024867 0)
(2.570288885 0.6048189287 0)
(2.574586774 0.5978330744 0)
(2.583946071 0.5879552414 0)
(2.593787696 0.5794919616 0)
(2.600130672 0.5736557029 0)
(2.603973787 0.5699914181 0)
(2.604719394 0.5701706885 0)
(2.599898199 0.5745271889 0)
(2.603669888 0.5740222724 0)
(2.619742808 0.5670866185 0)
(3.07547031 -0.2598857815 0)
(3.075347893 -0.2639323181 0)
(3.07711513 -0.2718552141 0)
(3.07803593 -0.275373308 0)
(3.079129223 -0.2769141268 0)
(3.081098421 -0.2849042675 0)
(3.080350486 -0.2838777636 0)
(3.044362174 -0.2009772067 0)
(2.891493781 0.1968079004 0)
(2.609820526 0.6526463261 0)
(2.580502506 0.6506079324 0)
(2.553022082 0.6268578996 0)
(2.552600758 0.629047364 0)
(2.552469583 0.6374009042 0)
(2.551327457 0.6439462974 0)
(2.552317951 0.6427729173 0)
(2.558510262 0.6357067327 0)
(2.56529936 0.6262021308 0)
(2.568847924 0.6166593956 0)
(2.570640488 0.6110941947 0)
(2.569772652 0.6114066578 0)
(2.567702331 0.612218405 0)
(2.569771781 0.6077047794 0)
(2.577343656 0.5995099765 0)
(2.586113837 0.591160923 0)
(2.592621918 0.5846402188 0)
(2.59758405 0.5799945931 0)
(2.599431607 0.5784833965 0)
(2.598121048 0.5823011378 0)
(2.59532925 0.5837293101 0)
(2.606114012 0.5796679863 0)
(2.621816283 0.5683656605 0)
(3.073266649 -0.2553645388 0)
(3.075181507 -0.2583135664 0)
(3.077047938 -0.2656721335 0)
(3.07712806 -0.272114045 0)
(3.077876046 -0.2733319604 0)
(3.080210606 -0.2785626853 0)
(3.080121552 -0.2799766015 0)
(3.078136699 -0.2758837265 0)
(3.04468193 -0.1653650836 0)
(2.793082084 0.3286883998 0)
(2.680489866 0.5382013951 0)
(2.56973448 0.6322054882 0)
(2.554234183 0.644566534 0)
(2.551462575 0.6442873094 0)
(2.551126227 0.6449415237 0)
(2.552556412 0.643069482 0)
(2.55754284 0.6366884307 0)
(2.563074455 0.627957706 0)
(2.566397983 0.6191192044 0)
(2.567244997 0.6149952073 0)
(2.566128078 0.6163026982 0)
(2.566822664 0.6150112312 0)
(2.572784481 0.6094647053 0)
(2.580976073 0.603512562 0)
(2.586716347 0.5976805751 0)
(2.591634243 0.5927961835 0)
(2.595240025 0.589344545 0)
(2.595615442 0.5905945327 0)
(2.593216242 0.5933174521 0)
(2.595661571 0.5890519058 0)
(2.609096285 0.5787471159 0)
(2.621125693 0.5660783669 0)
(3.071418004 -0.2468214301 0)
(3.072884414 -0.2483705116 0)
(3.073070263 -0.2489933845 0)
(3.073975835 -0.2574005733 0)
(3.074616727 -0.2622417273 0)
(3.076173673 -0.2641211604 0)
(3.078117997 -0.2716686741 0)
(3.078315725 -0.2748593391 0)
(3.075884257 -0.2675320461 0)
(3.013414724 -0.1079161554 0)
(2.81323471 0.3572520795 0)
(2.595494837 0.6570436075 0)
(2.564969018 0.6356195496 0)
(2.55659928 0.6361220569 0)
(2.556941982 0.6409346837 0)
(2.557172156 0.6446700161 0)
(2.559593914 0.6387007497 0)
(2.562542463 0.6308699936 0)
(2.564433355 0.6237416 0)
(2.564508593 0.6211116749 0)
(2.564843258 0.6208614693 0)
(2.568196176 0.6174727933 0)
(2.576186879 0.6126569692 0)
(2.582599623 0.6082522944 0)
(2.587047585 0.6045249156 0)
(2.591535668 0.6003905009 0)
(2.593883225 0.5980981041 0)
(2.59250791 0.5988638831 0)
(2.591072628 0.5965553622 0)
(2.597971816 0.5877277051 0)
(2.610310922 0.5756127885 0)
(2.618956464 0.565155215 0)
(3.068068299 -0.2317238126 0)
(3.069393827 -0.2390843014 0)
(3.071115567 -0.2415746417 0)
(3.073015159 -0.2478208124 0)
(3.074135599 -0.2569762068 0)
(3.074538044 -0.2608357705 0)
(3.076430779 -0.2630375297 0)
(3.078273063 -0.2719547601 0)
(3.078166284 -0.2708854927 0)
(3.073761026 -0.2559212058 0)
(3.002037657 -0.05929829131 0)
(2.745912918 0.4111372397 0)
(2.625433636 0.5590813693 0)
(2.572191559 0.6249249063 0)
(2.557952627 0.6579391643 0)
(2.555127688 0.6530127011 0)
(2.559557571 0.6422913564 0)
(2.56223965 0.6335994886 0)
(2.564347077 0.6293197173 0)
(2.564138544 0.628513085 0)
(2.566004072 0.6265247306 0)
(2.571002474 0.6217857472 0)
(2.577953748 0.6159457038 0)
(2.583056634 0.6114501575 0)
(2.587335244 0.6077715831 0)
(2.59036337 0.6040175408 0)
(2.590207187 0.6024439595 0)
(2.588480721 0.6019672223 0)
(2.590571676 0.5960609625 0)
(2.601451148 0.5848888175 0)
(2.610729563 0.5737662636 0)
(2.615556631 0.5656256308 0)
(3.066607789 -0.2214157849 0)
(3.067877895 -0.2304752909 0)
(3.068884263 -0.2353475304 0)
(3.070602074 -0.2360164375 0)
(3.071275065 -0.2417791831 0)
(3.071957887 -0.2494620539 0)
(3.072852372 -0.2507570647 0)
(3.07455568 -0.2548636096 0)
(3.076097843 -0.2631590104 0)
(3.075902807 -0.2647344708 0)
(3.067886884 -0.2412506029 0)
(2.962873045 0.001395969054 0)
(2.755378378 0.4122907182 0)
(2.562280517 0.6834263868 0)
(2.540864834 0.6632081016 0)
(2.546691488 0.6470095097 0)
(2.559012986 0.6364406373 0)
(2.565455001 0.636744445 0)
(2.570574625 0.6338635834 0)
(2.568315776 0.6339487507 0)
(2.569716438 0.6302347631 0)
(2.574810129 0.6241047898 0)
(2.579421018 0.6179595175 0)
(2.583220253 0.6129884971 0)
(2.586681504 0.6090209242 0)
(2.588719417 0.6060136407 0)
(2.58818445 0.6058836426 0)
(2.58734033 0.6037914053 0)
(2.592794702 0.594797767 0)
(2.603692063 0.5819785144 0)
(2.609190011 0.5735714706 0)
(2.611487832 0.5675690764 0)
(3.063042963 -0.2063467887 0)
(3.063643136 -0.2132049059 0)
(3.065327915 -0.222396506 0)
(3.067025562 -0.2262325788 0)
(3.068284379 -0.2287374919 0)
(3.070597633 -0.238861186 0)
(3.071004214 -0.245402424 0)
(3.072660971 -0.2492304726 0)
(3.074863093 -0.2538781829 0)
(3.075731126 -0.2635289952 0)
(3.075343565 -0.2623251435 0)
(3.064908673 -0.2280558375 0)
(2.93578588 0.08315913221 0)
(2.683325145 0.5080960841 0)
(2.586556602 0.5890578328 0)
(2.570259368 0.633548133 0)
(2.566895313 0.6443159522 0)
(2.567709578 0.6447839283 0)
(2.568673893 0.6419005764 0)
(2.569455178 0.6380305271 0)
(2.570540986 0.6347374104 0)
(2.572964012 0.6298189377 0)
(2.577415156 0.6224106008 0)
(2.581971159 0.6148588539 0)
(2.5857186 0.6095324317 0)
(2.587701502 0.6072192182 0)
(2.587170861 0.6077053924 0)
(2.587533139 0.6037326436 0)
(2.595545066 0.5932815189 0)
(2.603176093 0.5810293567 0)
(2.606186044 0.5750033792 0)
(2.607446074 0.57024784 0)
(3.060742229 -0.1993190859 0)
(3.062369277 -0.2038517211 0)
(3.063949112 -0.2126348771 0)
(3.064802155 -0.2198480576 0)
(3.066591171 -0.2228203262 0)
(3.068005542 -0.2257478632 0)
(3.069358666 -0.2349978221 0)
(3.069874836 -0.238853352 0)
(3.071146543 -0.240084112 0)
(3.072819675 -0.2470195588 0)
(3.073671479 -0.2539159932 0)
(3.073402486 -0.2542643342 0)
(3.056250745 -0.205319147 0)
(2.841425094 0.2102881438 0)
(2.677872963 0.5031155091 0)
(2.578625706 0.670623235 0)
(2.564458735 0.6552252654 0)
(2.563522445 0.6410468794 0)
(2.564971821 0.6395938896 0)
(2.567505525 0.6395702426 0)
(2.570646755 0.6372420366 0)
(2.573836113 0.6311363778 0)
(2.578023319 0.6223017332 0)
(2.581651703 0.6149525014 0)
(2.583968639 0.6110385745 0)
(2.585042794 0.6101593717 0)
(2.585477048 0.6098441913 0)
(2.588076184 0.6040764678 0)
(2.59571968 0.5935468707 0)
(2.600616339 0.5828744333 0)
(2.602129648 0.578562775 0)
(2.603874431 0.5740284662 0)
(3.057744289 -0.1900701228 0)
(3.059648071 -0.1927198946 0)
(3.060106064 -0.1966269953 0)
(3.061545625 -0.2057099896 0)
(3.062883222 -0.211792678 0)
(3.064608028 -0.2134733776 0)
(3.06556108 -0.2190948481 0)
(3.067618937 -0.229345313 0)
(3.068406926 -0.2332422998 0)
(3.070837654 -0.2375938828 0)
(3.072584296 -0.2453516232 0)
(3.073384669 -0.2540890051 0)
(3.072284238 -0.2503335391 0)
(3.038225457 -0.1625275252 0)
(2.817750671 0.298230168 0)
(2.659125166 0.5941455504 0)
(2.593022953 0.6198593299 0)
(2.573993952 0.6265727597 0)
(2.569160398 0.6398127348 0)
(2.565095369 0.6456937517 0)
(2.567431368 0.6424361843 0)
(2.572844185 0.6340100915 0)
(2.578053947 0.623619968 0)
(2.581310445 0.6155155986 0)
(2.582764083 0.612144069 0)
(2.58356075 0.6122875662 0)
(2.584369089 0.6117931612 0)
(2.587937036 0.6053747438 0)
(2.594820274 0.5953364307 0)
(2.598382176 0.5865089933 0)
(2.598834017 0.583565774 0)
(2.602073783 0.5787086641 0)
(3.054643315 -0.1787955031 0)
(3.056345805 -0.1840059091 0)
(3.058262345 -0.1875517077 0)
(3.059603683 -0.1944308566 0)
(3.061104424 -0.2035169371 0)
(3.062186998 -0.2083731843 0)
(3.064136511 -0.2106886827 0)
(3.065854333 -0.2178482993 0)
(3.06658405 -0.2260148989 0)
(3.06775067 -0.2275988465 0)
(3.069228517 -0.2305920657 0)
(3.07084225 -0.2398625298 0)
(3.0712932 -0.2433122612 0)
(3.070008427 -0.2385824729 0)
(3.017720756 -0.1073837684 0)
(2.803205332 0.330537307 0)
(2.660658721 0.5559103683 0)
(2.578057031 0.6526287743 0)
(2.569893013 0.656117767 0)
(2.563799385 0.6471079031 0)
(2.565806247 0.64220514 0)
(2.570628927 0.6343111415 0)
(2.576720148 0.6250919872 0)
(2.580276672 0.6174388165 0)
(2.581168462 0.6141371137 0)
(2.58194703 0.6142238893 0)
(2.583032919 0.6136122695 0)
(2.586709775 0.6080116263 0)
(2.592998132 0.5993679677 0)
(2.595749445 0.5930338023 0)
(2.596230725 0.5906541803 0)
(2.601805035 0.5852951645 0)
(3.052624866 -0.1686401673 0)
(3.053877872 -0.1762101894 0)
(3.055569063 -0.1799528775 0)
(3.057039938 -0.1824341521 0)
(3.057921168 -0.1894022449 0)
(3.059252462 -0.1974820949 0)
(3.060906156 -0.200802307 0)
(3.061649255 -0.2022326705 0)
(3.063484506 -0.2114957059 0)
(3.064644108 -0.2187172577 0)
(3.066317362 -0.2217488371 0)
(3.068449652 -0.2270523221 0)
(3.069790974 -0.2362418213 0)
(3.070676154 -0.2412074303 0)
(3.06653195 -0.2278033331 0)
(3.016722962 -0.08189935689 0)
(2.740543248 0.4356051455 0)
(2.635177901 0.6149667147 0)
(2.585434918 0.6353112924 0)
(2.574525899 0.636288041 0)
(2.571210737 0.6412865624 0)
(2.573986412 0.6356302721 0)
(2.577735038 0.6272213394 0)
(2.579663078 0.6200477162 0)
(2.579780472 0.616141679 0)
(2.580622676 0.6151330226 0)
(2.581673662 0.6142465971 0)
(2.585870962 0.6095457467 0)
(2.592413004 0.6024243345 0)
(2.595144343 0.599126173 0)
(2.596222783 0.5978255796 0)
(2.603518273 0.5921444112 0)
(3.048449696 -0.1531591272 0)
(3.050323026 -0.1622398139 0)
(3.052077123 -0.1697610729 0)
(3.054084219 -0.1731980653 0)
(3.055264035 -0.1771359332 0)
(3.057235369 -0.1864986965 0)
(3.058283764 -0.1935967198 0)
(3.059977507 -0.1968984757 0)
(3.061626043 -0.2006569015 0)
(3.06343616 -0.2101999107 0)
(3.063999313 -0.2152979837 0)
(3.065462789 -0.216680985 0)
(3.06765188 -0.2239589769 0)
(3.068278336 -0.2304383446 0)
(3.068365937 -0.2316051932 0)
(3.064519801 -0.2157478231 0)
(2.959734396 0.01276203126 0)
(2.75272324 0.4145040608 0)
(2.628615979 0.5858780236 0)
(2.586150878 0.6534295263 0)
(2.574345956 0.6525980023 0)
(2.574708561 0.6427068244 0)
(2.57751828 0.6288103432 0)
(2.579838279 0.6228678004 0)
(2.580156362 0.6203368735 0)
(2.580290504 0.6189920761 0)
(2.579909428 0.6178885548 0)
(2.585280759 0.6128179565 0)
(2.591983737 0.6066198309 0)
(2.595009856 0.6061058637 0)
(2.597692555 0.6047552429 0)
(2.60588223 0.5972523053 0)
(3.04675398 -0.1471354285 0)
(3.048458726 -0.1524887138 0)
(3.050243448 -0.1611592823 0)