/*--------------------------------*- C++ -*----------------------------------*\
  =========                 |
  \\      /  F ield         | OpenFOAM: The Open Source CFD Toolbox
   \\    /   O peration     | Website:  https://openfoam.org
    \\  /    A nd           | Version:  7
     \\/     M anipulation  |
\*---------------------------------------------------------------------------*/
FoamFile
{
    version     2.0;
    format      ascii;
    class       volScalarField;
    location    "4.2";
    object      p;
}
// * * * * * * * * * * * * * * * * * * * * * * * * * * * * * * * * * * * * * //

dimensions      [1 -1 -2 0 0 0 0];

internalField   nonuniform List<scalar> 
80000
(
1
1
1
1
1
1
1
1
1
1
1
1
1
1
1
1
1
1
1
1
1
1
1
1
1
1
1
1
1
1
1
1
1
1
1
1
1
1
1
1
1
1
1
1
1
1
1
1
1
1
1
1
1
1
1
1
1
1
1
1
1
1
1
1
1
1
1
1
1
1
1
1
1
1
1
1
1
1
4.815854258
10.15519333
10.43185369
10.42663302
10.42843289
10.43212365
10.43738323
10.44378042
10.4489726
10.45086781
10.44918392
10.44439783
10.43522901
10.42534369
10.41246836
10.39883464
10.38535108
10.37244017
10.3603592
10.35056485
10.34165278
10.3335313
1
1
1
1
1
1
1
1
1
1
1
1
1
1
1
1
1
1
1
1
1
1
1
1
1
1
1
1
1
1
1
1
1
1
1
1
1
1
1
1
1
1
1
1
1
1
1
1
1
1
1
1
1
1
1
1
1
1
1
1
1
1
1
1
1
1
1
1
1
1
1
1
1
1
1
1
1
1
4.820369347
10.15827085
10.43308542
10.42781588
10.42937955
10.4325973
10.43731387
10.44300524
10.44726398
10.44869896
10.44674417
10.44195513
10.43342253
10.42410076
10.41184106
10.39889147
10.38598333
10.37343794
10.3616271
10.35179968
10.34263676
10.33391395
1
1
1
1
1
1
1
1
1
1
1
1
1
1
1
1
1
1
1
1
1
1
1
1
1
1
1
1
1
1
1
1
1
1
1
1
1
1
1
1
1
1
1
1
1
1
1
1
1
1
1
1
1
1
1
1
1
1
1
1
1
1
1
1
1
1
1
1
1
1
1
1
1
1
1
1
1
1
4.828774785
10.1624532
10.43493624
10.42969556
10.43085323
10.43345123
10.43711333
10.44158016
10.44470771
10.44560251
10.44378179
10.43936961
10.43167916
10.42290363
10.41134732
10.39933519
10.38717466
10.37517605
10.36372848
10.35384485
10.34425428
10.33467028
1
1
1
1
1
1
1
1
1
1
1
1
1
1
1
1
1
1
1
1
1
1
1
1
1
1
1
1
1
1
1
1
1
1
1
1
1
1
1
1
1
1
1
1
1
1
1
1
1
1
1
1
1
1
1
1
1
1
1
1
1
1
1
1
1
1
1
1
1
1
1
1
1
1
1
1
1
1
4.840670197
10.16897559
10.43788168
10.43254935
10.43306513
10.43451783
10.43696976
10.43946597
10.44122814
10.4411664
10.43908179
10.43468791
10.42836505
10.42056497
10.41033942
10.39962735
10.38858105
10.3775142
10.36671026
10.35673677
10.34645995
10.33570182
1
1
1
1
1
1
1
1
1
1
1
1
1
1
1
1
1
1
1
1
1
1
1
1
1
1
1
1
1
1
1
1
1
1
1
1
1
1
1
1
1
1
1
1
1
1
1
1
1
1
1
1
1
1
1
1
1
1
1
1
1
1
1
1
1
1
1
1
1
1
1
1
1
1
1
1
1
1
4.854720351
10.17866965
10.44161493
10.43644532
10.43595027
10.43592984
10.43659508
10.4371119
10.43717072
10.43603166
10.43368363
10.42923848
10.42451886
10.41784064
10.40914684
10.39988193
10.39014032
10.38022252
10.37016781
10.3600121
10.34887157
10.33664337
1
1
1
1
1
1
1
1
1
1
1
1
1
1
1
1
1
1
1
1
1
1
1
1
1
1
1
1
1
1
1
1
1
1
1
1
1
1
1
1
1
1
1
1
1
1
1
1
1
1
1
1
1
1
1
1
1
1
1
1
1
1
1
1
1
1
1
1
1
1
1
1
1
1
1
1
1
1
4.870658509
10.19127708
10.44635649
10.44099852
10.43944044
10.43780641
10.43643502
10.43482248
10.43301673
10.43052215
10.42748313
10.42384052
10.41965733
10.4142791
10.40735462
10.39985585
10.3917379
10.38310275
10.37373334
10.36323659
10.35101236
10.33722203
1
1
1
1
1
1
1
1
1
1
1
1
1
1
1
1
1
1
1
1
1
1
1
1
1
1
1
1
1
1
1
1
1
1
1
1
1
1
1
1
1
1
1
1
1
1
1
1
1
1
1
1
1
1
1
1
1
1
1
1
1
1
1
1
1
1
1
1
1
1
1
1
1
1
1
1
1
1
4.88767482
10.20648541
10.45207493
10.44602426
10.44364679
10.44032937
10.43692527
10.43301817
10.42907006
10.42519956
10.42165317
10.41791391
10.41415271
10.41003604
10.40492834
10.39936838
10.39313355
10.3858554
10.37690497
10.36602584
10.35293379
10.33749275
1
1
1
1
1
1
1
1
1
1
1
1
1
1
1
1
1
1
1
1
1
1
1
1
1
1
1
1
1
1
1
1
1
1
1
1
1
1
1
1
1
1
1
1
1
1
1
1
1
1
1
1
1
1
1
1
1
1
1
1
1
1
1
1
1
1
1
1
1
1
1
1
1
1
1
1
1
1
4.906432432
10.22339178
10.45848196
10.45153662
10.4484492
10.44352568
10.43800439
10.4318162
10.42582441
10.42036648
10.41572746
10.41190495
10.40870753
10.40553387
10.40218886
10.39853152
10.39409476
10.38805941
10.37918121
10.3680645
10.35379846
10.33720979
1
1
1
1
1
1
1
1
1
1
1
1
1
1
1
1
1
1
1
1
1
1
1
1
1
1
1
1
1
1
1
1
1
1
1
1
1
1
1
1
1
1
1
1
1
1
1
1
1
1
1
1
1
1
1
1
1
1
1
1
1
1
1
1
1
1
1
1
1
1
1
1
1
1
1
1
1
1
4.928657766
10.23985956
10.46532349
10.45762095
10.45369993
10.4471356
10.43966921
10.43140228
10.42317512
10.41587667
10.41034645
10.40646662
10.40355865
10.40132311
10.3995768
10.39749815
10.39453814
10.38945379
10.38020961
10.36908596
10.35364531
10.33643889
1
1
1
1
1
1
1
1
1
1
1
1
1
1
1
1
1
1
1
1
1
1
1
1
1
1
1
1
1
1
1
1
1
1
1
1
1
1
1
1
1
1
1
1
1
1
1
1
1
1
1
1
1
1
1
1
1
1
1
1
1
1
1
1
1
1
1
1
1
1
1
1
1
1
1
1
1
1
4.955108995
10.25408862
10.47181701
10.46370672
10.45881048
10.45098949
10.44180677
10.43153018
10.42128059
10.41249997
10.40614083
10.40186727
10.3990947
10.3978523
10.39746276
10.3963951
10.39414051
10.38951924
10.37995955
10.36856673
10.35258685
10.33540347
1
1
1
1
1
1
1
1
1
1
1
1
1
1
1
1
1
1
1
1
1
1
1
1
1
1
1
1
1
1
1
1
1
1
1
1
1
1
1
1
1
1
1
1
1
1
1
1
1
1
1
1
1
1
1
1
1
1
1
1
1
1
1
1
1
1
1
1
1
1
1
1
1
1
1
1
1
1
4.985624981
10.26598092
10.4778532
10.46953716
10.46388636
10.45497501
10.44428794
10.43232326
10.4204956
10.41027617
10.40298953
10.39860957
10.3954289
10.39539208
10.39540576
10.3950314
10.39298412
10.38805733
10.37852923
10.36595526
10.3505759
10.33411887
1
1
1
1
1
1
1
1
1
1
1
1
1
1
1
1
1
1
1
1
1
1
1
1
1
1
1
1
1
1
1
1
1
1
1
1
1
1
1
1
1
1
1
1
1
1
1
1
1
1
1
1
1
1
1
1
1
1
1
1
1
1
1
1
1
1
1
1
1
1
1
1
1
1
1
1
1
1
5.020019393
10.27548755
10.48337806
10.4748433
10.46848383
10.4586976
10.44700681
10.43411471
10.42104764
10.40982387
10.40195201
10.39668691
10.39333825
10.39355078
10.39353865
10.39338384
10.39095836
10.38525761
10.37567179
10.36202011
10.34799063
10.33284773
1
1
1
1
1
1
1
1
1
1
1
1
1
1
1
1
1
1
1
1
1
1
1
1
1
1
1
1
1
1
1
1
1
1
1
1
1
1
1
1
1
1
1
1
1
1
1
1
1
1
1
1
1
1
1
1
1
1
1
1
1
1
1
1
1
1
1
1
1
1
1
1
1
1
1
1
1
1
5.058313141
10.28296183
10.48791813
10.47909199
10.47210608
10.46193176
10.44991557
10.4366878
10.42297905
10.41127392
10.40261813
10.39643469
10.39280547
10.3924556
10.39189531
10.39102931
10.38800288
10.38138392
10.37153254
10.3582239
10.34529556
10.33228417
1
1
1
1
1
1
1
1
1
1
1
1
1
1
1
1
1
1
1
1
1
1
1
1
1
1
1
1
1
1
1
1
1
1
1
1
1
1
1
1
1
1
1
1
1
1
1
1
1
1
1
1
1
1
1
1
1
1
1
1
1
1
1
1
1
1
1
1
1
1
1
1
1
1
1
1
1
1
5.100522761
10.28813262
10.49119487
10.48170271
10.47476499
10.46446442
10.4528773
10.43977261
10.42638612
10.41459334
10.40546598
10.39849036
10.39410894
10.39241979
10.39055693
10.38789248
10.38405645
10.37680931
10.36660422
10.3550834
10.3432851
10.33297309
1
1
1
1
1
1
1
1
1
1
1
1
1
1
1
1
1
1
1
1
1
1
1
1
1
1
1
1
1
1
1
1
1
1
1
1
1
1
1
1
1
1
1
1
1
1
1
1
1
1
1
1
1
1
1
1
1
1
1
1
1
1
1
1
1
1
1
1
1
1
1
1
1
1
1
1
1
1
5.14686844
10.28997736
10.49304829
10.48271566
10.47617762
10.46621472
10.45561454
10.44354052
10.43127031
10.41989781
10.41059352
10.40293858
10.39746355
10.39350355
10.38936543
10.38439815
10.37930021
10.37154905
10.36191538
10.35201022
10.34267131
10.33477404
1
1
1
1
1
1
1
1
1
1
1
1
1
1
1
1
1
1
1
1
1
1
1
1
1
1
1
1
1
1
1
1
1
1
1
1
1
1
1
1
1
1
1
1
1
1
1
1
1
1
1
1
1
1
1
1
1
1
1
1
1
1
1
1
1
1
1
1
1
1
1
1
1
1
1
1
1
1
5.197175343
10.28946855
10.49353954
10.48241642
10.47631755
10.46726164
10.45801694
10.4476702
10.43718974
10.42697101
10.41788346
10.40969675
10.4026757
10.39604956
10.38856151
10.38103597
10.37405568
10.3658963
10.35713246
10.3491977
10.34294862
10.33772137
1
1
1
1
1
1
1
1
1
1
1
1
1
1
1
1
1
1
1
1
1
1
1
1
1
1
1
1
1
1
1
1
1
1
1
1
1
1
1
1
1
1
1
1
1
1
1
1
1
1
1
1
1
1
1
1
1
1
1
1
1
1
1
1
1
1
1
1
1
1
1
1
1
1
1
1
1
1
5.250402453
10.28874767
10.49316036
10.48121919
10.47529642
10.46743021
10.4600014
10.45180568
10.44366858
10.43515904
10.42673835
10.41846163
10.40943886
10.3999431
10.38939852
10.37891956
10.36953989
10.36053707
10.35259488
10.34680418
10.34334521
10.34075899
1
1
1
1
1
1
1
1
1
1
1
1
1
1
1
1
1
1
1
1
1
1
1
1
1
1
1
1
1
1
1
1
1
1
1
1
1
1
1
1
1
1
1
1
1
1
1
1
1
1
1
1
1
1
1
1
1
1
1
1
1
1
1
1
1
1
1
1
1
1
1
1
1
1
1
1
1
1
5.304288496
10.28946603
10.49182046
10.47919967
10.47372955
10.4672309
10.46172001
10.45585693
10.4500144
10.44357678
10.43628396
10.42825481
10.41730698
10.40551028
10.39189547
10.37860433
10.36689799
10.35678401
10.3492961
10.34523453
10.34380083
10.34334009
1
1
1
1
1
1
1
1
1
1
1
1
1
1
1
1
1
1
1
1
1
1
1
1
1
1
1
1
1
1
1
1
1
1
1
1
1
1
1
1
1
1
1
1
1
1
1
1
1
1
1
1
1
1
1
1
1
1
1
1
1
1
1
1
1
1
1
1
1
1
1
1
1
1
1
1
1
1
5.356566237
10.29284327
10.49068333
10.47725495
10.47202525
10.46677687
10.46297316
10.45957419
10.45678412
10.45246631
10.44658279
10.43867036
10.4262925
10.41234668
10.39607487
10.38034821
10.3668272
10.35585015
10.34856339
10.34531805
10.34481512
10.34509713
1
1
1
1
1
1
1
1
1
1
1
1
1
1
1
1
1
1
1
1
1
1
1
1
1
1
1
1
1
1
1
1
1
1
1
1
1
1
1
1
1
1
1
1
1
1
1
1
1
1
1
1
1
1
1
1
1
1
1
1
1
1
1
1
1
1
1
1
1
1
1
1
1
1
1
1
1
1
5.406590517
10.2969842
10.48981274
10.4759584
10.47086951
10.46668015
10.46406012
10.46287545
10.4629285
10.46024571
10.45617034
10.44836408
10.4354388
10.41983347
10.40182893
10.38448671
10.36958577
10.35800256
10.35064499
10.34745201
10.34651926
10.34620726
1
1
1
1
1
1
1
1
1
1
1
1
1
1
1
1
1
1
1
1
1
1
1
1
1
1
1
1
1
1
1
1
1
1
1
1
1
1
1
1
1
1
1
1
1
1
1
1
1
1
1
1
1
1
1
1
1
1
1
1
1
1
1
1
1
1
1
1
1
1
1
1
1
1
1
1
1
1
5.454160933
10.30177444
10.48953859
10.47563665
10.47071933
10.46709055
10.46537855
10.4665552
10.4677931
10.46701177
10.46434217
10.45633084
10.44356761
10.42709667
10.40867342
10.39082093
10.37502533
10.36308238
10.35545134
10.35167957
10.34957404
10.34757268
1
1
1
1
1
1
1
1
1
1
1
1
1
1
1
1
1
1
1
1
1
1
1
1
1
1
1
1
1
1
1
1
1
1
1
1
1
1
1
1
1
1
1
1
1
1
1
1
1
1
1
1
1
1
1
1
1
1
1
1
1
1
1
1
1
1
1
1
1
1
1
1
1
1
1
1
1
1
5.498222806
10.30850697
10.49010096
10.4768021
10.47182695
10.46815747
10.46783939
10.46943904
10.47171424
10.47252053
10.4704788
10.46212446
10.44963206
10.43360732
10.41583339
10.39841331
10.38290455
10.37111993
10.36310899
10.3583753
10.3545292
10.35014288
1
1
1
1
1
1
1
1
1
1
1
1
1
1
1
1
1
1
1
1
1
1
1
1
1
1
1
1
1
1
1
1
1
1
1
1
1
1
1
1
1
1
1
1
1
1
1
1
1
1
1
1
1
1
1
1
1
1
1
1
1
1
1
1
1
1
1
1
1
1
1
1
1
1
1
1
1
1
5.538351452
10.31704022
10.49146011
10.47931746
10.47438501
10.47066992
10.47068324
10.47201628
10.47467855
10.47643066
10.4740521
10.46563551
10.45360105
10.43818295
10.42165285
10.40608671
10.39210885
10.38133212
10.37332418
10.3676721
10.36188272
10.35493388
1
1
1
1
1
1
1
1
1
1
1
1
1
1
1
1
1
1
1
1
1
1
1
1
1
1
1
1
1
1
1
1
1
1
1
1
1
1
1
1
1
1
1
1
1
1
1
1
1
1
1
1
1
1
1
1
1
1
1
1
1
1
1
1
1
1
1
1
1
1
1
1
1
1
1
1
1
1
5.576276124
10.3267391
10.49346672
10.48269436
10.47787595
10.47440923
10.47378764
10.47429955
10.4769077
10.47847198
10.47496401
10.4671736
10.45543386
10.44072884
10.42615629
10.41318917
10.40159766
10.39251537
10.38507125
10.37883356
10.37132707
10.36204915
1
1
1
1
1
1
1
1
1
1
1
1
1
1
1
1
1
1
1
1
1
1
1
1
1
1
1
1
1
1
1
1
1
1
1
1
1
1
1
1
1
1
1
1
1
1
1
1
1
1
1
1
1
1
1
1
1
1
1
1
1
1
1
1
1
1
1
1
1
1
1
1
1
1
1
1
1
1
5.614404411
10.33541509
10.49658641
10.48757347
10.48301825
10.47906787
10.47715494
10.47669195
10.47827269
10.47790201
10.4739058
10.46654763
10.45543513
10.44263681
10.43040159
10.42002472
10.41102118
10.40388067
10.39741735
10.39087725
10.38207395
10.37107777
1
1
1
1
1
1
1
1
1
1
1
1
1
1
1
1
1
1
1
1
1
1
1
1
1
1
1
1
1
1
1
1
1
1
1
1
1
1
1
1
1
1
1
1
1
1
1
1
1
1
1
1
1
1
1
1
1
1
1
1
1
1
1
1
1
1
1
1
1
1
1
1
1
1
1
1
1
1
5.654231652
10.34496181
10.50046235
10.49276421
10.4889973
10.48429976
10.48089313
10.4793718
10.47904516
10.47551208
10.47108297
10.46369559
10.45389399
10.44381388
10.43440392
10.4268733
10.42058592
10.4153973
10.40996346
10.40322571
10.39359555
10.38159895
1
1
1
1
1
1
1
1
1
1
1
1
1
1
1
1
1
1
1
1
1
1
1
1
1
1
1
1
1
1
1
1
1
1
1
1
1
1
1
1
1
1
1
1
1
1
1
1
1
1
1
1
1
1
1
1
1
1
1
1
1
1
1
1
1
1
1
1
1
1
1
1
1
1
1
1
1
1
5.696584419
10.35610558
10.50481209
10.49797023
10.49532261
10.49039877
10.48577375
10.483097
10.47946179
10.47298655
10.46665816
10.45868832
10.45044692
10.44358427
10.43812767
10.43413638
10.43058374
10.427244
10.42260557
10.41565362
10.40557531
10.39315717
1
1
1
1
1
1
1
1
1
1
1
1
1
1
1
1
1
1
1
1
1
1
1
1
1
1
1
1
1
1
1
1
1
1
1
1
1
1
1
1
1
1
1
1
1
1
1
1
1
1
1
1
1
1
1
1
1
1
1
1
1
1
1
1
1
1
1
1
1
1
1
1
1
1
1
1
1
1
5.741463484
10.36522038
10.5075152
10.50226563
10.50196951
10.49758023
10.49237863
10.48810584
10.48061416
10.47071101
10.46153675
10.45248276
10.44589132
10.44272006
10.44187517
10.44200156
10.44121004
10.43955794
10.43548309
10.42817166
10.41777564
10.40510528
1
1
1
1
1
1
1
1
1
1
1
1
1
1
1
1
1
1
1
1
1
1
1
1
1
1
1
1
1
1
1
1
1
1
1
1
1
1
1
1
1
1
1
1
1
1
1
1
1
1
1
1
1
1
1
1
1
1
1
1
1
1
1
1
1
1
1
1
1
1
1
1
1
1
1
1
1
1
5.787535374
10.37204314
10.50814821
10.50563521
10.50821138
10.50509806
10.50083521
10.49417889
10.48226646
10.46870022
10.45679198
10.44707079
10.4420961
10.44253966
10.44592847
10.45002756
10.45220263
10.45212153
10.44827576
10.44049717
10.42971501
10.41654024
1
1
1
1
1
1
1
1
1
1
1
1
1
1
1
1
1
1
1
1
1
1
1
1
1
1
1
1
1
1
1
1
1
1
1
1
1
1
1
1
1
1
1
1
1
1
1
1
1
1
1
1
1
1
1
1
1
1
1
1
1
1
1
1
1
1
1
1
1
1
1
1
1
1
1
1
1
1
5.83198105
10.37642871
10.50817612
10.50809549
10.51334902
10.51355846
10.50969532
10.4993806
10.48373124
10.46786627
10.45431388
10.4444081
10.44093158
10.44428805
10.4511747
10.45842916
10.46333007
10.46456773
10.4603996
10.45207375
10.44067033
10.42664544
1
1
1
1
1
1
1
1
1
1
1
1
1
1
1
1
1
1
1
1
1
1
1
1
1
1
1
1
1
1
1
1
1
1
1
1
1
1
1
1
1
1
1
1
1
1
1
1
1
1
1
1
1
1
1
1
1
1
1
1
1
1
1
1
1
1
1
1
1
1
1
1
1
1
1
1
1
1
5.873316889
10.37936558
10.50820227
10.51017576
10.51634882
10.5196883
10.51573633
10.50315101
10.48629559
10.47000287
10.45555924
10.44573141
10.44364752
10.44878932
10.45813937
10.46764409
10.47416778
10.4763031
10.47145681
10.46232667
10.44987981
10.43491843
1
1
1
1
1
1
1
1
1
1
1
1
1
1
1
1
1
1
1
1
1
1
1
1
1
1
1
1
1
1
1
1
1
1
1
1
1
1
1
1
1
1
1
1
1
1
1
1
1
1
1
1
1
1
1
1
1
1
1
1
1
1
1
1
1
1
1
1
1
1
1
1
1
1
1
1
1
1
5.914250876
10.38359979
10.5107292
10.51254056
10.51856001
10.5226376
10.51838739
10.50597484
10.48969481
10.47411257
10.46062663
10.4519593
10.45051457
10.45684326
10.4675008
10.47803666
10.48479752
10.48672956
10.48126486
10.47089044
10.45708426
10.44142803
1
1
1
1
1
1
1
1
1
1
1
1
1
1
1
1
1
1
1
1
1
1
1
1
1
1
1
1
1
1
1
1
1
1
1
1
1
1
1
1
1
1
1
1
1
1
1
1
1
1
1
1
1
1
1
1
1
1
1
1
1
1
1
1
1
1
1
1
1
1
1
1
1
1
1
1
1
1
5.956849368
10.39063326
10.51422306
10.5137539
10.5181895
10.52112891
10.51718736
10.50647678
10.49283456
10.47964168
10.46858707
10.46233375
10.46177511
10.4685692
10.47924382
10.48946815
10.49506794
10.49572506
10.48956484
10.47772551
10.46269712
10.44669061
1
1
1
1
1
1
1
1
1
1
1
1
1
1
1
1
1
1
1
1
1
1
1
1
1
1
1
1
1
1
1
1
1
1
1
1
1
1
1
1
1
1
1
1
1
1
1
1
1
1
1
1
1
1
1
1
1
1
1
1
1
1
1
1
1
1
1
1
1
1
1
1
1
1
1
1
1
1
6.001303711
10.40260993
10.51430932
10.51174666
10.51422136
10.51537273
10.5124274
10.50523123
10.49573987
10.48642088
10.47882216
10.47530092
10.47637472
10.48310171
10.49251511
10.50145708
10.50464504
10.50338198
10.49626062
10.48330918
10.46756179
10.45171441
1
1
1
1
1
1
1
1
1
1
1
1
1
1
1
1
1
1
1
1
1
1
1
1
1
1
1
1
1
1
1
1
1
1
1
1
1
1
1
1
1
1
1
1
1
1
1
1
1
1
1
1
1
1
1
1
1
1
1
1
1
1
1
1
1
1
1
1
1
1
1
1
1
1
1
1
1
1
6.046074303
10.42105693
10.51184528
10.50821662
10.50911148
10.50852185
10.50657226
10.50314364
10.49885215
10.49398639
10.49038261
10.48957703
10.49289008
10.49888752
10.50623339
10.51292585
10.51303989
10.50977504
10.50176725
10.48844459
10.47269777
10.45756937
1
1
1
1
1
1
1
1
1
1
1
1
1
1
1
1
1
1
1
1
1
1
1
1
1
1
1
1
1
1
1
1
1
1
1
1
1
1
1
1
1
1
1
1
1
1
1
1
1
1
1
1
1
1
1
1
1
1
1
1
1
1
1
1
1
1
1
1
1
1
1
1
1
1
1
1
1
1
6.088867959
10.44033108
10.5092178
10.50505255
10.50411735
10.50239787
10.50160571
10.50167612
10.50206762
10.50161498
10.5025976
10.50508264
10.50929873
10.51374683
10.51884241
10.52258136
10.51983714
10.51516895
10.5067578
10.49401436
10.47935616
10.46553525
1
1
1
1
1
1
1
1
1
1
1
1
1
1
1
1
1
1
1
1
1
1
1
1
1
1
1
1
1
1
1
1
1
1
1
1
1
1
1
1
1
1
1
1
1
1
1
1
1
1
1
1
1
1
1
1
1
1
1
1
1
1
1
1
1
1
1
1
1
1
1
1
1
1
1
1
1
1
6.128058887
10.45613689
10.50682275
10.50264623
10.49974621
10.4976657
10.49775321
10.50075117
10.50532284
10.50966662
10.51564883
10.52124278
10.52441728
10.52647494
10.52898878
10.52942445
10.52514295
10.51993577
10.51183268
10.50080373
10.48841264
10.4765575
1
1
1
1
1
1
1
1
1
1
1
1
1
1
1
1
1
1
1
1
1
1
1
1
1
1
1
1
1
1
1
1
1
1
1
1
1
1
1
1
1
1
1
1
1
1
1
1
1
1
1
1
1
1
1
1
1
1
1
1
1
1
1
1
1
1
1
1
1
1
1
1
1
1
1
1
1
1
6.163424638
10.46588718
10.50936679
10.50086316
10.49521967
10.49342916
10.49440171
10.50000974
10.50892567
10.51865708
10.52882054
10.53658381
10.53791392
10.53685526
10.53616145
10.53355756
10.5290697
10.52437566
10.51767425
10.50946819
10.5003194
10.49088896
1
1
1
1
1
1
1
1
1
1
1
1
1
1
1
1
1
1
1
1
1
1
1
1
1
1
1
1
1
1
1
1
1
1
1
1
1
1
1
1
1
1
1
1
1
1
1
1
1
1
1
1
1
1
1
1
1
1
1
1
1
1
1
1
1
1
1
1
1
1
1
1
1
1
1
1
1
1
6.195417219
10.46819862
10.5180894
10.50051209
10.49107822
10.48940471
10.49187862
10.5000554
10.5132214
10.52826534
10.54152049
10.54994943
10.54970155
10.54486064
10.5408274
10.53612987
10.53213086
10.52904089
10.52493197
10.52032818
10.51476356
10.50769366
1
1
1
1
1
1
1
1
1
1
1
1
1
1
1
1
1
1
1
1
1
1
1
1
1
1
1
1
1
1
1
1
1
1
1
1
1
1
1
1
1
1
1
1
1
1
1
1
1
1
1
1
1
1
1
1
1
1
1
1
1
1
1
1
1
1
1
1
1
1
1
1
1
1
1
1
1
1
6.225233808
10.46446789
10.52371684
10.50199718
10.48985512
10.48623363
10.49073672
10.50138967
10.51828806
10.53768393
10.55305275
10.56144563
10.55947579
10.55064776
10.54301279
10.53732988
10.53461186
10.5343032
10.53392842
10.53324508
10.53080158
10.5254918
1
1
1
1
1
1
1
1
1
1
1
1
1
1
1
1
1
1
1
1
1
1
1
1
1
1
1
1
1
1
1
1
1
1
1
1
1
1
1
1
1
1
1
1
1
1
1
1
1
1
1
1
1
1
1
1
1
1
1
1
1
1
1
1
1
1
1
1
1
1
1
1
1
1
1
1
1
1
6.254261908
10.45877284
10.52348879
10.50242376
10.49086125
10.48523986
10.49101681
10.50438059
10.52404156
10.54618368
10.56267649
10.57055225
10.56667264
10.55448826
10.54385908
10.5384901
10.5376587
10.54069013
10.54440589
10.54724529
10.54697904
10.54257589
1
1
1
1
1
1
1
1
1
1
1
1
1
1
1
1
1
1
1
1
1
1
1
1
1
1
1
1
1
1
1
1
1
1
1
1
1
1
1
1
1
1
1
1
1
1
1
1
1
1
1
1
1
1
1
1
1
1
1
1
1
1
1
1
1
1
1
1
1
1
1
1
1
1
1
1
1
1
6.281739877
10.45365735
10.51984009
10.50042641
10.4913472
10.48649834
10.49331611
10.50898495
10.53016135
10.55320764
10.56979137
10.57679063
10.57143674
10.55799388
10.5456841
10.54130813
10.54214608
10.54834074
10.55573347
10.56122693
10.56205722
10.55774232
1
1
1
1
1
1
1
1
1
1
1
1
1
1
1
1
1
1
1
1
1
1
1
1
1
1
1
1
1
1
1
1
1
1
1
1
1
1
1
1
1
1
1
1
1
1
1
1
1
1
1
1
1
1
1
1
1
1
1
1
1
1
1
1
1
1
1
1
1
1
1
1
1
1
1
1
1
1
6.306756645
10.450682
10.51323664
10.49672336
10.49065048
10.48900541
10.49741935
10.51467044
10.53630896
10.55874016
10.57457912
10.58063193
10.57526385
10.56219957
10.54888093
10.54530968
10.54838986
10.55696351
10.56689854
10.57407111
10.57533586
10.5706229
1
1
1
1
1
1
1
1
1
1
1
1
1
1
1
1
1
1
1
1
1
1
1
1
1
1
1
1
1
1
1
1
1
1
1
1
1
1
1
1
1
1
1
1
1
1
1
1
1
1
1
1
1
1
1
1
1
1
1
1
1
1
1
1
1
1
1
1
1
1
1
1
1
1
1
1
1
1
6.329247526
10.44899067
10.5051319
10.49246841
10.48948806
10.49147225
10.50224239
10.5205038
10.54188213
10.5630869
10.57786788
10.58311105
10.57877219
10.56671494
10.5533652
10.55092682
10.55620197
10.56608655
10.57713707
10.58514957
10.58671403
10.58186312
1
1
1
1
1
1
1
1
1
1
1
1
1
1
1
1
1
1
1
1
1
1
1
1
1
1
1
1
1
1
1
1
1
1
1
1
1
1
1
1
1
1
1
1
1
1
1
1
1
1
1
1
1
1
1
1
1
1
1
1
1
1
1
1
1
1
1
1
1
1
1
1
1
1
1
1
1
1
6.349011645
10.4491086
10.4963272
10.48792046
10.48873063
10.49431267
10.50720845
10.52584484
10.54656976
10.56657724
10.58036072
10.58507081
10.58206655
10.57159278
10.55993029
10.55854744
10.56497013
10.57523408
10.58633245
10.59465257
10.59665451
10.59235935
1
1
1
1
1
1
1
1
1
1
1
1
1
1
1
1
1
1
1
1
1
1
1
1
1
1
1
1
1
1
1
1
1
1
1
1
1
1
1
1
1
1
1
1
1
1
1
1
1
1
1
1
1
1
1
1
1
1
1
1
1
1
1
1
1
1
1
1
1
1
1
1
1
1
1
1
1
1
6.364018007
10.44887108
10.48605843
10.48285122
10.48890684
10.49828217
10.51259945
10.53069639
10.55033118
10.56935421
10.58249239
10.58733451
10.58594148
10.57800886
10.56872318
10.56739053
10.57400526
10.58411489
10.59480257
10.6033024
10.60602988
10.60289547
1
1
1
1
1
1
1
1
1
1
1
1
1
1
1
1
1
1
1
1
1
1
1
1
1
1
1
1
1
1
1
1
1
1
1
1
1
1
1
1
1
1
1
1
1
1
1
1
1
1
1
1
1
1
1
1
1
1
1
1
1
1
1
1
1
1
1
1
1
1
1
1
1
1
1
1
1
1
6.373498164
10.44421511
10.47623172
10.47883232
10.4909355
10.50359801
10.51861693
10.53550398
10.55361435
10.57153452
10.58434746
10.58986339
10.59019191
10.58494436
10.57766701
10.57642638
10.58303212
10.5928834
10.60319499
10.6119817
10.61566384
10.61401785
1
1
1
1
1
1
1
1
1
1
1
1
1
1
1
1
1
1
1
1
1
1
1
1
1
1
1
1
1
1
1
1
1
1
1
1
1
1
1
1
1
1
1
1
1
1
1
1
1
1
1
1
1
1
1
1
1
1
1
1
1
1
1
1
1
1
1
1
1
1
1
1
1
1
1
1
1
1
6.377726854
10.43625264
10.46918288
10.47650567
10.4940233
10.50936982
10.52450874
10.54014065
10.55695583
10.57394386
10.58667739
10.59302921
10.59438864
10.59133911
10.5861084
10.58547588
10.5921359
10.60194473
10.61224714
10.62144712
10.62615853
10.62589168
1
1
1
1
1
1
1
1
1
1
1
1
1
1
1
1
1
1
1
1
1
1
1
1
1
1
1
1
1
1
1
1
1
1
1
1
1
1
1
1
1
1
1
1
1
1
1
1
1
1
1
1
1
1
1
1
1
1
1
1
1
1
1
1
1
1
1
1
1
1
1
1
1
1
1
1
1
1
6.377385954
10.42589193
10.463447
10.47527823
10.49721534
10.51504664
10.53057599
10.5453457
10.5613068
10.57752837
10.59006591
10.59704449
10.59921072
10.59768874
10.5939863
10.59406728
10.60109045
10.61147188
10.62240596
10.63217398
10.63790417
10.63847135
1
1
1
1
1
1
1
1
1
1
1
1
1
1
1
1
1
1
1
1
1
1
1
1
1
1
1
1
1
1
1
1
1
1
1
1
1
1
1
1
1
1
1
1
1
1
1
1
1
1
1
1
1
1
1
1
1
1
1
1
1
1
1
1
1
1
1
1
1
1
1
1
1
1
1
1
1
1
6.373175004
10.41373643
10.45823847
10.47514846
10.49979202
10.51971859
10.53602952
10.55080925
10.56660071
10.58230647
10.59473123
10.60230373
10.60490816
10.60396395
10.60119587
10.60206051
10.60993958
10.62155202
10.63357365
10.64407495
10.65079973
10.65141222
1
1
1
1
1
1
1
1
1
1
1
1
1
1
1
1
1
1
1
1
1
1
1
1
1
1
1
1
1
1
1
1
1
1
1
1
1
1
1
1
1
1
1
1
1
1
1
1
1
1
1
1
1
1
1
1
1
1
1
1
1
1
1
1
1
1
1
1
1
1
1
1
1
1
1
1
1
1
6.366099412
10.39907915
10.45360222
10.47555952
10.50177713
10.52382428
10.54108431
10.55619352
10.5722454
10.58800243
10.60067795
10.60879097
10.61176347
10.61092312
10.60836609
10.60975863
10.61877485
10.63204126
10.64537149
10.65688133
10.66455371
10.66459333
1
1
1
1
1
1
1
1
1
1
1
1
1
1
1
1
1
1
1
1
1
1
1
1
1
1
1
1
1
1
1
1
1
1
1
1
1
1
1
1
1
1
1
1
1
1
1
1
1
1
1
1
1
1
1
1
1
1
1
1
1
1
1
1
1
1
1
1
1
1
1
1
1
1
1
1
1
1
6.354751254
10.38304756
10.45185054
10.47713179
10.50397999
10.52713009
10.5449893
10.56071089
10.57740156
10.59369855
10.60717486
10.61617906
10.61981351
10.61908393
10.61631777
10.61796391
10.62787101
10.64257375
10.65724095
10.67017281
10.67853499
10.67801662
1
1
1
1
1
1
1
1
1
1
1
1
1
1
1
1
1
1
1
1
1
1
1
1
1
1
1
1
1
1
1
1
1
1
1
1
1
1
1
1
1
1
1
1
1
1
1
1
1
1
1
1
1
1
1
1
1
1
1
1
1
1
1
1
1
1
1
1
1
1
1
1
1
1
1
1
1
1
6.337008505
10.37055237
10.45107695
10.47864828
10.5060039
10.5293527
10.54723542
10.56373116
10.5815414
10.59907348
10.61406683
10.62443567
10.62901737
10.62850185
10.62542975
10.62735182
10.63793688
10.65342377
10.66933738
10.68393386
10.6922068
10.69193477
1
1
1
1
1
1
1
1
1
1
1
1
1
1
1
1
1
1
1
1
1
1
1
1
1
1
1
1
1
1
1
1
1
1
1
1
1
1
1
1
1
1
1
1
1
1
1
1
1
1
1
1
1
1
1
1
1
1
1
1
1
1
1
1
1
1
1
1
1
1
1
1
1
1
1
1
1
1
6.312221286
10.36230117
10.44934794
10.47959734
10.50786828
10.53098491
10.5487503
10.56581584
10.5846783
10.60367067
10.62050444
10.63244306
10.63822766
10.63833702
10.63543223
10.63798131
10.64895217
10.66448172
10.68185207
10.69770913
10.70562785
10.70649604
1
1
1
1
1
1
1
1
1
1
1
1
1
1
1
1
1
1
1
1
1
1
1
1
1
1
1
1
1
1
1
1
1
1
1
1
1
1
1
1
1
1
1
1
1
1
1
1
1
1
1
1
1
1
1
1
1
1
1
1
1
1
1
1
1
1
1
1
1
1
1
1
1
1
1
1
1
1
6.280851292
10.35855679
10.44678285
10.47973705
10.50937186
10.5321892
10.55014526
10.56769908
10.58756676
10.60805689
10.62658227
10.63996714
10.64704975
10.64827018
10.64632008
10.65001033
10.661172
10.67654759
10.69542449
10.71129154
10.71941598
10.72158875
1
1
1
1
1
1
1
1
1
1
1
1
1
1
1
1
1
1
1
1
1
1
1
1
1
1
1
1
1
1
1
1
1
1
1
1
1
1
1
1
1
1
1
1
1
1
1
1
1
1
1
1
1
1
1
1
1
1
1
1
1
1
1
1
1
1
1
1
1
1
1
1
1
1
1
1
1
1
6.241694945
10.35857889
10.44444418
10.47935321
10.51073283
10.53352498
10.55183361
10.57007232
10.59077261
10.61219496
10.63166768
10.64607318
10.65462934
10.65757994
10.65782232
10.66325801
10.67437614
10.69040621
10.71010157
10.72513146
10.73393977
10.73707249
1
1
1
1
1
1
1
1
1
1
1
1
1
1
1
1
1
1
1
1
1
1
1
1
1
1
1
1
1
1
1
1
1
1
1
1
1
1
1
1
1
1
1
1
1
1
1
1
1
1
1
1
1
1
1
1
1
1
1
1
1
1
1
1
1
1
1
1
1
1
1
1
1
1
1
1
1
1
6.192327968
10.36081162
10.44413675
10.48015301
10.51205365
10.534247
10.55282003
10.57208257
10.59370045
10.61595796
10.63595849
10.65116828
10.66105922
10.66622871
10.66972329
10.67745363
10.68900083
10.70677977
10.72557993
10.73994118
10.74940475
10.75314845
1
1
1
1
1
1
1
1
1
1
1
1
1
1
1
1
1
1
1
1
1
1
1
1
1
1
1
1
1
1
1
1
1
1
1
1
1
1
1
1
1
1
1
1
1
1
1
1
1
1
1
1
1
1
1
1
1
1
1
1
1
1
1
1
1
1
1
1
1
1
1
1
1
1
1
1
1
1
6.130944996
10.36363515
10.4473905
10.48258538
10.51291816
10.53420425
10.5535209
10.57430138
10.59716997
10.61990284
10.64007474
10.65583543
10.66697944
10.6749296
10.68224863
10.69199847
10.70514149
10.72486926
10.74211836
10.75631879
10.76620194
10.77034648
1
1
1
1
1
1
1
1
1
1
1
1
1
1
1
1
1
1
1
1
1
1
1
1
1
1
1
1
1
1
1
1
1
1
1
1
1
1
1
1
1
1
1
1
1
1
1
1
1
1
1
1
1
1
1
1
1
1
1
1
1
1
1
1
1
1
1
1
1
1
1
1
1
1
1
1
1
1
6.055626987
10.36888391
10.45363539
10.48567621
10.51358524
10.53370552
10.55383605
10.57615497
10.60010398
10.62337221
10.64396498
10.66036408
10.67271729
10.68358324
10.69504371
10.70753074
10.72406053
10.74356609
10.76040036
10.774487
10.78458709
10.78921735
1
1
1
1
1
1
1
1
1
1
1
1
1
1
1
1
1
1
1
1
1
1
1
1
1
1
1
1
1
1
1
1
1
1
1
1
1
1
1
1
1
1
1
1
1
1
1
1
1
1
1
1
1
1
1
1
1
1
1
1
1
1
1
1
1
1
1
1
1
1
1
1
1
1
1
1
1
1
5.967450243
10.37277807
10.46095214
10.48923537
10.51470938
10.53401955
10.55488292
10.57814294
10.6024879
10.62620362
10.64755258
10.66510529
10.67916071
10.69304744
10.70800676
10.72450106
10.74500916
10.76379291
10.78099392
10.79469654
10.80470036
10.81008932
1
1
1
1
1
1
1
1
1
1
1
1
1
1
1
1
1
1
1
1
1
1
1
1
1
1
1
1
1
1
1
1
1
1
1
1
1
1
1
1
1
1
1
1
1
1
1
1
1
1
1
1
1
1
1
1
1
1
1
1
1
1
1
1
1
1
1
1
1
1
1
1
1
1
1
1
1
1
5.866779859
10.37222512
10.46886708
10.49335859
10.51695274
10.53551144
10.55682529
10.58025639
10.60473583
10.62874196
10.65067365
10.6695187
10.68543821
10.7024178
10.72109258
10.7426106
10.76590238
10.78606722
10.80378046
10.81700062
10.82636058
10.83284497
1
1
1
1
1
1
1
1
1
1
1
1
1
1
1
1
1
1
1
1
1
1
1
1
1
1
1
1
1
1
1
1
1
1
1
1
1
1
1
1
1
1
1
1
1
1
1
1
1
1
1
1
1
1
1
1
1
1
1
1
1
1
1
1
1
1
1
1
1
1
1
1
1
1
1
1
1
1
5.757245146
10.36314042
10.47678755
10.49743591
10.52009348
10.53799001
10.55979874
10.58307691
10.60751224
10.63198896
10.65482462
10.67487133
10.69250453
10.71225575
10.73508674
10.76167863
10.78721948
10.81016423
10.82853437
10.84110829
10.84946881
10.85671269
1
1
1
1
1
1
1
1
1
1
1
1
1
1
1
1
1
1
1
1
1
1
1
1
1
1
1
1
1
1
1
1
1
1
1
1
1
1
1
1
1
1
1
1
1
1
1
1
1
1
1
1
1
1
1
1
1
1
1
1
1
1
1
1
1
1
1
1
1
1
1
1
1
1
1
1
1
1
5.640040503
10.34387985
10.48561431
10.50071445
10.5246355
10.54312442
10.56470483
10.58714996
10.61105418
10.63595686
10.65959417
10.68097201
10.70067692
10.72325755
10.750476
10.78102403
10.80950578
10.83525697
10.85425967
10.86577171
10.87307373
10.88040545
1
1
1
1
1
1
1
1
1
1
1
1
1
1
1
1
1
1
1
1
1
1
1
1
1
1
1
1
1
1
1
1
1
1
1
1
1
1
1
1
1
1
1
1
1
1
1
1
1
1
1
1
1
1
1
1
1
1
1
1
1
1
1
1
1
1
1
1
1
1
1
1
1
1
1
1
1
1
5.513240777
10.31663409
10.4927265
10.50560047
10.52994311
10.54818493
10.56880169
10.59079003
10.6149027
10.64043351
10.66488616
10.68779617
10.709739
10.73573599
10.76706625
10.80065871
10.83285432
10.86092125
10.88012094
10.88998216
10.89629155
10.90338485
1
1
1
1
1
1
1
1
1
1
1
1
1
1
1
1
1
1
1
1
1
1
1
1
1
1
1
1
1
1
1
1
1
1
1
1
1
1
1
1
1
1
1
1
1
1
1
1
1
1
1
1
1
1
1
1
1
1
1
1
1
1
1
1
1
1
1
1
1
1
1
1
1
1
1
1
1
1
5.367213403
10.29244643
10.49610131
10.51005367
10.53568007
10.55438836
10.57440176
10.59609772
10.62050179
10.64641918
10.67170133
10.69580054
10.71972971
10.74961603
10.78399365
10.82065983
10.85611294
10.88553932
10.90405292
10.91198814
10.917924
10.9254994
1
1
1
1
1
1
1
1
1
1
1
1
1
1
1
1
1
1
1
1
1
1
1
1
1
1
1
1
1
1
1
1
1
1
1
1
1
1
1
1
1
1
1
1
1
1
1
1
1
1
1
1
1
1
1
1
1
1
1
1
1
1
1
1
1
1
1
1
1
1
1
1
1
1
1
1
1
1
5.194029826
10.27260488
10.49870749
10.51451765
10.54039632
10.55940926
10.58016877
10.60296388
10.62803941
10.65441792
10.68038339
10.70531517
10.73164124
10.76457311
10.80131776
10.84100096
10.87821206
10.90772847
10.92471038
10.93118942
10.93755361
10.94725069
1
1
1
1
1
1
1
1
1
1
1
1
1
1
1
1
1
1
1
1
1
1
1
1
1
1
1
1
1
1
1
1
1
1
1
1
1
1
1
1
1
1
1
1
1
1
1
1
1
1
1
1
1
1
1
1
1
1
1
1
1
1
1
1
1
1
1
1
1
1
1
1
1
1
1
1
1
1
5.000109925
10.25221258
10.50074691
10.51813524
10.54398798
10.5646482
10.58765421
10.61184999
10.63718504
10.66379271
10.69045003
10.71709492
10.74615523
10.78059215
10.81953105
10.86099037
10.89787835
10.92585696
10.94084915
10.94748308
10.95583637
10.96989353
1
1
1
1
1
1
1
1
1
1
1
1
1
1
1
1
1
1
1
1
1
1
1
1
1
1
1
1
1
1
1
1
1
1
1
1
1
1
1
1
1
1
1
1
1
1
1
1
1
1
1
1
1
1
1
1
1
1
1
1
1
1
1
1
1
1
1
1
1
1
1
1
1
1
1
1
1
1
4.792745673
10.22357151
10.5011689
10.51961199
10.54644105
10.57011729
10.59606256
10.62161955
10.64712388
10.67444098
10.7023368
10.73132824
10.76235849
10.79829857
10.83845692
10.87975416
10.91437663
10.9396556
10.95300413
10.96181656
10.97440733
10.99471519
1
1
1
1
1
1
1
1
1
1
1
1
1
1
1
1
1
1
1
1
1
1
1
1
1
1
1
1
1
1
1
1
1
1
1
1
1
1
1
1
1
1
1
1
1
1
1
1
1
1
1
1
1
1
1
1
1
1
1
1
1
1
1
1
1
1
1
1
1
1
1
1
1
1
1
1
1
1
4.577198573
10.18122266
10.49996936
10.51905645
10.54819105
10.5756373
10.60429173
10.63146588
10.65844649
10.68691575
10.71561074
10.74662535
10.78004977
10.81783263
10.85749957
10.89657259
10.92742625
10.94990395
10.96313956
10.97633486
10.99511327
11.02209152
1
1
1
1
1
1
1
1
1
1
1
1
1
1
1
1
1
1
1
1
1
1
1
1
1
1
1
1
1
1
1
1
1
1
1
1
1
1
1
1
1
1
1
1
1
1
1
1
1
1
1
1
1
1
1
1
1
1
1
1
1
1
1
1
1
1
1
1
1
1
1
1
1
1
1
1
1
1
4.355962651
10.12378151
10.49784009
10.51851533
10.55015807
10.58074046
10.61157787
10.64074843
10.6693537
10.69892529
10.72959105
10.76321879
10.79932115
10.83848014
10.8761108
10.91137138
10.93811018
10.9587363
10.97395605
10.99347175
11.01921125
11.05217674
1
1
1
1
1
1
1
1
1
1
1
1
1
1
1
1
1
1
1
1
1
1
1
1
1
1
1
1
1
1
1
1
1
1
1
1
1
1
1