/*--------------------------------*- C++ -*----------------------------------*\
  =========                 |
  \\      /  F ield         | OpenFOAM: The Open Source CFD Toolbox
   \\    /   O peration     | Website:  https://openfoam.org
    \\  /    A nd           | Version:  7
     \\/     M anipulation  |
\*---------------------------------------------------------------------------*/
FoamFile
{
    version     2.0;
    format      ascii;
    class       volScalarField;
    location    "1.6";
    object      rho;
}
// * * * * * * * * * * * * * * * * * * * * * * * * * * * * * * * * * * * * * //

dimensions      [1 -3 0 0 0 0 0];

internalField   nonuniform List<scalar> 
2222
(
1.165465398
1.170840806
1.173473309
1.174545774
1.169088412
1.161169901
1.159483954
1.157379557
1.157093735
1.15832965
1.160156709
1.160612624
1.157299715
1.150233637
1.141374464
1.133575793
1.129221126
1.128717239
0.798844469
1.078130392
1.255738738
1.255411125
1.237332015
1.239258212
1.237292911
1.230954195
1.229126626
1.217859434
1.212825211
1.211631217
1.211118023
1.207830321
1.206040615
1.205131065
1.202780662
1.19929617
1.192954065
1.183641847
1.173921077
1.167392814
1.165767779
0.7877129056
1.01457013
1.238582418
1.335215689
1.316184548
1.298834926
1.287977917
1.276229373
1.26799791
1.250481174
1.2476572
1.247036189
1.2474013
1.246568046
1.244607553
1.243936004
1.241226774
1.238002244
1.23485323
1.22805962
1.219851434
1.211178985
1.206538669
0.7511399721
0.8907241412
1.164838282
1.344403214
1.34885966
1.326338301
1.306406049
1.290114162
1.274960353
1.261123055
1.263573052
1.26648778
1.268246932
1.270595512
1.270299652
1.272117519
1.273918577
1.274405055
1.27308149
1.266739379
1.259247439
1.252667042
1.248453569
0.6976990732
0.795819371
1.021316708
1.310171642
1.355966537
1.339785331
1.315454196
1.294660577
1.281203929
1.277320053
1.28190808
1.286302885
1.288992022
1.293579777
1.297209657
1.300149332
1.302208256
1.301578948
1.294887775
1.286085638
1.279595185
1.276342784
1.274978513
0.6511210904
0.7147531256
0.9079711343
1.16949334
1.341907798
1.351294849
1.330103562
1.306785966
1.296183593
1.299400289
1.297403223
1.293515026
1.295058001
1.299110705
1.302929829
1.30656944
1.3078053
1.304505803
1.300204464
1.295207496
1.292098435
1.29140398
1.292238307
1.293578235
0.6186196677
0.644325329
0.7811108148
1.040761068
1.27048509
1.345752896
1.331480907
1.315819494
1.30412741
1.300414592
1.294531912
1.289927851
1.292019321
1.297817831
1.301555037
1.303865441
1.30624728
1.305391815
1.307078802
1.308288897
1.308319942
1.309764601
1.311417424
1.313039494
0.5671132655
0.5780024554
0.6365222295
0.938319577
1.169936433
1.29494288
1.302690427
1.305817986
1.300614531
1.293085126
1.285068672
1.283850511
1.286530529
1.293380039
1.299769546
1.304321491
1.307959283
1.312010732
1.316511239
1.316414802
1.314454336
1.315282581
1.315773298
1.315924254
0.5420803653
0.5434464114
0.5509745163
0.7226340283
1.103368033
1.254261924
1.297025689
1.300455401
1.293919545
1.278839155
1.276205166
1.281162595
1.289198902
1.296511471
1.301992234
1.309834963
1.314305456
1.31782536
1.319060973
1.318097669
1.315592475
1.316190113
1.316640552
1.316269851
0.538053685
0.5370536297
0.5349554952
0.5664756121
0.947307175
1.251740027
1.308465828
1.315780145
1.298813795
1.277294355
1.279238378
1.290125674
1.294431774
1.301928997
1.306662549
1.309193013
1.31392384
1.3183224
1.320792993
1.318980965
1.315423341
1.315292276
1.31589751
1.316425621
0.5377862346
0.536299785
0.5382716728
0.5390985529
0.6865871825
1.167506992
1.313697992
1.326119834
1.306423348
1.287450867
1.29496748
1.301108613
1.300423224
1.300669018
1.304183134
1.310143565
1.316510075
1.320039731
1.321583131
1.319934711
1.317991352
1.318518132
1.319446406
1.320877993
0.5378064752
0.5374063332
0.537481352
0.5387464395
0.5646559448
0.9244995599
1.281535691
1.332090733
1.316108219
1.310343807
1.309468206
1.301165642
1.29723875
1.300917318
1.306049092
1.313803747
1.318544245
1.321417437
1.323989554
1.323596962
1.322880188
1.323904088
1.326444117
1.329075
1.329920642
0.5371587055
0.5385446313
0.5360118968
0.5422873283
0.5488306312
0.7086757086
1.114889451
1.310107365
1.313781406
1.321796752
1.312484224
1.298224141
1.297278347
1.304573743
1.3098621
1.315290414
1.319117906
1.32209413
1.326251049
1.330217998
1.331556023
1.33265772
1.333417697
1.334428119
1.333498101
0.5366076836
0.5389186119
0.5361697663
0.5418724764
0.5497918517
0.5801678282
0.9641245761
1.249041464
1.300909382
1.324166591
1.303491457
1.299598237
1.302677188
1.308686513
1.312844967
1.315261142
1.317933867
1.321715634
1.327971781
1.33350911
1.335400116
1.335765211
1.335292205
1.335290027
1.334115772
0.5366430476
0.5390198706
0.5374033073
0.5406759974
0.5526005018
0.5612919545
0.7821771883
1.191786757
1.295657404
1.301569525
1.29980689
1.304478177
1.31173701
1.313342983
1.313705352
1.313603812
1.316727004
1.32410073
1.333202928
1.338498025
1.339527313
1.338770929
1.337286411
1.335862263
1.333473367
0.5368333896
0.5390839412
0.5376944426
0.5412857647
0.5527797383
0.5595976628
0.5976921726
1.043909618
1.294523157
1.290833438
1.307193194
1.317607411
1.319306778
1.314168947
1.311447539
1.313208241
1.320034513
1.329397871
1.338422625
1.341262726
1.341065094
1.339241386
1.336981747
1.335309966
1.333026698
0.5368700341
0.5391040547
0.5377626123
0.5414845433
0.5510897615
0.5624911659
0.5692838689
0.7784604134
1.213080224
1.295605107
1.324939722
1.32788032
1.319198652
1.309643486
1.31098374
1.318022654
1.326262191
1.333259945
1.33789566
1.338987012
1.339428901
1.339192397
1.338024191
1.337517262
1.336386548
0.5367660207
0.5390208742
0.5378491818
0.5411198224
0.5492808585
0.5640362427
0.5673535623
0.6173497053
1.024801131
1.307932657
1.333809756
1.325023188
1.309788013
1.310053407
1.316052662
1.32360733
1.329081125
1.331152173
1.333499392
1.336465684
1.339653591
1.340551266
1.340380771
1.341008445
1.340565265
0.5357651322
0.5385492194
0.5384710613
0.5405013007
0.5482937793
0.5634585558
0.5668484251
0.5754557296
0.8632786977
1.248904848
1.324909776
1.303032391
1.30543158
1.31486148
1.321676961
1.324628219
1.325421665
1.326143911
1.327618842
1.333575738
1.33869193
1.340689812
1.341092041
1.342062218
1.342073288
1.341061382
0.5342126216
0.5381289014
0.539356565
0.540330849
0.5477172081
0.5613941487
0.5718194226
0.5727359932
0.6612019826
1.051353377
1.268843719
1.288874322
1.304165207
1.316440852
1.319590604
1.319929975
1.317857513
1.318733339
1.325245968
1.333589203
1.339101549
1.340787976
1.340548443
1.340599245
1.340194846
1.338735451
0.5328923975
0.5380924843
0.5397666057
0.5405293168
0.5479943947
0.5605685234
0.5715600674
0.5693383908
0.5799888937
0.89621047
1.201882242
1.290404533
1.318241197
1.321461129
1.318509021
1.310697744
1.309786662
1.31704577
1.326518499
1.335047933
1.338515471
1.338753666
1.337067758
1.335962338
1.334877535
1.332859271
0.5320920264
0.538484714
0.5398002236
0.5412428546
0.5481297612
0.5597888461
0.5681579346
0.5717276701
0.5732969459
0.7135399713
1.13633541
1.303171975
1.322923249
1.319699215
1.306494644
1.302715666
1.308519847
1.318182949
1.326765255
1.33216634
1.332931348
1.333046865
1.332487134
1.330557225
1.329160656
1.328217782
0.5317802315
0.5386086863
0.5396119945
0.541284792
0.548245391
0.5584359024
0.5666936269
0.5715445932
0.5702455062
0.5893946886
0.9702130024
1.274590276
1.320465155
1.299462519
1.293887745
1.300619785
1.311054057
1.317331061
1.320717528
1.323006838
1.325611527
1.328767008
1.328579054
1.328262935
1.328152414
1.328739363
0.5317255444
0.5385174546
0.5391904844
0.5411943843
0.5481423205
0.5577176368
0.5664697197
0.5698216446
0.5695567354
0.5664771449
0.743035523
1.134081425
1.280777033
1.277154479
1.287137863
1.300304705
1.30882912
1.311778869
1.313031889
1.314179858
1.318574882
1.323315319
1.325044217
1.326387238
1.327608266
1.329542791
0.5316994441
0.5382980004
0.538020906
0.5412820126
0.5478336164
0.5574353476
0.5666980348
0.5695596276
0.5704513252
0.5645290452
0.6063634039
0.9866107941
1.221764848
1.273342634
1.296666155
1.3057398
1.306493324
1.305211211
1.303097264
1.306004246
1.313249246
1.318752161
1.321764538
1.32387613
1.325886594
1.328587313
1.330389593
0.5314929509
0.5377415318
0.5372495462
0.5417993785
0.5476047614
0.5574341328
0.5664761524
0.5691132579
0.5708703154
0.5635697642
0.5651524084
0.8428305726
1.179029245
1.287944475
1.302429036
1.302988711
1.29924671
1.293459494
1.296111547
1.303319655
1.311871936
1.315987463
1.318283848
1.319983063
1.321720124
1.324474278
1.325652869
0.5301535474
0.5357925835
0.5367994578
0.5418906352
0.5476749672
0.5573169754
0.5658396302
0.5693860018
0.5697795856
0.5652240862
0.5581076684
0.631945115
1.074042822
1.277362555
1.299212832
1.294636775
1.283199609
1.286474499
1.292904955
1.302358773
1.310837194
1.312916565
1.31217903
1.314296491
1.314830282
1.316456541
1.317156675
0.5280047542
0.5322787661
0.5370253693
0.5417415027
0.5484265465
0.5573235751
0.5658305349
0.5692682667
0.5697482199
0.5648115204
0.5576656027
0.5611699878
0.8620793143
1.212451157
1.288995113
1.271842286
1.27537947
1.282594799
1.294472056
1.300866407
1.306214029
1.309687442
1.310795107
1.309048641
1.309077723
1.310342434
1.311918852
0.5261882875
0.5302074044
0.5373956756
0.5414204563
0.5490269313
0.5572277425
0.5654884323
0.56749079
0.5682771501
0.5637985473
0.5575839396
0.5522354117
0.6748948384
1.059463531
1.239868389
1.256802894
1.271723841
1.287403961
1.297831676
1.300474095
1.301529597
1.304251016
1.307264852
1.308733473
1.307440772
1.308220038
1.309920006
0.5248372575
0.5296397414
0.5373636316
0.5409478987
0.5488936572
0.556830398
0.5644893604
0.5664749534
0.5675513459
0.5631721134
0.5570234764
0.5519438372
0.5698760821
0.9375209013
1.194004164
1.262166986
1.286373546
1.293556482
1.294185878
1.295353551
1.296353572
1.300589754
1.305968073
1.308648486
1.307899313
1.309410402
1.310179763
0.5240811323
0.5296719959
0.5371901781
0.540264428
0.5485187243
0.5562025069
0.5638134509
0.5661412143
0.5672943128
0.5628720428
0.556549149
0.552066659
0.5512553755
0.7572816697
1.163024196
1.276166011
1.29295611
1.293514307
1.287505816
1.284962215
1.288997556
1.294333362
1.301008609
1.307131907
1.30891328
1.311073487
1.312779157
0.5236976578
0.5311601583
0.5368607026
0.5395144578
0.5481854531
0.5557733562
0.5636018815
0.5661274445
0.5670025732
0.5629083826
0.5563599065
0.5522131692
0.5488394838
0.5859790468
1.016207528
1.261188754
1.290250239
1.285773757
1.275420747
1.27937756
1.286186774
1.291708806
1.29806308
1.302657433
1.306596572
1.309996311
1.312248275
1.315736758
0.5229444541
0.531703537
0.5363257616
0.5391568116
0.5489660675
0.5556505894
0.5637420465
0.5661261898
0.5670330204
0.562876158
0.5564361826
0.5517502208
0.5486076493
0.5501603961
0.7874976146
1.163161097
1.274557277
1.263787475
1.270612442
1.278051715
1.287039891
1.291812737
1.295598173
1.298879254
1.30324208
1.306153426
1.309527401
1.312663033
0.5214739834
0.5317029917
0.5350492476
0.5399889782
0.549601552
0.55632466
0.5639792329
0.5660555889
0.5669492236
0.5625733181
0.5558703207
0.5511748882
0.5484056459
0.5473309642
0.6287472802
1.016642879
1.219206126
1.257428186
1.276679563
1.28802756
1.295535603
1.298423494
1.300297375
1.301465829
1.300990916
1.302302124
1.305009682
1.308516887
0.5212797561
0.5315071289
0.5330548941
0.5408068391
0.5499040005
0.5568738936
0.5640046631
0.5659265874
0.5667637689
0.5623418273
0.5547760318
0.5496362911
0.5478095382
0.547132323
0.5561753087
0.9022987771
1.179057827
1.269892187
1.291893034
1.296380609
1.298049515
1.299462162
1.301469059
1.304378939
1.30415409
1.302445408
1.302879399
1.306890303
0.5219969104
0.5299857555
0.5321375517
0.5409934317
0.5502546008
0.5571392421
0.5639853433
0.5654530964
0.5655527012
0.5616436471
0.5537948656
0.5489326678
0.5471969399
0.5468167935
0.5475953493
0.7009154864
1.142130798
1.279199457
1.293885205
1.296407173
1.297111316
1.298751952
1.301535889
1.305246807
1.305731066
1.305041242
1.303898582
1.308740477
0.5220015023
0.5251505494
0.532119271
0.5409580206
0.5504999461
0.5573482458
0.5639161782
0.564665883
0.5640254319
0.5608396996
0.5532727469
0.548388667
0.5467978578
0.5468398117
0.5465322127
0.5687335135
0.9711832897
1.257416009
1.290587139
1.288222047
1.283013538
1.287054882
1.293705276
1.301599853
1.304593888
1.30664052
1.30710478
1.31221587
0.5219014101
0.5213545107
0.5323794716
0.5406359913
0.5505493074
0.5574225662
0.5636599061
0.5641359015
0.563465155
0.5603138106
0.5530201992
0.5479495118
0.5463474432
0.5464597763
0.5463963369
0.547163934
0.7478216626
1.132260971
1.260486295
1.264834324
1.272908066
1.279977506
1.286600575
1.293475103
1.300112054
1.305368106
1.307479378
1.312144237
1.316085542
0.5216959311
0.5203250135
0.5325324557
0.539706034
0.5503164137
0.5573220648
0.5632425315
0.5639789201
0.563275666
0.5598291274
0.5527974113
0.5477584353
0.5463552774
0.5458990657
0.546388615
0.5461085022
0.6072633443
0.9953630565
1.209027709
1.255834898
1.273370537
1.280054312
1.285202811
1.28957958
1.295170384
1.300629493
1.306033164
1.310230821
1.31399945
0.5213869108
0.5201360378
0.5324018188
0.5382802702
0.5495149989
0.5568160623
0.5631016683
0.5640877032
0.5631947563
0.5593980675
0.5527241982
0.5475633609
0.5461326061
0.5454230638
0.5461421856
0.5458273651
0.5516508687
0.8874138207
1.180135793
1.269000581
1.291661222
1.293382453
1.292741028
1.29163705
1.292871822
1.297169123
1.302622084
1.307272597
1.31167087
0.5198441663
0.520842191
0.5320456925
0.5372966074
0.5489566938
0.5565467079
0.5630895672
0.5643485741
0.5631680741
0.5590876283
0.5529199273
0.5472206122
0.5453851503
0.5452432359
0.5455155948
0.5459109504
0.5458254308
0.677467461
1.13461292
1.280992871
1.302746556
1.305078731
1.303572358
1.302010451
1.299389344
1.297204906
1.300554982
1.306303696
1.310997515
0.5167823072
0.5238552914
0.5319241037
0.5367844494
0.5487393251
0.5567985678
0.5633042457
0.564505356
0.5631961994
0.5587508929
0.5527615191
0.5469206552
0.5448539356
0.5447784067
0.5451434081
0.5456485283
0.5450929821
0.5621098183
0.9574152428
1.259391787
1.301252258
1.305211109
1.304276872
1.306243007
1.305441146
1.303538406
1.303049555
1.307148788
1.312714573
0.5153763052
0.5249600724
0.5315694128
0.5365285736
0.5495962778
0.5570939274
0.5635005626
0.5647489439
0.5631478474
0.5582113966
0.55218402
0.5463293369
0.5444678688
0.5445051996
0.5448863378
0.5453164741
0.5453428375
0.5455220483
0.7422812115
1.129233534
1.285487839
1.301010973
1.300840159
1.304538447
1.305225354
1.306522433
1.306314154
1.308995662
1.314216369
0.5151941217
0.5248464653
0.5285501316
0.5368070035
0.5499646703
0.5573015662
0.5637256319
0.5648208759
0.562474117
0.5572371269
0.5516701027
0.5458798054
0.5442270315
0.5444331599
0.5450702806
0.5452899656
0.5457287959
0.5453102805
0.5999174441
0.989913832
1.217849705
1.272986588
1.282000233
1.290270836
1.299602061
1.306176212
1.306562532
1.308688401
1.313675093
0.5164754307
0.5236792292
0.5258798429
0.5379039289
0.549979576
0.5574833835
0.5639667181
0.5651663238
0.5621402687
0.5564832269
0.5514091696
0.5457584036
0.5443158327
0.5446972758
0.5452864759
0.5456978863
0.5458004825
0.5453207837
0.5499114176
0.8833650124
1.16677485
1.255669078
1.275079677
1.281991209
1.289626371
1.300212871
1.305801404
1.307542647
1.311750382
1.311344143
0.5196686425
0.5188863504
0.5253488457
0.5386432327
0.5499791133
0.5575123354
0.5639443504
0.5650658112
0.5623929824
0.556279121
0.5515332355
0.5464287192
0.5444539746
0.5447448522
0.5452169233
0.5457936477
0.5456112074
0.5455607448
0.5458691541
0.6738499955
1.135589222
1.262753272
1.279424713
1.280207581
1.28636994
1.293572517
1.299851491
1.303234515
1.308028469
1.309885439
0.5209150802
0.5151810975
0.5252885791
0.5385717073
0.5497793974
0.5574528926
0.5639052106
0.5653162385
0.5637528596
0.5563211948
0.5515461079
0.5467636642
0.5445752017
0.5445544141
0.5449823467
0.5456383986
0.5454892273
0.5457397502
0.5453927003
0.5610632817
0.9734043697
1.260602951
1.302033359
1.295544575
1.292099426
1.291445314
1.295813515
1.300618683
1.30647959
1.310219351
0.5210531963
0.5144063185
0.5253406154
0.5382159925
0.5495749925
0.5574869973
0.5640793607
0.5657128873
0.5653405285
0.5561915317
0.5514688287
0.5468715123
0.5442841463
0.5440950073
0.5447696844
0.5454548649
0.5454461475
0.5456408709
0.5455761296
0.5464031092
0.7398527108
1.189350923
1.304128185
1.310023948
1.306454899
1.300622118
1.297352219
1.300246239
1.307249766
1.312833255
0.5211487358
0.5144369158
0.5256387627
0.5376261318
0.5495062768
0.5575742115
0.5642772559
0.5660233024
0.5659524798
0.5561009116
0.5513581385
0.5468063706
0.5441574968
0.5440005971
0.5447250287
0.5454265988
0.5455082409
0.5456175742
0.5461776059
0.5461248927
0.59537309
1.000911726
1.284464708
1.31326002
1.312828684
1.311005334
1.306305631
1.305205286
1.308959951
1.314050796
0.5200384784
0.5145585739
0.526946552
0.5371368146
0.5497666415
0.5581264123
0.5643729049
0.565956902
0.566181867
0.556408366
0.5510933724
0.5468554579
0.5442024443
0.544020665
0.5447483353
0.545579384
0.5457601837
0.5458748461
0.5467476031
0.5464752268
0.5496709346
0.8575682615
1.171152139
1.303278291
1.311170278
1.312271904
1.30949403
1.306356714
1.30875045
1.313651676
0.5161085712
0.5159089838
0.5281528702
0.5368471636
0.5515513326
0.5594353802
0.5644466758
0.5657285063
0.5662880056
0.5566296737
0.5510100986
0.5471268758
0.5443999593
0.5441763618
0.5451194292
0.5463196653
0.5466354515
0.5467045228
0.5470630789
0.5472899631
0.5475443027
0.6711793907
1.066905746
1.25016794
1.290247522
1.305664136
1.308211793
1.305551205
1.306888171
1.309781552
0.5130531589
0.5196140304
0.5283275203
0.5368242222
0.5530873299
0.5601884632
0.5645353367
0.5656826222
0.5662985941
0.5570755534
0.5513606901
0.5474627267
0.5450321634
0.5447551046
0.5454758501
0.5467396037
0.5472410831
0.5471586867
0.5471633831
0.547548219
0.5473500567
0.560738641
0.9808120314
1.205779708
1.264524942
1.284550718
1.295692116
1.298154479
1.300384751
1.304262204
1.307829824
0.5128110611
0.5213049626
0.5273682079
0.5370615836
0.5535752919
0.5604833255
0.5649026794
0.5657590714
0.5665193081
0.5580194162
0.5516093378
0.5477347643
0.5454685661
0.5451647712
0.5455133646
0.5467928211
0.5473577914
0.5472817172
0.5471823073
0.5475219703
0.5473837555
0.5489706587
0.7693194624
1.186775103
1.260362869
1.276465381
1.286035377
1.292840127
1.297548667
1.302629858
1.308579061
0.5135768399
0.5214348168
0.5215956818
0.5370213983
0.5538268857
0.5606272957
0.5650490926
0.5661427656
0.5674597514
0.558790725
0.551762584
0.5478966716
0.5456698318
0.5453474891
0.5453951672
0.546709842
0.5472855659
0.5471813949
0.5471710733
0.5475254567
0.5476886824
0.5478492013
0.5945282262
1.072230275
1.279066466
1.286082663
1.2860968
1.29292319
1.299101911
1.306270664
1.312862075
0.5192800784
0.5201426377
0.5170929521
0.5373614235
0.55438419
0.5609795086
0.5654988564
0.566371133
0.5683507918
0.5592636179
0.5516800512
0.5478410755
0.5457756088
0.5453653903
0.5454541751
0.5467313797
0.5473143799
0.5472158508
0.5472739315
0.5476320319
0.5478312567
0.5479332944
0.5518207431
0.8511898906
1.248382303
1.306159139
1.303615709
1.304901085
1.305819379
1.309527964
1.314049236
0.5250898931
0.5168945709
0.5161086556
0.5376176393
0.5555951103
0.5628027857
0.5670797669
0.5669252939
0.5684310358
0.5593217916
0.5515353509
0.5477923722
0.5459608995
0.5454817687
0.5456248936
0.5469510617
0.5476288137
0.5475590015
0.5478458372
0.5483776142
0.5485446132
0.5485378047
0.5491723208
0.6703181472
1.107692882
1.299875901
1.314912039
1.312249334
1.307930107
1.309375945
1.313207003
0.526527366
0.5149015916
0.5162330571
0.5381337533
0.5569036928
0.5652231315
0.5685402666
0.5673695975
0.566733421
0.5590223299
0.5515306944
0.547986157
0.5467466623
0.5458653882
0.5461713566
0.5474117497
0.5484473974
0.5485418014
0.5487529077
0.5491077625
0.549263241
0.5491794054
0.5495761363
0.5636057255
0.9438235404
1.256808099
1.314525377
1.312031006
1.307291818
1.306737948
1.305407922
0.5268643268
0.5146745704
0.5166897029
0.5382362027
0.5576400574
0.5663990999
0.5690831192
0.5668144843
0.5652789199
0.5588953168
0.5516105003
0.5490306679
0.5478280381
0.5469865943
0.5469193515
0.5476633495
0.548855383
0.549113115
0.5491468564
0.549375526
0.5495735451
0.5496026846
0.549682329
0.5512275385
0.798128275
1.129830373
1.297686155
1.299750451
1.297091089
1.296236043
1.297410308
0.526529438
0.5148344013
0.5194432743
0.5379267023
0.5580273466
0.5669354634
0.5691251616
0.5668094883
0.5651237619
0.5591126356
0.551922787
0.5498184622
0.5482774302
0.5476527938
0.5472840385
0.5477014405
0.5489639046
0.5492992231
0.5492607916
0.5494343752
0.5496575551
0.5496878743
0.5500090897
0.5503685523
0.6060319206
1.035029157
1.240334603
1.281033025
1.288746312
1.291114869
1.294738148
0.5234197378
0.5152260985
0.5227719404
0.5376588815
0.558358334
0.5673182776
0.5690558735
0.5671255756
0.5651616859
0.5598418004
0.55279391
0.550094394
0.5483874326
0.5479089046
0.5474385441
0.5477487731
0.5489685735
0.5492903901
0.5492916482
0.549501449
0.5497649535
0.549811588
0.5501158753
0.5503958667
0.5563153645
0.9237051523
1.200158059
1.280057059
1.290036506
1.294822433
1.301582359
1.306149787
0.5168239038
0.5168046629
0.5235066434
0.5367822667
0.5591822385
0.5684505127
0.5695543392
0.5677541694
0.56550096
0.5609796208
0.5536615336
0.5500229682
0.5484707684
0.5480556911
0.5475444228
0.5478975568
0.5490504449
0.5494164733
0.5495279414
0.5497571911
0.5500361565
0.5500181116
0.5503508788
0.5507761544
0.5513691371
0.697157248
1.175847237
1.300309736
1.303036716
1.302569489
1.307500777
1.313225885
0.5148505609
0.5216094001
0.523028469
0.5345124808
0.5597067992
0.56988788
0.5711889493
0.5687667372
0.5663401065
0.561408813
0.5538929959
0.5497456805
0.5484817457
0.5482464846
0.5476124393
0.5480434892
0.5493075061
0.550027141
0.5503926782
0.5507156369
0.5509813194
0.5508443441
0.5510682711
0.5516414648
0.5516362669
0.5747006848
1.021116733
1.291490554
1.30482537
1.302852812
1.306869866
1.314378823
0.515191845
0.5250719672
0.5194904646
0.5334475678
0.559738063
0.5709820994
0.5722134051
0.5695764037
0.5666793135
0.5611576836
0.5535704338
0.5496799024
0.5491401258
0.5492903661
0.5481384638
0.5482961169
0.5497798529
0.550954775
0.5511967219
0.5514036996
0.5516401614
0.5514913589
0.551535254
0.5519534294
0.5521908304
0.5531249197
0.7967025725
1.215112445
1.300067361
1.30035384
1.300681682
1.309203546
0.5189903145
0.5255005008
0.5159234966
0.5330125665
0.5595532357
0.571901818
0.5729324104
0.5702412353
0.5660574181
0.5604318282
0.5533242178
0.5499176022
0.5499305474
0.550030889
0.5493363961
0.5487212728
0.5500148861
0.5513540722
0.5515203609
0.5516898201
0.5519154687
0.5517662416
0.5517469252
0.5521037739
0.5524392995
0.5524716623
0.6390444594
1.052844346
1.258089064
1.279801833
1.287688361
1.299142429
0.5286913356
0.5252552363
0.5151445069
0.5329076168
0.5584079553
0.5733371846
0.5739502285
0.5703208389
0.5653516782
0.5599707988
0.5535708605
0.5505622764
0.5502992367
0.5502401698
0.5499795842
0.5488490113
0.5501164458
0.5515196269
0.5515650815
0.5518946265
0.5520518514
0.5518289122
0.5517648515
0.5521462401
0.552588261
0.5525855633
0.5609087919
0.9420927772
1.202471141
1.264070345
1.284000097
1.297974443
0.5343665295
0.5245072751
0.5148399457
0.5328740091
0.5577235437
0.5750070437
0.5750624431
0.5707412115
0.5653300352
0.5597397244
0.5543204969
0.5510019121
0.5504081385
0.5502404658
0.5502063367
0.5493276134
0.5502611411
0.5516208556
0.5518703479
0.552021168
0.5522254756
0.55204309
0.5519630842
0.5522770848
0.5526519776
0.5526593867
0.5540210531
0.7723107983
1.167940303
1.264266291
1.29478399
1.304776922
0.5357175696
0.5220120454
0.5146615184
0.5328380112
0.5569939247
0.5763920432
0.576505094
0.5714324267
0.5654823878
0.5598925109
0.5549866967
0.5513363531
0.5504183001
0.5503065554
0.5503278426
0.5496338634
0.5504250107
0.5517492247
0.5519411396
0.552431101
0.5525230821
0.5523000212
0.5521506956
0.5526270688
0.5530699575
0.5532550168
0.553193895
0.5965959923
1.075874445
1.275113317
1.310932371
1.318766341
1.319261406
0.5362128085
0.5201097181
0.5155925426
0.5332639007
0.5564721141
0.5774630551
0.578255384
0.5722656922
0.5657810707
0.560174418
0.5552550883
0.5514736952
0.5503486161
0.5503484893
0.5506279636
0.5501811568
0.5506449528
0.5519965362
0.5524534029
0.5526515658
0.5530765204
0.5530185467
0.5527790989
0.5529519273
0.5536727636
0.5539285914
0.5537120204
0.5579905574
0.8769519791
1.244128681
1.311180172
1.323040757
1.324967526
0.5342647925
0.5202431598
0.5193043945
0.534036052
0.5562974426
0.5780981499
0.5800123549
0.5740819882
0.5664829699
0.5603731476
0.5553206495
0.5511906909
0.5503911687
0.5507874277
0.5515957904
0.5510564555
0.5510617414
0.5523639195
0.5530126799
0.5531654122
0.553443394
0.5534539606
0.553251993
0.5534778024
0.5540100993
0.5541743742
0.5539992718
0.5540962545
0.6957724662
1.105211716
1.298012274
1.321557226
1.323149245
0.525868967
0.5208593316
0.5222516776
0.5337408836
0.5558157772
0.5784617603
0.581379363
0.5754919673
0.5668977144
0.5601858855
0.5550804606
0.5513007927
0.5506355888
0.5513987981
0.5522127979
0.5518482058
0.5514954103
0.5525334512
0.5532902129
0.5533277922
0.5536074596
0.5536910259
0.5534907376
0.5536772304
0.5541528242
0.5542399225
0.5540429256
0.5541526104
0.5815228932
0.9803523792
1.228147493
1.297951594
1.312889952
0.5185306803
0.5221605087
0.5226558314
0.5292497645
0.5564415124
0.5785399088
0.5822277323
0.5759291987
0.5669125476
0.5589034179
0.5547308346
0.5515240034
0.5508998609
0.551650019
0.5523741036
0.5521751113
0.5516880333
0.5526464445
0.5533924005
0.5532837612
0.5535758927
0.553755453
0.5535687272
0.5536876528
0.5541691474
0.5542216667
0.5540229287
0.5540847119
0.5569199624
0.8750287845
1.172494859
1.270388311
1.294763562
0.5173501513
0.5270006909
0.5224231405
0.5259466499
0.5561296049
0.5782550757
0.5829538237
0.5762984402
0.5667561492
0.5582513264
0.5546439853
0.5519209598
0.5513119185
0.5517073543
0.5523974373
0.5522006308
0.5517508701
0.5526371185
0.5533770583
0.5532964116
0.553630608
0.5538621052
0.5536742478
0.5537344727
0.5542284395
0.5543023585
0.5540999285
0.5541613617
0.5547220095
0.6694396442
1.132381398
1.261053929
1.290085201
0.5185664786
0.5316499317
0.5217937258
0.5248355839
0.5550541852
0.5781661415
0.5835896315
0.5770501489
0.5669640096
0.5582362613
0.5548362279
0.5524459259
0.5515084629
0.5517148314
0.5524564417
0.5522528917
0.5518005509
0.552612333
0.5532990943
0.5533910968
0.5537432863
0.5540431778
0.5538915549
0.5538780816
0.5543598108
0.5545111765
0.5543345575
0.5544289697
0.5545228454
0.571139862
0.9981802545
1.273483114
1.302716671
0.5258621077
0.532548752
0.5213665653
0.5243995013
0.55463112
0.5783163672
0.5839088384
0.5777040412
0.5674199261
0.5583867902
0.5552181028
0.5526820425
0.5514962389
0.5509934254
0.5523965922
0.552437688
0.5520317127
0.5526919279
0.5533654029
0.5536858749
0.5540202599
0.5543466321
0.554338363
0.5542105023
0.5546164384
0.5548553158
0.5546778161
0.5547343631
0.5548447153
0.5560603226
0.7949506002
1.228986515
1.316781773
0.5336825594
0.5323421888
0.5210863378
0.5246239002
0.5550063635
0.5786511194
0.5838661514
0.5781896648
0.5681776454
0.5583740015
0.5552293607
0.5527525888
0.5511710773
0.550468766
0.552079329
0.5527788901
0.5525285069
0.5529196915
0.5535974215
0.5538401721
0.5541647539
0.5545878704
0.5545419215
0.5543266248
0.554698213
0.5549996738
0.5547654593
0.5547828517
0.5549908398
0.5549056871
0.6459300785
1.074170082
1.309703254
1.32213583
0.536771536
0.5318785848
0.5209102804
0.5247481661
0.5553010298
0.579367631
0.5838974622
0.5784600121
0.568662983
0.5581813591
0.554760569
0.5526946063
0.5507682546
0.550328597
0.5519429528
0.5530169786
0.5526668009
0.5529585417
0.5536484195
0.5538312166
0.5541491671
0.5546127845
0.5545556819
0.5543088494
0.5546722473
0.5549972531
0.5547426018
0.5547434707
0.5549811658
0.5548294072
0.563763035
0.9409776036
1.249290368
1.321239468
0.5376036957
0.5278110555
0.5210647471
0.5244795902
0.5555336639
0.5800492729
0.5841824481
0.5785190657
0.5687294068
0.5579038539
0.5539321089
0.552284121
0.5506251542
0.5503430156
0.5520544538
0.5530368099
0.5526096498
0.5528941288
0.5535915185
0.5537352981
0.5539372735
0.554572453
0.55452165
0.5541417775
0.5542922927
0.5549060419
0.5544926239
0.5542978525
0.5547272551
0.5546026509
0.5554774552
0.8082207821
1.141228008
1.300608202
0.5368348054
0.5228782027
0.5212352969
0.5239825553
0.5556388289
0.580600656
0.5847701047
0.5782919607
0.5686692247
0.557656072
0.5535375356
0.5519983832
0.5507726159
0.5503586234
0.5520142746
0.5530093219
0.5524775394
0.5524718084
0.5533460204
0.5532868865
0.5532343223
0.5542246689
0.5543021355
0.5536426544
0.5536214535
0.5543004846
0.5539357086
0.5537179931
0.5541360012
)
;

boundaryField
{
    inlet
    {
        type            calculated;
        value           nonuniform 0();
    }
    outlet
    {
        type            calculated;
        value           nonuniform 0();
    }
    bottom
    {
        type            calculated;
        value           nonuniform 0();
    }
    top
    {
        type            calculated;
        value           nonuniform 0();
    }
    obstacle
    {
        type            calculated;
        value           nonuniform List<scalar> 
77
(
0.798844469
0.7877129056
0.7511399721
0.6976990732
0.6511210904
0.6186196677
0.5671132655
0.5420803653
0.538053685
0.5377862346
0.5378064752
0.5371587055
0.5366076836
0.5366430476
0.5368333896
0.5368700341
0.5367660207
0.5357651322
0.5342126216
0.5328923975
0.5320920264
0.5317802315
0.5317255444
0.5316994441
0.5314929509
0.5301535474
0.5280047542
0.5261882875
0.5248372575
0.5240811323
0.5236976578
0.5229444541
0.5214739834
0.5212797561
0.5219969104
0.5220015023
0.5219014101
0.5216959311
0.5213869108
0.5198441663
0.5167823072
0.5153763052
0.5151941217
0.5164754307
0.5196686425
0.5209150802
0.5210531963
0.5211487358
0.5200384784
0.5161085712
0.5130531589
0.5128110611
0.5135768399
0.5192800784
0.5250898931
0.526527366
0.5268643268
0.526529438
0.5234197378
0.5168239038
0.5148505609
0.515191845
0.5189903145
0.5286913356
0.5343665295
0.5357175696
0.5362128085
0.5342647925
0.525868967
0.5185306803
0.5173501513
0.5185664786
0.5258621077
0.5336825594
0.536771536
0.5376036957
0.5368348054
)
;
    }