/*--------------------------------*- C++ -*----------------------------------*\
  =========                 |
  \\      /  F ield         | OpenFOAM: The Open Source CFD Toolbox
   \\    /   O peration     | Website:  https://openfoam.org
    \\  /    A nd           | Version:  7
     \\/     M anipulation  |
\*---------------------------------------------------------------------------*/
FoamFile
{
    version     2.0;
    format      ascii;
    class       volScalarField;
    location    "1.6";
    object      p;
}
// * * * * * * * * * * * * * * * * * * * * * * * * * * * * * * * * * * * * * //

dimensions      [1 -1 -2 0 0 0 0];

internalField   nonuniform List<scalar> 
22
(
1.022363043
1.023578156
1.01921659
1.017774226
1.017309606
1.018603676
1.014525569
1.015171568
1.02067913
1.015052817
1.016439355
1.035070059
1.017475647
1.011205046
1.013150626
1.043748189
1.019163106
1.01381324
1.014701348
1.05040106
1.019924018
1.018863395
)
;

boundaryField
{
    inlet
    {
        type            fixedValue;
        value           nonuniform 0();
    }
    outlet
    {
        type            zeroGradient;
    }
    bottom
    {
        type            slip;
    }
    top
    {
        type            slip;
    }
    obstacle
    {
        type            zeroGradient;
    }
    defaultFaces
    {
        type            empty;
    }
    procBoundary16to10
    {
        type            processor;
        value           nonuniform List<scalar> 4(1.017458766 1.019923147 1.011700246 1.011700246);
    }
    procBoundary16to11
    {
        type            processor;
        value           uniform 0.9880577606;
    }
    procBoundary16to15
    {
        type            processor;
        value           nonuniform List<scalar> 7(0.9724724775 1.00263558 1.025280591 1.025280591 0.9221821825 0.9710330534 1.039801928);
    }
    procBoundary16to17
    {
        type            processor;
        value           nonuniform List<scalar> 5(0.9822142725 0.9800591616 0.9789905007 0.9750776926 0.9755972767);
    }
    procBoundary16to22
    {
        type            processor;
        value           nonuniform List<scalar> 5(1.017302217 1.046821973 1.020138704 1.017302217 1.018195917);
    }
}


// ************************************************************************* //
