/*--------------------------------*- C++ -*----------------------------------*\
  =========                 |
  \\      /  F ield         | OpenFOAM: The Open Source CFD Toolbox
   \\    /   O peration     | Website:  https://openfoam.org
    \\  /    A nd           | Version:  7
     \\/     M anipulation  |
\*---------------------------------------------------------------------------*/
FoamFile
{
    version     2.0;
    format      ascii;
    class       volVectorField;
    location    "1.2";
    object      U;
}
// * * * * * * * * * * * * * * * * * * * * * * * * * * * * * * * * * * * * * //

dimensions      [0 1 -1 0 0 0 0];

internalField   nonuniform List<vector> 
80000
(
(3 1.848283588e-15 0)
(3 8.419534094e-16 0)
(3 3.604400674e-15 0)
(3 3.559676318e-15 0)
(3 2.310389475e-15 0)
(3 1.415598563e-15 0)
(3 5.062294786e-16 0)
(3 3.193917596e-15 0)
(3 -1.490575542e-15 0)
(3 -8.165782572e-15 0)
(3 -5.608855017e-15 0)
(3 -5.810723805e-15 0)
(3 -4.916754781e-15 0)
(3 -2.615059125e-15 0)
(3 -2.643594862e-15 0)
(3 -2.72513143e-15 0)
(3 -2.718744578e-15 0)
(3 -1.042748265e-15 0)
(3 1.50419739e-15 0)
(3 -5.601566556e-17 0)
(3 -1.221980188e-15 0)
(3 -1.68657813e-15 0)
(3 -1.023254061e-15 0)
(3 1.8157627e-16 0)
(3 1.820188041e-15 0)
(3 4.088128048e-15 0)
(3 3.108817477e-15 0)
(3 2.269860031e-15 0)
(3 3.38183963e-16 0)
(3 -4.108898637e-18 0)
(3 1.664095479e-15 0)
(3 -4.288158795e-15 0)
(3 -6.157224131e-15 0)
(3 -1.935624513e-15 0)
(3 2.629493962e-16 0)
(3 2.392920884e-16 0)
(3 5.164833481e-15 0)
(3 1.038571158e-14 0)
(3 9.367440582e-15 0)
(3 9.042540379e-15 0)
(3 7.973119453e-15 0)
(3 6.757772739e-15 0)
(3 5.725726778e-15 0)
(3 2.644213056e-15 0)
(3 -2.497269064e-15 0)
(3 -4.223175658e-15 0)
(3 -4.023736185e-15 0)
(3 -5.520394974e-15 0)
(3 -6.626901049e-15 0)
(3 -4.872091001e-15 0)
(3 -7.635631058e-15 0)
(3 -8.618833727e-15 0)
(3 -6.4350004e-15 0)
(3 -5.074359247e-15 0)
(3 -2.873596982e-15 0)
(3 1.764761728e-15 0)
(3 3.402098545e-15 0)
(3 3.878555386e-15 0)
(3 8.423353482e-15 0)
(3 5.770125447e-15 0)
(3 4.143935971e-15 0)
(3 3.842341197e-15 0)
(3 2.27969118e-15 0)
(3 2.49231807e-15 0)
(3 5.12701742e-15 0)
(3 6.464952631e-15 0)
(3 6.933952354e-15 0)
(3 5.920319008e-15 0)
(3 5.278054463e-15 0)
(3 6.787877045e-15 0)
(3 6.429355065e-15 0)
(3 5.469261428e-15 0)
(3 4.923156631e-15 0)
(3 2.907190583e-15 0)
(3 2.181844305e-15 0)
(3 -4.384992268e-15 0)
(3 -9.555819079e-15 0)
(3 -4.234573494e-15 0)
(3 -1.926989604e-15 0)
(3 -6.503226306e-16 0)
(3 -9.447569006e-16 0)
(3 5.819025774e-16 0)
(3 6.456761093e-16 0)
(3 5.462763298e-17 0)
(3 6.154414763e-16 0)
(3 -3.792817032e-16 0)
(3 -1.914082256e-15 0)
(3 -6.685157533e-15 0)
(3 -5.686222278e-15 0)
(3 -1.606127702e-15 0)
(3 3.941280682e-16 0)
(3 1.400171173e-15 0)
(3 -1.734528099e-16 0)
(3 1.973442782e-15 0)
(3 2.823825877e-15 0)
(3 2.782459463e-15 0)
(3 4.106013541e-15 0)
(3 2.550416843e-15 0)
(3 -2.201069544e-15 0)
(3 -2.789705208e-15 0)
(3 3.187439885e-15 0)
(3 6.061987062e-15 0)
(3 5.888320156e-15 0)
(3 6.524392848e-15 0)
(3 2.481726303e-15 0)
(3 2.866775086e-16 0)
(3 3.35684858e-16 0)
(3 2.718281178e-15 0)
(3 -3.818417135e-15 0)
(3 -9.296257718e-15 0)
(3 -6.071141094e-15 0)
(3 -3.710959801e-15 0)
(3 -4.353528719e-15 0)
(3 -9.494737256e-16 0)
(3 9.266234048e-16 0)
(3 1.987494916e-15 0)
(3 1.898347494e-15 0)
(3 -1.183123723e-15 0)
(3 3.99370935e-16 0)
(3 6.439632196e-16 0)
(3 -2.182429673e-15 0)
(3 -6.311137538e-15 0)
(3 -5.212662413e-15 0)
(3 -9.359779474e-16 0)
(3 3.814271969e-15 0)
(3 3.620259143e-15 0)
(3 2.819725027e-15 0)
(3 4.034020833e-15 0)
(3 6.553377759e-16 0)
(3 -1.291741864e-15 0)
(3 -1.334224765e-15 0)
(3 -4.910223405e-15 0)
(3 -4.08048243e-15 0)
(3 4.687516749e-16 0)
(3 4.370215457e-15 0)
(3 4.624774414e-15 0)
(3 1.22677158e-14 0)
(3 1.228195222e-14 0)
(3 1.062539553e-14 0)
(3 8.053256854e-15 0)
(3 6.286286979e-15 0)
(3 4.290559995e-15 0)
(3 -4.745001424e-16 0)
(3 -4.514873724e-15 0)
(3 -9.253607656e-15 0)
(3 -1.050190069e-14 0)
(3 -1.145545568e-14 0)
(3 -1.412986952e-14 0)
(3 -9.288934686e-15 0)
(3 -1.131400491e-14 0)
(3 -1.163180047e-14 0)
(3 -1.539642022e-14 0)
(3 -3.813953095e-15 0)
(3 1.813624222e-15 0)
(3 1.051621899e-14 0)
(3 1.818406415e-14 0)
(3 1.722640263e-14 0)
(3 1.772794179e-14 0)
(3 1.838625199e-14 0)
(3 1.063837414e-14 0)
(3 6.003863003e-15 0)
(3 2.778027019e-15 0)
(3 -1.758232831e-15 0)
(3 -1.583514402e-15 0)
(3 1.208365789e-15 0)
(3 3.477859721e-15 0)
(3 4.03139436e-15 0)
(3 4.272809005e-15 0)
(3 5.783213871e-15 0)
(3 1.07128417e-14 0)
(3 1.147057482e-14 0)
(3 6.537222845e-15 0)
(3 2.306513978e-15 0)
(3 1.026088801e-16 0)
(3 -2.766405475e-15 0)
(3 -9.213390455e-15 0)
(3 -9.541608812e-15 0)
(3 -6.886287351e-15 0)
(3 -2.833853997e-15 0)
(3 -1.460375405e-15 0)
(3 1.736139977e-15 0)
(3 4.351067817e-15 0)
(3 2.997862502e-15 0)
(3 7.722295936e-16 0)
(3 1.508830749e-17 0)
(3 -2.649477728e-15 0)
(3 -9.478679479e-15 0)
(3 -9.465662103e-15 0)
(3 -7.587212266e-15 0)
(3 -2.191197112e-15 0)
(3 2.340754252e-15 0)
(3 2.750908565e-15 0)
(3 -1.962383559e-15 0)
(3 8.750000468e-16 0)
(3 2.916350913e-15 0)
(3 2.033765942e-15 0)
(3 5.689701852e-15 0)
(3 1.447268583e-15 0)
(3 -2.729614095e-15 0)
(3 -5.675545036e-15 0)
(3 8.405474692e-16 0)
(3 4.516201927e-15 0)
(3 1.882259559e-15 0)
(3 1.957756551e-15 0)
(3 1.018481412e-15 0)
(3 9.600987041e-16 0)
(3 2.436677049e-15 0)
(3 -1.328316971e-15 0)
(3 -1.44270303e-15 0)
(3 1.261741155e-16 0)
(3 -2.583138992e-16 0)
(3 3.642223563e-15 0)
(3 3.115436256e-15 0)
(3 4.945033261e-15 0)
(3 6.861315743e-15 0)
(3 9.89276393e-15 0)
(3 1.242323349e-14 0)
(3 1.021763238e-14 0)
(3 5.05721403e-15 0)
(3 1.018217841e-15 0)
(3 -4.378124775e-16 0)
(3 -2.442372033e-15 0)
(3 -1.785372822e-15 0)
(3 1.709340284e-15 0)
(3 4.248583265e-15 0)
(3 4.356506358e-15 0)
(3 4.024903469e-15 0)
(3 2.789130026e-15 0)
(3 -3.624024951e-17 0)
(3 -1.792092517e-15 0)
(3 -4.739133749e-15 0)
(3 -3.114002214e-15 0)
(3 -7.355082044e-16 0)
(3 4.288380318e-15 0)
(3 7.709408238e-15 0)
(3 9.929610263e-15 0)
(3 1.143705559e-14 0)
(3 1.050067127e-14 0)
(3 9.332612339e-15 0)
(3 4.451984831e-15 0)
(3 -5.209452305e-17 0)
(3 -2.017840418e-15 0)
(3 -7.479253682e-15 0)
(3 -8.831239972e-15 0)
(3 -7.756094208e-15 0)
(3 -7.362153085e-15 0)
(3 -1.078137805e-14 0)
(3 -1.443733327e-14 0)
(3 -1.543220181e-14 0)
(3 -1.610569525e-14 0)
(3 -2.023018407e-14 0)
(3 -2.188903291e-14 0)
(3 -1.766521658e-14 0)
(3 -7.258534482e-15 0)
(3 -8.704525005e-16 0)
(3 3.649746052e-15 0)
(3 7.284390952e-15 0)
(3 1.398860221e-14 0)
(3 1.6789816e-14 0)
(3 1.187223169e-14 0)
(3 9.570006587e-15 0)
(3 8.971343128e-15 0)
(3 6.917372942e-15 0)
(3 7.436606294e-15 0)
(3 3.607862892e-15 0)
(3 9.58906425e-16 0)
(3 6.698409737e-16 0)
(3 2.177886199e-15 0)
(3 4.070687537e-15 0)
(3 2.920539125e-15 0)
(3 2.18907931e-15 0)
(3 2.8378953e-15 0)
(3 -3.342108602e-16 0)
(3 8.863004562e-16 0)
(3 -1.535772214e-15 0)
(3 -3.193220359e-15 0)
(3 -6.666838155e-15 0)
(3 -6.442354002e-15 0)
(3 -7.073973661e-15 0)
(3 -2.577657657e-15 0)
(3 -4.827445866e-16 0)
(3 3.801249177e-15 0)
(3 3.523859607e-15 0)
(3 3.727729036e-16 0)
(3 -1.770848568e-15 0)
(3 -6.187612364e-15 0)
(3 -8.357650611e-15 0)
(3 -9.993431789e-15 0)
(3 -3.488252437e-15 0)
(3 -4.246090774e-15 0)
(3 -2.829608364e-15 0)
(3 -1.86767309e-15 0)
(3 -2.149092235e-15 0)
(3 -2.465683671e-16 0)
(3 1.642125902e-15 0)
(3 3.725019293e-15 0)
(3 6.941784725e-15 0)
(3 4.405634969e-15 0)
(3 1.148028068e-15 0)
(3 -4.697278041e-15 0)
(3 -8.348923719e-16 0)
(3 -8.787938077e-16 0)
(3 -1.566617235e-15 0)
(3 -1.657499078e-15 0)
(3 2.853631565e-15 0)
(3 2.940998846e-15 0)
(3 3.787553563e-15 0)
(3 1.652834945e-16 0)
(3 3.465742744e-15 0)
(3 6.330463577e-15 0)
(3 3.638095387e-15 0)
(3 -8.454441353e-17 0)
(3 2.654434669e-15 0)
(3 3.031690477e-15 0)
(3 8.354136552e-16 0)
(3 -7.011670398e-16 0)
(3 4.182107442e-15 0)
(3 6.460525053e-15 0)
(3 7.751453676e-15 0)
(3 5.69999935e-15 0)
(3 4.902864637e-15 0)
(3 4.533166048e-15 0)
(3 5.133046753e-15 0)
(3 6.315062863e-15 0)
(3 4.947104065e-15 0)
(3 4.399376974e-15 0)
(3 3.016346083e-15 0)
(3 1.410645231e-16 0)
(3 -3.389020714e-15 0)
(3 -3.350821701e-15 0)
(3 -1.834067803e-15 0)
(3 -5.236392103e-16 0)
(3 -2.144977099e-15 0)
(3 3.71655317e-16 0)
(3 4.8149746e-15 0)
(3 6.600963155e-15 0)
(3 9.699848436e-15 0)
(3 1.014693249e-14 0)
(3 3.544585961e-15 0)
(3 -1.553759567e-16 0)
(3 -7.056232046e-16 0)
(3 -9.233731485e-16 0)
(3 -3.404246997e-15 0)
(3 -4.738780123e-15 0)
(3 -4.525816476e-15 0)
(3 -6.988201747e-15 0)
(3 -6.766031573e-15 0)
(3 -8.57666234e-15 0)
(3 -1.602683137e-14 0)
(3 -2.180317046e-14 0)
(3 -2.115812179e-14 0)
(3 -1.480159388e-14 0)
(3 -1.276510108e-14 0)
(3 -9.326926448e-15 0)
(3 -6.021943221e-15 0)
(3 -4.858883806e-15 0)
(3 3.37204421e-15 0)
(3 1.310197196e-14 0)
(3 1.400126362e-14 0)
(3 1.343294867e-14 0)
(3 9.431565311e-15 0)
(3 9.068117038e-15 0)
(3 9.633747496e-15 0)
(3 9.921575122e-15 0)
(3 8.245451634e-15 0)
(3 3.822486985e-15 0)
(3 3.983975429e-15 0)
(3 4.935967716e-15 0)
(3 4.252674371e-15 0)
(3 1.658896069e-15 0)
(3 -5.01733804e-15 0)
(3 -7.894707219e-15 0)
(3 -9.414294532e-15 0)
(3 -9.510276706e-15 0)
(3 -8.540427437e-15 0)
(3 -9.911689935e-15 0)
(3 -9.846614567e-15 0)
(3 -8.956089237e-15 0)
(3 -8.287574309e-15 0)
(3 -4.877071239e-15 0)
(3 -4.093986191e-15 0)
(3 -3.326511285e-15 0)
(3 -2.085750151e-15 0)
(3 -1.335387779e-15 0)
(3 -1.025375129e-15 0)
(3 -4.913728909e-15 0)
(3 3.277057491e-16 0)
(3 1.459551318e-15 0)
(3 3.503135102e-15 0)
(3 2.831116276e-15 0)
(3 2.564249549e-15 0)
(3 2.474821355e-15 0)
(3 3.521335949e-15 0)
(3 3.558735933e-15 0)
(3 6.107932571e-15 0)
(3 1.105222941e-14 0)
(3 1.036727975e-14 0)
(3 4.094531877e-15 0)
(3 -3.463949981e-15 0)
(3 -3.724364427e-15 0)
(3 -2.864696804e-15 0)
(3 -3.507881251e-15 0)
(3 -4.560747411e-16 0)
(3 1.88327851e-15 0)
(3 2.715227657e-15 0)
(3 3.06089714e-15 0)
(3 5.047466079e-15 0)
(3 5.699129982e-15 0)
(3 5.654662094e-15 0)
(3 6.47470618e-15 0)
(3 5.898358472e-15 0)
(3 2.324638152e-15 0)
(3 4.123770183e-15 0)
(3 -3.020105067e-15 0)
(3 -9.123628695e-16 0)
(3 6.06026544e-16 0)
(3 -2.591227525e-16 0)
(3 4.378749415e-16 0)
(3 3.037434152e-15 0)
(3 6.273752018e-15 0)
(3 6.42330683e-15 0)
(3 7.019232603e-15 0)
(3 8.354147723e-15 0)
(3 6.223518877e-15 0)
(3 4.935600506e-15 0)
(3 9.441138755e-16 0)
(3 -1.076180304e-15 0)
(3 -3.935351745e-15 0)
(3 -1.517241364e-15 0)
(3 -4.228445591e-16 0)
(3 -8.024076873e-16 0)
(3 1.519905547e-15 0)
(3 -1.96230956e-15 0)
(3 -3.112898473e-15 0)
(3 -5.320184734e-16 0)
(3 1.593912938e-15 0)
(3 1.241428497e-15 0)
(3 3.428246641e-16 0)
(3 -7.757838231e-16 0)
(3 -2.505236861e-15 0)
(3 -3.523567868e-15 0)
(3 -2.120696802e-15 0)
(3 -2.68546961e-15 0)
(3 -3.87254913e-15 0)
(3 -3.429593672e-15 0)
(3 -9.321906792e-15 0)
(3 -1.077364482e-14 0)
(3 -8.669357603e-15 0)
(3 -1.007216986e-14 0)
(3 -1.191582213e-14 0)
(3 -9.356393818e-15 0)
(3 -4.698604991e-15 0)
(3 -5.560115096e-15 0)
(3 -6.609068121e-15 0)
(3 -5.959299981e-15 0)
(3 -1.332159793e-15 0)
(3 4.517461077e-15 0)
(3 6.67114226e-15 0)
(3 5.282931453e-15 0)
(3 6.397607586e-15 0)
(3 7.154704648e-15 0)
(3 4.726197894e-15 0)
(3 5.961294831e-15 0)
(3 2.845346577e-15 0)
(3 8.81156722e-16 0)
(3 -2.05637793e-15 0)
(3 -2.421024538e-15 0)
(3 -7.737651221e-16 0)
(3 1.397723221e-15 0)
(3 -2.617553584e-15 0)
(3 -4.857694101e-15 0)
(3 -8.061750035e-15 0)
(3 -1.129160489e-14 0)
(3 -1.478415762e-14 0)
(3 -1.442047852e-14 0)
(3 -1.387969692e-14 0)
(3 -1.061190484e-14 0)
(3 -1.374365488e-14 0)
(3 -1.32121467e-14 0)
(3 -1.251177614e-14 0)
(3 -7.100614997e-15 0)
(3 -7.170998804e-15 0)
(3 -7.940613632e-15 0)
(3 -4.591487165e-15 0)
(3 -1.907280893e-15 0)
(3 -3.484083548e-15 0)
(3 5.19869239e-15 0)
(3 7.24574933e-15 0)
(3 7.67215254e-15 0)
(3 1.028209662e-14 0)
(3 9.547316496e-15 0)
(3 9.493457074e-15 0)
(3 8.183082707e-15 0)
(3 8.345036299e-15 0)
(3 9.049543803e-15 0)
(3 2.681518494e-15 0)
(3 6.087505894e-16 0)
(3 -2.621257356e-15 0)
(3 6.133283111e-16 0)
(3 -1.998111883e-15 0)
(3 -9.227903068e-16 0)
(3 6.826932744e-17 0)
(3 3.218786942e-15 0)
(3 3.65974129e-15 0)
(3 3.316539957e-15 0)
(3 3.20568621e-15 0)
(3 3.341815041e-15 0)
(3 3.923563907e-15 0)
(3 5.326932674e-15 0)
(3 1.155688207e-15 0)
(3 1.839585549e-15 0)
(3 3.850268216e-16 0)
(3 -1.437371129e-15 0)
(3 -1.432857246e-15 0)
(3 2.396622197e-15 0)
(3 3.712723815e-15 0)
(3 -7.00503496e-16 0)
(3 -4.564265089e-15 0)
(3 -6.211285742e-15 0)
(3 -4.157007534e-15 0)
(3 -1.657040228e-15 0)
(3 2.790074921e-15 0)
(3 7.806331041e-15 0)
(3 4.823526884e-15 0)
(3 3.843805203e-15 0)
(3 5.00695978e-15 0)
(3 4.478445903e-16 0)
(3 7.453817386e-16 0)
(3 4.635085251e-15 0)
(3 5.891830747e-15 0)
(3 2.0664641e-15 0)
(3 2.387186984e-15 0)
(3 2.357235905e-15 0)
(3 2.012474093e-15 0)
(3 2.121314378e-15 0)
(3 3.01201524e-15 0)
(3 -2.955888937e-16 0)
(3 -4.402765434e-16 0)
(3 3.254765747e-15 0)
(3 3.714773797e-15 0)
(3 9.834531663e-16 0)
(3 -3.285047516e-15 0)
(3 -7.782148661e-16 0)
(3 2.106188073e-15 0)
(3 -1.48927806e-15 0)
(3 -5.060409793e-15 0)
(3 -3.17849863e-15 0)
(3 -4.073401055e-15 0)
(3 -4.006828314e-15 0)
(3 -5.600261322e-15 0)
(3 -3.249668157e-15 0)
(3 -2.689726185e-15 0)
(3 -4.649865825e-15 0)
(3 -5.531223764e-15 0)
(3 -3.718115041e-15 0)
(3 2.330190752e-15 0)
(3 2.475223385e-15 0)
(3 8.045009636e-16 0)
(3 1.813861181e-15 0)
(3 8.355515657e-15 0)
(3 9.880282834e-15 0)
(3 8.049736884e-15 0)
(3 5.955618326e-15 0)
(3 3.457086757e-15 0)
(3 1.802978521e-15 0)
(3 -1.846030245e-15 0)
(3 -2.881940858e-15 0)
(3 -2.561779209e-15 0)
(3 -6.842195801e-15 0)
(3 -4.051751138e-15 0)
(3 -3.943319269e-15 0)
(3 -4.929063518e-15 0)
(3 -4.999008414e-15 0)
(3 -5.522857057e-15 0)
(3 -6.582319259e-15 0)
(3 -4.036068702e-15 0)
(3 -4.241719393e-15 0)
(3 -3.830661495e-15 0)
(3 -4.083185174e-15 0)
(3 -2.683679586e-15 0)
(3 -1.645878712e-15 0)
(3 2.251203896e-16 0)
(3 -5.208871715e-16 0)
(3 -7.216591244e-16 0)
(3 -2.138584171e-16 0)
(3 2.499575486e-15 0)
(3 2.055387447e-15 0)
(3 3.665975898e-15 0)
(3 6.823402167e-15 0)
(3 8.728718933e-15 0)
(3 8.207951786e-15 0)
(3 7.084748429e-15 0)
(3 6.965926379e-15 0)
(3 8.278760093e-15 0)
(3 4.165656427e-15 0)
(3 -7.568567669e-16 0)
(3 -2.367351003e-15 0)
(3 -4.754254453e-17 0)
(3 2.116042667e-15 0)
(3 1.422718764e-15 0)
(3 -1.574956444e-16 0)
(3 2.940796927e-15 0)
(3 3.169409116e-15 0)
(3 3.688549396e-15 0)
(3 4.974468223e-15 0)
(3 3.882542205e-15 0)
(3 4.000745435e-16 0)
(3 2.143214729e-15 0)
(3 1.123181955e-15 0)
(3 9.505652346e-16 0)
(3 -9.259722912e-16 0)
(3 -1.780199679e-15 0)
(3 -9.385756353e-16 0)
(3 1.513621066e-15 0)
(3 7.627479601e-17 0)
(3 -2.833383664e-15 0)
(3 -3.123642959e-15 0)
(3 -4.045417322e-15 0)
(3 -6.575183382e-15 0)
(3 -4.678157207e-15 0)
(3 -2.40086659e-15 0)
(3 -1.249531663e-15 0)
(3 -2.012648509e-15 0)
(3 -3.314240988e-15 0)
(3 -3.916811113e-15 0)
(3 -4.453060966e-15 0)
(3 -5.527742412e-15 0)
(3 3.176782715e-15 0)
(3 1.568955693e-15 0)
(3 1.011077391e-15 0)
(3 7.428697062e-15 0)
(3 6.228578982e-15 0)
(3 8.724705064e-15 0)
(3 5.976626103e-15 0)
(3 2.823811878e-15 0)
(3 -8.281573166e-16 0)
(3 -1.42826276e-15 0)
(3 -1.26857298e-15 0)
(3 -1.14153459e-15 0)
(3 1.869614688e-15 0)
(3 6.454823547e-16 0)
(3 -1.924102529e-15 0)
(3 -2.849756845e-15 0)
(3 -4.778983559e-15 0)
(3 -5.607867614e-15 0)
(3 -2.561491578e-15 0)
(3 -1.315006751e-15 0)
(3 1.838576806e-15 0)
(3 -1.361405012e-15 0)
(3 -1.878884595e-15 0)
(3 -3.731366029e-15 0)
(3 -2.710079213e-15 0)
(3 2.140260708e-15 0)
(3 4.737724989e-15 0)
(3 5.978607286e-15 0)
(3 3.489314409e-15 0)
(3 4.084181863e-16 0)
(3 2.987718947e-15 0)
(3 5.321356971e-15 0)
(3 8.851978938e-15 0)
(3 7.229895083e-15 0)
(3 5.835304383e-15 0)
(3 2.829581541e-15 0)
(3 -1.045224086e-16 0)
(3 -1.579202846e-15 0)
(3 -1.448065294e-15 0)
(3 -4.012857793e-15 0)
(3 -6.008781688e-15 0)
(3 -8.93055653e-15 0)
(3 -8.525300717e-15 0)
(3 -7.38474515e-15 0)
(3 -7.112915001e-15 0)
(3 -6.170560498e-15 0)
(3 -4.754566817e-15 0)
(3 -4.805613053e-15 0)
(3 -4.645358083e-15 0)
(3 -7.284254282e-16 0)
(3 4.217827215e-15 0)
(3 6.237217194e-15 0)
(3 6.754000216e-15 0)
(3 4.778666883e-15 0)
(3 5.375670439e-15 0)
(3 4.650134298e-15 0)
(3 3.238984983e-15 0)
(3 5.554226964e-15 0)
(3 9.465927627e-15 0)
(3 7.434349336e-15 0)
(3 7.00371709e-15 0)
(3 7.427604513e-15 0)
(3 6.077210216e-15 0)
(3 4.768417533e-15 0)
(3 4.69097631e-15 0)
(3 4.298809463e-15 0)
(3 5.712838113e-15 0)
(3 1.076034324e-15 0)
(3 -1.337180501e-16 0)
(3 -1.491360175e-15 0)
(3 1.673495628e-15 0)
(3 1.652869582e-15 0)
(3 2.179176594e-15 0)
(3 9.503832195e-16 0)
(3 9.037535598e-16 0)
(3 -3.799641145e-16 0)
(3 3.769557053e-15 0)
(3 2.592271221e-15 0)
(3 -1.82704245e-16 0)
(3 -3.456428953e-15 0)
(3 -4.929816978e-15 0)
(3 -7.309930471e-15 0)
(3 -4.777055484e-15 0)
(3 -3.715295141e-15 0)
(3 -2.927700396e-15 0)
(3 -1.672012013e-15 0)
(3 -1.753277445e-15 0)
(3 -2.235845892e-15 0)
(3 -7.686866727e-15 0)
(3 -7.057194362e-15 0)
(3 -4.250996291e-15 0)
(3 -3.173304084e-15 0)
(3 -3.515379142e-15 0)
(3 -5.092460459e-15 0)
(3 -6.577563527e-15 0)
(3 -9.017154916e-15 0)
(3 -1.154975895e-14 0)
(3 -1.094109834e-14 0)
(3 -1.162896012e-14 0)
(3 -6.100703777e-15 0)
(3 -6.500126062e-15 0)
(3 -4.890176459e-15 0)
(3 -3.772955449e-15 0)
(3 7.947750443e-16 0)
(3 2.501499675e-15 0)
(3 4.670120901e-15 0)
(3 1.748762869e-15 0)
(3 2.392851318e-16 0)
(3 -2.052881541e-15 0)
(3 -2.454204749e-15 0)
(3 -1.518075926e-15 0)
(3 -4.28433621e-15 0)
(3 -3.09885439e-15 0)
(3 -4.277413885e-15 0)
(3 -5.355389839e-15 0)
(3 -7.174290826e-15 0)
(3 -6.587375423e-15 0)
(3 -7.221286046e-15 0)
(3 -7.412035315e-15 0)
(3 -6.417392125e-15 0)
(3 -1.658166656e-15 0)
(3 -4.433239045e-16 0)
(3 2.363362012e-15 0)
(3 -1.157456112e-15 0)
(3 -1.096501918e-15 0)
(3 1.131564936e-15 0)
(3 7.010931891e-15 0)
(3 7.756454539e-15 0)
(3 5.593433823e-15 0)
(3 3.707524866e-15 0)
(3 5.890643709e-15 0)
(3 8.498014319e-15 0)
(3 1.466656837e-15 0)
(3 2.268794807e-15 0)
(3 3.426942588e-15 0)
(3 -8.626185242e-16 0)
(3 -3.804432752e-15 0)
(3 -6.11021159e-15 0)
(3 -6.121980788e-15 0)
(3 -5.489471309e-15 0)
(3 -9.612152448e-15 0)
(3 -1.01310929e-14 0)
(3 -1.23061348e-14 0)
(3 -1.031898777e-14 0)
(3 -8.450017865e-15 0)
(3 -6.207194383e-15 0)
(3 -6.497289104e-15 0)
(3 -4.53281011e-15 0)
(3 -4.23388838e-15 0)
(3 -1.91077618e-15 0)
(3 1.333968123e-15 0)
(3 5.408576719e-15 0)
(3 5.184017326e-15 0)
(3 3.475673682e-15 0)
(3 3.17241312e-15 0)
(3 5.37731859e-15 0)
(3 6.392603072e-15 0)
(3 6.420722747e-15 0)
(3 1.017361308e-14 0)
(3 9.887292915e-15 0)
(3 8.574984e-15 0)
(3 7.582018734e-15 0)
(3 6.29918919e-15 0)
(3 6.215961847e-15 0)
(3 3.794596754e-15 0)
(3 1.078578764e-15 0)
(3 8.809986425e-16 0)
(3 -2.497735354e-15 0)
(3 -2.7658515e-15 0)
(3 -2.266964657e-15 0)
(3 -9.578772211e-16 0)
(3 -2.117467362e-15 0)
(3 -1.265250727e-15 0)
(3 3.980731506e-15 0)
(3 -5.297616741e-17 0)
(3 -6.712945692e-15 0)
(3 -8.377784414e-15 0)
(3 -7.072180601e-15 0)
(3 -6.745152699e-15 0)
(3 -8.34613111e-15 0)
(3 -7.651501361e-15 0)
(3 -9.63798517e-15 0)
(3 -9.092482678e-15 0)
(3 -7.68343294e-15 0)
(3 -4.249547354e-15 0)
(3 -5.525285646e-15 0)
(3 -6.377133773e-15 0)
(3 -7.833614699e-15 0)
(3 -8.115418189e-15 0)
(3 -8.334675749e-15 0)
(3 -6.951464175e-15 0)
(3 -4.613765137e-15 0)
(3 -4.353897206e-15 0)
(3 -7.441333315e-15 0)
(3 -1.132093765e-14 0)
(3 -1.193379629e-14 0)
(3 -1.148251798e-14 0)
(3 -1.130776467e-14 0)
(3 -1.139257759e-14 0)
(3 -2.591380351e-15 0)
(3 -2.495066086e-15 0)
(3 -1.499334438e-15 0)
(3 6.634107093e-16 0)
(3 1.851202964e-15 0)
(3 -2.513955645e-17 0)
(3 -3.902167061e-15 0)
(3 -4.466372908e-15 0)
(3 -7.835240526e-17 0)
(3 -4.409022001e-17 0)
(3 2.07828119e-15 0)
(3 2.952661416e-15 0)
(3 2.873901334e-15 0)
(3 -1.035479021e-15 0)
(3 -5.684804394e-15 0)
(3 -5.987249332e-15 0)
(3 -7.904539536e-15 0)
(3 -6.739487553e-15 0)
(3 -8.580490441e-15 0)
(3 -1.466000911e-14 0)
(3 -1.333156912e-14 0)
(3 -1.317634402e-14 0)
(3 -8.287025312e-15 0)
(3 -5.896968509e-15 0)
(3 -9.058861937e-17 0)
(3 -6.398747166e-17 0)
(3 -3.95087091e-16 0)
(3 1.036414486e-16 0)
(3 -2.03021061e-15 0)
(3 -3.048373374e-15 0)
(3 -2.294743197e-15 0)
(3 -9.873949733e-16 0)
(3 -5.968555966e-16 0)
(3 -2.303637501e-15 0)
(3 -2.11140234e-15 0)
(3 -4.068490634e-15 0)
(3 -4.16583777e-15 0)
(3 -3.412438638e-15 0)
(3 -3.705013638e-15 0)
(3 -2.613456372e-15 0)
(3 -3.918572735e-15 0)
(3 -7.83033785e-15 0)
(3 -5.923359274e-15 0)
(3 -6.285166117e-15 0)
(3 -7.768618879e-15 0)
(3 -7.551110531e-15 0)
(3 -4.308487745e-15 0)
(3 -6.503750051e-15 0)
(3 2.508691859e-16 0)
(3 2.38747085e-15 0)
(3 -1.582509349e-15 0)
(3 -1.801176013e-15 0)
(3 5.149118431e-16 0)
(3 2.682906961e-15 0)
(3 1.556167429e-15 0)
(3 1.232967908e-15 0)
(3 3.445499497e-15 0)
(3 1.623309027e-15 0)
(3 -8.721671306e-16 0)
(3 8.649312266e-16 0)
(3 2.560062689e-15 0)
(3 7.264568523e-16 0)
(3 -7.003429357e-16 0)
(3 -1.141622356e-16 0)
(3 -1.327591638e-15 0)
(3 -9.582786168e-16 0)
(3 -7.847976457e-16 0)
(3 -3.916049851e-15 0)
(3 -4.226805937e-15 0)
(3 -4.88396785e-15 0)
(3 -3.351303015e-15 0)
(3 1.780864872e-15 0)
(3 8.057888171e-16 0)
(3 3.97015085e-16 0)
(3 -1.836329859e-16 0)
(3 -9.776377153e-16 0)
(3 -2.704028116e-15 0)
(3 -7.235012254e-15 0)
(3 -1.377293315e-14 0)
(3 -1.00651698e-14 0)
(3 -7.812026638e-15 0)
(3 -6.465097045e-15 0)
(3 -7.218638042e-15 0)
(3 -7.239951442e-15 0)
(3 -4.759323171e-15 0)
(3 -2.370495709e-15 0)
(3 -1.171843717e-15 0)
(3 -2.2240179e-15 0)
(3 -6.52162317e-15 0)
(3 -7.640292581e-15 0)
(3 -4.896693366e-15 0)
(3 -5.949863091e-15 0)
(3 -5.519000938e-15 0)
(3 -5.612087124e-15 0)
(3 -7.302398336e-15 0)
(3 -8.091340868e-15 0)
(3 -7.48456305e-15 0)
(3 -2.645187667e-15 0)
(3 -1.632743926e-16 0)
(3 1.848990574e-15 0)
(3 1.107348505e-15 0)
(3 2.421971641e-15 0)
(3 3.198962009e-15 0)
(3 7.165696159e-15 0)
(3 6.927980509e-15 0)
(3 4.401438624e-15 0)
(3 1.176694635e-16 0)
(3 -2.196046341e-15 0)
(3 2.559804384e-16 0)
(3 1.165118408e-16 0)
(3 3.551304962e-15 0)
(3 6.795333964e-16 0)
(3 5.045380645e-15 0)
(3 2.189854079e-15 0)
(3 1.834636883e-15 0)
(3 1.713823956e-15 0)
(3 -1.909693779e-15 0)
(3 -5.829173933e-15 0)
(3 -8.556489804e-15 0)
(3 -9.918336582e-15 0)
(3 -7.451987706e-15 0)
(3 -5.575541441e-15 0)
(3 -5.31588042e-15 0)
(3 -5.398343663e-15 0)
(3 -1.115191634e-15 0)
(3 5.836031614e-15 0)
(3 5.44828448e-15 0)
(3 9.620894173e-16 0)
(3 -4.100163464e-15 0)
(3 -7.048288905e-15 0)
(3 -9.906584401e-15 0)
(3 -9.011073681e-15 0)
(3 -9.147444082e-15 0)
(3 -4.76231746e-15 0)
(3 -1.030957463e-14 0)
(3 -1.292732227e-14 0)
(3 -1.029133786e-14 0)
(3 -1.043507836e-14 0)
(3 -6.301619742e-15 0)
(3 -3.374128524e-15 0)
(3 -6.837935557e-15 0)
(3 -8.274017759e-15 0)
(3 -7.358785561e-15 0)
(3 -4.667716062e-15 0)
(3 -4.429491043e-15 0)
(3 -1.951341821e-16 0)
(3 5.189237503e-16 0)
(3 6.840087528e-16 0)
(3 -2.008201008e-18 0)
(3 5.764118025e-16 0)
(3 2.503650678e-16 0)
(3 1.960869008e-16 0)
(3 -2.86971735e-15 0)
(3 -2.071820892e-15 0)
(3 -3.021653231e-16 0)
(3 -1.133434245e-15 0)
(3 -3.21656543e-15 0)
(3 -3.785536936e-15 0)
(3 -4.063102284e-15 0)
(3 -4.792254477e-15 0)
(3 -4.218725357e-15 0)
(3 -3.774827898e-15 0)
(3 -3.097143085e-15 0)
(3 -2.094820171e-15 0)
(3 -6.338543365e-15 0)
(3 -5.644545454e-15 0)
(3 -5.797959994e-15 0)
(3 -6.329877396e-15 0)
(3 -3.895852586e-15 0)
(3 -3.726606488e-15 0)
(3 -2.732734992e-16 0)
(3 4.091902826e-16 0)
(3 -4.274557387e-16 0)
(3 -6.952160847e-16 0)
(3 -3.404138842e-15 0)
(3 -4.675574685e-15 0)
(3 -3.951157396e-15 0)
(3 -3.331675283e-15 0)
(3 -6.481683725e-15 0)
(3 -7.74438668e-15 0)
(3 -5.213825799e-15 0)
(3 -8.647999129e-15 0)
(3 -3.497592022e-15 0)
(3 -1.673513294e-15 0)
(3 -3.755839205e-16 0)
(3 1.132063058e-15 0)
(3 2.69142274e-15 0)
(3 3.334417582e-16 0)
(3 1.087738548e-15 0)
(3 -2.24916229e-16 0)
(3 -2.849113189e-15 0)
(3 -2.710926621e-15 0)
(3 -8.399672497e-15 0)
(3 -1.036430993e-14 0)
(3 -9.419987478e-15 0)
(3 -1.775123654e-15 0)
(3 2.265172763e-15 0)
(3 -5.324439883e-17 0)
(3 3.576830896e-15 0)
(3 8.055853058e-15 0)
(3 7.417363053e-15 0)
(3 9.163902975e-15 0)
(3 7.926933932e-15 0)
(3 8.885097351e-15 0)
(3 5.386035804e-16 0)
(3 1.543158275e-15 0)
(3 -6.782987417e-16 0)
(3 -4.941291155e-16 0)
(3 2.250929744e-15 0)
(3 2.959620991e-15 0)
(3 4.282479616e-15 0)
(3 -1.570977494e-15 0)
(3 -4.872628187e-15 0)
(3 -2.188988911e-15 0)
(3 5.275345369e-16 0)
(3 9.534781105e-16 0)
(3 7.966416099e-16 0)
(3 1.329733059e-15 0)
(3 -2.949817482e-15 0)
(3 9.933753213e-17 0)
(3 2.121936966e-15 0)
(3 1.502574247e-15 0)
(3 -1.23885885e-15 0)
(3 -7.129182564e-16 0)
(3 -1.17806101e-15 0)
(3 4.99937087e-15 0)
(3 6.318627942e-15 0)
(3 4.795994552e-15 0)
(3 -3.495995833e-16 0)
(3 -3.117159529e-15 0)
(3 -6.083013699e-15 0)
(3 -6.110080346e-15 0)
(3 -7.315078767e-15 0)
(3 -1.17198613e-14 0)
(3 -1.025110254e-14 0)
(3 -8.454211646e-15 0)
(3 -9.661051028e-15 0)
(3 -8.866390521e-15 0)
(3 -6.280472493e-15 0)
(3 -6.864332628e-15 0)
(3 -6.344943966e-15 0)
(3 -2.93331833e-15 0)
(3 5.757433521e-16 0)
(3 4.428965688e-15 0)
(3 8.102040487e-15 0)
(3 6.31618037e-15 0)
(3 2.660775643e-15 0)
(3 2.947334507e-15 0)
(3 2.699168692e-15 0)
(3 2.316067898e-15 0)
(3 3.778299977e-15 0)
(3 2.633235439e-15 0)
(3 -5.592367925e-16 0)
(3 -2.757413048e-15 0)
(3 -1.915244302e-15 0)
(3 -4.517407021e-15 0)
(3 -7.18877707e-15 0)
(3 -4.901558789e-15 0)
(3 -3.146419367e-15 0)
(3 -8.418190416e-15 0)
(3 -6.515574123e-15 0)
(3 -3.883953471e-15 0)
(3 -4.556081511e-15 0)
(3 -8.240528278e-15 0)
(3 -8.626786252e-15 0)
(3 -1.074567367e-14 0)
(3 -6.954958684e-15 0)
(3 -6.593121402e-15 0)
(3 -6.190759783e-15 0)
(3 -4.410933426e-15 0)
(3 -2.623251647e-15 0)
(3 -5.700904095e-15 0)
(3 -4.700093646e-15 0)
(3 -8.694948837e-16 0)
(3 -4.042958298e-16 0)
(3 -2.879194487e-15 0)
(3 -3.170321739e-15 0)
(3 -2.441540154e-15 0)
(3 -2.092834941e-15 0)
(3 -4.994403937e-15 0)
(3 -2.520891688e-15 0)
(3 2.940311123e-15 0)
(3 2.593581767e-15 0)
(3 2.892747476e-15 0)
(3 3.166846451e-15 0)
(3 5.384387502e-15 0)
(3 -4.024675146e-16 0)
(3 -8.017220158e-16 0)
(3 2.203023104e-15 0)
(3 3.387131705e-15 0)
(3 3.338968355e-16 0)
(3 -3.757562916e-17 0)
(3 1.439019833e-15 0)
(3 -8.384653322e-16 0)
(3 -2.646023881e-15 0)
(3 -1.200220413e-15 0)
(3 -1.108402188e-15 0)
(3 3.75763378e-17 0)
(3 2.833504518e-16 0)
(3 1.361874868e-15 0)
(3 4.844491554e-15 0)
(3 6.522908363e-15 0)
(3 4.352350824e-15 0)
(3 -2.168954823e-16 0)
(3 -3.843998718e-15 0)
(3 -3.425195133e-15 0)
(3 -3.886450948e-15 0)
(3 -7.831463993e-16 0)
(3 2.418111293e-15 0)
(3 6.145596149e-15 0)
(3 5.045528453e-15 0)
(3 -1.790695187e-15 0)
(3 -1.022672411e-14 0)
(3 -9.667009441e-15 0)
(3 -5.012427111e-15 0)
(3 -1.368675982e-15 0)
(3 2.714907554e-15 0)
(3 2.878242742e-15 0)
(3 3.281286953e-16 0)
(3 5.485568339e-15 0)
(3 3.297013998e-15 0)
(3 -1.851208004e-15 0)
(3 -7.051245387e-16 0)
(3 1.260960074e-15 0)
(3 -1.694130086e-15 0)
(3 -1.342971001e-15 0)
(3 -3.322557471e-15 0)
(3 -5.404881097e-15 0)
(3 -5.351622389e-15 0)
(3 -5.461873351e-15 0)
(3 -1.871035173e-15 0)
(3 -3.225020519e-15 0)
(3 -6.149091784e-15 0)
(3 -7.659933526e-15 0)
(3 -6.653126698e-15 0)
(3 -4.64617095e-15 0)
(3 -3.101914657e-15 0)
(3 -4.356912462e-15 0)
(3 -4.412556159e-15 0)
(3 -5.349206675e-15 0)
(3 -1.161166933e-15 0)
(3 2.160300511e-15 0)
(3 3.153395744e-15 0)
(3 4.679241087e-15 0)
(3 7.234543192e-15 0)
(3 5.223578901e-15 0)
(3 4.273709213e-15 0)
(3 3.487031725e-15 0)
(3 3.979019564e-15 0)
(3 2.714953242e-15 0)
(3 2.196248461e-15 0)
(3 -1.732156955e-15 0)
(3 -4.627442166e-15 0)
(3 -5.153170463e-15 0)
(3 -4.217275822e-15 0)
(3 -6.489024944e-15 0)
(3 -5.021114875e-15 0)
(3 -2.767200327e-15 0)
(3 -2.328970091e-15 0)
(3 -2.528187367e-15 0)
(3 -3.54729109e-15 0)
(3 -5.573974513e-15 0)
(3 -6.920252064e-15 0)
(3 -7.936833964e-15 0)
(3 -8.851137556e-15 0)
(3 -9.741808989e-15 0)
(3 -9.192090766e-15 0)
(3 -1.091985053e-14 0)
(3 -1.228275725e-14 0)
(3 -7.578406301e-15 0)
(3 -5.428861184e-15 0)
(3 -4.735083185e-15 0)
(3 -1.006660611e-15 0)
(3 -3.199145302e-16 0)
(3 -3.681264149e-17 0)
(3 -3.99424729e-16 0)
(3 -8.335053257e-16 0)
(3 -3.362383969e-15 0)
(3 -3.013359212e-15 0)
(3 -1.474030479e-15 0)
(3 4.102844301e-15 0)
(3 8.653052499e-15 0)
(3 1.094486411e-14 0)
(3 8.69520452e-15 0)
(3 3.256106625e-15 0)
(3 3.58804242e-15 0)
(3 2.894411931e-15 0)
(3 3.181573668e-15 0)
(3 3.12466902e-15 0)
(3 3.419973377e-15 0)
(3 3.635031067e-15 0)
(3 1.551213172e-15 0)
(3 5.609846921e-15 0)
(3 5.761228405e-15 0)
(3 5.159669191e-15 0)
(3 -4.488181759e-16 0)
(3 3.440715566e-16 0)
(3 1.947170171e-15 0)
(3 4.363060142e-15 0)
(3 4.191999476e-15 0)
(3 2.66510708e-15 0)
(3 -3.840057205e-16 0)
(3 -1.390142002e-15 0)
(3 -2.7123953e-15 0)
(3 -2.994897058e-15 0)
(3 -2.606971016e-15 0)
(3 -2.071906773e-16 0)
(3 2.993133991e-15 0)
(3 1.662795974e-15 0)
(3 -2.367766179e-16 0)
(3 -2.919156422e-15 0)
(3 -9.716257405e-16 0)
(3 -3.520382226e-15 0)
(3 -3.029248341e-15 0)
(3 -1.499531226e-15 0)
(3 -1.523157604e-15 0)
(3 1.195130072e-15 0)
(3 5.666217954e-16 0)
(3 3.80770691e-15 0)
(3 6.111633343e-15 0)
(3 2.554950387e-15 0)
(3 2.704947852e-16 0)
(3 5.283726276e-15 0)
(3 1.882662045e-15 0)
(3 1.934908112e-15 0)
(3 -2.089753822e-15 0)
(3 -6.681720819e-15 0)
(3 -8.714654011e-15 0)
(3 -5.660415296e-15 0)
(3 -4.246397104e-15 0)
(3 -5.523178664e-15 0)
(3 -9.287702563e-15 0)
(3 -1.144556901e-14 0)
(3 -8.105561531e-15 0)
(3 -5.883581792e-15 0)
(3 -5.958618562e-15 0)
(3 -4.015911039e-15 0)
(3 -4.319489628e-15 0)
(3 -1.81468954e-15 0)
(3 2.759036225e-15 0)
(3 6.970414066e-15 0)
(3 5.482747206e-15 0)
(3 5.815082e-15 0)
(3 6.553847572e-16 0)
(3 -6.67762794e-16 0)
(3 3.32867058e-15 0)
(3 6.002348055e-15 0)
(3 4.299663475e-15 0)
(3 1.061596989e-15 0)
(3 -1.990173441e-15 0)
(3 -3.890290546e-15 0)
(3 -5.044874308e-15 0)
(3 -5.401354466e-15 0)
(3 -5.186584264e-15 0)
(3 -2.0573964e-15 0)
(3 2.175151159e-16 0)
(3 4.690234833e-15 0)
(3 5.083327129e-15 0)
(3 7.086724278e-15 0)
(3 8.519127422e-15 0)
(3 4.460237629e-15 0)
(3 -2.760492996e-15 0)
(3 -3.190370442e-15 0)
(3 -2.296410992e-15 0)
(3 -1.767583845e-15 0)
(3 4.564466694e-16 0)
(3 -2.298637541e-15 0)
(3 -1.61987822e-15 0)
(3 -2.756806647e-15 0)
(3 -1.590663216e-15 0)
(3 -4.52174089e-15 0)
(3 -7.324529046e-15 0)
(3 -8.772723746e-15 0)
(3 -1.1576728e-14 0)
(3 -7.723424425e-16 0)
(3 -2.92999189e-16 0)
(3 -1.221653385e-15 0)
(3 -2.288410363e-15 0)
(3 -3.968878697e-15 0)