/*--------------------------------*- C++ -*----------------------------------*\
  =========                 |
  \\      /  F ield         | OpenFOAM: The Open Source CFD Toolbox
   \\    /   O peration     | Website:  https://openfoam.org
    \\  /    A nd           | Version:  7
     \\/     M anipulation  |
\*---------------------------------------------------------------------------*/
FoamFile
{
    version     2.0;
    format      ascii;
    class       volScalarField;
    location    "2";
    object      p;
}
// * * * * * * * * * * * * * * * * * * * * * * * * * * * * * * * * * * * * * //

dimensions      [1 -1 -2 0 0 0 0];

internalField   nonuniform List<scalar> 
2222
(
1
1
1
4.496751963
10.09833555
10.43271965
10.21445862
10.09451842
9.944101117
9.790493703
9.627017188
9.454545595
9.271674733
9.078991853
8.878414012
8.671690469
8.456743607
8.238171946
8.018546826
7.800184647
7.580808596
7.361551308
7.14089601
6.914784933
6.690037017
6.472698601
6.26687456
6.064651484
5.864861166
5.666944182
5.470728785
5.278901052
5.095211108
4.921077
4.7552815
4.595253558
4.438953996
1
1
4.501588688
10.10224523
10.43249086
10.21327815
10.09323842
9.943304226
9.790289881
9.626400321
9.453016891
9.269578937
9.077170432
8.876766937
8.669902932
8.45636498
8.237677635
8.016614938
7.797056756
7.578765534
7.35952701
7.137274366
6.912153986
6.687537499
6.470187113
6.265846337
6.0633926
5.862975172
5.664911043
5.469026103
5.277651289
5.094057285
4.919644302
4.753604893
4.593700693
4.43786943
1
1
4.513451623
10.10761269
10.43340238
10.21349636
10.09295559
9.943255477
9.790429872
9.625611703
9.450886864
9.266775528
9.074636111
8.874864695
8.667773859
8.455113689
8.237293732
8.015238297
7.793343828
7.57539597
7.358107029
7.136694954
6.911069359
6.687878475
6.471237142
6.264857354
6.061032895
5.860154655
5.662151217
5.466779404
5.275883598
5.092251152
4.917325493
4.750830948
4.59099851
4.435771072
1
1
4.533594272
10.11350805
10.43360443
10.21325028
10.0920259
9.94252203
9.789965101
9.624541133
9.448882676
9.264340709
9.072068734
8.872574163
8.665458212
8.452906528
8.236315602
8.014271093
7.789675934
7.570432415
7.353542032
7.132791703
6.907835393
6.684859497
6.468658209
6.26221515
6.057523464
5.85662247
5.658980516
5.464263097
5.27390647
5.090213798
4.914646141
4.747466562
4.58749517
4.432848419
1
1
4.56085937
10.11937233
10.43235918
10.21194739
10.09011526
9.940506
9.788072323
9.622613815
9.446886156
9.262089989
9.069091198
8.868963315
8.662159825
8.449321728
8.233482866
8.013335209
7.788278496
7.565298827
7.346365851
7.127982099
6.905521531
6.68187988
6.465304665
6.258260753
6.05251219
5.851878873
5.654933956
5.46118176
5.27160862
5.087978973
4.911698925
4.743556213
4.583092573
4.42881773
1
1
4.595084776
10.12523535
10.42999578
10.21031752
10.08851818
9.938677856
9.786235296
9.621149676
9.445688862
9.260435843
9.066116236
8.864342616
8.65761475
8.445260583
8.229322756
8.011011983
7.786377889
7.558209656
7.335843847
7.119989492
6.902515534
6.678455072
6.460129164
6.251935197
6.045123209
5.844909766
5.649131206
5.456843691
5.268463359
5.085241494
4.908528958
4.739494782
4.578240242
4.423818684
1
1
4.636335065
10.13188649
10.42722853
10.20909152
10.08787541
9.937781957
9.78504686
9.620303533
9.444714361
9.258404378
9.06243564
8.858596719
8.651247401
8.43991396
8.223148065
8.004991129
7.78189155
7.551511362
7.326629223
7.110899478
6.898327244
6.675478694
6.455116399
6.244532751
6.036177281
5.835650939
5.640952642
5.450532865
5.263961343
5.081780851
4.905028856
4.735111171
4.572787712
4.417904574
1
1
4.683437377
10.13985868
10.42326009
10.2071208
10.08766764
9.93765863
9.784332919
9.619178464
9.443107656
9.255669683
9.058377597
8.852934238
8.643973355
8.435293131
8.219638299
7.997432437
7.773933158
7.543691906
7.316193595
7.099610854
6.891084209
6.671615477
6.45093422
6.237282862
6.026784014
5.825052916
5.630789769
5.442093054
5.257647046
5.077102881
4.900865804
4.730426381
4.567149947
4.41151078
1
1
4.73482631
10.15296634
10.42144197
10.20706307
10.08957865
9.93926893
9.785052655
9.617967697
9.438811057
9.247755502
9.047427672
8.839833968
8.628272876
8.421971109
8.211489433
7.990529493
7.765696926
7.537085354
7.306725153
7.08803717
6.881076183
6.665983507
6.446375484
6.230393746
6.017502551
5.814279906
5.619990319
5.432477624
5.249729233
5.07053968
4.894899899
4.724316307
4.560324055
4.403923765
1
1
4.790674786
10.16603143
10.41806346
10.20655956
10.09088153
9.939964619
9.785075137
9.616097256
9.43500008
9.242870672
9.042469778
8.836670048
8.625892211
8.414541769
8.203088278
7.982023298
7.75329447
7.528012264
7.297591278
7.077498753
6.870005567
6.657754575
6.439609189
6.222741915
6.008753699
5.804308093
5.609415379
5.422473065
5.241037035
5.063046622
4.888010815
4.717344467
4.553105898
4.396792238
1
1
4.852555005
10.18203025
10.41595118
10.20734716
10.09249345
9.940266313
9.784004239
9.612445454
9.429624003
9.236598433
9.035620135
8.829589638
8.617696893
8.401382504
8.189515376
7.97356356
7.744071688
7.517994614
7.288396594
7.067338364
6.85875719
6.647917212
6.429965558
6.212699956
5.999424289
5.794816827
5.599793088
5.412782231
5.23106752
5.053099265
4.87849239
4.708379861
4.544656947
4.388629941
1
1
4.920921701
10.19836293
10.4119118
10.20621262
10.09134561
9.937867189
9.780749915
9.607657948
9.424448011
9.23137326
9.030262425
8.823181675
8.610054647
8.390159352
8.174077347
7.962121681
7.737996684
7.507298211
7.278026715
7.056561385
6.848058375
6.63564846
6.417103139
6.200668224
5.989131303
5.785032009
5.589699337
5.402352583
5.2205156
5.042652031
4.868334984
4.698769436
4.535651324
4.380091294
1
1
4.995926652
10.21624384
10.4093905
10.20641682
10.09022916
9.935433486
9.777403612
9.603267784
9.42021302
9.227340799
9.026207357
8.816883596
8.600913891
8.380238829
8.158356498
7.945052643
7.730155494
7.496432182
7.265342309
7.042872607
6.833908796
6.620063209
6.401717443
6.187582132
5.978671224
5.775730613
5.580125887
5.391552671
5.208771766
5.030763056
4.857047253
4.688406373
4.526061016
4.371013188
1
1
5.080213765
10.23227028
10.40632463
10.20621935
10.08839586
9.933138549
9.774307451
9.59915115
9.416479313
9.224226843
9.022224686
8.809769982
8.589258009
8.369684101
8.14473712
7.927028599
7.716739354
7.487571639
7.251440205
7.02730262
6.818407608
6.603516133
6.386236025
6.174290855
5.965975926
5.763358169
5.567618893
5.37852614
5.195455426
5.017768474
4.845002201
4.677402395
4.515765853
4.36105774
1
1
5.175055645
10.24569596
10.40272855
10.20645599
10.08761245
9.932749511
9.77258047
9.595571588
9.411887593
9.219800342
9.015780724
8.801928687
8.57771435
8.357173865
8.135356378
7.910068837
7.696831312
7.48040125
7.238735209
7.006781838
6.79763348
6.585701811
6.371085193
6.160822411
5.95283227
5.749823448
5.553260026
5.363715017
5.180897273
5.004076669
4.832434851
4.665773784
4.504604258
4.349922379
1
1
5.280009406
10.25624082
10.39847159
10.20654329
10.08801159
9.935158049
9.773463989
9.593215398
9.405424376
9.211666279
9.005327762
8.791327802
8.565469186
8.337451049
8.123796686
7.900321748
7.670738026
7.466218351
7.230833181
6.986293042
6.772743071
6.564568636
6.353867314
6.145256521
5.937554725
5.734132527
5.536940051
5.347325032
5.165190391
4.989559705
4.819125737
4.653370531
4.49264767
4.337902589
1
1
5.394015377
10.26552253
10.39461231
10.20824376
10.09142316
9.940772817
9.777021653
9.592056676
9.397664066
9.199925669
8.991287132
8.77690649
8.555776811
8.321865078
8.098562232
7.889862372
7.659320605
7.441045934
7.221731903
6.970875774
6.750290471
6.543800333
6.33510569
6.12700598
5.92004129
5.716821988
5.519611006
5.330298609
5.148941789
4.974350881
4.804942287
4.640069098
4.479921582
4.325318009
1
1
5.515047039
10.27350643
10.39109784
10.21115845
10.09661435
9.946161938
9.778433166
9.589860195
9.38987656
9.187748282
8.978645623
8.763297945
8.54284737
8.3144649
8.074152989
7.862391225
7.641729023
7.409909323
7.204830167
6.971463942
6.73089811
6.518041199
6.314228622
6.106659305
5.900848664
5.698541881
5.501980851
5.313213451
5.132357364
4.958153517
4.789155811
4.624886496
4.465566286
4.31173758
1
1
5.642747357
10.28128691
10.38829269
10.21635885
10.10373889
9.948143322
9.775362563
9.584975972
9.382813188
9.176263115
8.964741766
8.750213908
8.528534873
8.301282659
8.052221539
7.819746182
7.632672464
7.402397547
7.164683309
6.94776491
6.715467174
6.497412874
6.288992178
6.082335263
5.878368837
5.677874606
5.482696725
5.29492961
5.114787585
4.941137248
4.772707502
4.609146843
4.450756803
4.297819664
1
1
5.775541937
10.28738099
10.3843983
10.22213514
10.10649141
9.943041022
9.76626262
9.578143875
9.374755497
9.164673663
8.950616851
8.734203799
8.512420286
8.281943612
8.057293262
7.806841902
7.595947385
7.385144683
7.147570929
6.916687698
6.692133992
6.475735885
6.267588839
6.061703812
5.858529238
5.659266308
5.465080978
5.277732389
5.097798458
4.924610401
4.756863809
4.593911483
4.43604711
4.283778831
1
1
5.913623806
10.29339511
10.38227879
10.23032172
10.10787732
9.936086094
9.758542106
9.57112892
9.367831373
9.153498233
8.937510459
8.716082468
8.496322951
8.262442005
8.030997087
7.793215964
7.551508917
7.348199474
7.132656194
6.892777431
6.672146343
6.459094034
6.250555058
6.043149451
5.837834969
5.63740769
5.443753074
5.258245487
5.080816909
4.909976099
4.743791474
4.58117663
4.422495738
4.269388797
0.9999999999
1
6.056911384
10.30348488
10.38239752
10.23996322
10.10576426
9.931171977
9.756091319
9.570861978
9.364148766
9.140371756
8.917737544
8.690127352
8.46655544
8.242129927
8.002084856
7.769185755
7.531528313
7.31275864
7.099943774
6.873832238
6.63943317
6.420999014
6.215868263
6.014560007
5.814216158
5.615947016
5.421933984
5.234980945
5.056253031
4.885121311
4.719723071
4.558282069
4.40043936
4.247373214
0.9999999998
1.000000265
6.201619821
10.31402963
10.38446359
10.24700703
10.10307861
9.930379493
9.759466506
9.57152647
9.361412358
9.129167752
8.893368125
8.672577193
8.452777347
8.220502944
7.970489316
7.720677126
7.491461192
7.27855752
7.069632741
6.842269853
6.612497648
6.395514989
6.186398077
5.981316205
5.781027462
5.585241811
5.39404671
5.208863342
5.031694671
4.862119337
4.698591187
4.539603693
4.384320873
4.233221501
0.9999999995
1.000031667
6.345010145
10.33016601
10.38836282
10.25130182
10.09912681
9.932250188
9.760588017
9.573741917
9.358002582
9.127345123
8.887359886
8.639124985
8.406203348
8.183367688
7.938918108
7.688090306
7.451272722
7.237568448
7.029739747
6.804036268
6.575111109
6.358787853
6.150890543
5.948577413
5.751186362
5.557769267
5.368198424
5.184297279
5.007289975
4.837268977
4.673767454
4.51505282
4.359983485
4.209650911
0.9999999988
1.000991233
6.482935859
10.35272175
10.40136537
10.25754268
10.10361222
9.936772077
9.760079446
9.556625258
9.352974768
9.106478281
8.852904978
8.61098435
8.377385897
8.144795542
7.899021769
7.642395086
7.40126524
7.189406174
6.979276125
6.751910504
6.526543396
6.31278051
6.10635478
5.904748011
5.708766196
5.517314518
5.329953664
5.148222964
4.973744063
4.80651478
4.644972187
4.488476781
4.336402277
4.18839001
0.9999999969
1.009940615
6.60520612
10.39748672
10.40722142
10.26743715
10.11569786
9.94994185
9.737058184
9.536384369
9.320976139
9.086638022
8.826669222
8.561412122
8.318256963
8.089412244
7.846346073
7.584325524
7.342697407
7.138238698
6.93205249
6.706677998
6.4840866
6.270270075
6.06295271
5.863435684
5.670030982
5.481079366
5.296293075
5.117010543
4.944535811
4.778321048
4.618138692
4.462764896
4.311607652
4.165098286
0.9999999923
1.050961083
6.703740877
10.44711164
10.41713388
10.27639975
10.13556737
9.944181471
9.734761438
9.508779227
9.297447525
9.04474352
8.77126467
8.504923419
8.259083448
8.032812384
7.794221677
7.527897174
7.283334982
7.077481216
6.868137154
6.644170114
6.424990126
6.214003501
6.010328516
5.813219486
5.622653778
5.436523906
5.253923588
5.076917126
4.906672726
4.743169266
4.585081571
4.431213191
4.282337509
4.1387582
0.9999999804
1.084458874
6.778965447
10.50217822
10.42992659
10.30086172
10.13623053
9.944259392
9.705476021
9.478439996
9.250956368
9.003716566
8.72728751
8.44706933
8.195901245
7.968732047
7.726347622
7.45847421
7.218415547
7.020685843
6.812005527
6.58853411
6.371436224
6.162462971
5.961111818
5.767934835
5.579895321
5.395208795
5.214673854
5.039351457
4.869750305
4.708060172
4.552587326
4.400748012
4.253468726
4.111901726
0.9999999499
1.094596235
6.842153301
10.57936232
10.47553067
10.30689261
10.14598369
9.925598591
9.689042113
9.430600025
9.187821168
8.929933065
8.64969988
8.365179852
8.117987455
7.903496226
7.663386602
7.388897561
7.149511979
6.951603682
6.741928651
6.52150547
6.308329729
6.103021161
5.904094494
5.714009249
5.530054664
5.347845257
5.169055627
4.995377137
4.828397739
4.668799384
4.515475214
4.367823218
4.223221103
4.083101336
0.9999998718
1.094127304
6.865205685
10.72146958
10.50070452
10.34023012
10.13599672
9.894915714
9.634634902
9.368368196
9.1292701
8.873919107
8.591418164
8.301056995
8.048360302
7.830661105
7.5860199
7.310575255
7.075395099
6.877841663
6.668179106
6.452790691
6.244834405
6.043901862
5.846642595
5.656627585
5.474243272
5.295293206
5.120061793
4.95026413
4.785541305
4.628404137
4.478220894
4.333131723
4.190403657
4.054016315
0.9999996719
1.091243619
6.800693658
10.9172367
10.56821628
10.36154024
10.14676198
9.878655092
9.602961907
9.316084361
9.06465769
8.804426255
8.519898877
8.225711982
7.972101787
7.752152085
7.502761815
7.229538899
7.000533985
6.805740329
6.596775792
6.385440797
6.18178476
5.984635146
5.790409419
5.601991869
5.421393663
5.245847988
5.073221533
4.906622018
4.744216588
4.588985862
4.443031378
4.304895357
4.177985136
4.045128816
0.99999916
1.024689886
6.658517804
11.21507697
10.60483377
10.34538969
10.09492334
9.833253218
9.546253756
9.254963868
8.98730134
8.719063036
8.434660509
8.141872723
7.887231461
7.672631279
7.421332077
7.149633616
6.924813434
6.729398501
6.520928642
6.314068
6.11432964
5.918411219
5.727684414
5.541057941
5.36373822
5.19087928
5.021376805
4.857057389
4.697242402
4.545609371
4.40211381
4.264860974
4.131500487
3.996212763
0.9999978834
1.003848567
6.494533794
11.57674707
10.74275522
10.38987044
10.08874252
9.805488158
9.493205101
9.185606438
8.905997206
8.630827126
8.347836593
8.057526469
7.801379846
7.586367085
7.330691856
7.061222584
6.846348487
6.652292268
6.444105597
6.239457106
6.043899555
5.849209953
5.668350524
5.503406464
5.332139354
5.157401407
4.993424324
4.828333744
4.665079559
4.521742444
4.385370972
4.243661104
4.094651122
3.960808227
0.9999948674
1.008382531
6.416369819
11.9148911
10.79426305
10.35157669
10.07191183
9.789084265
9.449633369
9.121931525
8.826599173
8.544578549
8.258339708
7.962777785
7.70477316
7.492861528
7.238560615
6.970920245
6.768155106
6.570599472
6.368896863
6.163663735
5.976940269
5.786735524
5.59772144
5.423363448
5.251181841
5.084841529
4.922506016
4.761515661
4.610056852
4.463357595
4.322053069
4.185088676
4.050154053
3.924381376
0.9999882241
1.034282511
6.310219569
12.39557005
11.01627485
10.39246546
10.05210455
9.750170405
9.396484678
9.057321025
8.756617288
8.46399217
8.1672814
7.86546997
7.609147892
7.396797548
7.14277728
6.873494086
6.689162262
6.498847098
6.282903085
6.081527676
5.894045736
5.706805306
5.522935021
5.351270303
5.184069002
5.029960844
4.86844576
4.707138085
4.561279324
4.415606525
4.275402787
4.140901254
4.010546409
3.889121601
0.9999746085
1.164060331
5.881625333
12.11852506
11.14892603
10.43861333
10.03923874
9.696276463
9.332587824
8.987343707
8.675556873
8.376599572
8.071569302
7.76214341
7.508943085
7.296712523
7.038038866
6.794925287
6.593068607
6.394873835
6.190009623
6.00437624
5.81935262
5.640188656
5.460269762
5.28361918
5.121727391
4.963832014
4.800668153
4.646890428
4.511126633
4.381703256
4.242689049
4.104844302
3.977751833
3.855391076
0.9999505998
1.604143658
5.446790688
11.38688725
11.18891168
10.48549355
10.0442695
9.649094279
9.273376581
8.915657557
8.589904199
8.277909683
7.963437461
7.661800525
7.420220999
7.209314385
6.937005664
6.681467834
6.4929008
6.306253318
6.101607971
5.912512214
5.734241551
5.554351018
5.377015065
5.210302068
5.068932143
4.907236819
4.743854174
4.599989654
4.463551734
4.325939813
4.189504973
4.059310955
3.944747429
3.829704039
0.999901018
2.451209129
4.973032458
9.93722371
11.03080116
10.55577689
10.04425165
9.602452884
9.209761464
8.837730673
8.493857239
8.165880427
7.864320984
7.543140534
7.300220699
7.087717141
6.826819316
6.580676442
6.403448527
6.204937266
5.999097619
5.821144704
5.654209795
5.475189592
5.302508756
5.149256291
4.990258053
4.827635312
4.684858044
4.556381424
4.421470832
4.280230414
4.145489642
4.022272322
3.902110128
3.77702223
1.002881084
3.497249303
4.866201373
8.480397966
10.91729011
10.55909229
10.03338833
9.578911935
9.162210069
8.751798073
8.400968318
8.061151923
7.742561468
7.43536594
7.193610375
6.980176602
6.718900163
6.481299896
6.309361704
6.106511506
5.904319874
5.735516769
5.567392352
5.388666016
5.228614127
5.080449441
4.916906613
4.762607785
4.627116013
4.491209574
4.354805685
4.222146358
4.09734689
3.980043923
3.857600327
3.736054348
1.109079925
4.580101511
5.251061432
6.742940569
10.19300719
10.57522826
10.02750207
9.539805523
9.0955096
8.672163618
8.29155674
7.957360774
7.64092196
7.326773272
7.080172767
6.869452698
6.604198105
6.381789063
6.213314119
6.006938224
5.809579264
5.648337523
5.479062197
5.305594698
5.158549679
5.006859357
4.843790905
4.700299011
4.567182854
4.431864104
4.298591638
4.171957065
4.054592145
3.936497468
3.813681715
3.700370515
1.548648878
5.446627327
5.561621042
5.73488967
8.76378784
10.43138808
10.06145886
9.511146579
9.032558808
8.560761435
8.201473623
7.864435706
7.538903402
7.213178849
6.967298448
6.757778872
6.487125361
6.276817608
6.111572551
5.905181464
5.716927465
5.56060822
5.387515446
5.22430338
5.083852524
4.930435149
4.775986884
4.638723886
4.503467102
4.36903947
4.240303238
4.121481882
4.007479213
3.888361669
3.77050817
3.659751175
2.357935733
5.829955597
5.919705547
5.75892896
7.023788483
9.787263194
9.978673055
9.512615021
8.962584824
8.467148929
8.112935006
7.764183786
7.425327924
7.094671323
6.857394927
6.645286671
6.370729428
6.168441768
6.003409526
5.799320493
5.622498387
5.468689955
5.296820457
5.146448716
5.006937623
4.853280197
4.708630766
4.575158431
4.439144933
4.306493691
4.183559228
4.070087565
3.956413884
3.840229713
3.728538398
3.6189122
3.149578078
5.468701853
5.963606402
5.832283342
6.035649548
8.402777346
9.736615666
9.504005873
8.91146763
8.384144566
8.02300124
7.646574965
7.296532813
6.973320752
6.747796173
6.530915037
6.254484656
6.057611496
5.892058587
5.692287518
5.525512067
5.371366011
5.208133842
5.067753441
4.924717758
4.774732754
4.641977498
4.510278748
4.373555064
4.244731478
4.127285265
4.015139285
3.902299415
3.791697557
3.683923816
3.575436009
4.625162923
5.491041747
5.780799874
5.78188291
5.797889171
6.770826601
9.056821339
9.420648082
8.862057996
8.320649998
7.925864116
7.512633092
7.165113772
6.854842449
6.635542312
6.412652401
6.135989698
5.946768034
5.783192384
5.586213449
5.421889074
5.269160983
5.120794244
4.985478276
4.837843685
4.697277611
4.573410501
4.441153941
4.306833531
4.185122549
4.071460582
3.959682319
3.850174193
3.744156684
3.638014502
3.532127609
5.740551027
5.694094357
5.754752588
5.746189369
5.698507331
5.821418818
7.619502165
9.091156754
8.802694491
8.277599215
7.825959314
7.382235739
7.046899045
6.741011185
6.517793413
6.287793381
6.014838276
5.838298975
5.679283144
5.478817235
5.311588088
5.169480617
5.033417919
4.89303643
4.746111749
4.621562748
4.502791487
4.368955944
4.241141781
4.125721811
4.013295261
3.903279297
3.797382708
3.693409643
3.589239149
3.487416697
6.224880367
6.097272777
5.906725973
5.785394207
5.6975537
5.572683995
6.124116908
8.159142997
8.614656867
8.245002904
7.731661443
7.276104002
6.942002161
6.625472507
6.393463073
6.158533038
5.891253959
5.730243928
5.573877663
5.365603298
5.20336562
5.076384106
4.939408594
4.791442134
4.658792709
4.548724274
4.425809514
4.291940332
4.173995848
4.063619298
3.95428343
3.848936397
3.746120293
3.643280807
3.541209929
3.442457378
6.099519128
6.115668583
6.069351863
5.936152503
5.767568409
5.561163585
5.467459179
6.652196008
8.121306313
8.147650324
7.655676638
7.194395892
6.841378596
6.504225363
6.268093885
6.030904038
5.771942188
5.622821324
5.459263351
5.246324185
5.10426764
4.986207453
4.835835196
4.690876291
4.578754019
4.472544831
4.342712688
4.216206616
4.106862651
3.999151823
3.894283839
3.793200799
3.692075324
3.590737028
3.491477091
3.395879267
5.840214
6.016415838
6.069989635
6.02181173
5.875948057
5.62406106
5.325112735
5.466601592
6.951758384
7.816488044
7.591100277
7.123743674
6.732183461
6.377572616
6.14944396
5.907645697
5.655313153
5.507161231
5.331604284
5.132587894
5.015380731
4.889367386
4.72680606
4.601281766
4.504538894
4.390244925
4.255809311
4.140441127
4.036519079
3.933364204
3.835208008
3.737244591
3.637186207
3.538274439
3.442682802
3.350430894
5.843311121
5.926255373
5.995380242
6.00554184
5.928344781
5.729191735
5.358001113
5.068874814
5.597060995
7.120557024
7.439975669
7.032860333
6.612109915
6.254533342
6.034040955
5.786222554
5.539646681
5.383690209
5.196276871
5.026931277
4.922443585
4.777815682
4.624273856
4.523194734
4.42544697
4.29719419
4.170754293
4.068287684
3.967126468
3.86725241
3.771748268
3.675532241
3.579568787
3.485874681
3.394339944
3.30493536
5.874558882
5.85815404
5.893162343
5.946470674
5.891135691
5.721215413
5.437807783
5.030062087
4.897610087
5.862713956
6.957704946
6.888814321
6.506080779
6.159934979
5.926853438
5.664987393
5.421552755
5.256648525
5.072538169
4.932471374
4.813052148
4.650663709
4.529295153
4.446633328
4.335273567
4.201933097
4.093281743
3.996281943
3.895074382
3.798921099
3.706280375
3.613910516
3.523592931
3.434646001
3.345886746
3.2582421
5.848397728
5.842341933
5.852292896
5.864776609
5.822947772
5.673458609
5.425430381
5.044494713
4.659753439
4.813893544
5.977933985
6.576218248
6.432706284
6.086179981
5.808219103
5.53588983
5.306265623
5.130313786
4.962339268
4.830666938
4.681176968
4.530981681
4.446313413
4.357591029
4.227696788
4.11232447
4.021303414
3.922293436
3.821638844
3.729649816
3.640389521
3.552805062
3.467014754
3.381212123
3.294825945
3.21003572
5.839085036
5.848240463
5.841165714
5.813307036
5.737860598
5.589124066
5.352729582
5.071609259
4.631242318
4.379213246
4.844288873
6.006373174
6.300891132
5.984976067
5.675175342
5.403104829
5.177582083
5.005007034
4.860076362
4.717634278
4.544400144
4.428339002
4.360401579
4.247960763
4.121393187
4.034482764
3.944063826
3.839244302
3.745134042
3.66082866
3.577526901
3.494369305
3.410578748
3.326029335
3.241871831
3.161298548
5.857910704
5.852337529
5.838347237
5.795400841
5.684702691
5.501996869
5.246336164
4.97808205
4.635031126
4.242641002
4.177803207
4.954669856
5.857968603
5.826220191
5.55498068
5.294879208
5.052743292
4.882913751
4.749585466
4.591013022
4.425078642
4.345455131
4.267525725
4.132120151
4.029429949
3.955625247
3.855699348
3.752983411
3.672362836
3.595373095
3.515549671
3.43470701
3.352373229
3.269647487
3.188779684
3.112840833
5.863266736
5.850391007
5.837315792
5.786315367
5.653149819
5.437243947
5.153502129
4.852979727
4.597599872
4.208681443
3.897087382
4.05538103
5.019004121
5.578890873
5.450910788
5.202774131
4.928328926
4.762748863
4.638751574
4.467847547
4.319110477
4.25734448
4.164510444
4.030238707
3.951525236
3.872348541
3.760005533
3.669527759
3.602549671
3.529000844
3.452456849
3.37474164
3.294382386
3.21385387
3.136297796
3.064462077
5.852762108
5.850650815
5.838416546
5.778746343
5.629827155
5.389363465
5.084388256
4.747261182
4.461893032
4.195802971
3.817316369
3.638180988
4.101418456
5.099213202
5.317408467
5.078135178
4.79664928
4.643899577
4.522031642
4.343087066
4.212212284
4.159381518
4.060009678
3.939203732
3.872182592
3.782617902
3.667386449
3.595071227
3.532843266
3.460210049
3.387156784
3.313081091
3.236220755
3.15878993
3.084583793
3.0167079
5.851109962
5.851995281
5.835862945
5.769178714
5.606224824
5.350482365
5.023597238
4.677710693
4.342143056
4.085872764
3.774225843
3.442068134
3.476475449
4.19818132
4.971454336
4.908349232
4.693223538
4.540267425
4.401126765
4.21020211
4.094834204
4.050421393
3.950213696
3.847472685
3.787768715
3.691166916
3.583026429
3.522705622
3.461117414
3.388996892
3.319600511
3.250611214
3.178125087
3.104659541
3.034627561
2.969643855
5.855498682
5.850974563
5.83167826
5.75746917
5.57990461
5.310809393
4.969453308
4.61332559
4.262934599
3.962998856
3.715028249
3.376167506
3.190377187
3.418297255
4.273553845
4.713524076
4.604666885
4.444167675
4.278176512
4.076146346
3.97697028
3.937902818
3.834343658
3.749669764
3.697526295
3.599349892
3.50490701
3.451632036
3.388118371
3.31610379
3.251760766
3.188076425
3.120201722
3.051091446
2.98443203
2.92182218
2.862489076
5.85504844
5.84889613
5.827245912
5.743444922
5.551153593
5.264787407
4.921473591
4.543251983
4.203826628
3.869917977
3.60941603
3.340275651
3.047607476
2.994601641
3.481565472
4.282837836
4.461587932
4.315471911
4.152877445
3.954361186
3.867550421
3.830095816
3.715936763
3.644717083
3.597625634
3.504652673
3.425870208
3.378397369
3.313484992
3.245114392
3.187185251
3.128095352
3.062910775
2.995987332
2.931836221
2.872155064
2.816003955
5.852393891
5.848728993
5.823034094
5.72765599
5.51800664
5.217247295
4.863593752
4.481375654
4.128807372
3.810462104
3.502128731
3.267647695
2.981704494
2.791426442
2.874519575
3.538367298
4.202081917
4.165862696
4.031729091
3.839915677
3.770321956
3.726903619
3.600235095
3.538713026
3.499849118
3.409140534
3.342864468
3.298968676
3.238359807
3.176614037
3.123962571
3.067523854
3.00377561
2.938842427
2.878219586
2.823335956
2.77180778
5.853588094
5.849488939
5.81794017
5.709952333
5.481505887
5.166200672
4.800714303
4.420310622
4.049616739
3.749820006
3.427482699
3.167409376
2.946899124
2.690162459
2.598917765
2.883599827
3.743887217
4.029356257
3.910873108
3.730777934
3.671292497
3.618964667
3.491409863
3.444100541
3.407440661
3.312889092
3.254389455
3.216959793
3.164046198
3.108413122
3.059772299
3.004956417
2.941768453
2.880948203
2.825910382
2.775035465
2.725823946
5.855260595
5.849042637
5.811683697
5.690088005
5.442936731
5.110658591
4.737521973
4.347855802
3.983892141
3.666429428
3.37395172
3.072061177
2.875304474
2.631416423
2.444212231
2.465592297
3.036026055
3.750893861
3.769554205
3.618786499
3.564145593
3.502528534
3.384356703
3.355639519
3.319465486
3.218309755
3.164920426
3.135783061
3.088804919
3.036789946
2.992996502
2.940532098
2.881513484
2.825985999
2.775099206
2.727594626
2.680741629
5.855090679
5.847776748
5.80450185
5.668344981
5.402038435
5.050569705
4.67273398
4.272709616
3.91365548
3.581517681
3.310227176
3.002879987
2.780669702
2.595545613
2.366799392
2.262386664
2.458261468
3.170154845
3.576485025
3.512424143
)
;

boundaryField
{
    inlet
    {
        type            fixedValue;
        value           nonuniform 0();
    }
    outlet
    {
        type            zeroGradient;
    }
    bottom
    {
        type            slip;
    }
    top
    {
        type            slip;
    }
    obstacle
    {
        type            zeroGradient;
    }
    defaultFaces
    {
        type            empty;
    }
    procBoundary3to2
    {
        type            processor;
        value           nonuniform List<scalar> 
39
(
1
1
1
1
1
1
1
1
1
1
1
1
1
1
1
1
1
1
1
1
1
1
1
1
1
1
1
1
1
1
1
1
1
1
1
1
1
1
1
)
;
    }
    procBoundary3to4
    {
        type            processor;
        value           nonuniform List<scalar> 
62
(
4.285949296
4.285423988
4.28411186
4.282176238
4.279154262
4.274875252
4.269577906
4.263108531
4.255434098
4.248437556
4.240338913
4.232190997
4.223461727
4.21359938
4.202362289
4.190127905
4.177450568
4.164161568
4.150629819
4.137083369
4.123187242
4.101122861
4.087640676
4.066480938
4.045927949
4.024613041
4.000465498
3.975748012
3.949534293
3.923529576
3.903505917
3.866593411
3.844741739
3.806784892
3.773209704
3.734440967
3.704787076
3.663987091
3.628240337
3.591137331
3.550286918
3.510199927
3.470419394
3.431239282
3.389821707
3.347153316
3.303998981
3.261775721
3.218946683
3.17449914
3.129889979
3.085730846
3.041377051
2.996791224
2.952924099
2.907742417
2.907742417
2.804893386
2.76127736
2.720125991
2.675714848
2.632318178
)
;
    }
    procBoundary3to8
    {
        type            processor;
        value           nonuniform List<scalar> 
24
(
1
1
0.9999998879
0.999955936
0.9973652812
0.9821224904
1.251342815
3.580780539
5.499193812
5.841177821
5.777566492
5.878168747
5.889979498
5.833771938
5.836972551
5.870136312
5.864922901
5.845475717
5.850672338
5.86051957
5.857122825
5.851110221
5.853704253
5.856036853
)
;
    }
    procBoundary3to9
    {
        type            processor;
        value           nonuniform List<scalar> 
38
(
3.467241081
3.383413315
3.273993988
3.257325661
3.219338901
3.118193985
3.078589953
3.061272276
3.015236554
2.963659993
2.923291129
2.876125725
2.821877731
2.771153146
2.724532943
2.678598004
2.632327469
5.853943468
5.846657039
5.796285463
5.644095246
5.358133344
4.989014984
4.604769942
4.195637681
3.834859653
3.509894462
3.225692232
2.949853569
2.688465174
2.531397011
2.319296608
2.135195054
2.134586365
2.566044265
3.241159713
3.467241081
3.419868089
)
;
    }
}


// ************************************************************************* //
