/*--------------------------------*- C++ -*----------------------------------*\
  =========                 |
  \\      /  F ield         | OpenFOAM: The Open Source CFD Toolbox
   \\    /   O peration     | Website:  https://openfoam.org
    \\  /    A nd           | Version:  7
     \\/     M anipulation  |
\*---------------------------------------------------------------------------*/
FoamFile
{
    version     2.0;
    format      ascii;
    class       volVectorField;
    location    "3.3";
    object      U;
}
// * * * * * * * * * * * * * * * * * * * * * * * * * * * * * * * * * * * * * //

dimensions      [0 1 -1 0 0 0 0];

internalField   nonuniform List<vector> 5((2.984151361 -0.008989965201 0) (2.988075018 -0.0003787307826 0) (2.992246882 -0.007241642534 0) (2.992512795 0.01469579442 0) (3.003331231 0.01044448223 0));

boundaryField
{
    inlet
    {
        type            fixedValue;
        value           nonuniform 0();
    }
    outlet
    {
        type            inletOutlet;
        inletValue      uniform (3 0 0);
        value           nonuniform List<vector> 2((2.988075018 -0.0003787307826 0) (2.992512795 0.01469579442 0));
    }
    bottom
    {
        type            slip;
    }
    top
    {
        type            slip;
    }
    obstacle
    {
        type            slip;
    }
    defaultFaces
    {
        type            empty;
    }
    procBoundary5to4
    {
        type            processor;
        value           nonuniform List<vector> 3((2.987020154 -0.01663282841 0) (2.989242744 -0.02774939052 0) (2.996999435 -0.01692016334 0));
    }
    procBoundary5to11
    {
        type            processor;
        value           nonuniform List<vector> 3((3.000374729 0.03542242348 0) (3.000374729 0.03542242348 0) (3.002436999 0.01541442105 0));
    }
}


// ************************************************************************* //
