/*--------------------------------*- C++ -*----------------------------------*\
  =========                 |
  \\      /  F ield         | OpenFOAM: The Open Source CFD Toolbox
   \\    /   O peration     | Website:  https://openfoam.org
    \\  /    A nd           | Version:  7
     \\/     M anipulation  |
\*---------------------------------------------------------------------------*/
FoamFile
{
    version     2.0;
    format      ascii;
    class       volScalarField;
    location    "1";
    object      T;
}
// * * * * * * * * * * * * * * * * * * * * * * * * * * * * * * * * * * * * * //

dimensions      [0 0 0 1 0 0 0];

internalField   nonuniform List<scalar> 
2222
(
0.8810147274
0.8772333433
0.8744404349
0.8723187779
0.8701742088
0.8671476116
0.9852286851
0.976523966
0.9691120939
0.9644232351
0.9596087184
0.9521344221
0.9448410661
0.940318823
0.9362108901
0.929977904
0.9241631589
0.9207688908
0.9178289386
0.9135495225
0.9091789145
0.9061654719
0.9031635356
0.8987320598
0.8937054022
0.8908464934
0.8885048118
0.8855967698
0.8819138416
0.879781102
0.8778380744
0.8753088325
0.8716668994
0.8689583176
0.8668962356
0.8647953831
0.8618581977
0.9759406612
0.9674596013
0.9601009523
0.9555756132
0.9509513272
0.9436390256
0.9366364187
0.93257797
0.9288655086
0.9230652435
0.9176874155
0.9143702415
0.9113321987
0.9069836132
0.9025690623
0.8995273987
0.896572708
0.8922831792
0.8874083243
0.8846913774
0.882501718
0.8797616951
0.8762615249
0.8742343674
0.8723983441
0.8699869015
0.8664403139
0.863778919
0.861787482
0.8597903997
0.8569797169
0.967194216
0.9587198691
0.9513226548
0.9467976605
0.9422691066
0.9351642271
0.9284300737
0.9244982603
0.9209271962
0.9154578988
0.9102761721
0.9071404024
0.9043419483
0.9002473959
0.8960119872
0.89312086
0.8902836805
0.8860915449
0.88128672
0.8786675804
0.876583392
0.8739850852
0.8706038675
0.868711765
0.8670063419
0.8647048629
0.8612592559
0.8586499313
0.8566812115
0.8547251627
0.8519876441
0.9580524303
0.9496928352
0.9425547136
0.9383538676
0.9340873768
0.9273409229
0.921104666
0.9175750706
0.9142520456
0.9089841766
0.9038580018
0.9005098621
0.8975105138
0.8932201315
0.8888755072
0.8860750474
0.8834161251
0.8793894858
0.8747637964
0.8723191463
0.8703598744
0.8678932505
0.8646618403
0.8628729053
0.8612857524
0.8591140109
0.8557755808
0.8532266652
0.8513156297
0.8493789017
0.8466809055
0.9486456731
0.9405512327
0.9337083693
0.929685654
0.9256027416
0.9190916839
0.9128446426
0.9092604839
0.906073813
0.9010134558
0.8961142285
0.8930588544
0.8902564516
0.8860745958
0.881996808
0.8795070284
0.877102742
0.8733988229
0.8691127023
0.8667845984
0.8648869884
0.8625039396
0.8593516161
0.8575169737
0.8558949203
0.8536920582
0.8503558815
0.8478419631
0.8459849799
0.8440873176
0.8414795125
0.9394068585
0.9316692347
0.9253543326
0.9218458507
0.9181330199
0.9120059847
0.90611251
0.9025263487
0.899269414
0.8941737093
0.8893342244
0.8862618307
0.8834942905
0.8794623965
0.8755163276
0.8731019689
0.8708092885
0.8672639779
0.8630977199
0.8608556873
0.8590195617
0.8566437407
0.8534904417
0.8517248102
0.8501851921
0.8480494237
0.8448101638
0.8424427282
0.8406973255
0.8389132386
0.8364631642
0.9299741493
0.9228042561
0.916829093
0.9132759409
0.9095396796
0.9034613773
0.8974970249
0.8941605998
0.8912524164
0.8864432379
0.881959751
0.8791715381
0.8765345198
0.8725857127
0.8687845993
0.8665084375
0.8643337928
0.8608608001
0.8568025033
0.8547138284
0.8529971757
0.8506924226
0.847627724
0.8459645343
0.8445270414
0.8424622899
0.8393150336
0.8371089579
0.8354984105
0.8338444101
0.8315385224
0.9211122985
0.9143196976
0.9088007629
0.9055597658
0.9019239892
0.8955506536
0.8894492121
0.886160718
0.8833752406
0.8787815715
0.8746179632
0.8721161615
0.8697206748
0.8660546475
0.8624032763
0.8600961754
0.8579602257
0.8545488197
0.8506335447
0.8486828456
0.8470564216
0.8447875639
0.8417938778
0.8402079689
0.8388286676
0.8368343233
0.8338579194
0.8317455658
0.8301647824
0.8285144867
0.8262465647
0.9116148328
0.905109969
0.8996532972
0.8965138282
0.8931514003
0.8871089437
0.8815132052
0.8787137285
0.8762796407
0.8720304062
0.8682025054
0.8658092094
0.8634472725
0.8598273776
0.8562095203
0.8538681375
0.8517139221
0.848258801
0.8444537715
0.842658216
0.8411226691
0.8388884217
0.8360264264
0.8345404792
0.8332315286
0.8313177614
0.8284660242
0.8264834646
0.8250028649
0.82345003
0.8213692911
0.903810328
0.8975484188
0.8922797901
0.8889483083
0.8853173435
0.8789047337
0.8731755083
0.8705094507
0.8682824612
0.864274714
0.8607710397
0.8586872453
0.8565181295
0.8530039693
0.8493689819
0.8469938754
0.8448960974
0.8414681685
0.8378116186
0.8363650479
0.83507661
0.8330735073
0.8304612437
0.8291065298
0.8278855715
0.8260820436
0.823416229
0.8215572209
0.8201698988
0.8187153723
0.8167257026
0.8938390313
0.8875170285
0.8825264986
0.8797784728
0.8766565436
0.8706111541
0.8655261887
0.8632243055
0.8611882099
0.8574359366
0.8541338364
0.8521341332
0.8500528916
0.8464939798
0.8428723175
0.8405874917
0.8385789178
0.835250728
0.8319039427
0.8305465137
0.8292902689
0.8273166632
0.8248038573
0.8234881535
0.8223062317
0.820572733
0.8179970599
0.8162575131
0.8149537308
0.8135285441
0.8115571127
0.8860621333
0.8798721083
0.8751275822
0.8723344999
0.8692257767
0.8634142708
0.8586141802
0.8562702563
0.854192828
0.8504276174
0.8472732087
0.845318201
0.843218961
0.8395766875
0.8360387397
0.8338537225
0.8319502105
0.828724949
0.8256051629
0.824516434
0.8234208578
0.8216514423
0.8193954427
0.8180801456
0.8168552137
0.8150236208
0.8123610146
0.8106563224
0.8094690979
0.808140772
0.8063020422
0.8765996299
0.8706635863
0.8664541515
0.8640697002
0.8611186543
0.8552522201
0.8507009404
0.8486274659
0.8466841216
0.8430743547
0.8401366248
0.8383586427
0.8363878428
0.8327442092
0.8295317144
0.8277607362
0.8261255495
0.8233008726
0.8206168455
0.8194648951
0.8183401464
0.8165618337
0.8142934476
0.8128265087
0.8114582151
0.8094741725
0.8068381467
0.8053757316
0.8043220015
0.8030115783
0.8011088742
0.8673190157
0.8614560056
0.8575618307
0.8554696944
0.8528080523
0.8472969285
0.8431894409
0.8411992889
0.839264463
0.8355164368
0.8327007538
0.831117533
0.8292527748
0.825663631
0.8226065486
0.8209580958
0.8194523857
0.8167169988
0.8139811144
0.8129873071
0.8119776422
0.8102881018
0.8081675132
0.8069395338
0.805745916
0.8037346585
0.8010007841
0.7999483383
0.7992400777
0.7982124745
0.7967100243
0.8589527608
0.8538553365
0.8504531906
0.848287408
0.8454628647
0.8399430021
0.8361404329
0.834237518
0.8322330579
0.8284155521
0.825864786
0.8243131053
0.822422201
0.8188881486
0.8163524487
0.8150382057
0.813641991
0.8110342474
0.8085335813
0.8074655431
0.8064926749
0.8048218319
0.8026843459
0.801502432
0.8003723159
0.7982632373
0.7956958073
0.7948658202
0.7942850637
0.7934410387
0.7919926031
0.8500052483
0.8448782317
0.8416162895
0.8396533641
0.8369425523
0.8315361424
0.8282191541
0.8266468279
0.8248514407
0.821152564
0.8190114181
0.8177440358
0.8159675215
0.812522924
0.81006739
0.8088834761
0.8076379686
0.8051694833
0.8026899254
0.8015298685
0.8004379696
0.7986584641
0.7967107707
0.7956869345
0.7946030006
0.7925787946
0.7903086545
0.7896297659
0.7891352068
0.7881317932
0.7867431855
0.8410040009
0.8362929693
0.8332488725
0.8312788209
0.8284913668
0.8230530192
0.820319965
0.8190485602
0.8173508149
0.8137644781
0.8119099825
0.8108713363
0.8092145969
0.8058375063
0.8039490589
0.8029228537
0.8016706358
0.7990819693
0.7967414792
0.7958516252
0.7949758706
0.7933900485
0.7915118111
0.7904039531
0.7893630933
0.7875256483
0.7855168515
0.7844315201
0.7837361445
0.7824014271
0.7812694142
0.8329546016
0.8285087708
0.8256301735
0.8236466933
0.8206652618
0.815247314
0.8130068581
0.8119885339
0.8104376241
0.807060778
0.8055521413
0.8045732863
0.8028075964
0.7996704145
0.7976916759
0.7966033223
0.7954035579
0.7927118074
0.7907781584
0.7899472174
0.7889204625
0.7870373543
0.7851032911
0.7842664762
0.7834480784
0.7820207737
0.7805388063
0.7797644107
0.7789379403
0.7779165988
0.7766556868
0.8242554918
0.8197575788
0.8171862961
0.8154946515
0.8126758243
0.8077859399
0.8059360884
0.8050740473
0.8036233673
0.8005800922
0.7995466035
0.798653371
0.7966609618
0.7930657024
0.7910184764
0.7899538066
0.7887745693
0.7859168437
0.7845172998
0.7841090981
0.7833200473
0.7815359845
0.7796009076
0.7787980566
0.7781735947
0.7770502138
0.7757528233
0.775190761
0.7744151494
0.7729785199
0.7710854637
0.8145036704
0.8095623278
0.8078724623
0.8065618401
0.8040875975
0.7999199368
0.7978422285
0.7969396477
0.7954168118
0.7926920428
0.7921586521
0.7915041055
0.7896726688
0.7869067663
0.7851335875
0.7840375122
0.7827668922
0.7800807615
0.7790297925
0.7787729702
0.778014944
0.7760736543
0.7742665106
0.7735274231
0.7728335237
0.7715459331
0.7703123014
0.7694683116
0.7682813877
0.7657494163
0.7660444247
0.8052304328
0.8002480906
0.7996241615
0.7988990777
0.7968791356
0.7930605542
0.7907488801
0.7896902013
0.7879943986
0.7859189999
0.7858009878
0.7854868559
0.7838358391
0.7808085395
0.7785111945
0.7772542211
0.7759305696
0.7736654438
0.7730235258
0.7728747863
0.7721494827
0.7703765273
0.7686708641
0.7675462182
0.7667262577
0.7650971018
0.764084385
0.7634346266
0.7633330762
0.7653768939
0.7836232459
0.7960316441
0.7914852958
0.7912516224
0.7907704696
0.7889349273
0.7857140212
0.7839591735
0.7825757152
0.7799268938
0.7778759687
0.7777672564
0.7774565209
0.775894975
0.7731108127
0.7712872251
0.7704066667
0.7693010715
0.7674352153
0.7670003601
0.7670578404
0.7665436234
0.7649387185
0.7632218416
0.7620199099
0.761113894
0.7593376469
0.758835031
0.7597915763
0.7697955734
0.8340929353
0.9274262639
0.7864978325
0.7823269631
0.7820860685
0.7818817177
0.7807125223
0.7785784177
0.7770028884
0.7752555673
0.7726479018
0.7712957645
0.7713656468
0.7711507582
0.770012545
0.7678696467
0.7657934958
0.7642053034
0.7624748991
0.7608016061
0.7606642506
0.7606855825
0.7601576794
0.7588164602
0.7574387612
0.7564333018
0.7547787718
0.7546028841
0.7596859353
0.7956086697
0.8861248137
0.9885789485
1.049976412
0.7776703509
0.773908423
0.773253085
0.7730645354
0.772083134
0.7700971937
0.7690523953
0.7677377769
0.7652634374
0.7630579086
0.7628810771
0.7626471559
0.7616664321
0.7597756115
0.7587581552
0.7579462067
0.7566220712
0.7552713089
0.7552386581
0.7554315911
0.7550421695
0.7535235362
0.7516079268
0.7510597867
0.7526535992
0.7741303497
0.8613535839
0.950809794
1.020775994
1.037020778
1.061113595
0.7692475577
0.7657198465
0.7649710198
0.7646606005
0.7634743578
0.7619784386
0.7615254066
0.7604836594
0.7581226008
0.7565723169
0.7564225094
0.7562581136
0.7555061371
0.7542739752
0.7533346931
0.7521042538
0.7501520657
0.7488779882
0.7486811326
0.7486642617
0.747897368
0.7465655429
0.7468546841
0.7595618013
0.8306884488
0.9265217769
0.9943221442
1.043408171
1.063166024
1.056925561
1.059426971
0.7604467601
0.7574153986
0.756610129
0.7563525203
0.7550377175
0.7539116707
0.7535390614
0.7528290881
0.7513848612
0.7496123134
0.748831757
0.7484591668
0.7477175664
0.746668359
0.7461718273
0.7455020451
0.7443553352
0.743416946
0.7431568749
0.743073353
0.7427976304
0.7482931678
0.7923409941
0.9008807507
0.9900340323
1.047213361
1.052233306
1.060717394
1.069214466
1.068748683
1.065234207
0.75060033
0.7481033168
0.7470201008
0.7465287205
0.7454265991
0.7450827268
0.7451873384
0.7447841924
0.7433416411
0.7419757631
0.7420013941
0.7419609109
0.7413381001
0.7407632463
0.7405271112
0.739754085
0.7382844221
0.7367694831
0.736770173
0.7392395828
0.7643937184
0.8655380969
0.9747357782
1.033892494
1.052492118
1.066660137
1.068241921
1.070055645
1.072959313
1.073613948
1.072721665
0.7412230659
0.739181509
0.7383203669
0.7380085464
0.7374798078
0.7370154214
0.7369799593
0.7368666951
0.7365305296
0.7361262855
0.7355367751
0.7347071955
0.7339266983
0.7336797778
0.7335604837
0.7332518893
0.7319809906
0.732319488
0.7474142211
0.8328518476
0.939612033
1.008164434
1.057118212
1.06901154
1.070164076
1.076369048
1.078330539
1.077458486
1.078100463
1.079360884
1.079597047
0.7325033642
0.7313991186
0.7312311739
0.7308098732
0.729968354
0.7297787868
0.7302577595
0.7302902688
0.7297083216
0.7290194887
0.7290611565
0.7292043922
0.7287652056
0.7283535469
0.7283979632
0.7281485391
0.731111806
0.7890437947
0.9107423866
1.017992631
1.065715854
1.069506814
1.077579581
1.084595643
1.082842031
1.083623113
1.083938209
1.083863867
1.084341016
1.085390649
1.086501543
0.7246604167
0.7245389814
0.7241688344
0.7231841104
0.7230313496
0.7235698063
0.7236248826
0.7235755633
0.7238419767
0.7244589969
0.7247586517
0.7240957858
0.7215288675
0.7204043319
0.7202547223
0.7301085334
0.8686447068
1.027014554
1.051678365
1.069627413
1.095161512
1.09263418
1.089628089
1.090852396
1.090764115
1.091022349
1.091495613
1.091404628
1.09115498
1.091883387
1.093134544
0.7193841627
0.7192112086
0.718806646
0.717922259
0.7178550129
0.718186032
0.7185013687
0.7186672089
0.7191539003
0.7189291551
0.7187446679
0.7189986811
0.7177987621
0.7190887557
0.7183787785
0.7173760484
0.849407568
1.035925326
1.096269264
1.106545491
1.086010283
1.095220731
1.099430169
1.096316161
1.094533441
1.095038429
1.09472974
1.094844654
1.094987541
1.094698284
1.094800699
1.096093629
0.7172790437
0.7169648795
0.7166139963
0.7160138071
0.7162452198
0.7165900678
0.7168368023
0.7171166401
0.7173792164
0.7167415723
0.7163292814
0.7173042703
0.7166689893
0.7179519175
0.7174211725
0.7243490347
0.9694215093
1.057196007
1.089352977
1.105078974
1.086216644
1.096331908
1.098803498
1.096268574
1.095087204
1.095723971
1.095132145
1.095143711
1.095290028
1.095089967
1.095121959
1.096024464
0.7153050771
0.7155618583
0.7150423327
0.7147399928
0.715089259
0.715435862
0.7154779135
0.7157527353
0.7153865513
0.7160187036
0.7157376839
0.7160175805
0.7160228878
0.7165315637
0.7160085624
0.7972976773
1.030986531
1.061623952
1.082839457
1.101631042
1.08495036
1.094014194
1.096889531
1.095218057
1.0941178
1.094825601
1.09484339
1.095221778
1.095730499
1.095544892
1.09505279
1.095717044
0.7141766931
0.7143493159
0.7137452273
0.7135235905
0.7139505219
0.7140312036
0.7139062791
0.7149248991
0.7146296323
0.715326668
0.7154134185
0.7141324142
0.7148402227
0.7150124926
0.7161270981
0.9283062645
1.076423524
1.065693826
1.079364258
1.097335926
1.083207752
1.090464155
1.093839644
1.093148489
1.092004404
1.092853591
1.093399219
1.094191109
1.095310854
1.095808646
1.095466029
1.095710682
0.7130296039
0.712808027
0.7119467946
0.7117649526
0.7123102757
0.7125794215
0.713091606
0.7141585683
0.7140431862
0.7145171434
0.7146398218
0.7126677069
0.7140344067
0.7140280676
0.7704543905
1.017617728
1.083452283
1.071040183
1.078092792
1.093731747
1.081983202
1.086797033
1.090514816
1.09081331
1.089747879
1.090356325
1.09114863
1.092217833
1.093787832
1.094823819
1.094903745
1.095460214
0.7112566665
0.7102437635
0.709326957
0.7101672332
0.7110497783
0.7112742857
0.7118705809
0.7129500785
0.7131637751
0.7127868473
0.7125647725
0.711282472
0.7128770809
0.712524888
0.8937545051
1.043166527
1.083947704
1.072092194
1.077032475
1.091794883
1.082023162
1.085129096
1.089103267
1.089842357
1.088537089
1.088810431
1.089388831
1.090658391
1.09245817
1.093650017
1.093862543
1.094443868
0.7082377371
0.7075176994
0.7082641195
0.709300243
0.709679873
0.7095494148
0.7101530826
0.7107148871
0.7110810399
0.7101945714
0.7105560434
0.7108842994
0.7114593542
0.7397793459
1.007104361
1.067708093
1.079801169
1.071846973
1.076934151
1.091795717
1.083089745
1.085053289
1.088801525
1.089631035
1.088571047
1.088557034
1.088691884
1.08974171
1.09136326
1.0925429
1.092893741
1.093384097
0.7065755183
0.7065645048
0.7072050324
0.7078530421
0.7078079624
0.7070950382
0.7076506282
0.7081433113
0.7090243412
0.7093795443
0.7098103914
0.7098659453
0.7098109382
0.8577786353
1.060585782
1.084548268
1.079680444
1.072333806
1.077830734
1.092166416
1.084892398
1.085954308
1.089062949
1.089959801
1.089183442
1.088699744
1.088439702
1.089211483
1.0907358
1.092016816
1.092419503
1.092704861
0.7054281314
0.7050317591
0.7054012969
0.7056659872
0.7049536678
0.7047843562
0.7062908989
0.7072375743
0.7083168009
0.7089105296
0.7082209657
0.7081639201
0.7221977345
0.9675319893
1.070768581
1.086728918
1.081873672
1.075015935
1.080261761
1.092557143
1.087072395
1.08723925
1.089770552
1.090657838
1.090068868
1.089380104
1.088920127
1.089414526
1.091006326
1.092514172
1.09279814
1.092775282
0.7042496716
0.7036052238
0.7027085342
0.7027556628
0.7029603359
0.7029769171
0.7040263233
0.705890816
0.7069656786
0.7077143324
0.7080773413
0.7064760898
0.7068613726
0.819563029
1.020517858
1.065435817
1.085439599
1.085684829
1.080647389
1.084035335
1.093196649
1.089654902
1.088169922
1.090240629
1.09166921
1.091312461
1.090338824
1.089965909
1.090553464
1.092173793
1.093194094
1.093205674
1.09282833
0.7019024108
0.70043164
0.6999880956
0.7010212559
0.7020281549
0.7023638468
0.7037562518
0.7055552723
0.7065027523
0.7062645486
0.7057617656
0.7045005436
0.7093558437
0.9626946866
1.068600165
1.068544286
1.081402444
1.087188919
1.084837317
1.086065048
1.093998694
1.091205168
1.088537747
1.090376441
1.091981613
1.09237714
1.091628638
1.091227428
1.091976324
1.093648642
1.094408554
1.094289353
1.093584303
0.6984178773
0.698038735
0.6988958163
0.7004631652
0.7014364992
0.701962415
0.7031941406
0.7045276317
0.7049719805
0.703607576
0.703844759
0.7040276117
0.7846199559
1.031959865
1.084608126
1.079608909
1.081827265
1.08810867
1.086175424
1.087049103
1.094008448
1.091992813
1.089222881
1.090635385
1.092062498
1.09259372
1.092397468
1.092655462
1.093469455
1.095029851
1.095756464
1.095687858
1.095114039
0.6970121743
0.6973031072
0.6984545986
0.6999558695
0.7005837751
0.701079113
0.7016529816
0.7020587777
0.7018863661
0.7023779429
0.7031732872
0.7028380172
0.9221015771
1.049743232
1.086900099
1.09037976
1.084964301
1.088654742
1.086840101
1.087246279
1.093303572
1.092397921
1.090338151
1.091223544
1.092757684
1.092967103
1.092821453
1.093304998
1.094644228
1.096308525
1.097253241
1.097180056
1.09664659
0.6962849602
0.696756945
0.697865794
0.6988060668
0.6987187591
0.6989333434
0.6985960679
0.699286462
0.7004262946
0.7019552303
0.7015840186
0.7562566837
1.036849005
1.071302272
1.085273788
1.093042529
1.089173334
1.090674657
1.087107879
1.085665072
1.09155215
1.093516395
1.092344197
1.092514445
1.093950614
1.094075316
1.093901625
1.093920135
1.094856795
1.096600033
1.098133127
1.098664994
1.098323491
0.695204022
0.695600887
0.6964229167
0.6961141808
0.6953156212
0.6955588379
0.6966254094
0.6984979026
0.70006517
0.7012021151
0.6996412405
0.884225129
1.064716191
1.089353046
1.085844059
1.092913279
1.09241911
1.09328466
1.088338729
1.085876782
1.092170228
1.096094737
1.094902391
1.094764841
1.095601935
1.095738651
1.095468076
1.095260732
1.095725406
1.097072086
1.098207076
1.099345455
1.099940767
0.6929652026
0.692999362
0.6933064417
0.6926542127
0.6930201906
0.6941622855
0.6961915308
0.6983758899
0.6993765727
0.6993642142
0.7329266871
1.019163368
1.065098417
1.093319033
1.089349023
1.090797363
1.093940872
1.095491846
1.090934619
1.088309263
1.094516958
1.098756372
1.097726855
1.097079873
1.097415315
1.097821707
1.097496663
1.097075691
1.097276921
1.098244928
1.099084317
1.099662214
1.100714265
0.6892087659
0.6896173046
0.6904710451
0.6914550235
0.6924103839
0.6938405902
0.696132151
0.6977697115
0.6973711998
0.6969842398
0.8606284985
1.070409213
1.073848007
1.095290773
1.094137539
1.091198777
1.093949209
1.097101148
1.09376425
1.091700672
1.097307521
1.101541619
1.100692326
1.099196283
1.099238034
1.099903112
1.099642104
1.09914114
1.099203906
1.099929649
1.100775236
1.101033069
0.6868656818
0.6871550987
0.6883639048
0.6896171701
0.6911847746
0.6924008408
0.6937510791
0.6952177552
0.6957850764
0.6950849503
0.7133158417
0.9889525877
1.079847244
1.089687708
1.096376879
1.09687221
1.09378604
1.094750846
1.098475486
1.097196449
1.096111836
1.099770831
1.102511207
1.102161087
1.100364466
1.10072055
1.101724923
1.101818657
1.101371015
1.101280322
1.101900674
1.103013511
1.102990208
0.6858317137
0.6866275598
0.687942431
0.6894805173
0.6908830645
0.691851811
0.692662015
0.6928808926
0.6930616241
0.6941696604
0.8394433955
1.072253844
1.075157098
1.096166516
1.095757798
1.098075504
1.096931691
1.09721934
1.099838251
1.099714649
1.098701576
1.102001443
1.104473591
1.103769547
1.101064599
1.101510828
1.102960931
1.103733879
1.103575005
1.103429433
1.103936157
1.1051991
1.105236435
0.6854748792
0.6864757636
0.6877107833
0.6891098135
0.6895682071
0.6900950458
0.6900722305
0.6906952219
0.6921292162
0.6983160889
0.9632060562
1.087659711
1.082442224
1.099220225
1.096259517
1.098089544
1.100103582
1.099964176
1.101539552
1.101733467
1.100565817
1.103436207
1.106286155
1.105418207
1.102121433
1.102136276
1.103444731
1.104609343
1.105034425
1.105218013
1.105767647
1.107029057
1.107595405
0.684875597
0.6856008934
0.6867024035
0.6875826045
0.6866514698
0.6868891338
0.6879510703
0.6902673428
0.6912800537
0.8131374952
1.047905161
1.087912722
1.090727496
1.101139013
1.098425426
1.098686853
1.10163894
1.10225017
1.103188228
1.103319522
1.101027797
1.103080563
1.106836348
1.106167429
1.103418255
1.103164579
1.104166114
1.105295268
1.105782414
1.106226002
1.107017628
1.108452711
1.109753632
0.6832832487
0.6833236465
0.6842275005
0.6842318264
0.6841452121
0.6855065834
0.687615573
0.6899892027
0.6904263952
0.9573781639
1.093214832
1.084862324
1.097201289
1.102077155
1.100079814
1.100346022
1.102498663
1.103477452
1.104300285
1.10467387
1.101321987
1.102214797
1.106831654
1.10713288
1.105352108
1.104775732
1.105579591
1.106606037
1.106965104
1.107031744
1.107661109
1.109276716
1.111448607
0.6798026651
0.6796967468
0.6807067354
0.681842769
0.6835863306
0.6851875865
0.687421494
0.6882109464
0.7784936131
1.021472655
1.099202363
1.08911583
1.101202918
1.101069747
1.101042036
1.101962394
1.102512548
1.103743877
1.104778266
1.105374592
1.102738314
1.103258093
1.10812641
1.10944772
1.107906804
1.106707864
1.107276667
1.108151784
1.108405407
1.108136674
1.108405688
1.109738703
1.112089049
0.6768968454
0.678201703
0.6795108509
0.6813560276
0.6833804095
0.6846963967
0.6862765942
0.6858854205
0.9456608252
1.074725747
1.098365537
1.09556249
1.103691525
1.100651658
1.101653268
1.103486672
1.10325191
1.103727978
1.105153647
1.105701659
1.103776676
1.104799032
1.109778385
1.111514539
1.110124727
1.108507915
1.10893278
1.109657182
1.109826505
1.109371422
1.109439332
1.110477862
1.112333026
0.676131719
0.6779090458
0.6792699653
0.6810776076
0.6825546697
0.682915117
0.6828287432
0.7569620906
1.039632711
1.102891015
1.093798451
1.100426718
1.105111617
1.101549935
1.102334809
1.10471063
1.104824799
1.104896167
1.105961163
1.106538287
1.104595423
1.105343946
1.110049003
1.112859924
1.111869593
1.110091964
1.110347336
1.110820001
1.110924146
1.110485605
1.110595376
1.111631491
1.113396509
0.6753341891
0.6760296022
0.6777143201
0.6789060563
0.6801129643
0.680273896
0.6808045512
0.6816779413
0.927298564
1.062822628
1.107537401
1.095473533
1.104049054
1.105597162
1.103149061
1.103706367
1.10600096
1.106578126
1.107055343
1.108210787
1.108124943
1.10614747
1.106368288
1.109898771
1.112656556
1.112804303
1.111570833
1.111654314
1.112035678
1.112258937
1.112199369
1.112514557
1.113463151
1.114967046
0.6745790281
0.6754540435
0.676583994
0.6774264045
0.6776401224
0.6775884023
0.6787967562
0.743932821
1.052146448
1.086719186
1.108898813
1.101203134
1.107202394
1.105207433
1.10513588
1.105976112
1.107116194
1.108224532
1.109234613
1.110674816
1.110503652
1.108159306
1.107903466
1.110628084
1.112439648
1.112717992
1.112215195
1.112621029
1.113261598
1.113716965
1.113984133
1.114378054
1.115404166
1.116668404
0.6728773205
0.6737775437
0.6738074773
0.674325672
0.6749777457
0.6771252309
0.6781259922
0.9054003789
1.078325163
1.107828933
1.107790648
1.107317982
1.109517707
1.106238081
1.107687823
1.108583745
1.108419832
1.109739006
1.111306291
1.112984684
1.112802357
1.110715934
1.109230508
1.111122194
1.113099124
1.113200843
1.11269
1.113107659
1.113859792
1.114333038
1.115029184
1.116071354
1.117330922
1.118685333
0.669569397
0.670325546
0.6711331377
0.6727332041
0.674368256
0.676169535
0.7331457676
1.054366419
1.083497062
1.112808247
1.105026956
1.110183931
1.111269404
1.108810959
1.110447719
1.111044731
1.110481779
1.111222353
1.112515614
1.11467356
1.115013062
1.112950005
1.110591768
1.111548496
1.114225783
1.114509646
1.113912321
1.114212466
1.114982751
1.115337364
1.115561817
1.116561466
1.118429149
1.120536055
0.6669181926
0.668839603
0.6707019696
0.6723233703
0.6744278438
0.6745914451
0.8920606546
1.089649735
1.095847772
1.114821442
1.107267313
1.11247248
1.111877076
1.111605631
1.113092081
1.113374458
1.112834373
1.112875825
1.113484856
1.115116296
1.116423645
1.115237697
1.113315341
1.113940207
1.117024255
1.116903394
1.116081717
1.116204931
1.1168862
1.117210136
1.11700611
1.117273233
1.118684647
1.121145799
0.6664280573
0.6684264593
0.6701011969
0.6720201913
0.6731454949
0.7231765711
1.039650632
1.094572167
1.109373518
1.116114075
1.111528711
1.113969175
1.112713574
1.114408849
1.115580519
1.115394616
1.115281293
1.11494489
1.114713266
1.11543435
1.116598365
1.117070403
1.116198768
1.116844802
1.119855698
1.119792017
1.118797414
1.118617914
1.119185442
1.119472624
1.119057179
1.118931295
1.119599179
1.121624828
0.6662411203
0.6676559699
0.6695054228
0.6710186279
0.6704029669
0.8851572963
1.097883397
1.092644036
1.114934594
1.114556379
1.113504774
1.114463634
1.113763444
1.116350125
1.117529819
1.117029947
1.117623889
1.117381625
1.11666557
1.116826329
1.117385115
1.117760006
1.117917138
1.1191965
1.122192927
1.122284108
1.120992615
1.120713135
1.121348859
1.121690694
1.121339525
1.120863579
1.121187925
1.122742844
0.6654276071
0.6668053824
0.6679409703
0.6676907955
0.7110144892
1.024129851
1.107567767
1.10175654
1.118558896
1.113090484
1.115346152
1.114641102
1.114702295
1.117112794
1.118423057
1.118628261
1.119537705
1.120105948
1.119244689
1.119292979
1.119425801
1.118815839
1.118346414
1.119968562
1.123221198
1.123734009
1.122784546
1.122706162
1.12342904
1.123878205
1.123513533
1.123112699
1.123392887
0.6624507646
0.6640306932
0.6646587998
0.6646351817
0.6655645735
0.8815391952
1.101423174
1.102254444
1.110721777
1.121009537
1.115125796
1.117417537
1.116077707
1.116452444
1.117989247
1.118569701
1.119930034
1.12190561
1.122718231
1.122343895
1.122548798
1.122177747
1.121133699
1.11960313
1.120295754
1.122684921
1.124210615
1.124262203
1.124501119
1.125243191
1.126023974
1.126182805
1.125900354
1.126154895
0.6604018913
0.6610678916
0.6613649969
0.6628225544
0.7037808863
1.013729209
1.113822911
1.103889482
1.119179813
1.122269094
1.118075406
1.119334351
1.118165721
1.118877669
1.119143993
1.119046862
1.120677348
1.123748426
1.125214112
1.125118269
1.125432635
1.125349356
1.123974201
1.121344848
1.121011884
1.122366426
1.124822409
1.125761999
1.125971654
1.126493272
1.127255037
1.12842601
1.128556287
1.12877444
0.6573372262
0.6584764782
0.6606519972
0.6622356713
0.8816342426
1.093188268
1.114858669
1.108594152
1.124104945
1.121412836
1.120902094
1.120958247
1.120378477
1.121538467
1.120876377
1.12058542
1.121922351
1.124025259
1.126445049
1.127612551
1.128103355
1.127884569
1.12645366
1.12305349
1.122332928
1.123602266
1.126266362
1.127503759
1.127705032
1.128117692
1.128511509
1.129373145
1.130249201
1.130754801
0.6557513966
0.6580048504
0.6598105327
0.7019371233
1.01134667
1.118733432
1.110967727
1.116417868
1.12710694
1.121952359
1.123582369
1.123114646
1.123316936
1.123971352
1.123007497
1.122642574
1.124060752
1.125022213
1.126366026
1.128651612
1.130164796
1.129828903
1.128404513
1.125934543
1.124870604
1.126100333
1.128515097
1.1297997
1.130171501
1.130430766
1.130508131
1.1307132
1.131112351
1.131854997
0.655435858
0.658029444
0.6585540512
0.8837882424
1.086450623
1.123145025
1.111617471
1.123647996
1.12834885
1.123626649
1.125699251
1.125543406
1.126164941
1.125931129
1.124882626
1.125618158
1.126828667
1.127069089
1.127318399
1.128339911
1.130556059
1.131464484
1.130749575
1.128882434
1.127915134
1.129061422
1.13127196
1.13253164
1.132921177
1.133018023
1.132848558
1.132545981
1.132195842
1.132364877
0.655336359
0.6565635773
0.698711385
1.012599502
1.122467108
1.123601548
1.117020409
1.129017876
1.128052294
1.125236496
1.127041571
1.127081262
1.128019832
1.127706457
1.127646467
1.128841823
1.129654871
1.129490048
1.129270368
1.129455869
1.130352074
1.132143674
1.133167808
1.131932206
1.130911106
1.132033051
1.134329795
1.135237
1.135418929
1.135346244
)
;

boundaryField
{
    inlet
    {
        type            fixedValue;
        value           nonuniform 0();
    }
    outlet
    {
        type            inletOutlet;
        inletValue      nonuniform 0();
        value           nonuniform 0();
    }
    bottom
    {
        type            slip;
    }
    top
    {
        type            slip;
    }
    obstacle
    {
        type            zeroGradient;
    }
    defaultFaces
    {
        type            empty;
    }
    procBoundary10to4
    {
        type            processor;
        value           nonuniform List<scalar> 
32
(
0.8864723137
0.882630691
0.8798524582
0.877733971
0.8755749291
0.8725183735
0.9935762586
0.9846563144
0.977318668
0.9727581528
0.9679726438
0.9604728355
0.9531148984
0.9484728439
0.9442062157
0.9377716928
0.9317788585
0.928309249
0.9251601107
0.9205383194
0.9159793778
0.9127724565
0.9095827696
0.9050430115
0.8999716217
0.897092012
0.8947453805
0.8918179621
0.8881078732
0.885827982
0.8837099513
0.8837099513
)
;
    }
    procBoundary10to5
    {
        type            processor;
        value           uniform 0.8653859605;
    }
    procBoundary10to9
    {
        type            processor;
        value           nonuniform List<scalar> 
55
(
0.9913184446
0.9817491529
0.9729276916
0.9635451205
0.953953406
0.9442985667
0.9345333028
0.925293454
0.9156182547
0.9074570916
0.8975591349
0.8895505855
0.8798448607
0.8705526999
0.8616819258
0.8527186215
0.8432575884
0.835223698
0.8263564648
0.8167344136
0.8084566601
0.7997795993
0.7905167593
0.7816131978
0.7725912287
0.7630462562
0.7525489673