/*--------------------------------*- C++ -*----------------------------------*\
  =========                 |
  \\      /  F ield         | OpenFOAM: The Open Source CFD Toolbox
   \\    /   O peration     | Website:  https://openfoam.org
    \\  /    A nd           | Version:  7
     \\/     M anipulation  |
\*---------------------------------------------------------------------------*/
FoamFile
{
    version     2.0;
    format      ascii;
    class       volScalarField;
    location    "4.4";
    object      T;
}
// * * * * * * * * * * * * * * * * * * * * * * * * * * * * * * * * * * * * * //

dimensions      [0 0 0 1 0 0 0];

internalField   nonuniform List<scalar> 
5000
(
1
1
1
1
1
1
1
1
1
1
1
1
1
1
1
1
1
1
1
1
1
1
1
1
1
1
1
1
1
1
1
1
1
1
1
1
1
1
1
1
1
1
1
1
1
1
1
1
1
1
1
1
1
1
1
1
1
1
1
1
1
1
1
1
1
1
1
1
1
1
1
1
1
1
1
1
1
1
1
1
1
1
1
1
1
1
1
1
1
1
1
1
1
1
1
1
1
1
1
1
1
1
1
1
1
1
1
1
1
1
1
1
1
1
1
1
1
1
1
1
1
1
1
1
1
1
1
1
1
1
1
1
1
1
1
1
1
1
1
1
1
1
1
1
1
1
1
1
1
1
1
1
1
1
1
1
1
1
1
1
1
1
1
1
1
1
1
1
1
1
1
1
1
1
1
1
1
1
1
1
1
1
1
1
1
1
1
1
1
1
1
1
1
1
1
1
1
1
1
1
1
1
1
1
1
1
1
1
1
1
1
1
1
1
1
1
1
1
1
1
1
1
1
1
1
1
1
1
1
1
1
1
1
1
1
1
1
1
1
1
1
1
1
1
1
1
1
1
1
1
1
1
1
1
1
1
1
1
1
1
1
1
1
1
1
1
1
1
1
1
1
1
1
1
1
1
1
1
1
1
1
1
1
1
1
1
1
1
1
1
1
1
1
1
1
1
1
1
1
1
1
1
1
1
1
1
1
1
1
1
1
1
1
1
1
1
1
1
1
1
1
1
1
1
1
1
1
1
1
1
1
1
1
1
1
1
1
1
1
1
1
1
1
1
1
1
1
1
1
1
1
1
1
1
1
1
1
1
1
1
1
1
1
1
1
1
1
1
1
1
1
1
1
1
1
1
1
1
1
1
1
1
1
1
1
1
1
1
1
1
1
1
1
1
1
1
1
1
1
1
1
1
1
1
1
1
1
1
1
1
1
1
1
1
1
1
1
1
1
1
1
1
1
1
1
1
1
1
1
1
1
1
1
1
1
1
1
1
1
1
1
1
1
1
1
1
1
1
1
1
1
1
1
1
1
1
1
1
1
1
1
1
1
1
1
1
1
1
1
1
1
1
1
1
1
1
1
1
1
1
1
1
1
1
1
1
1
1
1
1
1
1
1
1
1
1
1
1
1
1
1
1
1
1
1
1
1
1
1
1
1
1
1
1
1
1
1
1
1
1
1
1
1
1
1
1
1
1
1
1
1
1
1
1
1
1
1
1
1
1
1
1
1
1
1
1
1
1
1
1
1
1
1
1
1
1
1
1
1
1
1
1
1
1
1
1
1
1
1
1
1
1
1
1
1
1
1
1
1
1
1
1
1
1
1
1
1
1
1
1
1
1
1
1
1
1
1
1
1
1
1
1
1
1
1
1
1
1
1
1
1
1
1
1
1
1
1
1
1
1
1
1
1
1
1
1
1
1
1
1
1
1
1
1
1
1
1
1
1
1
1
1
1
1
1
1
1
1
1
1
1
1
1
1
1
1
1
1
1
1
1
1
1
1
1
1
1
1
1
1
1
1
1
1
1
1
1
1
1
1
1
1
1
1
1
1
1
1
1
1
1
1
1
1
1
1
1
1
1
1
1
1
1
1
1
1
1
1
1
1
1
1
1
1
1
1
1
1
1
1
1
1
1
1
1
1
1
1
1
1
1
1
1
1
1
1
1
1
1
1
1
1
1
1
1
1
1
1
1
1
1
1
1
1
1
1
1
1
1
1
1
1
1
1
1
1
1
1
1
1
1
1
1
1
1
1
1
1
1
1
1
1
1
1
1
1
1
1
1
1
1
1
1
1
1
1
1
1
1
1
1
1
1
1
1
1
1
1
1
1
1
1
1
1
1
1
1
1
1
1
1
1
1
1
1
1
1
1
1
1
1
1
1
1
1
1
1
1
1
1
1
1
1
1
1
1
1
1
1
1
1
1
1
1
1
1
1
1
1
1
1
1
1
1
1
1
1
1
1
1
1
1
1
1
1
1
1
1
1
1
1
1
1
1
1
1
1
1
1
1
1
1
1
1
1
1
1
1
1
1
1
1
1
1
1
1
1
1
1
1
1
1
1
1
1
1
1
1
1
1
1
1
1
1
1
1
1
1
1
1
1
1
1
1
1
1
1
1
1
1
1
1
1
1
1
1
1
1
1
1
1
1
1
1
1
1
1
1
1
1
1
1
1
1
1
1
1
1
1
1
1
1
1
1
0.9999999999
1
1
1
1
1
1
1
1
1
1
1
1
1
1
1
1
1
1
1
1
1
1
1
1
0.9999999945
1
1
1
1
1
1
1
1
1
1
1
1
1
1
1
1
1
1
1
1
1
1
1
1.000000002
0.9999998864
1
1
1
1
1
1
1
1
1
1
1
1
1
1
1
1
1
1
1
1
1.000000001
1.000000006
1.000000035
1.000000801
0.9999995067
1
1
1
1
1
1
1
1
1
1
1
1
1
1
1
1
1.000000002
1.000000013
1.000000075
1.00000035
1.000001587
1.000005962
1.000020639
1.000101334
1.000106111
1
1
1
1
1
1
1
1
1
1
1
1.000000001
1.000000005
1.000000033
1.000000168
1.000000718
1.000002768
1.000009353
1.000030987
1.000088528
1.000253185
1.000602202
1.001438056
1.003022005
1.005014374
1
1
1
1
1
1
1
1.000000001
1.00000001
1.000000067
1.00000034
1.000001449
1.000005387
1.000017562
1.000052925
1.000139274
1.000355253
1.000795005
1.001790589
1.003517378
1.006820007
1.011368725
1.018771161
1.02797793
1.037734519
1
1
1
1.000000001
1.000000011
1.000000095
1.00000056
1.000002527
1.000009715
1.000031153
1.000092303
1.000233963
1.000562332
1.00119013
1.002455957
1.004497769
1.008191658
1.013304076
1.021258874
1.030765146
1.042533426
1.054683659
1.06739346
1.079726254
1.089580702
1.000000003
1.000000047
1.000000489
1.000003045
1.000013926
1.00004921
1.000150566
1.00038476
1.000893248
1.001831247
1.003599634
1.006244467
1.010457186
1.016140778
1.023993522
1.033803895
1.046029303
1.058032771
1.069933653
1.082139042
1.090944636
1.099524774
1.105328219
1.111030373
1.114088447
1.000007845
1.000043745
1.000187462
1.000558422
1.001396679
1.002868974
1.005443469
1.00921392
1.014482494
1.021151516
1.030015692
1.039571487
1.050554417
1.062130703
1.0742047
1.087462474
1.098105281
1.105641179
1.112502334
1.116396084
1.118615061
1.122065929
1.12382502
1.124075881
1.123831844
1.001045945
1.003218812
1.007552997
1.013390272
1.020858019
1.028863462
1.038854906
1.048062328
1.056566231
1.066455494
1.075563695
1.082837461
1.089762739
1.096784336
1.102555436
1.106198914
1.109566412
1.114161587
1.118895988
1.121762734
1.12409605
1.123892667
1.124083494
1.123639996
1.123074993
1.015664507
1.033585363
1.051767504
1.069086553
1.084545335
1.099069059
1.110752995
1.12091122
1.130843143
1.138862747
1.142180433
1.145968573
1.149751558
1.150323892
1.149228687
1.146232477
1.14178885
1.137883138
1.134102027
1.130737441
1.127004652
1.12386445
1.121939556
1.120099586
1.11884564
1
1
1
1
1
1
1
1
1
1
1
1.000000004
1.000000177
1.000004212
1.00006375
1.000626358
1.004237452
1.017497894
1.049428196
1.093349308
1.12766113
1.156908504
1.169241372
1.163911304
1.144464769
1
1
1
1
1
1
1
1
1
1
1.000000004
1.000000145
1.000004042
1.000061536
1.000617107
1.003809768
1.015533901
1.038856058
1.064721741
1.087745507
1.11329062
1.129189937
1.146130222
1.145100645
1.134818497
1
1
1
1
1
1
1
1
1
1.000000003
1.000000147
1.000003596
1.000056919
1.000606234
1.003706831
1.015772188
1.037657786
1.062943493
1.077842595
1.084243727
1.093285471
1.105066055
1.11856595
1.129720733
1.122670269
1
1
1
1
1
1
1
1
1.000000003
1.000000102
1.000003427
1.000057013
1.0005621
1.003900178
1.01503113
1.039733898
1.065338444
1.077262938
1.081081186
1.081511411
1.080763903
1.080904337
1.081894217
1.092408216
1.090605419
1
1
1
1
1
1
1
1.000000002
1.000000112
1.000002649
1.000052254
1.000600942
1.003595535
1.016080159
1.039936618
1.063600724
1.081298324
1.08397307
1.083338402
1.079519272
1.071391406
1.058746582
1.050132661
1.051076735
1.057900541
1
1
1
1
1
1
1.000000002
1.00000007
1.000002824
1.000044942
1.000538072
1.003913395
1.015296987
1.040223965
1.069990872
1.077349934
1.082821568
1.084351383
1.081083645
1.071151933
1.057523386
1.041481248
1.024107291
1.016648258
1.021795718
1
1
1
1
1
1.000000001
1.000000071
1.000001803
1.000046488
1.000493671
1.003586469
1.016289866
1.040722715
1.065274226
1.085271846
1.085968143
1.085019829
1.08119013
1.071508846
1.056963255
1.038377688
1.024168494
1.005771877
0.9926746438
0.9879898779
1
1
1
1
1.000000001
1.000000034
1.000001921
1.000031175
1.00050499
1.00345128
1.015540927
1.040773217
1.072084647
1.080525148
1.086249025
1.08661766
1.082414463
1.071630345
1.055435107
1.038925943
1.019698375
1.004395068
0.9894266382
0.9741988878
0.9616499356
1
1
1
1
1.000000032
1.000001002
1.000034907
1.000360818
1.003633223
1.014912887
1.04173252
1.069076254
1.088392194
1.088276738
1.087126031
1.082781168
1.071358105
1.055340216
1.035250434
1.018451867
1.000999907
0.9845303147
0.9712510468
0.9549108137
0.9384468793
1
1
1
1.000000013
1.00000105
1.000019808
1.000418711
1.002765808
1.016027235
1.041467294
1.070685796
1.082830987
1.089899299
1.089552
1.083992966
1.071668821
1.053220093
1.034776511
1.014893724
0.9969463009
0.9817737108
0.9645839907
0.952968004
0.9382424039
0.9277758874
1
1
1.000000006
1.000000436
1.000021602
1.000261296
1.003184377
1.013749954
1.041719984
1.07365931
1.09056248
1.089887749
1.089780985
1.084967886
1.071679269
1.052697759
1.031546332
1.011988417
0.9938238283
0.9750852151
0.9600650276
0.9434586018
0.9307444446
0.9205903411
0.9210761369
1
1.000000003
1.000000253
1.000009895
1.000289597
1.002236397
1.014868621
1.042060653
1.069558527
1.090531305
1.09434453
1.092900936
1.085101533
1.070680945
1.050160132
1.029692638
1.007786221
0.9889647206
0.972025902
0.9538611891
0.941030148
0.9284548726
0.9214767835
0.9178869217
0.9206218379
1
1.000000107
1.000007272
1.0001554
1.002422546
1.012233254
1.041085214
1.079207917
1.088992076
1.093389504
1.093619215
1.087362703
1.070438943
1.049623589
1.025985141
1.004300674
0.9842820478
0.9631919016
0.9478060904
0.9306357533
0.9192710554
0.9151664925
0.9165044742
0.9183206696
0.9372405149
1
1.0000032
1.000130438
1.001573427
1.012698167
1.040601437
1.070905839
1.096557533
1.098071551
1.096237328
1.087421436
1.070519172
1.047175142
1.02183473
0.9999369627
0.9778052865
0.9599455241
0.9416758228
0.9272485623
0.9194564438
0.9135930246
0.9139423077
0.9190134511
0.9329663378
0.9671291776
1.000000037
1.00006595
1.00141685
1.010125542
1.038590741
1.081162202
1.093643189
1.099957892
1.098652854
1.089374391
1.070375167
1.044683718
1.019387652
0.9943076902
0.9706972247
0.9496114842
0.9316269258
0.917157806
0.9103304125
0.9120998221
0.91426175
0.9233904
0.9465457778
0.9685968785
0.9898586463
1.000004226
1.000905164
1.00914643
1.038166506
1.074114575
1.101564089
1.101487156
1.099834991
1.089787414
1.069025785
1.042047724
1.014959067
0.9874544757
0.9659073609
0.9455302423
0.9251942548
0.9163097369
0.9099043766
0.9087884289
0.9125026672
0.9303369954
0.9554874622
0.9769827893
0.9923517146
1.00149613
1.000176564
1.007620282
1.035153755
1.07820668
1.100064925
1.106039537
1.104122782
1.091780677
1.067685427
1.039217352
1.008072633
0.9813746053
0.9555263887
0.9298683378
0.9172047029
0.906238579
0.9068871522
0.909450192
0.9187902544
0.93916533
0.969564032
0.9928449851
0.9983945175
1.002436278
1.004678797
1.003349606
1.033276627
1.079594477
1.10514166
1.10553864
1.104682802
1.093184725
1.06712767
1.034517618
1.003368288
0.9732036648
0.9469998721
0.9276503694
0.9102255976
0.901546304
0.9020774555
0.9064670286
0.9271643706
0.9533293308
0.9800769083
0.9896199468
0.9990277126
1.002325814
1.004264692
1.005483046
1.025980603
1.074641737
1.109665794
1.112851208
1.109493293
1.092630801
1.063704089
1.029756811
0.9926696957
0.9612798573
0.9340611739
0.9094167373
0.9003293084
0.9010789845
0.9020939761
0.9128246909
0.9373473435
0.9679436749
0.9899506836
1.004584677
1.00499183
1.00558303
1.005528448
1.00529115
1.005839906
1.079854505
1.102664867
1.11149189
1.11069593
1.094959203
1.063510103
1.020334279
0.9873477188
0.9548850026
0.9216395946
0.9062151641
0.8911426176
0.8919706132
0.8981169563
0.9182552902
0.9537865416
0.9889745857
0.9981377797
1.002712858
1.008645657
1.009752242
1.009261045
1.008721574
1.008138449
1.008410351
1.115301555
1.118828755
1.114784136
1.095256401
1.057089902
1.015624138
0.9710195268
0.9293200653
0.9095121371
0.8900975419
0.8918508131
0.8927252001
0.9043335685
0.9353533842
0.9735635041
0.9902447369
1.006666581
1.010108326
1.010152026
1.01088244
1.010861025
1.010401749
1.010338791
1.010277509
1.010794656
1.119015062
1.117446603
1.097419533
1.056536308
1.004909601
0.9595128618
0.928248051
0.8971427224
0.8771895393
0.8779931234
0.887485252
0.9156241451
0.9582941462
0.9890977382
1.008890687
1.009989433
1.011276559
1.013160596
1.012686768
1.011930261
1.01100105
1.010839157
1.011113902
1.01172475
1.012390852
1.121986941
1.100402021
1.04840628
0.9890404394
0.9367973138
0.8928221709
0.8787513372
0.8766561082
0.8777509846
0.8926593627
0.9372575436
0.978142619
1.003159294
1.007614155
1.013599182
1.013807343
1.012408143
1.011846202
1.011479918
1.011069703
1.010522485
1.010606658
1.011018668
1.011959184
1.011894345
1.106535611
1.044448008
0.9718459808
0.9091266722
0.8778439088
0.8495650009
0.8505599476
0.8611478083
0.9013522857
0.9603808938
0.9923974335
1.005329695
1.007344158
1.007994427
1.009143761
1.008890179
1.008227442
1.007398751
1.007500023
1.007917752
1.008178674
1.008444853
1.0087104
1.008885725
1.008909724
1.050215911
0.8994446084
0.8438033031
0.829182062
0.8324198598
0.8350384945
0.8561673798
0.9184915498
0.972011567
0.9900850945
0.9940439898
1.000290657
0.9993236527
0.9995353215
1.000811916
1.001394432
1.0011221
1.001189306
1.001653916
1.002403786
1.0031923
1.003908255
1.004311028
1.004452647
1.00498736
0.908347
0.9162647517
0.8538724583
0.8344430723
0.8347414149
0.8434511825
0.8958483027
0.9736914814
0.9952071648
0.9883949695
0.9884167019
0.9932423139
0.992298349
0.9930577752
0.9954902786
0.9961791523
0.9959685781
0.996507606
0.9972805057
0.9980599151
0.9991505697
1.000899762
1.00229102
1.00237113
1.001979965
0.9108872772
0.9161347353
0.862333006
0.838186834
0.8375803774
0.8539869377
0.9189491229
0.9827722015
0.9966070597
0.9912970997
0.9875308254
0.9919613356
0.9905689493
0.9909983263
0.9937181786
0.9945676528
0.9943554063
0.9949902816
0.995904882
0.9965646821
0.9974148908
0.9991930753
1.002018867
1.002972867
1.002808286
0.9169853954
0.9138779775
0.8678389739
0.8421369423
0.8398176658
0.8628974456
0.9320096946
0.9799038503
0.9948467761
0.99341922
0.9887781391
0.9923167576
0.9902033784
0.9892950516
0.9917594209
0.9931085419
0.9932339617
0.9940103752
0.9951142416
0.9957528613
0.9963313008
0.9980001118
1.000061511
1.001913784
1.002984156
0.9204254328
0.9110951568
0.8732823613
0.8459545193
0.8451757264
0.876699474
0.9395559437
0.9768250534
0.9886704802
0.9917671299
0.9883118585
0.9919981995
0.9905454622
0.9893566703
0.9910521248
0.9931872219
0.9941249585
0.9951893205
0.9964847853
0.9974630813
0.997355351
0.9971740722
0.9983474458
0.9996954984
1.001949739
0.9229194785
0.9081417385
0.8776800391
0.8491694752
0.8515761035
0.8934336168
0.9501034595
0.9761572918
0.9843609881
0.9879869283
0.9858139848
0.9903519251
0.9898558424
0.989556074
0.9912958017
0.9933178219
0.9946117702
0.9958966109
0.9971338202
0.9983530204
0.9988272878
0.9983537114
0.9972744678
0.9980814151
0.9999324574
0.9237516443
0.9063497389
0.880718504
0.8544997692
0.860950979
0.905432426
0.9615045528
0.9784839897
0.9835979047
0.9840841603
0.9834131276
0.9886138435
0.9888611052
0.9893658114
0.9912128393
0.9928636296
0.9940491663
0.9953666114
0.9965003298
0.9979026342
0.9991728006
0.9995519445
0.9983799476
0.9973414472
0.9991442627
0.9233709744
0.9054281953
0.8834281291
0.8613351468
0.8731270086
0.9224020261
0.9700602954
0.982412426
0.9860646774
0.9831975825
0.9836534649
0.9886336818
0.9885924027
0.9894816487
0.9913814034
0.9924084146
0.9933991839
0.9946889241
0.9957202096
0.99695854
0.9983758295
0.9996983021
1.000196648
0.9998645137
0.9998215142
0.9221275991
0.9060393638
0.8868988577
0.8689800021
0.8881411117
0.9469638759
0.9792624338
0.9910543019
0.9932594268
0.9891514623
0.9878005787
0.991448426
0.9905710276
0.9910006509
0.9928063457
0.9935707008
0.9942168996
0.9953100623
0.9961575842
0.9967549504
0.9978321573
0.9998249565
1.001897199
1.002971638
1.003037286
0.9217632162
0.9067797408
0.8914029155
0.8788901418
0.9092190081
0.9651491523
0.9895064453
0.9988998959
1.000061479
0.9973330509
0.9945668559
0.9966783093
0.9948329734
0.9949009018
0.9968835215
0.9976970193
0.9981810908
0.9992940139
1.000047055
1.000092917
1.000182416
1.001510993
1.003608499
1.005136096
1.006138213
0.9204671905
0.9081119119
0.8971001653
0.8922231499
0.93083759
0.9770937074
1.000287269
1.005733721
1.005783216
1.004342793
1.001403134
1.003196402
1.001358092
1.001565783
1.003419828
1.004092786
1.004389648
1.00528153
1.006024055
1.006035242
1.00554621
1.005624655
1.006590041
1.007730057
1.008887235
0.9186301419
0.9100811821
0.9041402284
0.9055624651
0.9463306969
0.9951746549
1.010575656
1.012188454
1.011618805
1.0115844
1.009508093
1.011787194
1.010602802
1.010310142
1.011473959
1.011807031
1.01190668
1.012392006
1.013024003
1.013364842
1.013086537
1.012322198
1.012197865
1.012338176
1.01312811
0.9186443855
0.9123357889
0.9129417881
0.9223171697
0.971203354
1.014785111
1.021675538
1.020553708
1.018712473
1.019330119
1.018747934
1.021554923
1.020915144
1.019913174
1.020363355
1.020506862
1.020697724
1.020909924
1.021287766
1.021865528
1.021903804
1.021389727
1.020384155
1.019658823
1.020048172
0.9190290276
0.9158115725
0.9218951788
0.9437897167
1.007277694
1.028243211
1.031425476
1.032328041
1.02931957
1.028112844
1.028443827
1.031575714
1.030899226
1.02953616
1.029704058
1.029907029
1.03025093
1.030359525
1.030716102
1.031540002
1.031957764
1.031806133
1.030840212
1.029851121
1.029830755
0.9203714465
0.9213104564
0.9318953675
0.9714791881
1.033360559
1.039460522
1.042659803
1.045252213
1.044061906
1.039582196
1.038805465
1.042209148
1.040932204
1.039615527
1.04016405
1.040599021
1.041104935
1.041179677
1.041397524
1.041602024
1.042392035
1.042664558
1.042631311
1.042479619
1.04222353
0.922502595
0.9259846628
0.9458354914
1.004163584
1.052758
1.054894492
1.056110304
1.056460806
1.056618624
1.052352919
1.050208768
1.051979746
1.050577453
1.050487336
1.051939939
1.052548607
1.053486471
1.053731014
1.05359374
1.053276039
1.053474669
1.054550348
1.055545768
1.055830159
1.055689898
0.9254108823
0.9312151983
0.9612112283
1.028205035
1.074203622
1.071063761
1.068930175
1.066856798
1.066979457
1.063761251
1.0607792
1.062735786
1.061712523
1.062666454
1.064235194
1.065103082
1.06627621
1.066700509
1.066783095
1.066212937
1.065757096
1.066349012
1.067959976
1.068964538
1.068836217
0.9275867952
0.9379290922
0.9803880947
1.051532603
1.090482108
1.085051515
1.077391188
1.07355938
1.074167013
1.073076308
1.072010119
1.074532036
1.073813172
1.074714459
1.076471817
1.077467232
1.078818008
1.079361241
1.079622182
1.079219022
1.078676346
1.078624629
1.0793211
1.080548854
1.081427337
0.9312084415
0.9468282736
1.006552739
1.084304308
1.101126743
1.090154358
1.081512326
1.080462571
1.081705183
1.08272834
1.083313438
1.086502967
1.085993585
1.086089322
1.087525025
1.088835248
1.089879554
1.090411189
1.091385857
1.091773717
1.091330033
1.090657217
1.090496382
1.09071986
1.091590054
0.9351627306
0.9602463001
1.039790307
1.108233314
1.105380475
1.095017444
1.089974409
1.091136365
1.092813738
1.093133516
1.093988859
1.097134407
1.096066581
1.095367734
1.096766036
1.09856421
1.099416599
1.099601502
1.100479933
1.10184146
1.101841081
1.101315576
1.100674214
1.100361221
1.100672547
0.9388617708
0.9769756883
1.068115309
1.121954442
1.115659242
1.102954413
1.101388032
1.104475088
1.1053872
1.102408469
1.102765581
1.106113008
1.105103652
1.10463488
1.105987581
1.10781166
1.108319151
1.108252698
1.108818375
1.110014971
1.110240826
1.109876173
1.109244247
1.108664419
1.108404267
0.9429426491
0.9941655485
1.092897551
1.133157299
1.125732311
1.111757483
1.112177658
1.116863439
1.115221699
1.109793604
1.110153053
1.113809024
1.112602063
1.111444069
1.113174437
1.115397205
1.115722636
1.115216175
1.115182489
1.115751468
1.116102829
1.11577217
1.115216296
1.114652029
1.114543829
0.9514005802
1.021405002
1.120040572
1.148180694
1.134988834
1.11865876
1.119066128
1.123546092
1.122229147
1.117123714
1.116776435
1.119510616
1.117583852
1.116695865
1.118566254
1.120063579
1.12003818
1.119282929
1.119212824
1.118159544
1.118648311
1.118402778
1.118565921
1.118431204
1.118160813
0.9711023423
1.064830194
1.149752366
1.161337162
1.141431503
1.124790862
1.122262737
1.124260248
1.125467729
1.121698578
1.121060164
1.12406258
1.122025259
1.121134386
1.122304821
1.122847809
1.123152984
1.122618813
1.122399586
1.121372453
1.120300228
1.119997265
1.120401153
1.120817845
1.120154386
0.9883017172
1.115224645
1.173182988
1.170425652
1.145309232
1.128157698
1.126376325
1.12677141
1.125214927
1.121944331
1.122405341
1.126277429
1.124197613
1.122861897
1.123410567
1.12433899
1.124709773
1.12425514
1.123947799
1.123270217
1.121727367
1.120921541
1.120846642
1.121482849
1.121057446
1.014038874
1.161770459
1.184875654
1.171398944
1.143299732
1.12992812
1.130276959
1.129979658
1.125915473
1.122404165
1.12441567
1.126183736
1.12337053
1.122164599
1.123739514
1.124628194
1.1246606
1.12401966
1.123694873
1.123542399
1.122237301
1.121403697
1.120886432
1.12090754
1.120840724
1.012182028
1.155369986
1.181761982
1.168266367
1.141294718
1.12814528
1.1325366
1.133772196
1.128457218
1.122376592
1.124140992
1.125770846
1.121849316
1.120313351
1.122866306
1.123964707
1.123771394
1.122779414
1.123014206
1.122885038
1.121801993
1.120872627
1.119913432
1.119760785
1.120196241
0.9856617991
1.105707163
1.172864721
1.16359146
1.141560314
1.126783713
1.130021834
1.134207213
1.128347429
1.120921406
1.122451569
1.124514939
1.120621521
1.119045088
1.121881723
1.123117716
1.122611789
1.121579941
1.121892955
1.121917473
1.121820796
1.121000544
1.119495114
1.118707744
1.11911722
0.9708265183
1.061219624
1.153663479
1.156920144
1.140552413
1.125197036
1.126849649
1.12872305
1.124664255
1.119484241
1.120521356
1.123162686
1.120724673
1.118777125
1.12079902
1.122420532
1.121592695
1.120251175
1.120409639
1.120531615
1.121300962
1.120803992
1.119899771
1.118737072
1.118090488
0.9518090526
1.02473061
1.125242139
1.147239814
1.133874402
1.11835454
1.117695694
1.118622356
1.11865272
1.117534354
1.117457223
1.120574355
1.119240868
1.118337587
1.119389775
1.120480308
1.120561419
1.119745552
1.11970534
1.119782541
1.119137517
1.118681459
1.118660028
1.118726415
1.118100212
0.9429970038
0.9953893207
1.09460557
1.138840789
1.127449065
1.110770196
1.107541037
1.109740081
1.11280277
1.112556944
1.112317181
1.114508169
1.113696039
1.113888953
1.115056125
1.115670846
1.116308277
1.116388221
1.116784193
1.116569446
1.115313749
1.114763332
1.115215541
1.11596508
1.115696486
0.9387736894
0.9742969491
1.060326949
1.123071555
1.120970941
1.107558055
1.101012964
1.102429948
1.10490067
1.103002244
1.102961375
1.105929726
1.105396632
1.105999472
1.107458696
1.108579917
1.109561168
1.109985922
1.11036366
1.110123689
1.109500421
1.109411888
1.109694126
1.110375849
1.110336413
0.9343118939
0.9592191527
1.032957227
1.103942447
1.108734127
1.100325722
1.094564586
1.097484935
1.097321835
1.092568007
1.091911325
1.095311089
1.094667147
1.095604966
1.097514642
1.098849878
1.100633494
1.101223999
1.101447284
1.101325259
1.10103578
1.101219274
1.101394704
1.102180879
1.10256831
0.9322114278
0.9481533423
1.008455044
1.084283319
1.096840184
1.087709359
1.084875961
1.087395067
1.086908124
1.08282235
1.081294852
1.084502179
1.083587552
1.083794413
1.085415772
1.087014166
1.088988075
1.089463578
1.089779068
1.090111707
1.090435709
1.090972974
1.090820772
1.091106069
1.092047215
0.928353895
0.9392769511
0.9846469689
1.065538285
1.083629703
1.077717409
1.073916771
1.075328356
1.074561497
1.071230714
1.071630702
1.075043743
1.074130946
1.072605703
1.073571263
1.075301487
1.076786144
1.077011451
1.077402258
1.078136921
1.078945764
1.079457167
1.07922307
1.078880484
1.079809856
0.924990443
0.9322635628
0.9617099079
1.031807561
1.072151465
1.068194366
1.063518784
1.062081051
1.060662963
1.059887259
1.061134182
1.064710877
1.064030284
1.062655889
1.063029525
1.064627995
1.065392325
1.065330994
1.065785809
1.066885093
1.067499694
1.067483468
1.066978561
1.066664869
1.067177421
0.9226467007
0.9252906513
0.94476776
0.9933197805
1.05506102
1.059024246
1.053858318
1.050596258
1.050313814
1.050883701
1.050804003
1.053437526
1.052804206
1.052246396
1.053096046
1.054011805
1.054475139
1.054557621
1.055059231
1.055659646
1.055578853
1.055069883
1.054629309
1.05463331
1.054830444
0.9201417963
0.9199830078
0.9323227647
0.9677888053
1.029424799
1.047535107
1.046847335
1.042724967
1.042320627
1.042717948
1.040653851
1.042363803
1.041231011
1.04129319
1.042201037
1.042737301
1.042965415
1.043368895
1.043719464
1.043482848
1.042906348
1.042582676
1.042860004
1.043328372
1.043231937
0.9187502127
0.9163999499
0.9215573675
0.9452392135
1.001213197
1.028615395
1.034134427
1.035815015
1.035124437
1.033509372
1.030245617
1.031247081
1.029274357
1.029336104
1.031131323
1.031355489
1.031264346
1.031883817
1.032245579
1.031486489
1.030631253
1.030497275
1.031006925
1.032068601
1.032102459
0.9185100167
0.913274437
0.9127137494
0.9244454386
0.9809754553
1.010219076
1.021482146
1.026256598
1.026144482
1.021835717
1.018727065
1.020448319
1.018476582
1.018337183
1.019775122
1.019701261
1.019709216
1.020549933
1.020902901
1.020223091
1.019797679
1.020139712
1.020998218
1.021800132
1.02213058
0.9189906316
0.9097663187
0.9050237298
0.9068509652
0.9562609312
0.9966020897
1.008906315
1.015254717
1.014178175
1.009590092
1.008066227
1.010880589
1.009656245
1.00908797
1.00998207
1.009779599
1.010123164
1.010850768
1.011084154
1.010941668
1.011289768
1.012138977
1.013015206
1.01330751
1.013869335
0.9202366334
0.9078945096
0.8971236817
0.8904465721
0.9250317033
0.9808941728
0.9979243736
1.0026166
1.001175607
0.9984341946
0.9987231296
1.002661294
1.002255756
1.00177318
1.002513211
1.002625519
1.003229516
1.003764971
1.004147576
1.004678576
1.005647809
1.006546645
1.006917535
1.006647123
1.007428694
0.9211052783
0.9066455298
0.8910682146
0.8794449281
0.9057368937
0.9584645466
0.9890087179
0.9931186612
0.9927567666
0.9926125391
0.9923433632
0.996323955
0.9961826048
0.9962251643
0.9971602756
0.9983095534
0.9993259919
0.9999830739
1.00065112
1.001682382
1.002821686
1.003456152
1.003138162
1.002805188
1.003770955
0.9227603185
0.9060455665
0.8867963801
0.8695729022
0.8900852749
0.9407674825
0.9801590527
0.987983956
0.9897136742
0.9913765272
0.9898817758
0.9932290611
0.9922023028
0.9921988252
0.9937774733
0.9958544185
0.9970471396
0.9980125277
0.9990396239
1.000225567
1.001066746
1.001456219
1.001015529
1.001610576
1.002851352
0.9236603166
0.9054791052
0.8833392155
0.86083958
0.8736765686
0.9287338243
0.9701008228
0.9856167868
0.9896150643
0.9913062029
0.9887583935
0.9917439518
0.9899377749
0.9893450284
0.9915352149
0.9936891006
0.9944370497
0.9956238559
0.9973374698
0.9983165439
0.9984310404
0.9985146811
0.9993335288
1.001280334
1.002775293
0.9239192505
0.9064247779
0.880815863
0.8547065242
0.8613626564
0.9102514766
0.9617590604
0.9836205996
0.9903113219
0.9897695509
0.9868698041
0.9899608388
0.9881718838
0.9879592501
0.9904909817
0.9917668133
0.9917995971
0.9929606568
0.9950534307
0.9957279696
0.9955990732
0.9962526085
0.9986287917
1.000686491
1.002214194
0.9228067679
0.9080465833
0.8776268514
0.8491782533
0.8509307611
0.8895788801
0.9544458229
0.980172149
0.9886574624
0.9862687995
0.9832806113
0.9875185497
0.9867855184
0.9876882826
0.9906033129
0.9912417209
0.9916464691
0.9929933672
0.994347716
0.9948932043
0.9954675802
0.9969194374
0.9989210302
1.000094412
1.000892301
0.9204546775
0.9109390406
0.8730422052
0.8459100558
0.844926114
0.8758122958
0.943639768
0.9759090509
0.9867976257
0.9846629637
0.9818736895
0.9875450349
0.9878346676
0.9890525314
0.9916027918
0.992504215
0.9931467817
0.9944082042
0.995422837
0.9960204713
0.9968553139
0.9987691891
1.000118634
1.000148075
1.000218548
0.9170800225
0.9137893748
0.867655785
0.8421190438
0.840228404
0.8643176722
0.9269390356
0.9739219362
0.9871318649
0.9869988952
0.9844689434
0.9902315047
0.9904421336
0.991362238
0.9931134418
0.9944254486
0.9954061859
0.9964775658
0.9971147306
0.9978747223
0.9990854535
1.000549115
1.001141173
1.000721529
1.001040694
0.9109598441
0.9161183847
0.861655111
0.8381412493
0.8374296221
0.8533832522
0.913014825
0.9744739424
0.991366885
0.9912169886
0.9886660163
0.9942340803
0.9936006639
0.9933761656
0.9945861524
0.9960172834
0.9969206705
0.9976438303
0.9981099404
0.9992015618
1.000636183
1.001557405
1.001231598
1.001203194
1.002056285
0.9084267452
0.9162177803
0.8553176281
0.8345153619
0.8346941712
0.8438183168
0.8962185535
0.9730935298
0.9946883918
0.994228958
0.9926020598
0.9965297596
0.9948919766
0.9941558138
0.9953557557
0.9966904825
0.9968527368
0.9972549022
0.9979123871
0.9991627816
1.000363854
1.000857734
1.001129296
1.001795668
1.002922792
1.05021108
0.8994466063
0.8437757987
0.8291847482
0.8324441067
0.8351062608
0.8564938139
0.919302853
0.9726176769
0.9901530311
0.9941031947
1.000268901
0.9991945873
0.9993730072
1.000791719
1.001344309
1.000957214
1.000996246
1.001496414
1.002177663
1.002938252
1.003718135
1.004397517
1.004696303
1.005164719
1.106535597
1.044452878
0.9718325781
0.9091259022
0.8778544759
0.8495675443
0.8505746023
0.8610742986
0.9010423787
0.9603709902
0.9922908205
1.005368345
1.007164716
1.008064123
1.009263794
1.008955838
1.008213416
1.007333677
1.007421574
1.007844979
1.008198174
1.008623335
1.008684919
1.008762845
1.008876566
1.121987711
1.100401009
1.048408607
0.9890409924
0.9367818315
0.8928007294
0.8787205322
0.8766682873
0.8777666279
0.8926827951
0.9373031939
0.9782504785
1.003049812
1.007640205
1.013679708
1.013831034
1.012395789
1.011846108
1.011472096
1.011023337
1.010467064
1.010624714
1.011104243
1.012013042
1.011921685
1.119015377
1.117446567
1.097421604
1.056543583
1.004910267
0.9595109053
0.9282332607
0.8971402582
0.877197923
0.8779992489
0.8875176991
0.9155326018
0.958346086
0.9891256158
1.008945177
1.01000517
1.011320022
1.013266331
1.012735975
1.01193472
1.010945986
1.010832525
1.01114373
1.011803152
1.012453029
1.115301099
1.118828638
1.114785653
1.095260191
1.05709217
1.015625718
0.9710150999
0.9293193628
0.9095143594
0.8901015246
0.8918652635
0.8927167156
0.9043873193
0.9353164549
0.9733946988
0.9902124318
1.006811541
1.010117199
1.010158306
1.010891332
1.01083936
1.010368631
1.010354005
1.010325587
1.010896607
1.079854107
1.102664976
1.11149259
1.1106974
1.094961463
1.063511275
1.020334365
0.987345875
0.9548853258
0.9216385957
0.9062201943
0.8911390727
0.8919701045
0.898097078
0.91824764
0.9537465781
0.9890479855
0.9978789049
1.002680463
1.008716999
1.00969102
1.009201122
1.008693748
1.008165184
1.008490161
1.025980196
1.074644754
1.109659842
1.112853688
1.109496369
1.092630298
1.063705057
1.029753074
0.9926712994
0.9612756252
0.9340654367
0.9094101634
0.9003228519
0.9010784428
0.9020965206
0.9128233104
0.9373977941
0.9679182283
0.9900491216
1.004630659
1.004951047
1.00552054
1.005484555
1.00525082
1.005830621
1.003349724
1.033277801
1.07958051
1.105149529
1.105545178
1.104684765
1.093183719
1.067125742
1.034514111
1.003371528
0.9731991723
0.9470003131
0.9276472734
0.9102263915
0.901546932
0.9020827701
0.9064768147
0.9271894059
0.9532415544
0.9800006974
0.9896435487
0.9990063267
1.002307313
1.00416564
1.005390966
1.000176604
1.007619312
1.035153649
1.078207611
1.100061075
1.106039066
1.104122619
1.091781686
1.067683745
1.039217023
1.008068727
0.9813736799
0.955528525
0.9298698946
0.9172104401
0.9062481606
0.9068909895
0.9094540943
0.9187292978
0.9391869294
0.9697271493
0.9927870908
0.9984225031
1.002533513
1.004674664
1.000004227
1.000904975
1.009146795
1.038164805
1.074109485
1.101565862
1.101490012
1.099838137