/*--------------------------------*- C++ -*----------------------------------*\
  =========                 |
  \\      /  F ield         | OpenFOAM: The Open Source CFD Toolbox
   \\    /   O peration     | Website:  https://openfoam.org
    \\  /    A nd           | Version:  7
     \\/     M anipulation  |
\*---------------------------------------------------------------------------*/
FoamFile
{
    version     2.0;
    format      ascii;
    class       volScalarField;
    location    "3.9";
    object      p;
}
// * * * * * * * * * * * * * * * * * * * * * * * * * * * * * * * * * * * * * //

dimensions      [1 -1 -2 0 0 0 0];

internalField   nonuniform List<scalar> 
2222
(
2.748513432
2.762400345
2.766696391
2.765538869
2.762995526
2.738724955
2.747042621
2.75753312
2.766775971
2.771503512
2.774676467
2.777967055
2.778702094
2.778754853
2.779254033
2.778739871
2.752260967
2.758319791
2.768102755
2.777283287
2.78102756
2.782387263
2.782594899
2.782654377
2.783260427
2.784729664
2.78763329
2.790712395
2.791208169
2.790165693
2.78743432
2.783321914
2.780226179
0.662079345
0.6641657956
0.6655519984
0.6667178617
0.6681876484
0.6701942564
0.6719610725
0.672954952
0.6736342933
0.6742920894
0.6745112717
0.6743252886
0.6738754031
0.6733298297
0.672705684
0.6720253797
0.671053479
0.6696718565
0.6682890012
0.6672347707
0.6660612288
0.6645809408
0.6634912995
0.6628495256
0.6623384571
0.6620389827
0.6618972363
0.6617425584
0.6616683351
0.6616596593
0.6618125699
0.6623732521
0.6627030138
0.6626880571
0.6627663541
0.6630568588
0.6631070485
0.6630454356
0.6628780919
0.6628327095
0.6628837854
0.6629136048
0.6629152166
0.6628960066
0.6628320903
0.6627365858
0.6626605846
0.6626800725
0.6627437908
0.6627870597
0.6628122739
0.6628071271
0.6628124983
0.6628867108
0.6629455663
0.6629682536
0.662973369
0.6630035991
0.6630928749
0.6631464392
0.6631580844
0.6631513495
0.6631647922
0.6632153609
0.6632496034
0.6632602895
0.6632789019
0.6537254412
0.65563229
0.6575009152
0.6587823134
0.6597194333
0.660708888
0.6624260594
0.663604196
0.6634533228
0.663016629
0.6631215341
0.6637642093
0.664597523
0.6647087464
0.6646258556
0.664656194
0.6647909657
0.6649579175
0.6652740051
0.6657415168
0.6658884924
0.6661210208
0.6664561872
0.6664870713
0.6663549171
0.6663320483
0.6664852832
0.6664925948
0.6662503203
0.6657804217
0.6653314356
0.6650953874
0.6648995256
0.6645105819
0.6641464434
0.6639339725
0.6637962319
0.6636074242
0.6633941388
0.6632167053
0.6631500649
0.6631424752
0.6631547025
0.6631491289
0.6631153132
0.66309587
0.6631131639
0.663158001
0.6631939534
0.6632089939
0.663208407
0.663207281
0.663221488
0.6632537244
0.663274241
0.6632769007
0.6632645748
0.6632463463
0.6632533639
0.6632611953
0.6632580569
0.6632395053
0.6632224564
0.663220168
0.6632181137
0.6632070929
0.6632158394
0.6491418839
0.6492501237
0.6500285294
0.6511925263
0.6516630438
0.6515523767
0.6519516567
0.6532210541
0.6539633728
0.6541484584
0.6545443124
0.655996919
0.6582590981
0.659965988
0.660960977
0.6618187216
0.6631648985
0.6645085094
0.6657496122
0.6668191756
0.6677614271
0.6687335902
0.6694630381
0.6694971245
0.6693011109
0.6689430168
0.6687035652
0.668427323
0.6679744452
0.6671625258
0.6661301596
0.6650352692
0.6642921955
0.6642073965
0.6641125356
0.6638447286
0.663777501
0.663850158
0.6638779115
0.6637611311
0.6635608819
0.663540567
0.6635890465
0.6635870437
0.6634860148
0.6634300706
0.6634225382
0.6633761547
0.6632387698
0.6631728011
0.663167787
0.6631405682
0.6630834445
0.6630706863
0.6630797489
0.6630786002
0.6630532617
0.6630454062
0.6630531785
0.6630802402
0.6630870162
0.6630766716
0.6630764734
0.6630931769
0.6631226761
0.663150414
0.6631752614
0.6511027579
0.6477629042
0.646774036
0.6461530072
0.6452628318
0.6442864744
0.6436622937
0.6438049727
0.644177485
0.6445436654
0.6451720834
0.6465496081
0.6483584013
0.6500580819
0.6514183707
0.6524657779
0.6544488583
0.6566326335
0.6583821265
0.660240329
0.6616442854
0.6624851508
0.6633905966
0.6643128855
0.6644545409
0.6645355886
0.6647786307
0.6655092922
0.6662503549
0.666277334
0.6661222111
0.6660398568
0.6659906595
0.6660909007
0.6661529654
0.6658957574
0.6655779804
0.6655238349
0.6654476489
0.6652163156
0.6648912813
0.6648387991
0.6648453177
0.6647624796
0.6645334923
0.6642641699
0.6641246745
0.6640274491
0.6638747869
0.6636807526
0.663626179
0.663577474
0.6634773768
0.6632872814
0.6631714216
0.6631650168
0.6631375718
0.6630485495
0.6630190027
0.6630281652
0.6630386419
0.6630464613
0.6630612156
0.663091714
0.6631389303
0.6631926828
0.6632219477
0.660343696
0.6517735592
0.6494236269
0.6498054104
0.6493420693
0.6474362108
0.645383507
0.6451988539
0.6464289419
0.6488388862
0.6499007327
0.6497141516
0.6497306767
0.6506810135
0.6518166053
0.6523032553
0.6519467419
0.6519757777
0.6523062051
0.6528692103
0.653622594
0.6543130042
0.6551856108
0.6564997881
0.6581234083
0.6595849535
0.6607506419
0.6620875793
0.6633752333
0.6646764829
0.6654545297
0.6657496028
0.6661534547
0.6667309877
0.6669522595
0.6669113349
0.6667621195
0.6666141548
0.6665231002
0.6663533429
0.6660563939
0.6657116673
0.6654446467
0.6652467037
0.6650171509
0.6647362809
0.6645962826
0.664535592
0.6644347239
0.6642532401
0.6641670142
0.6641263042
0.6640505234
0.6638518793
0.6636890462
0.6636733627
0.6636564672
0.6635690469
0.6634547355
0.6634449884
0.6634431323
0.6633939851
0.6632785814
0.6632479977
0.6632459341
0.6632484742
0.6632161151
0.7125982464
0.7026355978
0.6893194818
0.6831304621
0.6807780144
0.6768299827
0.6690809725
0.6634456902
0.6621230216
0.6617958778
0.6597934867
0.6556678495
0.652263034
0.6507476718
0.6501668172
0.6494778311
0.64873878
0.6480694745
0.647709734
0.6477804148
0.6480065519
0.6483150117
0.6488879713
0.6498053712
0.6508295871
0.6519088349
0.6529900931
0.6540311144
0.6554450231
0.6570364752
0.6590284834
0.6606522645
0.6615454292
0.6624445753
0.6636793328
0.6640893114
0.6642200884
0.664426992
0.6648984518
0.6650895141
0.6650432402
0.6650912312
0.6652734804
0.6655381496
0.6656823482
0.6657060333
0.6657447125
0.665743271
0.6656976537
0.6655516105
0.6653695001
0.6652611026
0.6651565965
0.6649348378
0.6646721456
0.6645984117
0.664547494
0.6644381871
0.6642064356
0.6640206007
0.6639232481
0.6638287672
0.6636489093
0.6634799226
0.6633987723
0.663351002
0.6632685754
0.7646605039
0.7538933598
0.7430140244
0.7269130952
0.7119808568
0.7040748423
0.6975859989
0.6892014843
0.6775274934
0.6701411801
0.6664608161
0.6634066767
0.6584591082
0.6532885375
0.6527549838
0.6528842786
0.6524085698
0.6506701078
0.6492501345
0.6491872451
0.6503827301
0.6522908714
0.6526121911
0.6521137738
0.6517290567
0.6520499629
0.6527056236
0.6530409952
0.6528422769
0.6528743625
0.6532112031
0.6538791654
0.6545333315
0.6551253954
0.6561170451
0.657684171
0.6591369357
0.6601314349
0.6611478622
0.6623541798
0.6632145644
0.6637274905
0.6642878824
0.6648125806
0.6648920398
0.6649883062
0.6651746534
0.6653526608
0.6653554043
0.6653611659
0.6654435918
0.6656326049
0.6656786164
0.6656481942
0.6655215172
0.6653832822
0.6652962593
0.6652084883
0.665050958
0.6648067436
0.6645991833
0.6644906309
0.6643896824
0.6641927734
0.6639861642
0.663885643
0.6637740397
0.8436602579
0.8226156182
0.8090675072
0.7977284976
0.7817568131
0.7613983832
0.7504242973
0.7439899945
0.7345541363
0.7174058394
0.7070748804
0.7034995741
0.6996324109
0.6895720635
0.6808041083
0.677444896
0.6758829986
0.6720928385
0.6659056013
0.6619860545
0.661405881
0.6612256152
0.6592727127
0.6557164521
0.6530119359
0.651960344
0.6519019643
0.6514702863
0.6507098593
0.6502384746
0.6500070562
0.650064588
0.6502735615
0.6505641725
0.651043602
0.6518746193
0.6529253531
0.6540651432
0.6549105778
0.6559164208
0.6574038818
0.6587539253
0.6598938502
0.6611953725
0.6621169074
0.6626528707
0.66309214
0.6636543524
0.6639993581
0.6642409789
0.6644729048
0.6647321055
0.6649060528
0.6649285593
0.664872987
0.6648822276
0.66499672
0.6651218232
0.6651377601
0.6651114904
0.6650779016
0.6650847647
0.6650767275
0.6650256642
0.6649211343
0.6648173135
0.6647124518
0.9160148592
0.9006256952
0.8817629652
0.8644595023
0.8506846709
0.8365379272
0.8176954726
0.7998645223
0.7886943029
0.7782733696
0.7637741189
0.7461569157
0.7367620023
0.729815804
0.7210242285
0.7070776712
0.6970357125
0.6921092852
0.6875256777
0.6808932598
0.6716725708
0.6667792489
0.6644347267
0.6621516438
0.6580984726
0.6548412242
0.6548808763
0.6551675598
0.6546633164
0.6530099088
0.6518109847
0.6517802097
0.652719859
0.6541736044
0.6543893713
0.65405486
0.653695197
0.65354022
0.6536809878
0.6538162937
0.6540206602
0.654392391
0.654748988
0.6551800301
0.6557892679
0.6564860549
0.6572492223
0.6582492435
0.6594867453
0.6605568672
0.6612498576
0.6618696186
0.6624609192
0.6631064081
0.6635182141
0.663790451
0.6641125993
0.6646071488
0.6647983167
0.6647781822
0.6647708643
0.6648420549
0.6649575022
0.6650320535
0.6650317493
0.6650559047
0.6651281924
0.9683660152
0.9579960851
0.9464751547
0.9328335519
0.9167225875
0.9025240809
0.8891972225
0.8737260336
0.8540974012
0.8395416396
0.8286069151
0.8158820708
0.796543592
0.7819043457
0.774066763
0.7659195254
0.7507915674
0.735382688
0.7292851
0.7254381668
0.7170321778
0.7027730215
0.6960501278
0.6939362344
0.6907629822
0.682765753
0.6764730912
0.6741343051
0.6728256578
0.6695923686
0.6643887841
0.6611586253
0.6608418268
0.6607369025
0.6592965869
0.6566569397
0.6541442377
0.652860397
0.6529345905
0.6528572959
0.6524175036
0.6521627383
0.6520434473
0.6519682625
0.6520624873
0.6522691348
0.6527247735
0.6535016512
0.654474026
0.6554596773
0.6562490862
0.6570413625
0.6579325058
0.6588910476
0.660057717
0.6611872244
0.6618465166
0.6623786928
0.6630558323
0.6634585545
0.6636075088
0.6638268914
0.6643009037
0.664689331
0.6647190089
0.6647622166
0.6648672028
0.9937004569
0.9897453741
0.9842825461
0.9774690887
0.9690322149
0.9585357407
0.9464165695
0.9345901128
0.9218907226
0.9067740357
0.8901385046
0.8772304664
0.8648781568
0.8498204015
0.8311498179
0.8189238709
0.8092245404
0.7976786992
0.7799913546
0.7672573593
0.7599863885
0.7522566185
0.7393863141
0.7253855272
0.7193181388
0.7145394033
0.7074435389
0.6957325357
0.6880810503
0.6846274426
0.681228891
0.6758402141
0.6684578714
0.6653311937
0.6638991938
0.6619301731
0.6581214026
0.6558029239
0.6559471569
0.6564174598
0.6560505711
0.6546984728
0.6536118823
0.6535685708
0.654238952
0.6553335077
0.6555567686
0.6553225731
0.6550078571
0.6548455479
0.6548594323
0.6549218484
0.6551122375
0.6552953309
0.6556282034
0.6561746343
0.6567208212
0.6571168204
0.6576755879
0.6586334463
0.6596379414
0.6603486628
0.6610682628
0.6619027716
0.662497023
0.662843736
0.6632059636
0.9994731525
0.9988879914
0.9978353699
0.9960555835
0.9933275473
0.9894861418
0.9842113246
0.9772105983
0.9688528623
0.95965702
0.9489264828
0.9358396568
0.9225533448
0.9108232382
0.8982220772
0.8820388098
0.8661264077
0.8552739052
0.8446128815
0.829418609
0.8116898725
0.8021447596
0.794758313
0.7837019096
0.7662070652
0.7562286311
0.7513589781
0.7448933757
0.731039165
0.7193232985
0.7157080127
0.7131661133
0.7057643442
0.6942724743
0.689536836
0.687912658
0.6848877637
0.6782759616
0.673645986
0.6720227182
0.6709378348
0.6681336315
0.6636427931
0.6608934669
0.6606299056
0.6604885776
0.6593257641
0.657297805
0.6552233802
0.654144918
0.6541814108
0.6540656566
0.65379158
0.6536937108
0.6536635534
0.6535810861
0.6536359116
0.6537754597
0.6540760845
0.6546801709
0.6554892377
0.6562739693
0.6568527276
0.6574850132
0.658325751
0.6591355223
0.6601025501
0.9999865311
0.9999598004
0.9998909558
0.9997331194
0.9994037057
0.9987650485
0.9976469275
0.995857111
0.9931156203
0.9891618385
0.984012126
0.9776230395
0.9696315361
0.9597826388
0.949560015
0.9390583028
0.9270904892
0.9124181535
0.8995103596
0.8885261624
0.876447353
0.859960277
0.845681391
0.8363664538
0.8267148629
0.8120786677
0.7960811929
0.7879739812
0.781040159
0.770839593
0.7550545843
0.746283821
0.7413189567
0.7349493034
0.7230777798
0.7121437138
0.7080900184
0.7045004125
0.698379945
0.6885148327
0.6828337213
0.6802356741
0.6773997297
0.6724664916
0.6664655183
0.6646424056
0.6636914691
0.6620068613
0.6586486312
0.6567577271
0.6568686719
0.6572909383
0.6570213388
0.6559718972
0.6550337144
0.6549411633
0.6554251819
0.6563210319
0.6565280094
0.6563364071
0.6561118281
0.6558882426
0.6558556281
0.6558726689
0.6559565642
0.6560974387
0.6564877165
0.9999999146
0.9999996203
0.9999984918
0.9999946582
0.9999829147
0.9999508467
0.9998720621
0.9996946137
0.9993339733
0.9986689734
0.9975118033
0.9956520996
0.9929408504
0.9891694282
0.9840449156
0.9774934215
0.9701027261
0.9616153238
0.9514045212
0.9395286683
0.9288616549
0.9182011142
0.9055293671
0.8900761176
0.8785900455
0.8689735932
0.8572770478
0.8404313586
0.8283390292
0.8209443863
0.8122661627
0.7971302861
0.7831098184
0.7770850817
0.7715658005
0.7609191765
0.7459488347
0.7396435158
0.7363910138
0.7304993614
0.717778908
0.7093244115
0.7070027029
0.7048666978
0.6978418162
0.6888739846
0.6855364042
0.6841859611
0.6811878708
0.6755347752
0.671744533
0.6704440246
0.6695592155
0.6672743591
0.6635395767
0.6609302254
0.6605419982
0.6604255757
0.6594982283
0.6578456435
0.6561872277
0.6552329284
0.6552312577
0.6551963682
0.6549858623
0.6549166257
0.6548897832
0.9999999999
0.9999999992
0.9999999951
0.9999999742
0.9999998773
0.9999994802
0.9999980235
0.9999932479
0.9999792727
0.9999421375
0.9998531721
0.9996616885
0.9992782319
0.9985739761
0.9974029069
0.9955684809
0.9928195427
0.9890294769
0.9842434154
0.9782117936
0.9706050647
0.9618716922
0.9530844617
0.9433375356
0.9314706194
0.9188665633
0.9087058245
0.8984035987
0.8852334818
0.8701705075
0.860358764
0.8517149736
0.8402337868
0.8239561301
0.8139061037
0.8073588934
0.7990839689
0.7846623297
0.7725116048
0.7670685098
0.7614830247
0.7517085275
0.738203666
0.732310306
0.728555264
0.7229539868
0.7122776804
0.7037554718
0.7006137206
0.6975726913
0.6923287926
0.6840238848
0.6793144038
0.6772346949
0.674949697
0.6708386621
0.6657045691
0.6641811422
0.6634368971
0.6621308453
0.6594628914
0.6576085788
0.6575834087
0.6580700391
0.6579392678
0.6570836219
0.6561900684
1
1
1
1
0.9999999998
0.9999999987
0.9999999928
0.9999999636
0.9999998344
0.9999993227
0.9999975225
0.9999918263
0.9999755741
0.9999340799
0.9998370859
0.999630038
0.9992315273
0.9985174342
0.9973142912
0.9954687487
0.992839365
0.9891842446
0.9842930152
0.9784121683
0.971718127
0.9637301197
0.9539638547
0.9441486621
0.9349093829
0.9245929912
0.9114485598
0.8993443004
0.8902241582
0.8805008891
0.8667030659
0.8527522736
0.8446879075
0.8371175003
0.8254920537
0.8098642569
0.8017730056
0.7964827229
0.7886048211
0.774114002
0.7637851647
0.7597182023
0.7551270626
0.7450321566
0.7325235489
0.7280735947
0.7256481245
0.7205372153
0.709545488
0.7025971379
0.7007007131
0.6989706043
0.6931348307
0.6854850669
0.6823827174
0.6811892011
0.6788789023
0.6742633268
0.6705572663
0.6692267026
0.6685501491
0.6667470044
0.6634616766
1
1
1
1
1
1
1
1
0.9999999997
0.9999999982
0.9999999901
0.9999999514
0.9999997866
0.9999991594
0.9999970121
0.9999904395
0.9999722592
0.9999264693
0.9998229565
0.9996078642
0.9991925179
0.9984644265
0.9972859427
0.995458342
0.9928001716
0.9892872045
0.9848078518
0.9790891145
0.9720338581
0.9645923587
0.9565696362
0.9471497034
0.935911826
0.9261145118
0.9170100729
0.9064622768
0.8926653376
0.8817607278
0.8736078865
0.864372352
0.8504441698
0.83787529
0.8309785398
0.8240280201
0.812881138
0.7982620672
0.7911614212
0.7861790096
0.7789396919
0.7657563024
0.7559584032
0.7518621529
0.7473147804
0.7389300651
0.7270855309
0.7220879473
0.7190429688
0.7145734739
0.7058522591
0.6979081737
0.6950172611
0.69260384
0.6886366989
0.6815429121
0.6768665318
0.6751560666
0.6725895581
1
1
1
1
1
1
1
1
1
1
1
0.9999999999
0.9999999996
0.9999999975
0.9999999869
0.9999999382
0.9999997371
0.9999989936
0.9999965326
0.9999891459
0.9999692482
0.9999205912
0.9998111813
0.9995881809
0.9991725064
0.9984403569
0.9972502823
0.9954812301
0.9929591859
0.9894685556
0.9849726433
0.9797322165
0.9734935641
0.9658595881
0.9571814346
0.9490085991
0.9403374749
0.9298731469
0.9179807593
0.9088532001
0.9002921615
0.8896634106
0.8756736021
0.8660621314
0.8589806383
0.8503016
0.8363702177
0.8248868996
0.819148558
0.8130850847
0.8023216193
0.7883040299
0.7821571706
0.7781900758
0.7716167972
0.7587939011
0.7496617178
0.7465212102
0.7430529557
0.7349510246
0.7235679278
0.7192413669
0.7174177738
0.7137016402
0.7043468718
0.6982660871
0.6957583759
1
1
1
1
1
1
1
1
1
1
1
1
1
1
1
0.9999999999
0.9999999994
0.9999999968
0.9999999836
0.9999999247
0.9999996891
0.9999988401
0.9999960887
0.999988071
0.9999667673
0.9999155121
0.9998038003
0.9995769573
0.9991542029
0.9984361935
0.9972824868
0.9955184409
0.9930424022
0.9898036435
0.9855984947
0.980223747
0.97402124
0.9674316988
0.9598882165
0.950710449
0.9412165546
0.9329588218
0.9241944156
0.9130659079
0.9011416229
0.8928639866
0.8849811943
0.8745650659
0.8607569532
0.8521404406
0.8458661671
0.837892474
0.8245972433
0.8136541978
0.8084782443
0.8030073011
0.7934947624
0.7800660911
0.7739180893
0.7700857907
0.7644320746
0.7532971199
0.7437191006
0.7402536152
0.7367333248
0.729709215
0.720354501
1
1
1
1
1
1
1
1
1
1
1
1
1
1
1
1
1
1
1
0.9999999999
0.9999999993
0.999999996
0.9999999803
0.9999999121
0.9999996445
0.9999987057
0.9999957266
0.9999871678
0.9999650153
0.999912402
0.9997979117
0.999572244
0.9991570944
0.9984403692
0.9973100156
0.9956449123
0.993262765
0.9900145246
0.9859924891
0.9812070832
0.9753701759
0.9682400366
0.9608861562
0.95353228
0.9452198753
0.9349094759
0.9252725142
0.9173872067
0.9089005238
0.8974478743
0.8857242247
0.8783269698
0.8712658502
0.861287917
0.8476336618
0.8397542666
0.8344335597
0.8272504966
0.8144983653
0.8037646007
0.7993460067
0.7948081308
0.7859371466
0.7729346264
0.7673882312
0.7644982683
0.7570757141
1
1
1
1
1
1
1
1
1
1
1
1
1
1
1
1
1
1
1
1
1
1
1
0.9999999999
0.9999999991
0.9999999953
0.9999999774
0.9999999008
0.9999996084
0.9999985972
0.9999954519
0.9999865903
0.9999637688
0.9999107262
0.9997973015
0.9995718181
0.9991629808
0.9984781635
0.9973803921
0.9957354074
0.9934773104
0.9904897497
0.9865812731
0.9816849472
0.9762645949
0.9702103711
0.9630843838
0.9545779501
0.9466791619
0.9391122782
0.9305410169
0.9194779671
0.9100136029
0.9027756468
0.8948202652
0.8833322884
0.871860069
0.8652485951
0.858912667
0.8496661678
0.8363634477
0.8288275642
0.8241259804
0.8177209329
0.8051613888
0.7966180075
0.7908977145
1
1
1
1
1
1
1
1
1
1
1
1
1
1
1
1
1
1
1
1
1
1
1
1
1
1
1
0.9999999998
0.999999999
0.9999999947
0.9999999749
0.9999998921
0.9999995804
0.999998526
0.9999952811
0.9999862603
0.9999634827
0.9999105245
0.9997982171
0.9995806903
0.9991835659
0.9985112985
0.9974680548
0.9959266892
0.9937254994
0.9907816201
0.9871821493
0.982792647
0.9773658243
0.9709555887
0.9646012698
0.9577898178
0.9497241424
0.9402654333
0.9323984311
0.9250047149
0.9164125177
0.905111479
0.895887058
0.8892692036
0.8820726015
0.8708098086
0.8593344911
0.853756869
0.8482529228
0.8381902374
0.8270399271
1
1
1
1
1
1
1
1
1
1
1
1
1
1
1
1
1
1
1
1
1
1
1
1
1
1
1
1
1
1
1
0.9999999998
0.9999999989
0.9999999942
0.9999999731
0.9999998863
0.9999995649
0.9999984867
0.9999952287
0.9999862462
0.9999636726
0.9999122187
0.9998034965
0.9995907196
0.9992116378
0.9985780415
0.9975655753
0.996075215
0.9940416172
0.9913110704
0.9877228976
0.9833910021
0.9785628467
0.9729420587
0.9662649004
0.9587876944
0.9518486346
0.944754489
0.9364347898
0.926035781
0.9183958714
0.9119287402
0.9033444478
0.8909452981
0.8837164947
0.8778977251
0.8683967883
1
1
1
1
1
1
1
1
1
1
1
1
1
1
1
1
1
1
1
1
1
1
1
1
1
1
1
1
1
1
1
1
1
1
1
0.9999999998
0.9999999988
0.9999999939
0.9999999722
0.9999998837
0.9999995605
0.9999984914
0.9999952744
0.9999865163
0.999964715
0.9999148121
0.9998106407
0.999610097
0.9992457301
0.9986388785
0.9976971505
0.9962974391
0.9943187688
0.9916938384
0.988451781
0.9844816111
0.9795244145
0.9737606952
0.9681941041
0.9620282649
0.9538142003
0.9456607811
0.9394827595
0.9321166691
0.9218394539
0.9138184466
0.9058369974
1
1
1
1
1
1
1
1
1
1
1
1
1
1
1
1
1
1
1
1
1
1
1
1
1
1
1
1
1
1
1
1
1
1
1
1
1
1
1
0.9999999998
0.9999999988
0.9999999939
0.999999972
0.9999998848
0.9999995679
0.9999985287
0.9999954358
0.9999870329
0.9999662202
0.999919143
0.9998206713
0.9996286862
0.9992905316
0.9987229744
0.9978199041
0.9964885736
0.994696593
0.9922526182
0.9889283116
0.985215735
0.9809865225
0.9755548759
0.9691716351
0.9635164365
0.9569408511
0.9494171602
0.9409548813
1
1
1
1
1
1
1
1
1
1
1
1
1
1
1
1
1
1
1
1
1
1
1
1
1
1
1
1
1
1
1
1
1
1
1
1
1
1
1
1
1
1
1
0.9999999998
0.9999999988
0.999999994
0.9999999729
0.9999998886
0.9999995875
0.9999985987
0.9999956794
0.9999877902
0.9999682939
0.9999240041
0.9998324708
0.9996554
0.9993317567
0.9988088418
0.9979778925
0.9967179418
0.9949820094
0.9927531707
0.9897674558
0.9860422101
0.9818434117
0.9770576318
0.9709748854
1
1
1
1
1
1
1
1
1
1
1
1
1
1
1
1
1
1
1
1
1
1
1
1
1
1
1
1
1
1
1
1
1
1
1
1
1
1
1
1
1
1
1
1
1
1
1
0.9999999998
0.9999999988
0.9999999943
0.9999999744
0.9999998959
0.9999996133
0.9999987036
0.9999959875
0.9999887122
0.999970761
0.999930044
0.9998452767
0.9996810127
0.9993883626
0.9988924656
0.9981240788
0.9969691501
0.9953507154
0.9932346249
0.9902097656
1
1
1
1
1
1
1
1
1
1
1
1
1
1
1
1
1
1
1
1
1
1
1
1
1
1
1
1
1
1
1
1
1
1
1
1
1
1
1
1
1
1
1
1
1
1
1
1
1
1
1
0.9999999998
0.9999999989
0.9999999947
0.9999999766
0.9999999047
0.9999996496
0.9999988172
0.9999963794
0.9999897392
0.9999734651
0.9999366042
0.9998593063
0.9997100472
0.9994384597
0.9990006673
0.9981959027
1
1
1
1
1
1
1
1
1
1
1
1
1
1
1
1
1
1
1
1
1
1
1
1
1
1
1
1
1
1
1
1
1
1
1
1
1
1
1
1
1
1
1
1
1
1
1
1
1
1
1
1
1
1
1
0.9999999998
0.999999999
0.9999999953
0.9999999791
0.9999999156
0.999999688
0.9999989542
0.9999967718
0.999990919
0.999976164
0.9999448081
0.9998549965
1
1
1
1
1
1
1
1
1
1
1
1
1
1
1
1
1
1
1
1
1
1
1
1
1
1
1
1
1
1
1
1
1
1
1
1
1
1
1
1
1
1
1
1
1
1
1
1
1
1
1
1
1
1
1
1
1
1
1
0.9999999998
0.9999999992
0.9999999959
0.9999999819
0.9999999273
0.9999997258
0.9999991545
0.9999949806
1
1
1
1
1
1
1
1
1
1
1
1
1
1
1
1
1
1
1
1
1
1
1
1
1
1
1
1
1
1
1
1
1
1
1
1
1
1
1
1
1
1
1
1
1
1
1
1
1
1
1
1
1
1
1
1
1
1
1
1
1
1
1
0.9999999999
0.9999999993
0.999999997
0.9999999398
1
1
1
1
1
1
1
1
1
1
1
1
1
1
1
1
1
1
1
1
1
1
1
1
1
1
1
1
1
1
1
1
1
1
1
1
1
1
1
1
1
1
1
1
1
1
1
1
1
1
1
1
1
1
1
1
1
1
1
1
1
1
1
1
1
0.9999999998
1
1
1
1
1
1
1
1
1
1
1
1
1
1
1
1
1
1
1
1
1
1
1
1
1
1
1
1
1
1
1
1
1
1
1
1
1
1
1
1
1
1
1
1
1
1
)
;

boundaryField
{
    inlet
    {
        type            fixedValue;
        value           nonuniform 0();
    }
    outlet
    {
        type            zeroGradient;
    }
    bottom
    {
        type            slip;
    }
    top
    {
        type            slip;
    }
    obstacle
    {
        type            zeroGradient;
    }
    defaultFaces
    {
        type            empty;
    }
    procBoundary20to13
    {
        type            processor;
        value           nonuniform List<scalar> 4(2.736243453 2.73391632 2.748187889 0.6597389441);
    }
    procBoundary20to14
    {
        type            processor;
        value           nonuniform List<scalar> 
20
(
2.787996122
2.77908923
2.767012641
2.752605556
2.739912072
2.762526721
2.762526721
2.762829656
2.763015249
2.765416529
2.770793193
2.774969983
2.777780443
2.777780443
2.777764553
2.778478621
2.77914249
2.780147619
2.782001106
2.779801608
)
;
    }
    procBoundary20to19
    {
        type            processor;
        value           nonuniform List<scalar> 
30
(
0.6518665409
0.649757505
0.6560728107
0.6664294673
0.7174917551
0.7811329997
0.8627881258
0.9299822156
0.9776581275
0.9963408658
0.9997733843
0.9999959424
0.9999999828
1
1
1
1
1
1
1
1
1
1
1
1
1
1
1
1
1
)
;
    }
    procBoundary20to26
    {
        type            processor;
        value           nonuniform List<scalar> 
70
(
1
1
1
1
1
1
1
1
1
1
1
1
1
1
1
1
1
1
1
1
1
1
1
1
1
1
1
1
1
1
1
1
1
1
1
1
1
1
1
1
1
1
1
1
1
1
1
1
1
1
1
1
1
1
1
1
1
1
1
1
1
1
1
1
1
1
1
1
1
1
)
;
    }
    procBoundary20to27
    {
        type            processor;
        value           nonuniform List<scalar> 
34
(
0.6367710868
0.6627481039
0.6631844292
0.6633062165
0.6631206542
0.6631327411
0.663560035
0.6645254531
0.6651033316
0.6648610505
0.6638073194
0.6612870083
0.6570556677
0.6550338636
0.6571935121
0.6607091695
0.6669744017
0.6895631917
0.7110703092
0.7442759021
0.7788403016
0.8135206322
0.8507132964
0.8901632649
0.9265617128
0.9582227427
0.982325092
0.9952757796
0.9993293366
0.9999563634
0.9999987918
0.9999999862
0.9999999999
1
)
;
    }
}


// ************************************************************************* //
