/*--------------------------------*- C++ -*----------------------------------*\
  =========                 |
  \\      /  F ield         | OpenFOAM: The Open Source CFD Toolbox
   \\    /   O peration     | Website:  https://openfoam.org
    \\  /    A nd           | Version:  7
     \\/     M anipulation  |
\*---------------------------------------------------------------------------*/
FoamFile
{
    version     2.0;
    format      ascii;
    class       volScalarField;
    location    "1";
    object      T;
}
// * * * * * * * * * * * * * * * * * * * * * * * * * * * * * * * * * * * * * //

dimensions      [0 0 0 1 0 0 0];

internalField   nonuniform List<scalar> 5(0.9896838306 1.032247993 1.023958852 0.9989137417 1.006682943);

boundaryField
{
    inlet
    {
        type            fixedValue;
        value           nonuniform 0();
    }
    outlet
    {
        type            inletOutlet;
        inletValue      nonuniform 0();
        value           nonuniform 0();
    }
    bottom
    {
        type            slip;
    }
    top
    {
        type            slip;
    }
    obstacle
    {
        type            zeroGradient;
    }
    defaultFaces
    {
        type            empty;
    }
    procBoundary28to22
    {
        type            processor;
        value           nonuniform List<scalar> 2(1.004255859 1.040823633);
    }
    procBoundary28to27
    {
        type            processor;
        value           nonuniform List<scalar> 4(0.958412631 0.9771867899 0.9771867899 0.9933084434);
    }
    procBoundary28to34
    {
        type            processor;
        value           nonuniform List<scalar> 2(0.9957697632 0.9937289762);
    }
    procBoundary28to35
    {
        type            processor;
        value           nonuniform List<scalar> 4(1.032930829 1.029224384 1.029224384 1.012516585);
    }
}


// ************************************************************************* //
