/*--------------------------------*- C++ -*----------------------------------*\
  =========                 |
  \\      /  F ield         | OpenFOAM: The Open Source CFD Toolbox
   \\    /   O peration     | Website:  https://openfoam.org
    \\  /    A nd           | Version:  7
     \\/     M anipulation  |
\*---------------------------------------------------------------------------*/
FoamFile
{
    version     2.0;
    format      ascii;
    class       volVectorField;
    location    "4.6";
    object      U;
}
// * * * * * * * * * * * * * * * * * * * * * * * * * * * * * * * * * * * * * //

dimensions      [0 1 -1 0 0 0 0];

internalField   nonuniform List<vector> 5((2.984137778 -0.0008916758776 0) (2.97592909 -0.002548604675 0) (2.968083118 -0.004384409762 0) (2.966258749 0.0001095351693 0) (2.936121834 -0.002242033672 0));

boundaryField
{
    inlet
    {
        type            fixedValue;
        value           nonuniform 0();
    }
    outlet
    {
        type            inletOutlet;
        inletValue      uniform (3 0 0);
        value           nonuniform List<vector> 2((2.97592909 -0.002548604675 0) (2.966258749 0.0001095351693 0));
    }
    bottom
    {
        type            slip;
    }
    top
    {
        type            slip;
    }
    obstacle
    {
        type            slip;
    }
    defaultFaces
    {
        type            empty;
    }
    procBoundary17to10
    {
        type            processor;
        value           nonuniform List<vector> 3((3.00165675 0.03355238559 0) (2.976857184 0.01674080596 0) (2.929474768 0.01129373324 0));
    }
    procBoundary17to11
    {
        type            processor;
        value           nonuniform List<vector> 2((2.996935857 0.02749119604 0) (2.991994994 0.002991334122 0));
    }
    procBoundary17to23
    {
        type            processor;
        value           nonuniform List<vector> 3((2.946858776 -0.001089814329 0) (2.946858776 -0.001089814329 0) (2.904684108 -0.001427766128 0));
    }
}


// ************************************************************************* //
