/*--------------------------------*- C++ -*----------------------------------*\
  =========                 |
  \\      /  F ield         | OpenFOAM: The Open Source CFD Toolbox
   \\    /   O peration     | Website:  https://openfoam.org
    \\  /    A nd           | Version:  7
     \\/     M anipulation  |
\*---------------------------------------------------------------------------*/
FoamFile
{
    version     2.0;
    format      ascii;
    class       volVectorField;
    location    "3.7";
    object      U;
}
// * * * * * * * * * * * * * * * * * * * * * * * * * * * * * * * * * * * * * //

dimensions      [0 1 -1 0 0 0 0];

internalField   nonuniform List<vector> 10((2.948180606 0.001296049642 0) (2.971028885 0.004792276053 0) (2.967397636 -0.0001226615173 0) (2.985436064 0.001267058642 0) (2.976694079 0.002540946748 0) (2.992547822 -0.002954797798 0) (3.001587795 -0.01638497038 0) (3.000473628 -0.03544543181 0) (2.992497412 -0.01471508775 0) (2.988070299 0.0003625508751 0));

boundaryField
{
    inlet
    {
        type            fixedValue;
        value           nonuniform 0();
    }
    outlet
    {
        type            inletOutlet;
        inletValue      uniform (3 0 0);
        value           nonuniform List<vector> 8((2.992547822 -0.002954797798 0) (3.001587795 -0.01638497038 0) (3.000473628 -0.03544543181 0) (2.992497412 -0.01471508775 0) (2.988070299 0.0003625508751 0) (2.948180606 0.001296049642 0) (2.967397636 -0.0001226615173 0) (2.976694079 0.002540946748 0));
    }
    bottom
    {
        type            slip;
    }
    top
    {
        type            slip;
    }
    obstacle
    {
        type            slip;
    }
    defaultFaces
    {
        type            empty;
    }
    procBoundary35to28
    {
        type            processor;
        value           nonuniform List<vector> 4((2.982334144 -0.01754398441 0) (3.003163234 -0.03304966597 0) (2.997489676 -0.0275158079 0) (2.997489676 -0.0275158079 0));
    }
    procBoundary35to29
    {
        type            processor;
        value           nonuniform List<vector> 3((2.930409233 -0.0005439783501 0) (2.940293661 0.00240728487 0) (2.940293661 0.00240728487 0));
    }
    procBoundary35to34
    {
        type            processor;
        value           nonuniform List<vector> 4((3.002652359 -0.01543065128 0) (3.00325766 -0.01059602319 0) (2.992217939 0.007243389611 0) (2.984156676 0.008984137299 0));
    }
}


// ************************************************************************* //
