/*--------------------------------*- C++ -*----------------------------------*\
  =========                 |
  \\      /  F ield         | OpenFOAM: The Open Source CFD Toolbox
   \\    /   O peration     | Website:  https://openfoam.org
    \\  /    A nd           | Version:  7
     \\/     M anipulation  |
\*---------------------------------------------------------------------------*/
FoamFile
{
    version     2.0;
    format      ascii;
    class       volScalarField;
    location    "3.8";
    object      rho;
}
// * * * * * * * * * * * * * * * * * * * * * * * * * * * * * * * * * * * * * //

dimensions      [1 -3 0 0 0 0 0];

internalField   nonuniform List<scalar> 
2223
(
1.165695312
1.151962962
1.133797942
1.114471771
1.10326805
1.093400491
1.077695797
1.059283687
1.050332147
1.042843257
1.029461792
1.01101397
1.005133205
1.000831611
0.9922756542
0.9748528514
0.965402941
0.9631187248
0.9588622371
0.9496538504
0.9341930843
0.929069769
0.9277968087
0.9240352495
0.9156939588
1.329293848
1.297796635
1.273095302
1.256407515
1.235871422
1.209354802
1.190821638
1.176914483
1.158516414
1.138058092
1.125909323
1.115509525
1.099608718
1.080335038
1.070741282
1.062862732
1.049616626
1.029852263
1.022792238
1.018247471
1.00989361
0.9923896217
0.9813993792
0.979091767
0.9750841935
0.966218462
0.9502789891
0.944319495
0.9429223113
0.9391662971
0.9308377178
1.361601656
1.329088721
1.302821988
1.285996354
1.265302464
1.237273156
1.21738841
1.202768251
1.183716416
1.161708054
1.148244351
1.137188255
1.120952
1.100791919
1.090721384
1.082628112
1.069595311
1.048993248
1.040767064
1.035905519
1.027590128
1.009727802
0.9972020174
0.9947770601
0.9909064793
0.9822402398
0.9658381358
0.9589830398
0.9573302998
0.9535163303
0.9451605989
1.391781325
1.357655907
1.329205091
1.312783673
1.292643799
1.263327613
1.242308297
1.227626685
1.208665296
1.185542466
1.171063488
1.159555828
1.143090837
1.121889092
1.111186688
1.102719221
1.089838153
1.068740649
1.059290392
1.054037273
1.045695565
1.027531786
1.013294399
1.010545156
1.006671888
0.9982266577
0.9816075142
0.9739189004
0.9721813776
0.9684436371
0.9603618486
1.423770527
1.38841944
1.356605165
1.340467604
1.321342615
1.290681251
1.268306907
1.253627951
1.234742755
1.210435414
1.194796015
1.182795182
1.166164121
1.14391267
1.13208526
1.123058042
1.110170204
1.088585959
1.078049431
1.072479473
1.064074748
1.045617278
1.029694119
1.026477731
1.022488821
1.014099768
0.9971767208
0.988762217
0.9867325992
0.9829120109
0.9748240257
1.454966184
1.419492104
1.384016426
1.367824093
1.349827385
1.317905048
1.292834385
1.277820189
1.259050921
1.233413727
1.216939812
1.204960271
1.188650437
1.165676926
1.152885336
1.143388019
1.130542005
1.108677739
1.097136269
1.091311301
1.082905074
1.064466152
1.04692079
1.043033787
1.038764872
1.030330201
1.013137345
1.004000221
1.001762638
0.997869186
0.989889607
1.487017782
1.451507524
1.410456312
1.393983144
1.377849584
1.345620273
1.318291839
1.304292283
1.28686074
1.25994238
1.241670009
1.229100362
1.212714333
1.188752682
1.174355762
1.16402616
1.150891758
1.128145071
1.115477537
1.109522459
1.101219187
1.083123179
1.064437549
1.059906785
1.055385422
1.046852859
1.029284768
1.019508135
1.016916852
1.012839661
1.004758444
1.518857056
1.485460908
1.439965829
1.421059522
1.405954597
1.373327843
1.340891119
1.327322657
1.311607627
1.284057515
1.263858455
1.251258436
1.235479245
1.21118408
1.195687826
1.185028467
1.171991038
1.148641935
1.134621197
1.128238666
1.119851801
1.102128334
1.082405819
1.077242056
1.072450913
1.063791985
1.045915913
1.035506639
1.032584866
1.028279183
1.020071185
1.549942558
1.518563795
1.469299464
1.447370624
1.434270692
1.404017759
1.365902522
1.351891287
1.338361338
1.310872673
1.287868701
1.274703571
1.259152884
1.234097099
1.217456766
1.206554419
1.193667424
1.169820154
1.154162557
1.147219048
1.138744112
1.121424322
1.100871522
1.094844887
1.089661862
1.080797945
1.062574744
1.051643643
1.048429898
1.043927412
1.035600717
1.580541401
1.552132167
1.502310568
1.47409052
1.461574088
1.434423788
1.390693787
1.374819587
1.363870096
1.338376604
1.312180481
1.297808574
1.282172462
1.25598974
1.237898198
1.227083814
1.214746468
1.19106163
1.173856846
1.166347107
1.157730242
1.140777011
1.119508396
1.112639765
1.107028142
1.09795582
1.079458421
1.068023231
1.064556637
1.059860997
1.051388852
1.610245378
1.5833895
1.535975575
1.501248771
1.488869991
1.466079474
1.41958435
1.397693647
1.388137644
1.365180029
1.336614141
1.321922111
1.307297046
1.280600741
1.260623417
1.249585079
1.237577071
1.214055837
1.195117607
1.186615136
1.177670103
1.160856784
1.138764883
1.130616206
1.124277947
1.114824286
1.095966043
1.084120053
1.08046334
1.075650964
1.067054981
1.641107379
1.614673219
1.571100596
1.529127842
1.514747138
1.495349218
1.451345671
1.421696068
1.412597412
1.392591903
1.361542561
1.345037294
1.330867335
1.304226346
1.281521662
1.269966121
1.258269449
1.235378608
1.215156793
1.20625197
1.197390154
1.181117234
1.158656483
1.149350747
1.142306963
1.132490238
1.113186709
1.100872832
1.096903346
1.091803395
1.082888605
1.672876315
1.645345408
1.605939719
1.560478401
1.541127739
1.52275566
1.482966718
1.446270269
1.436321364
1.418711052
1.386037065
1.368139364
1.35561241
1.330950614
1.305710257
1.292877742
1.281020712
1.258150995
1.236480368
1.226813102
1.217751778
1.201598483
1.178479747
1.167918886
1.160184432
1.150183724
1.130936305
1.118296431
1.113811841
1.108322136
1.09896081
1.706089362
1.676615321
1.63979312
1.593078349
1.568042691
1.549254933
1.514548077
1.474111178
1.461402148
1.445149458
1.41070196
1.389213746
1.377679307
1.355712729
1.328817282
1.314660439
1.302762096
1.28038219
1.25723932
1.246754344
1.237542575
1.221576245
1.197934727
1.18639212
1.178205139
1.168169207
1.149106864
1.136203748
1.131116008
1.125046695
1.115115704
1.7397106
1.707805821
1.672619805
1.627849667
1.597128596
1.575364336
1.54333682
1.501547246
1.486484082
1.471788404
1.438234479
1.411869174
1.399930009
1.379925808
1.35162905
1.336414153
1.324895715
1.303458368
1.279263499
1.268046185
1.258612621
1.242559045
1.21815527
1.205531247
1.196807679
1.186764961
1.168180217
1.154881884
1.148737706
1.141870553
1.131244533
1.774264341
1.739043873
1.703542072
1.660873761
1.627408469
1.602771618
1.572418606
1.530431825
1.512196268
1.497768787
1.465859388
1.435030877
1.422240567
1.403974746
1.374930168
1.358000703
1.346509047
1.326107616
1.300631781
1.287985501
1.27805437
1.261839238
1.236771386
1.223349532
1.21442131
1.204501511
1.186483876
1.172994842
1.16608891
1.158630407
1.147583615
1.8093645
1.770642838
1.733814821
1.692564368
1.657918217
1.631039529
1.601041478
1.559051478
1.537768522
1.523282919
1.494317435
1.460842892
1.445813309
1.427765181
1.397224859
1.378586519
1.36754506
1.348906868
1.323267516
1.309709757
1.299482932
1.283289254
1.2577145
1.243216175
1.233492847
1.22304513
1.204787145
1.190733641
1.18272615
1.174531634
1.163002359
1.843796492
1.802948915
1.764232037
1.722871535
1.68795955
1.66032506
1.630847986
1.588875126
1.56395609
1.547987445
1.520708045
1.486236925
1.470158976
1.453081413
1.422281211
1.400487147
1.38843825
1.370370082
1.344011958
1.32926303
1.318870255
1.303075303
1.277858478
1.26256755
1.252334245
1.241487319
1.222846713
1.208213073
1.199331456
1.190563212
1.178570678
1.875457915
1.834150304
1.795383651
1.753589481
1.717525351
1.689135014
1.660020605
1.61953621
1.592155128
1.573711604
1.547030226
1.510962077
1.493350926
1.476605262
1.446063475
1.422403801
1.410025767
1.392971823
1.366192502
1.349874838
1.338914161
1.32322136
1.298223125
1.282679416
1.272089759
1.260837694
1.241822728
1.226608467
1.216751253
1.207356168
1.194880742
1.906135759
1.863588069
1.826180257
1.785111526
1.747227448
1.717639247
1.688384924
1.648734503
1.619649169
1.59926635
1.573328879
1.537020102
1.517482063
1.50052001
1.46982823
1.443772503
1.430809152
1.414579551
1.388052001
1.370396939
1.358937577
1.343254509
1.31830749
1.301913344
1.290709901
1.278994166
1.259587449
1.244001313
1.233634766
1.223962923
1.211042437
1.937361154
1.892105132
1.855903974
1.817087355
1.777526838
1.745780858
1.715634789
1.677024182
1.64730738
1.625304012
1.599559609
1.562594639
1.541017399
1.523684615
1.493644551
1.466278248
1.452726406
1.436921134
1.410132937
1.39084715
1.378576136
1.362686755
1.337675843
1.321132204
1.309913854
1.298237088
1.278892036
1.26312307
1.252142306
1.241949813
1.228297387
1.970478451
1.922617727
1.885667356
1.848233895
1.807746857
1.774420654
1.743191176
1.704558285
1.674146324
1.650798011
1.625395702
1.589209098
1.565711642
1.547342071
1.517119517
1.487906776
1.474168622
1.459086551
1.433058469
1.412724885
1.399526796
1.383144022
1.357469124
1.339722144
1.327792762
1.315602462
1.296037779
1.280287654
1.26917551
1.258969361
1.244803758
2.002816602
1.954110546
1.915876965
1.878960434
1.837231467
1.802270931
1.770775266
1.733049552
1.701852833
1.676923362
1.65057034
1.61405904
1.589445095
1.570572723
1.541643498
1.51152402
1.496747643
1.481183558
1.454418829
1.433142694
1.419571689
1.403446071
1.378178221
1.359774327
1.347198794
1.334454347
1.314298812
1.298344157
1.286973571
1.276368575
1.261450687
2.034537692
1.985865254
1.945947384
1.908893067
1.866054471
1.829365879
1.797818706
1.761346269
1.729709991
1.70368496
1.676444852
1.639349407
1.613054052
1.592965538
1.56452391
1.533948851
1.519081412
1.50368866
1.476835701
1.454365209
1.439857943
1.423320812
1.397929944
1.379096732
1.366188109
1.353075884
1.33267146
1.316423162
1.304555664
1.293504507
1.277536282
2.063983965
2.015951389
1.975352926
1.938916958
1.895781099
1.857102438
1.825176745
1.789756282
1.757502374
1.730436264
1.702146433
1.664886411
1.637694202
1.616515892
1.58854493
1.557031785
1.541333657
1.525480381
1.497932688
1.47470476
1.459984854
1.443610928
1.418297024
1.398844823
1.385292553
1.371467021
1.350370913
1.333966795
1.322110845
1.310945972
1.294618473
2.091723242
2.043750326
2.002567226
1.966670166
1.924512723
1.885249387
1.853191038
1.818148558
1.784536491
1.756313963
1.727531119
1.690650228
1.662736282
1.640447537
1.612481169
1.58052357
1.564097137
1.547937119
1.519968196
1.495348144
1.479874319
1.46307853
1.43765576
1.418207005
1.40455228
1.390414506
1.368916234
1.352052954
1.339609777
1.327808047
1.310397391
2.120841193
2.072815992
2.030968249
1.994501209
1.953123055
1.913782399
1.882456031
1.848408774
1.812747555
1.782323618
1.752289776
1.716000249
1.688091558
1.665142541
1.637168517
1.604456522
1.586820081
1.569987489
1.541707913
1.516590376
1.500911749
1.483852901
1.457719065
1.437607386
1.423454849
1.40874477
1.386842638
1.369971152
1.357552692
1.345613392
1.327715275
2.148455239
2.10175925
2.059715908
2.022296079
1.980988616
1.940398696
1.909233256
1.87691558
1.840263062
1.808186046
1.777425327
1.741426899
1.713059929
1.689249742
1.660907561
1.628232643
1.609738078
1.592340002
1.563387472
1.536948515
1.521045592
1.503853687
1.477627969
1.457463504
1.443218733
1.428186025
1.405604295
1.388224581
1.375287742
1.362713204
1.344047236
2.172391348
2.128262236
2.088492341
2.051953671
2.012379666
1.969527916
1.935499422
1.903836673
1.866726512
1.833555761
1.802474501
1.767169748
1.738264133
1.713496854
1.684414944
1.651363939
1.63220008
1.614390146
1.585455079
1.558295918
1.54204829
1.524337008
1.497110808
1.476541635
1.462322826
1.447319347
1.424900627
1.40741167
1.394083757
1.380842217
1.360980557
2.193873169
2.151179015
2.112865832
2.078610429
2.04318441
2.001035479
1.96381661
1.931428866
1.893324012
1.858744772
1.827682905
1.793083151
1.763287863
1.737487225
1.707589502
1.674694328
1.655010597
1.636726014
1.607433963
1.579209406
1.562812398
1.544940741
1.517317444
1.49628221
1.481877011
1.466521654
1.443551557
1.425913726
1.412343816
1.398628985
1.378197663
2.218393147
2.177730978
2.139637995
2.104386091
2.06940449
2.028215223
1.990707674
1.95820025
1.919727746
1.883775952
1.852127405
1.818458329
1.787890588
1.761083176
1.730508212
1.697737444
1.677687283
1.658911838
1.629514471
1.600542179
1.583744403
1.565523938
1.537140897
1.515495842
1.501091812
1.485692951
1.462646902
1.444825702
1.43089854
1.416516621
1.395007431
2.236824664
2.203265983
2.168400007
2.132241605
2.095935918
2.054976373
2.017693754
1.984621869
1.946357023
1.909842486
1.877601007
1.844730714
1.813278489
1.785417467
1.754239903
1.721764976
1.701104561
1.681451876
1.651260817
1.621536415
1.604605387
1.586535771
1.558297816
1.535996016
1.521091009
1.504762364
1.480572728
1.462685578
1.448866455
1.43443539
1.412781991
2.249183694
2.223663899
2.194355583
2.159590546
2.12128918
2.080060319
2.043568752
2.009702438
1.972221706
1.935450961
1.901791693
1.870092472
1.838229769
1.809748285
1.778652826
1.746307592
1.724742452
1.703956
1.672939238
1.642709148
1.625152261
1.606707546
1.578136753
1.555810671
1.54134406
1.524925503
1.499796782
1.481016767
1.4666785
1.451706106
1.429710216
2.262837687
2.243462389
2.219083033
2.18579744
2.146237513
2.105500789
2.069421339
2.034632728
1.998735382
1.962196072
1.926124323
1.895095063
1.862915014
1.833821863
1.802986666
1.770879991
1.748368238
1.726447795
1.69434727
1.664053842
1.646128093
1.627456592
1.598384695
1.575564583
1.56128767
1.544663855
1.518994323
1.49968592
1.485092496
1.469788901
1.447271065
2.2834899
2.263755299
2.241912209
2.210671323
2.171068303
2.130845673
2.094183958
2.058802181
2.025213023
1.988688815
1.950349585
1.919841202
1.887390834
1.857895072
1.827504212
1.795159567
1.771507213
1.74864652
1.715954814
1.685960583
1.667626477
1.648459536
1.618571953
1.595168117
1.581034136
1.564371795
1.538193813
1.518073761
1.50316666
1.487361411
1.464381635
2.282294987
2.27673378
2.264625607
2.23485071
2.194709878
2.156128644
2.119050604
2.083068199
2.051545543
2.01458686
1.975184667
1.944448938
1.911589381
1.881821455
1.851772181
1.819376048
1.794446635
1.770704001
1.737382202
1.707773037
1.689230581
1.669790854
1.639372491
1.61500096
1.600449557
1.5834642
1.557119238
1.536801196
1.521958383
1.505605528
1.481418851
2.28633397
2.286612697
2.27858985
2.251310726
2.21371531
2.179386953
2.143908589
2.107487199
2.076673137
2.039690092
2.001007694
1.969039297
1.935457998
1.905652943
1.875597571
1.843285275
1.816925812
1.792282738
1.758857658
1.729470865
1.710891603
1.691159789
1.660261591
1.635375971
1.620189905
1.602749211
1.575860452
1.555098429
1.540294977
1.523485873
1.498601232
2.293956924
2.298793191
2.28707396
2.262609494
2.230837304
2.2010751
2.169218597
2.13265937
2.099578483
2.063361518
2.027276981
1.994062133
1.960384502
1.93072279
1.899222873
1.867784438
1.840438461
1.814901144
1.781074987
1.751071769
1.732374056
1.712395407
1.680957382
1.655663645
1.63992554
1.622262727
1.595486118
1.574759781
1.559970222
1.542513379
1.516424921
2.287754131
2.301724757
2.293470284
2.27532452
2.256190737
2.227906853
2.196316028
2.158936661
2.121856667
2.086299616
2.051742821
2.017675563
1.98535116
1.955977928
1.921698209
1.89099797
1.86302761
1.836969625
1.804090089
1.773072051
1.753937298
1.73330218
1.701052793
1.675821233
1.659644169
1.641523878
1.614105911
1.593152246
1.578517678
1.561147131
1.535072139
2.26473699
2.296722637
2.293464452
2.286741055
2.268173763
2.243296602
2.217857579
2.18262363
2.144013738
2.110349241
2.076721535
2.042135944
2.012046378
1.98119092
1.943464242
1.913991055
1.885207943
1.858379962
1.826811758
1.795512867
1.776517131
1.755569051
1.722542024
1.696990678
1.680235188
1.661585282
1.633543174
1.611917245
1.596731696
1.579072261
1.552986078
2.193293277
2.2898742
2.287667234
2.279735311
2.26766641
2.255259489
2.241168477
2.210864251
2.169204842
2.133515409
2.099295319
2.066433026
2.039717358
2.006979882
1.967512609
1.93801016
1.907861338
1.880212485
1.84902465
1.816421521
1.797130838
1.776021559
1.742894263
1.717720503
1.701062119
1.681948233
1.652963941
1.63053328
1.614692082
1.59704852
1.571287054
1.979169597
2.253682346
2.283125372
2.277997705
2.271878115
2.268130382
2.259996307
2.232135504
2.192491622
2.158906646
2.123831729
2.087232527
2.061075014
2.027904705
1.990357407
1.960626841
1.92995197
1.903123711
1.872579951
1.839511495
1.818823533
1.796909759
1.76339003
1.73792591
1.721175788
1.701170325
1.670915511
1.647945741
1.631808747
1.614373547
1.589058955
1.695508273
2.096591733
2.236253906
2.261260235
2.275326817
2.280736513
2.268220431
2.243207908
2.215764369
2.189444608
2.153574177
2.112175484
2.082894765
2.050312218
2.014323382
1.982407059
1.95119368
1.925526845
1.894611241
1.862918459
1.84097107
1.818371692
1.784766085
1.759051201
1.742604489
1.721513132
1.68940988
1.666041083
1.649904655
1.633007464
1.608240856
1.495700049
1.790032686
2.12774594
2.227499267
2.276908736
2.285071576
2.274888585
2.256643997
2.231926123
2.206391528
2.177217894
2.136561843
2.102569695
2.071697091
2.037737401
2.004368301
1.974339772
1.949045933
1.914707337
1.885145763
1.862055301
1.838951889
1.805512433
1.778186607
1.762063686
1.740302989
1.707212778
1.683757295
1.667729157
1.651030654
1.626909965
1.608749512
1.41831007
1.530539984
1.901478658
2.145134034
2.261256214
2.288428019
2.284368979
2.276285183
2.254439397
2.224559646
2.199276351
2.161083821
2.123223112
2.092387603
2.058760486
2.025553501
1.998987754
1.972234511
1.934667649
1.907455668
1.883551212
1.860284888
1.828393466
1.799117137
1.782701315
1.760280155
1.727069575
1.704216895
1.68862048
1.671536859
1.646291348
1.627232012
1.402201056
1.42948132
1.633602664
1.947937319
2.183185441
2.284327161
2.286359765
2.276139985
2.254327907
2.23755751
2.221794353
2.187596933
2.14613341
2.113894444
2.079146572
2.046763191
2.023829901
1.994174766
1.955168364
1.929267378
1.904496874
1.880892006
1.849424299
1.817334076
1.801018773
1.778966241
1.746385841
1.724545605
1.709830671
1.692547176
1.6665319
1.646680948
1.400206413
1.405033778
1.462443656
1.704509955
2.002900916
2.253627177
2.270873421
2.266367955
2.259388912
2.252612821
2.24261069
2.210650035
2.167885404
2.136245359
2.101551217
2.068908784
2.047005364
2.015522028
1.977875181
1.951942884
1.926484073
1.903139778
1.871924097
1.837007858
1.818916017
1.79706233
1.765371419
1.74460638
1.730519887
1.712083219
1.684500472
1.664371455
1.400020998
1.400597202
1.410563632
1.501947824
1.721560771
2.106698215
2.247808789
2.255895626
2.265230064
2.266967742
2.255310375
2.225882716
2.186884972
2.158781219
2.127000253
2.091757442
2.067950458
2.036963214
2.001860818
1.974955983
1.94898662
1.925686754
1.893285356
1.858397141
1.838382684
1.816300504
1.784250239
1.763941641
1.750731971
1.731431897
1.702509855
1.681959288
1.400005919
1.400047671
1.401093003
1.417557092
1.511987923
1.811588953
2.15109869
2.224579406
2.259598636
2.273266892
2.264047433
2.241981313
2.208890731
2.180064131
2.151435963
2.113845478
2.087313113
2.058508177
2.02573676
1.997294783
1.971403375
1.948352543
1.913708427
1.880227444
1.857754544
1.835487322
1.802913553
1.78104876
1.768041616
1.747795052
1.718565218
1.698365819
1.400005065
1.400006652
1.400067837
1.401686142
1.422347333
1.548617484
1.924425555
2.153866839
2.249373017
2.275498064
2.273275596
2.264270497
2.239720365
2.206022086
2.176806113
2.137250707
2.106439247
2.078145376
2.046692648
2.017393677
1.992389596
1.968179321
1.932690684
1.902403148
1.87833803
1.85599041
1.82394096
1.799662321
1.786400272
1.76528334
1.735953005
1.715995083
1.400005041
1.400005073
1.400007271
1.40011171
1.402705753
1.435345735
1.645919266
1.971286253
2.189394979
2.270742278
2.269673869
2.258037554
2.244135718
2.225329839
2.200093999
2.160759137
2.126571267
2.097509236
2.065850673
2.036609184
2.0132125
1.986088606
1.950607593
1.922967929
1.898040795
1.875578333
1.84400672
1.8164866
1.802950689
1.781816189
1.75252706
1.733331216
1.40000504
1.400005041
1.400005118
1.400011137
1.400250725
1.406024154
1.467516508
1.725234084
2.028120049
2.241583059
2.257022181
2.252161001
2.247986113
2.240565573
2.223445811
2.187042812
2.149003218
2.117374249
2.083590635
2.055652818
2.033737522
2.00315506
1.968744972
1.942610161
1.917519059
1.896174715
1.866175619
1.836285693
1.820781419
1.799680244
1.77062451
1.751677021
1.40000504
1.40000504
1.400005044
1.400005391
1.400024755
1.400694938
1.412004641
1.511737319
1.747844716
2.10279432
2.250284721
2.253068976
2.248132267
2.250484837
2.241493213
2.210584132
2.172955827
2.141712393
2.105320873
2.076128697
2.05515593
2.023559722
1.989113699
1.962232838
1.9368246
1.916041509
1.887211684
1.857898185
1.840021534
1.818400642
1.789075899
1.76989941
1.40000504
1.40000504
1.40000504
1.400005056
1.400006183
1.400054167
1.401323843
1.419592814
1.528694189
1.830992824
2.154283792
2.206418043
2.234148654
2.256114162
2.250485928
2.226518318
2.193217396
2.166867134
2.131973746
2.097538802
2.075344172
2.045212369
2.010969682
1.982587131
1.958115187
1.937189832
1.907153162
1.879439824
1.859141203
1.837727861
1.807975081
1.786893705
1.40000504
1.40000504
1.40000504
1.400005041
1.400005076
1.400006906
1.400090164
1.401912526
1.427506261
1.563525168
1.911703244
2.146771922
2.25930557
2.266569635
2.258837245
2.240340056
2.213608982
2.189098017
2.157031876
2.118845006
2.094647432
2.066998252
2.033043356
2.001974164
1.978653872
1.95710802
1.92741347
1.901329029
1.879079903
1.857113043
1.82738965
1.804409583
1.40000504
1.40000504
1.40000504
1.40000504
1.400005041
1.400005078
1.400008674
1.400122291
1.403676209
1.437549488
1.645692575
1.988412069
2.223259502
2.244155871
2.247682909
2.247461685
2.233972698
2.21047708
2.180094269
2.140839554
2.114261079
2.088503929
2.055278647
2.022381381
1.999165756
1.974989439
1.946166709
1.921021943
1.897538961
1.874853903
1.845750651
1.818921462
1.40000504
1.40000504
1.40000504
1.40000504
1.40000504
1.400005041
1.40000519
1.400011241
1.400374239
1.4059543
1.4760805
1.73353967
2.050057305
2.179361985
2.24260969
2.252991052
2.247291304
2.227640376
2.200736307
2.163600926
2.133604703
2.106820952
2.073413009
2.041525654
2.018832505
1.993320504
1.96566761
1.940686885
1.916040259
1.894546653
1.864880483
1.837613858
1.40000504
1.40000504
1.40000504
1.40000504
1.40000504
1.40000504
1.400005048
1.400005374
1.400038136
1.400666321
1.415669967
1.511839571
1.777132692
2.111376272
2.246568313
2.244199283
2.239004845
2.237183213
2.221286325
2.18762038
2.153609338
2.123803172
2.090471368
2.061275868
2.038401775
2.011498601
1.984236883
1.958102244
1.935006803
1.913983994
1.884563726
1.855089205
1.40000504
1.40000504
1.40000504
1.40000504
1.40000504
1.40000504
1.400005041
1.400005056
1.400007243
1.400053481
1.402051845
1.42031106
1.548529967
1.870963363
2.121663627
2.190969001
2.231152202
2.24583727
2.236089903
2.209079279
2.17473064
2.142519815
2.108612225
2.081107554
2.058250364
2.031219724
2.002572835
1.976233435
1.954133175
1.933369308
1.903792028
1.86887995
1.40000504
1.40000504
1.40000504
1.40000504
1.40000504
1.40000504
1.40000504
1.400005041
1.400005123
1.400007044
1.400161672
1.402153548
1.434659341
1.587823143
1.902994388
2.17496861
2.24870594
2.241294888
2.238797109
2.226043466
2.197372527
2.164765588
2.129974088
2.10011467
2.077250591
2.050803846
2.022487994
1.99667132
1.974758094
1.952921566
1.9173832
1.886559161
1.40000504
1.40000504
1.40000504
1.40000504
1.40000504
1.40000504
1.40000504
1.40000504
1.400005042
1.400005086
1.400012294
1.400149598
1.405176952
1.442730167
1.656361356
2.022188745
2.181961328
2.203507721
2.234019158
2.236674588
2.219292543
2.188928613
2.154441423
2.122892013
2.096477503
2.068771334
2.041374381
2.014820348
1.994240908
1.966649676
1.932709582
1.928783526
1.40000504
1.40000504
1.40000504
1.40000504
1.40000504
1.40000504
1.40000504
1.40000504
1.40000504
1.400005041
1.400005293
1.400012754
1.400550244
1.406290673
1.484083857
1.731897997
2.016675889
2.194527053
2.250019698
2.248189209
2.235791741
2.210171699
2.179372168
2.147437722
2.115645824
2.086904838
2.057711881
2.0328239
2.008503872
1.978882528
1.97349758
2.028820884
1.40000504
1.40000504
1.40000504
1.40000504
1.40000504
1.40000504
1.40000504
1.40000504
1.40000504
1.40000504
1.400005049
1.400005421
1.400048445
1.400674601
1.417386597
1.506284601
1.792995872
2.118407414
2.235727886
2.231445814
2.228326108
2.224444294
2.205231484
2.172278023
2.139117193
2.107268018
2.07635582
2.046740451
2.0218141
2.015317526
2.068786431
2.30079039
1.40000504
1.40000504
1.40000504
1.40000504
1.40000504
1.40000504
1.40000504
1.40000504
1.40000504
1.40000504
1.400005041
1.400005056
1.400007487
1.400056714
1.402313714
1.420685215
1.567027289
1.887289831
2.111201917
2.185697219
2.226604081
2.234685928
2.226515896
2.198379505
2.164474589
2.130599959
2.092414111
2.060821825
2.055783533
2.102581817
2.332623403
2.706081475
1.40000504
1.40000504
1.40000504
1.40000504
1.40000504
1.40000504
1.40000504
1.40000504
1.40000504
1.40000504
1.40000504
1.400005041
1.400005122
1.400007706
1.400198352
1.402562561
1.44370413
1.60647154
1.922036709
2.165967145
2.236418515
2.230451723
2.222599692
2.211404706
2.186732983
2.148589012
2.108579957
2.098028328
2.144511345
2.367863918
2.726831427
2.982979552
1.40000504
1.40000504
1.40000504
1.40000504
1.40000504
1.40000504
1.40000504
1.40000504
1.40000504
1.40000504
1.40000504
1.40000504
1.400005042
1.400005125
1.400015007
1.400214609
1.406846871
1.452704781
1.67969932
2.005879118
2.177426468
2.205423687
2.222520085
2.220032016
2.202144726
2.166996495
2.146735745
2.185958245
2.405067347
2.794302448
2.939936706
3.023964397
1.40000504
1.40000504
1.40000504
1.40000504
1.40000504
1.40000504
1.40000504
1.40000504
1.40000504
1.40000504
1.40000504
1.40000504
1.40000504
1.400005042
1.400005354
1.40001696
1.400655792
1.408475375
1.490046518
1.728708135
2.047557699
2.192353212
2.231871476
2.227398483
2.211315058
2.198472913
2.239743841
2.453551613
2.817281044
3.107455925
3.101024948
3.061777197
1.40000504
1.40000504
1.40000504
1.40000504
1.40000504
1.40000504
1.40000504
1.40000504
1.40000504
1.40000504
1.40000504
1.40000504
1.40000504
1.40000504
1.400005047
1.400005539
1.400043739
1.40090443
1.416107074
1.518281569
1.805077652
2.082113471
2.211275068
2.21039977
2.216477013
2.274074117
2.514972194
2.890657066
3.05675413
3.156429052
3.149829624
3.106705825
1.40000504
1.40000504
1.40000504
1.40000504
1.40000504
1.40000504
1.40000504
1.40000504
1.40000504
1.40000504
1.40000504
1.40000504
1.40000504
1.40000504
1.40000504
1.400005057
1.400006589
1.40006722
1.401819183
1.425213895
1.558479912
1.858146348
2.135853705
2.199677567
2.304423511
2.590235423
2.971186066
3.220304752
3.218952087
3.203021701
3.151254269
3.085776355
1.40000504
1.40000504
1.40000504
1.40000504
1.40000504
1.40000504
1.40000504
1.40000504
1.40000504
1.40000504
1.40000504
1.40000504
1.40000504
1.40000504
1.40000504
1.400005041
1.400005083
1.400008153
1.400139296
1.403326038
1.43759121
1.616178334
1.929841793
2.232670894
2.554410332
2.961650156
3.164461937
3.306405332
3.286274935
3.217248808
3.140578675
3.075119912
1.40000504
1.40000504
1.40000504
1.40000504
1.40000504
1.40000504
1.40000504
1.40000504
1.40000504
1.40000504
1.40000504
1.40000504
1.40000504
1.40000504
1.40000504
1.40000504
1.400005041
1.400005152
1.400011642
1.400277982
1.405902125
1.461080956
1.742348873
2.319890934
2.949740441
3.341645092
3.396443861
3.380155293
3.318326801
3.227909635
3.136509566
3.066086623
)
;

boundaryField
{
    inlet
    {
        type            calculated;
        value           nonuniform 0();
    }
    outlet
    {
        type            calculated;
        value           nonuniform 0();
    }
    bottom
    {
        type            calculated;
        value           nonuniform 0();
    }
    top
    {
        type            calculated;
        value           nonuniform List<scalar> 
32
(
1.40000504
1.40000504
1.40000504
1.40000504
1.40000504
1.40000504
1.40000504
1.40000504
1.40000504
1.40000504
1.40000504
1.40000504
1.40000504
1.40000504
1.40000504
1.40000504
1.400005041
1.400005152
1.400011642
1.400277982
1.405902125
1.461080956
1.742348873
2.319890934
2.949740441
3.341645092
3.396443861
3.380155293
3.318326801
3.227909635
3.136509566
3.066086623
)
;
    }
    obstacle
    {
        type            calculated;
        value           nonuniform 0();
    }
    defaultFaces
    {
        type            empty;
    }
    procBoundary34to27
    {
        type            processor;
        value           nonuniform List<scalar> 9(1.350041682 1.381883619 1.412454247 1.444144244 1.474940815 1.506740202 1.53815828 1.569907674 1.60164334);
    }
    procBoundary34to28
    {
        type            processor;
        value           nonuniform List<scalar> 
32
(
1.139182526
1.126371158
1.108999925
1.091081022
1.080946883
1.071681794
1.056283247
1.038807762
1.03044458
1.023266695
1.009821206
0.992979276
0.9879115973
0.9837022065
0.9748462802
0.9577740404
0.9497868225
0.9473964535
0.9427818704
0.9334039478
0.9190804941
0.9150874922
0.9138949361
0.9099848458
0.9015871893
1.299229767
1.269997741
1.24697487
1.230192115
1.209364855
1.183611211
1.183611211
)
;
    }
    procBoundary34to29
    {
        type            processor;
        value           uniform 0.9037395795;
    }
    procBoundary34to33
    {
        type            processor;
        value           nonuniform List<scalar> 
61
(
1.634744544
1.669771331
1.705974183
1.742315159
1.778594033
1.815133998
1.850977802
1.884984385
1.91703463
1.949503083
1.981910537
2.014256295
2.044579094
2.074716128
2.103413467
2.132293524
2.162034086
2.188491598
2.211960697
2.232532874
2.254902757
2.267985802
2.273628226
2.281284437
2.295351326
2.293543377
2.277823149
2.275965402
2.240350126
2.132601157
1.935739706
1.681225247
1.487303143
1.414141655
1.401299304
1.400087098
1.400009989
1.400005339
1.400005054
1.400005041
1.40000504
1.40000504
1.40000504
1.40000504
1.40000504
1.40000504
1.40000504
1.40000504
1.40000504
1.40000504
1.40000504
1.40000504
1.40000504
1.40000504
1.40000504
1.40000504
1.40000504
1.40000504
1.40000504
1.40000504
1.40000504
)
;
    }
    procBoundary34to35
    {
        type            processor;
        value           nonuniform List<scalar> 
71
(
0.9184774184
0.9320865313
0.9472461752
0.9613196973
0.9761587658
0.990871102
1.005853496
1.021368407
1.037023954
1.052683644
1.0683635
1.084211754
1.100132723
1.116002022
1.132276968
1.147828224