/*--------------------------------*- C++ -*----------------------------------*\
  =========                 |
  \\      /  F ield         | OpenFOAM: The Open Source CFD Toolbox
   \\    /   O peration     | Website:  https://openfoam.org
    \\  /    A nd           | Version:  7
     \\/     M anipulation  |
\*---------------------------------------------------------------------------*/
FoamFile
{
    version     2.0;
    format      ascii;
    class       volScalarField;
    location    "1.2";
    object      rho;
}
// * * * * * * * * * * * * * * * * * * * * * * * * * * * * * * * * * * * * * //

dimensions      [1 -3 0 0 0 0 0];

internalField   nonuniform List<scalar> 
22
(
1.322660296
1.326153514
1.331442942
1.33496494
1.314138842
1.319951278
1.325509846
1.329213997
1.306798159
1.312771626
1.319378331
1.323040283
1.298622656
1.306427504
1.31305301
1.321150505
1.29646373
1.308495468
1.316222828
1.32210123
1.2959983
1.310398828
)
;

boundaryField
{
    inlet
    {
        type            calculated;
        value           nonuniform 0();
    }
    outlet
    {
        type            calculated;
        value           nonuniform List<scalar> 5(1.334849582 1.32922808 1.323112695 1.321154582 1.322097612);
    }
    bottom
    {
        type            calculated;
        value           nonuniform 0();
    }
    top
    {
        type            calculated;
        value           nonuniform 0();
    }
    obstacle
    {
        type            calculated;
        value           nonuniform 0();
    }
    defaultFaces
    {
        type            empty;
    }
    procBoundary17to11
    {
        type            processor;
        value           nonuniform List<scalar> 4(1.334045234 1.335952952 1.340879245 1.345052043);
    }
    procBoundary17to16
    {
        type            processor;
        value           nonuniform List<scalar> 5(1.358070093 1.349281737 1.342986958 1.335026212 1.332277927);
    }
    procBoundary17to22
    {
        type            processor;
        value           uniform 1.333006523;
    }
    procBoundary17to23
    {
        type            processor;
        value           nonuniform List<scalar> 5(1.319142521 1.320784734 1.295831739 1.319142521 1.308098858);
    }
}


// ************************************************************************* //
