/*--------------------------------*- C++ -*----------------------------------*\
  =========                 |
  \\      /  F ield         | OpenFOAM: The Open Source CFD Toolbox
   \\    /   O peration     | Website:  https://openfoam.org
    \\  /    A nd           | Version:  7
     \\/     M anipulation  |
\*---------------------------------------------------------------------------*/
FoamFile
{
    version     2.0;
    format      ascii;
    class       volScalarField;
    location    "4.3";
    object      p;
}
// * * * * * * * * * * * * * * * * * * * * * * * * * * * * * * * * * * * * * //

dimensions      [1 -1 -2 0 0 0 0];

internalField   nonuniform List<scalar> 
2223
(
1.371780294
1.307857316
1.259763708
1
1
1
1
1
1
1
1.000000009
1.000000825
1.000032883
1.001092759
1.014744862
1.127339632
1.448803932
1.878879771
1.95627672
2.015451438
2.058360628
2.057683293
2.047089994
2.038578356
2.034294003
2.028094645
2.008146109
1.970259478
1.914470616
1.851457942
1.794020577
1.730710144
1.665187129
1.616912021
1.561176505
1.488728103
1.443490957
1.410092435
1.3511876
1.294405042
1
1
1
1
1
1
1
1
1.000000016
1.000000952
1.000060634
1.001361849
1.025062399
1.15845584
1.551979555
1.921970445
2.023836876
2.047498012
2.051876894
2.04661355
2.04310106
2.041126983
2.03821181
2.025974805
1.9940854
1.945453185
1.889102075
1.833936627
1.77622534
1.710551412
1.656437273
1.605648127
1.536270556
1.48110993
1.446950937
1.394522618
1.331248212
1
1
1
1
1
1
1
1
1
1.000000025
1.000002439
1.000094051
1.00308912
1.036146634
1.234621508
1.717356511
1.915003633
1.99189782
2.045363721
2.050644371
2.04875008
2.048804348
2.048763741
2.040740063
2.013883322
1.972471176
1.925733913
1.874642353
1.820345538
1.756821924
1.694297937
1.645191552
1.584003695
1.521271094
1.48300487
1.436907665
1.37141761
1
1
1
1
1
1
1
1
1
1.000000001
1.000000119
1.000006445
1.000293975
1.005760107
1.065779659
1.368737668
1.749952264
1.967506053
2.056008289
2.050864634
2.03598505
2.04431062
2.053294852
2.051368705
2.030012777
1.994216267
1.956336835
1.912449761
1.862174351
1.804348657
1.735863949
1.681645961
1.628297489
1.564576521
1.519245567
1.47620884
1.41251484
1
1
1
1
1
1
1
1
1
1
1.000000007
1.000000426
1.00002326
1.000641914
1.012701017
1.111066441
1.459773772
1.810257634
2.026375845
2.031426298
2.022767057
2.034516666
2.048540784
2.051155988
2.038964515
2.012026731
1.980555494
1.943499263
1.898243221
1.84796473
1.782153156
1.719648803
1.668643148
1.60787322
1.555839228
1.513700388
1.453355753
1
1
1
1
1
1
1
1
1
1
1
1.00000002
1.000001205
1.00004856
1.00145242
1.020630078
1.172079975
1.494685308
1.89131778
2.039652404
2.027860589
2.03151435
2.041064966
2.047997087
2.040904401
2.02346539
1.999390904
1.968567051
1.927847227
1.883386802
1.825938761
1.760802984
1.708791021
1.651329253
1.592962928
1.549835923
1.494743274
1
1
1
1
1
1
1
1
1
1
1
1
1.000000031
1.000002134
1.000091938
1.002438705
1.033505588
1.214154833
1.583107568
1.966361282
1.986999624
2.015814428
2.035666246
2.047202398
2.041134062
2.030086728
2.015557751
1.992504213
1.955510418
1.911957914
1.861730599
1.801202831
1.749145579
1.694447903
1.631015608
1.58534313
1.535898025
1
1
1
1
1
1
1
1
1
1
1
1
1
1.000000055
1.000003428
1.00018221
1.003887666
1.05254695
1.252234558
1.699724913
1.918381642
2.028146541
2.062055783
2.05299855
2.039925367
2.038987258
2.032211004
2.015738963
1.983804386
1.939473015
1.892240258
1.837916758
1.78808678
1.736882277
1.670135783
1.619638827
1.57577727
1
1
1
1
1
1
1
1
1
1
1
1
1
1.000000001
1.000000102
1.000009712
1.000294084
1.007655177
1.066048015
1.360115867
1.777612145
2.003475972
2.051680628
2.048000984
2.032606088
2.034277508
2.041891158
2.0345131
2.01044762
1.968426833
1.922261538
1.871728187
1.823467077
1.775721749
1.71017558
1.653570777
1.612030504
1
1
1
1
1
1
1
1
1
1
1
1
1
1
1.000000004
1.000000434
1.0000179
1.000766868
1.011744931
1.117314766
1.50333713
1.813775127
2.00531839
2.046500289
2.041477168
2.029898905
2.032188383
2.038220491
2.031133552
1.999626222
1.955355899
1.906410795
1.857956051
1.812133481
1.750446802
1.689003071
1.646654914
1
1
1
1
1
1
1
1
1
1
1
1
1
1
1
1.000000018
1.000000952
1.000064309
1.001466265
1.025325644
1.202219902
1.538496251
1.902268826
2.048115229
2.046486535
2.022620222
2.027320007
2.033229524
2.037215674
2.017994264
1.982135614
1.938834052
1.891440026
1.846517195
1.790333811
1.727944984
1.682457719
1
1
1
1
1
1
1
1
1
1
1
1
1
1
1
1.000000001
1.000000039
1.000004119
1.000121027
1.003795994
1.043695401
1.25583666
1.624016144
1.982792113
1.999492079
2.011333581
2.025142974
2.037974775
2.035736394
2.022020967
1.998903037
1.967059722
1.923635351
1.877513284
1.82524251
1.766641636
1.720743892
1
1
1
1
1
1
1
1
1
1
1
1
1
1
1
1
1.000000001
1.000000153
1.000006282
1.000332638
1.005681593
1.069961355
1.286506433
1.757654145
1.936978826
2.022130353
2.052425084
2.046810018
2.034567535
2.024457862
2.012562772
1.991923409
1.954714438
1.907306852
1.85632548
1.802161794
1.758174958
1
1
1
1
1
1
1
1
1
1
1
1
1
1
1
1
1
1.000000003
1.000000186
1.000016454
1.000452094
1.010370988
1.082813314
1.398222317
1.790823598
1.988429629
2.039306283
2.040503708
2.032944359
2.02943048
2.029068837
2.01516363
1.983123791
1.936713216
1.885628703
1.834237552
1.791938634
1
1
1
1
1
1
1
1
1
1
1
1
1
1
1
1
1
1
1.000000004
1.000000509
1.000024191
1.000940782
1.014808032
1.125041038
1.537131059
1.828705271
1.997986326
2.046717291
2.043729572
2.038101542
2.027925943
2.022119464
2.004458439
1.965535176
1.916952354
1.866744581
1.822994893
1
1
1
1
1
1
1
1
1
1
1
1
1
1
1
1
1
1
1
1.000000015
1.000001089
1.000067698
1.001781691
1.026452629
1.224840518
1.581213761
1.899780865
2.042928879
2.047536869
2.033615239
2.025477033
2.025440627
2.020487684
1.991907719
1.949143886
1.90293444
1.857237229
1
1
1
1
1
1
1
1
1
1
1
1
1
1
1
1
1
1
1
1.000000001
1.000000051
1.000004526
1.000157519
1.004185247
1.053282124
1.290746838
1.648267338
1.990993525
2.013264023
2.022086187
2.027556548
2.026419833
2.021844552
2.001623388
1.970364499
1.934394675
1.892289686
1
1
1
1
1
1
1
1
1
1
1
1
1
1
1
1
1
1
1
1
1.000000002
1.000000226
1.000010649
1.000428685
1.00788449
1.086009986
1.321201225
1.795388494
1.951519556
2.024428603
2.045348806
2.041076259
2.023227731
2.007560886
1.987801787
1.961975483
1.925496339
1
1
1
1
1
1
1
1
1
1
1
1
1
1
1
1
1
1
1
1
1
1.000000006
1.000000433
1.000025678
1.000714753
1.01385246
1.099927741
1.42813316
1.814233397
1.990788554
2.036991804
2.039841902
2.027926087
2.015752813
2.002449708
1.985620353
1.955538342
1
1
1
1
1
1
1
1
1
1
1
1
1
1
1
1
1
1
1
1
1
1
1.000000009
1.000000837
1.00003933
1.001295817
1.01822631
1.13781032
1.568942971
1.843936907
2.002580441
2.040379235
2.036846523
2.031103157
2.019306504
2.003848505
1.981454722
1
1
1
1
1
1
1
1
1
1
1
1
1
1
1
1
1
1
1
1
1
1
1
1.000000019
1.000001537
1.00008246
1.002170969
1.02960533
1.251937111
1.606090161
1.906872541
2.030483262
2.038190126
2.028363528
2.018871219
2.016801377
2.0036169
1
1
1
1
1
1
1
1
1
1
1
1
1
1
1
1
1
1
1
1
1
1
1
1.000000001
1.00000006
1.000004768
1.000193411
1.004905195
1.064026649
1.316776578
1.671879063
1.975345801
2.004149689
2.017675505
2.022759527
2.023250998
2.012290576
1
1
1
1
1
1
1
1
1
1
1
1
1
1
1
1
1
1
1
1
1
1
1
1
1.000000003
1.00000025
1.000014243
1.0005524
1.010143338
1.100692907
1.336582852
1.802131313
1.96498344
2.019697827
2.035748142
2.034921803
2.018333794
1
1
1
1
1
1
1
1
1
1
1
1
1
1
1
1
1
1
1
1
1
1
1
1
1
1.000000009
1.000000707
1.000037287
1.000995076
1.017367567
1.108241306
1.46024812
1.842331021
1.984057591
2.026051163
2.036648469
2.026824253
1
1
1
1
1
1
1
1
1
1
1
1
1
1
1
1
1
1
1
1
1
1
1
1
1
1
1.000000019
1.000001344
1.000059564
1.001668332
1.021392092
1.161495426
1.597297791
1.869247664
2.004089945
2.03280947
2.031721246
1
1
1
1
1
1
1
1
1
1
1
1
1
1
1
1
1
1
1
1
1
1
1
1
1
1
1
1.000000029
1.000002394
1.000106765
1.002856736
1.036696653
1.28391138
1.644629134
1.938250506
2.017669737
2.018878565
1
1
1
1
1
1
1
1
1
1
1
1
1
1
1
1
1
1
1
1
1
1
1
1
1
1
1
1.000000001
1.00000009
1.000006254
1.000287138
1.006122845
1.082015105
1.339226261
1.706842531
1.970516445
2.006399266
1
1
1
1
1
1
1
1
1
1
1
1
1
1
1
1
1
1
1
1
1
1
1
1
1
1
1
1
1.000000004
1.00000035
1.000022672
1.000704318
1.013814225
1.110202298
1.365923507
1.836943957
1.967679666
1
1
1
1
1
1
1
1
1
1
1
1
1
1
1
1
1
1
1
1
1
1
1
1
1
1
1
1
1
1.000000015
1.000001159
1.000047934
1.001376778
1.019580334
1.12016861
1.501312457
1.846537179
1
1
1
1
1
1
1
1
1
1
1
1
1
1
1
1
1
1
1
1
1
1
1
1
1
1
1
1
1
1
1.00000003
1.000001745
1.000078038
1.001973537
1.024242462
1.184348247
1.609292018
1
1
1
1
1
1
1
1
1
1
1
1
1
1
1
1
1
1
1
1
1
1
1
1
1
1
1
1
1
1
1
1.000000039
1.000002937
1.000135611
1.00333733
1.042913006
1.310810705
1
1
1
1
1
1
1
1
1
1
1
1
1
1
1
1
1
1
1
1
1
1
1
1
1
1
1
1
1
1
1
1.000000001
1.000000117
1.000008687
1.000349225
1.007477049
1.093703794
1
1
1
1
1
1
1
1
1
1
1
1
1
1
1
1
1
1
1
1
1
1
1
1
1
1
1
1
1
1
1
1
1.000000006
1.000000543
1.000028247
1.000927209
1.016042958
1
1
1
1
1
1
1
1
1
1
1
1
1
1
1
1
1
1
1
1
1
1
1
1
1
1
1
1
1
1
1
1
1
1.000000025
1.000001491
1.000067443
1.001616255
1
1
1
1
1
1
1
1
1
1
1
1
1
1
1
1
1
1
1
1
1
1
1
1
1
1
1
1
1
1
1
1
1
1.000000001
1.00000004
1.000002522
1.000094514
1
1
1
1
1
1
1
1
1
1
1
1
1
1
1
1
1
1
1
1
1
1
1
1
1
1
1
1
1
1
1
1
1
1
1.000000001
1.000000054
1.000003894
1
1
1
1
1
1
1
1
1
1
1
1
1
1
1
1
1
1
1
1
1
1
1
1
1
1
1
1
1
1
1
1
1
1
1
1.000000002
1.000000174
1
1
1
1
1
1
1
1
1
1
1
1
1
1
1
1
1
1
1
1
1
1
1
1
1
1
1
1
1
1
1
1
1
1
1
1
1.00000001
1
1
1
1
1
1
1
1
1
1
1
1
1
1
1
1
1
1
1
1
1
1
1
1
1
1
1
1
1
1
1
1
1
1
1
1
1
1
1
1
1
1
1
1
1
1
1
1
1
1
1
1
1
1
1
1
1
1
1
1
1
1
1
1
1
1
1
1
1
1
1
1
1
1
1
1
1
1
1
1
1
1
1
1
1
1
1
1
1
1
1
1
1
1
1
1
1
1
1
1
1
1
1
1
1
1
1
1
1
1
1
1
1
1
1
1
1
1
1
1
1
1
1
1
1
1
1
1
1
1
1
1
1
1
1
1
1
1
1
1
1
1
1
1
1
1
1
1
1
1
1
1
1
1
1
1
1
1
1
1
1
1
1
1
1
1
1
1
1
1
1
1
1
1
1
1
1
1
1
1
1
1
1
1
1
1
1
1
1
1
1
1
1
1
1
1
1
1
1
1
1
1
1
1
1
1
1
1
1
1
1
1
1
1
1
1
1
1
1
1
1
1
1
1
1
1
1
1
1
1
1
1
1
1
1
1
1
1
1
1
1
1
1
1
1
1
1
1
1
1
1
1
1
1
1
1
1
1
1
1
1
1
1
1
1
1
1
1
1
1
1
1
1
1
1
1
1
1
1
1
1
1
1
1
1
1
1
1
1
1
1
1
1
1
1
1
1
1
1
1
1
1
1
1
1
1
1
1
1
1
1
1
1
1
1
1
1
1
1
1
1
1
1
1
1
1
1
1
1
1
1
1
1
1
1
1
1
1
1
1
1
1
1
1
1
1
1
1
1
1
1
1
1
1
1
1
1
1
1
1
1
1
1
1
1
1
1
1
1
1
1
1
1
1
1
1
1
1
1
1
1
1
1
1
1
1
1
1
1
1
1
1
1
1
1
1
1
1
1
1
1
1
1
1
1
1
1
1
1
1
1
1
1
1
1
1
1
1
1
1
1
1
1
1
1
1
1
1
1
1
1
1
1
1
1
1
1
1
1
1
1
1
1
1
1
1
1
1
1
1
1
1
1
1
1
1
1
1
1
1
1
1
1
1
1
1
1
1
1
1
1
1
1
1
1
1
1
1
1
1
1
1
1
1
1
1
1
1
1
1
1
1
1
1
1
1
1
1
1
1
1
1
1
1
1
1
1
1
1
1
1
1
1
1
1
1
1
1
1
1
1
1
1
1
1
1
1
1
1
1
1
1
1
1
1
1
1
1
1
1
1
1
1
1
1
1
1
1
1
1
1
1
1
1
1
1
1
1
1
1
1
1
1
1
1
1
1
1
1
1
1
1
1
1
1
1
1
1
1
1
1
1
1
1
1
1
1
1
1
1
1
1
1
1
1
1
1
1
1
1
1
1
1
1
1
1
1
1
1
1
1
1
1
1
1
1
1
1
1
1
1
1
1
1
1
1
1
1
1
1
1
1
1
1
1
1
1
1
1
1
1
1
1
1
1
1
1
1
1
1
1
1
1
1
1
1
1
1
1
1
1
1
1
1
1
1
1
1
1
1
1
1
1
1
1
1
1
1
1
1
1
1
1
1
1
1
1
1
1
1
1
1
1
1
1
1
1
1
1
1
1
1
1
1
1
1
1
1
1
1
1
1
1
1
1
1
1
1
1
1
1
1
1
1
1
1
1
1
1
1
1
1
1
1
1
1
1
1
1
1
1
1
1
1
1
1
1
1
1
1
1
1
1
1
1
1
1
1
1
1
1
1
1
1
1
1
1
1
1
1
1
1
1
1
1
1
1
1
1
1
1
1
1
1
1
1
1
1
1
1
1
1
1
1
1
1
1
1
1
1
1
1
1
1
1
1
1
1
1
1
1
1
1
1
)
;

boundaryField
{
    inlet
    {
        type            fixedValue;
        value           nonuniform 0();
    }
    outlet
    {
        type            zeroGradient;
    }
    bottom
    {
        type            slip;
    }
    top
    {
        type            slip;
    }
    obstacle
    {
        type            zeroGradient;
    }
    defaultFaces
    {
        type            empty;
    }
    procBoundary33to26
    {
        type            processor;
        value           nonuniform List<scalar> 
25
(
1
1
1
1
1
1
1
1
1
1
1
1
1
1
1
1
1
1
1
1
1
1
1
1
1
)
;
    }
    procBoundary33to27
    {
        type            processor;
        value           nonuniform List<scalar> 
38
(
1.331702726
1.267479567
1.22692004
1
1
1
1
1
1
1.000000003
1.000000291
1.000019529
1.000585257
1.011142355
1.096647343
1.370929856
1.781395449
2.042424929
2.032048095
2.035484443
2.052203583
2.058361827
2.049462857
2.040585138
2.03421895
2.016463571
1.986052618
1.941727988
1.878690197
1.812441195
1.752388969
1.682937432
1.620008167
1.574822907
1.514529393
1.445095411
1.407077577
1.407077577
)
;
    }
    procBoundary33to32
    {
        type            processor;
        value           nonuniform List<scalar> 
35
(
1
1
1
1
1
1
1
1
1
1
1
1
1
1
1
1
1
1
1
1
1
1
1
1
1
1
1
1
1
1
1
1
1
1
1
)
;
    }
    procBoundary33to34
    {
        type            processor;
        value           nonuniform List<scalar> 
61
(
1.239763437
1.272693833
1.305404618
1.338638368
1.372258091
1.405387588
1.440943873
1.479199342
1.521263311
1.561257041
1.59850657
1.634089779
1.672274252
1.712269417
1.749951224
1.783254829
1.815292165
1.848112694
1.880469193
1.911136231
1.942004897
1.967010688
1.979392488
1.99186502
2.014454737
2.022040893
2.017519233
2.015073925
2.000637064
1.980576516
1.891784758
1.646985881
1.347700146
1.119500014
1.022749949
1.002416237
1.000170468
1.000011342
1.000000718
1.000000032
1.000000001
1
1
1
1
1
1
1
1
1
1
1
1
1
1
1
1
1
1
1
1
)
;
    }
}


// ************************************************************************* //
