/*--------------------------------*- C++ -*----------------------------------*\
  =========                 |
  \\      /  F ield         | OpenFOAM: The Open Source CFD Toolbox
   \\    /   O peration     | Website:  https://openfoam.org
    \\  /    A nd           | Version:  7
     \\/     M anipulation  |
\*---------------------------------------------------------------------------*/
FoamFile
{
    version     2.0;
    format      ascii;
    class       volVectorField;
    location    "0.9";
    object      U;
}
// * * * * * * * * * * * * * * * * * * * * * * * * * * * * * * * * * * * * * //

dimensions      [0 1 -1 0 0 0 0];

internalField   nonuniform List<vector> 5((3 -2.419259057e-15 0) (2.987330695 0.003719453841 0) (2.973872474 0.004538361356 0) (3 -6.613974786e-16 0) (3 -8.460575694e-16 0));

boundaryField
{
    inlet
    {
        type            fixedValue;
        value           nonuniform 0();
    }
    outlet
    {
        type            inletOutlet;
        inletValue      nonuniform 0();
        value           nonuniform 0();
    }
    bottom
    {
        type            slip;
    }
    top
    {
        type            slip;
    }
    obstacle
    {
        type            slip;
    }
    defaultFaces
    {
        type            empty;
    }
    procBoundary19to13
    {
        type            processor;
        value           nonuniform List<vector> 4((3 1.870724592e-15 0) (3 -8.339645842e-16 0) (3 -8.339645842e-16 0) (2.987330696 -0.003719463003 0));
    }
    procBoundary19to18
    {
        type            processor;
        value           uniform (3 -8.005534647e-16 0);
    }
    procBoundary19to20
    {
        type            processor;
        value           uniform (2.958831075 0.02051467828 0);
    }
    procBoundary19to25
    {
        type            processor;
        value           nonuniform List<vector> 4((2.998496617 0.002428708125 0) (2.995416677 0.00783271684 0) (3 -2.232811212e-15 0) (3 -1.210447684e-15 0));
    }
}


// ************************************************************************* //
