/*--------------------------------*- C++ -*----------------------------------*\
  =========                 |
  \\      /  F ield         | OpenFOAM: The Open Source CFD Toolbox
   \\    /   O peration     | Website:  https://openfoam.org
    \\  /    A nd           | Version:  7
     \\/     M anipulation  |
\*---------------------------------------------------------------------------*/
FoamFile
{
    version     2.0;
    format      ascii;
    class       volScalarField;
    location    "5";
    object      rho;
}
// * * * * * * * * * * * * * * * * * * * * * * * * * * * * * * * * * * * * * //

dimensions      [1 -3 0 0 0 0 0];

internalField   nonuniform List<scalar> 
2222
(
1.875846357
2.323766277
2.461037237
2.497863836
2.486770607
1.27589666
1.278123014
1.276941371
1.274578247
1.271503538
1.267936467
1.26402053
1.262251703
1.262798769
1.263653811
1.265700942
1.268590754
1.271639646
1.274302792
1.275389334
1.27530247
1.275082342
1.274178576
1.272497508
1.27037061
1.268388301
1.266938719
1.266529064
1.266646816
1.268842598
1.385724117
1.901486392
2.3361788
2.464177054
2.497579858
2.481729243
1.274952868
1.275175734
1.274917397
1.274671669
1.274534973
1.276657162
1.276419907
1.274268741
1.271168687
1.267768674
1.264217775
1.262286222
1.262866558
1.263824582
1.265708999
1.268334259
1.270622598
1.273159857
1.275059943
1.275298672
1.275317899
1.274486593
1.272691245
1.270525746
1.268381931
1.266354002
1.264909764
1.265254947
1.268802404
1.400238612
1.926503055
2.347009447
2.468366852
2.49888586
2.478306348
1.274042876
1.274992028
1.275298502
1.275401669
1.274415902
1.274661533
1.274746926
1.272607869
1.269115657
1.266343603
1.263712376
1.262141723
1.262532724
1.264168799
1.266269929
1.268496122
1.270431642
1.272192573
1.274149213
1.274990229
1.274970178
1.27424871
1.272757134
1.270801201
1.268685224
1.266554415
1.264264925
1.264236998
1.269082822
1.416395554
1.951729294
2.355564028
2.471439491
2.497939776
2.475972158
1.270776382
1.273860407
1.275151675
1.275995504
1.274577545
1.273982073
1.272432244
1.269819886
1.266073813
1.263162073
1.262246258
1.26195817
1.262482181
1.263971368
1.266439943
1.269587335
1.2706365
1.271991323
1.273130289
1.273637782
1.273405852
1.272874962
1.272009537
1.270500279
1.268697807
1.266809024
1.264318509
1.264143282
1.269668393
1.434122821
1.977599791
2.362473108
2.472237447
2.495615034
2.473263747
1.268173554
1.271372709
1.274458726
1.276063359
1.27501501
1.273691438
1.271201471
1.268353603
1.264662991
1.261277966
1.260406564
1.261245361
1.262316958
1.263628797
1.266490029
1.269801322
1.271320986
1.272114771
1.272834992
1.272661309
1.271901972
1.270711519
1.269396505
1.26811621
1.267445191
1.266360074
1.264400674
1.263988504
1.270501952
1.452916875
2.003825677
2.369073193
2.472144188
2.493017734
2.470208766
1.267406935
1.269760497
1.272383291
1.27556785
1.275004605
1.27305266
1.270823725
1.267948541
1.264457519
1.26105939
1.259673874
1.260098204
1.261346937
1.263216551
1.266392105
1.269618971
1.27132541
1.272361937
1.272851464
1.272488175
1.271559029
1.269719597
1.267552065
1.265738459
1.264827664
1.264225127
1.263571681
1.263365206
1.271407752
1.472401268
2.029540988
2.376368436
2.472113931
2.491403063
2.466731163
1.267317828
1.269092476
1.270906638
1.273757889
1.274233552
1.27367104
1.270818149
1.267867003
1.26465455
1.261325317
1.259308089
1.259489372
1.260598598
1.262746021
1.265645489
1.268800201
1.271101365
1.272214226
1.272885198
1.272768419
1.271613019
1.269485593
1.267068746
1.264941997
1.263514168
1.262734256
1.262090832
1.262432371
1.272288235
1.492538145
2.054221833
2.3844056
2.473473485
2.490985913
2.462321003
1.267289619
1.268535591
1.2702705
1.272054809
1.273591556
1.273787345
1.270690145
1.267249668
1.264020782
1.260884827
1.258983019
1.259241958
1.260294385
1.262607707
1.264885894
1.267138902
1.269718657
1.271532809
1.272414431
1.272510615
1.271617274
1.269510152
1.267019314
1.26482741
1.263215778
1.2624564
1.261736019
1.261934535
1.273385498
1.513731088
2.078023727
2.391760006
2.476234763
2.489634988
2.457665045
1.266753449
1.268351301
1.270128136
1.271599255
1.27306059
1.273427427
1.270193848
1.265012535
1.260926978
1.25885324
1.258181235
1.258824684
1.26019458
1.262592996
1.264544094
1.266153639
1.267665602
1.269303386
1.270257133
1.270906313
1.270775399
1.269076547
1.266804007
1.264643739
1.263032045
1.262352157
1.261778883
1.261830113
1.275200849
1.536211567
2.101527763
2.396738707
2.47633089
2.487572967
1.261228845
1.265164463
1.268003252
1.270004282
1.271627323
1.272061549
1.271709916
1.26831467
1.262763875
1.257942353
1.255985387
1.255869367
1.256925418
1.259215367
1.262077695
1.264671068
1.265924467
1.266896406
1.267683309
1.268028219
1.268174367
1.26795822
1.267021332
1.265413718
1.263235039
1.262027708
1.261779061
1.261589103
1.261597009
1.278101488
1.559945241
2.124656335
2.400025488
2.475043153
2.485239816
1.259369753
1.263304048
1.266641892
1.269380511
1.271452622
1.270415668
1.269194765
1.266236704
1.26158379
1.256877624
1.254687732
1.2543276
1.254996765
1.257292537
1.260683758
1.264323243
1.265920807
1.266783878
1.267436607
1.267414993
1.266879787
1.265902404
1.264620218
1.262881884
1.260650972
1.259258413
1.259370448
1.260510574
1.261329352
1.28172309
1.584592182
2.1471769
2.402988253
2.473618565
2.482316559
1.259105588
1.262755095
1.265873121
1.268361822
1.270559644
1.268926286
1.267137961
1.26454059
1.260856349
1.256575412
1.254149625
1.253855404
1.254293309
1.256302557
1.259006729
1.263354748
1.265782894
1.267056829
1.267647699
1.267369468
1.266529128
1.265111811
1.263545092
1.261773458
1.259639046
1.257568353
1.256274767
1.257207692
1.259686659
1.285504631
1.610174669
2.168751303
2.406634152
2.472721565
2.480216712
1.259443631
1.262728671
1.265701837
1.267979003
1.269665921
1.267870666
1.265632021
1.262851778
1.259956536
1.25600682
1.253621258
1.253580678
1.254444637
1.255680284
1.258224262
1.261559997
1.265373122
1.266873216
1.267393294
1.267174477
1.266279142
1.264872275
1.263273392
1.261512219
1.25941371
1.257127425
1.255055205
1.254435422
1.256518715
1.2888098
1.636464737
2.189721808
2.412109215
2.474107019
2.478548048
1.259080073
1.262430806
1.265398008
1.267670652
1.268866543
1.267162831
1.264528821
1.260519538
1.257761547
1.255000846
1.253265252
1.253449494
1.254459775
1.256156426
1.258287052
1.260550399
1.263443366
1.265718049
1.266437855
1.266379626
1.265592052
1.26436269
1.263050927
1.261319134
1.259221969
1.25690065
1.254717911
1.252874531
1.254529143
1.291674735
1.662845686
2.209805414
2.417039888
2.476691594
2.47749469
1.257240867
1.260943213
1.264118905
1.266699297
1.267921179
1.266533079
1.263617847
1.257844106
1.253214633
1.252033023
1.25186849
1.252754816
1.254021872
1.255970675
1.25857407
1.260266757
1.26167754
1.26317972
1.263917079
1.263942433
1.263225384
1.26168402
1.260785729
1.260271788
1.258896279
1.257234352
1.255284337
1.252553332
1.2542936
1.295643879
1.688890282
2.228934668
2.419259036
2.475527606
2.475864051
1.253918849
1.257814282
1.261458159
1.264916147
1.266606723
1.265351852
1.262439227
1.256379021
1.250545768
1.248442623
1.248085433
1.24913173
1.25101131
1.254530938
1.258333417
1.260470385
1.261145453
1.261704676
1.262084852
1.261864087
1.260923186
1.258920883
1.256878736
1.256492963
1.257424771
1.256962259
1.255146998
1.252856242
1.254313244
1.3015724
1.714998003
2.246637601
2.41986785
2.473360099
2.473859621
1.248511876
1.252584137
1.256284602
1.259540088
1.262664714
1.26453293
1.26316534
1.26102386
1.255860132
1.250034507
1.246954011
1.246006907
1.24634942
1.247927771
1.250912964
1.25559683
1.259882619
1.260810131
1.26108589
1.261266771
1.261223644
1.260348152
1.258150399
1.255176357
1.253118112
1.253324039
1.254266204
1.254107367
1.252810172
1.254126473
1.309411087
1.741672412
2.262790114
2.420381139
2.470242112
2.471500209
1.248458754
1.252404829
1.256370956
1.259591353
1.262038564
1.263415182
1.261737022
1.259821057
1.256001236
1.250438905
1.246352757
1.245199544
1.245430287
1.246935538
1.249221676
1.252155445
1.256642373
1.259845929
1.260745378
1.260889691
1.261187481
1.260436325
1.257940252
1.254563887
1.25185698
1.250512707
1.250613478
1.251798517
1.251848005
1.253930713
1.318368297
1.769045474
2.277900373
2.421206523
2.468374137
2.467900847
1.249036595
1.252927121
1.25728829
1.260601707
1.262283826
1.263203111
1.261069705
1.258501844
1.255025781
1.24990311
1.246433322
1.245379781
1.245116446
1.247041004
1.248879827
1.251162055
1.253394325
1.257034894
1.259984421
1.26060269
1.260923379
1.260393367
1.258149593
1.255013382
1.251352293
1.249278763
1.249013855
1.249658271
1.25016806
1.253379975
1.327897175
1.796751342
2.292170601
2.42316576
2.46753811
2.463722017
1.248860821
1.252838651
1.257404023
1.26074692
1.262679067
1.263054011
1.260216905
1.255513367
1.251372259
1.248424431
1.245625435
1.24488878
1.24546555
1.247396002
1.249971154
1.251103987
1.252541688
1.25414692
1.256875886
1.25858844
1.25924429
1.259129406
1.257488042
1.254671406
1.251645606
1.248858608
1.248282823
1.248400893
1.249240547
1.252945693
1.338236307
1.824403099
2.306020412
2.426805514
2.469750773
2.461135503
1.245572539
1.250994232
1.256033407
1.26000637
1.262015352
1.260903546
1.257508617
1.251008424
1.24550653
1.243736638
1.243071698
1.243550349
1.245243333
1.247239525
1.250442427
1.25202777
1.252761342
1.253179107
1.25408241
1.254565818
1.254618645
1.254386443
1.253989411
1.252815227
1.251133341
1.248829019
1.247881726
1.247905916
1.248803129
1.252733939
1.349882138
1.852012579
2.319628123
2.429368572
2.470549676
2.459612376
1.242067
1.247060265
1.251876194
1.256267032
1.258333854
1.256827204
1.253804892
1.248315301
1.242480394
1.240144121
1.239910136
1.241227352
1.243988214
1.246973494
1.250253639
1.252432755
1.252701498
1.253056323
1.253266831
1.252688733
1.251792729
1.250518619
1.249437449
1.24902572
1.248718548
1.248008371
1.247099697
1.247383552
1.248139535
1.252947389
1.363137368
1.879408834
2.331335403
2.429888597
2.469051655
2.458457411
1.241211539
1.244743092
1.248822118
1.252020049
1.254243139
1.253460872
1.251062166
1.247202453
1.241806043
1.239245984
1.238741336
1.239438612
1.241609512
1.245738742
1.249779545
1.252097271
1.253048765
1.253830051
1.253418375
1.252302902
1.251012827
1.249215991
1.247703167
1.246492695
1.245616842
1.245154128
1.244536626
1.244554683
1.245830811
1.252496733
1.377561399
1.906488495
2.341875835
2.428963341
2.4667322
1.23902432
1.24161776
1.245217463
1.248389172
1.25034388
1.2518248
1.251956585
1.249454865
1.246477041
1.242081507
1.239611611
1.238981321
1.239155189
1.240438417
1.243081897
1.246973811
1.251012296
1.25300104
1.253766717
1.253468549
1.252757201
1.250966426
1.248735464
1.247092836
1.245623218
1.244479287
1.24312609
1.242311629
1.241650711
1.242447221
1.25073787
1.392326262
1.933051293
2.350051874
2.427970854
2.464405473
1.238581916
1.241804477
1.246020512
1.249023574
1.250612254
1.251340932
1.250535597
1.247354403
1.244433896
1.241166758
1.239176005
1.238722362
1.239438547
1.239910501
1.241255836
1.243008977
1.245934675
1.249133942
1.251798567
1.252666843
1.252313021
1.250764058
1.248533229
1.246510063
1.245072056
1.24415312
1.242542906
1.241524514
1.240424801
1.241306225
1.250064758
1.407569038
1.95892589
2.35658946
2.427270868
2.463518861
1.234590311
1.239546881
1.245265034
1.249268159
1.250902219
1.250551572
1.248025573
1.242986095
1.238634803
1.236514092
1.236044683
1.236586672
1.237887883
1.238891103
1.24005116
1.240708803
1.241715207
1.24353366
1.246418269
1.248637361
1.249293359
1.249109225
1.247348887
1.245454122
1.244059619
1.243414559
1.242743011
1.241755424
1.240072906
1.240561077
1.250229936
1.423958091
1.984394305
2.364480097
2.428205095
2.463632453
1.230322355
1.235200627
1.241874251
1.247715966
1.249941512
1.248492855
1.245298323
1.239900552
1.23426346
1.231026157
1.229973388
1.230357547
1.232347539
1.235906903
1.238466427
1.239726646
1.240631014
1.241717133
1.243008787
1.244319649
1.244571403
1.244144391
1.242940745
1.24179476
1.241583452
1.241674476
1.241959177
1.241194963
1.240161949
1.240689673
1.250828532
1.441808845
2.009406234
2.373839531
2.432461188
2.464640055
1.228988368
1.233618558
1.239683081
1.245456556
1.247881468
1.246787556
1.243564013
1.238596276
1.232737633
1.228868259
1.22718002
1.226548447
1.227880836
1.231431429
1.235766649
1.238976907
1.240635482
1.241613388
1.242268452
1.242453748
1.242433184
1.241196928
1.239667296
1.237234271
1.236323667
1.236976726
1.238008117
1.238785623
1.239662594
1.240383551
1.252266481
1.461389701
2.033051469
2.383499638
2.435080145
2.464418548
1.228707919
1.233162871
1.23892992
1.243817982
1.245881832
1.245336106
1.242325692
1.238001567
1.231596863
1.227836848
1.226335712
1.226268817
1.227464371
1.229623442
1.233683127
1.238177351
1.240768092
1.241883345
1.242507462
1.2419956
1.24157719
1.240243235
1.238249243
1.234839418
1.233090979
1.232797567
1.232980029
1.234547659
1.236037589
1.238554644
1.253921777
1.482587761
2.055142742
2.387959675
2.434635797
2.463707715
1.225478082
1.228387441
1.232669939
1.237935435
1.24192941
1.243500889
1.24324764
1.240249555
1.236269609
1.230317273
1.226558573
1.225897559
1.226798788
1.228025163
1.229446939
1.23279229
1.236902373
1.24023026
1.241539037
1.242164069
1.24191525
1.240900478
1.240202362
1.237763293
1.233914265
1.231786666
1.231012185
1.231152252
1.232053757
1.232411106
1.234997917
1.255754168
1.504756661
2.075849816
2.390419574
2.433782335
2.462510226
1.22330891
1.227174778
1.231610951
1.236352751
1.239204118
1.239298183
1.23822279
1.235005596
1.231466669
1.22846401
1.225664237
1.225239893
1.226113125
1.227678677
1.230057063
1.232355461
1.234781007
1.237160336
1.239112412
1.239871851
1.240336234
1.239437365
1.238685677
1.236646058
1.233623098
1.23091475
1.229730714
1.230332028
1.231429608
1.231708637
1.232909315
1.255642837
1.527181115
2.096435213
2.392445927
2.431965009
2.458800766
1.218832606
1.223256211
1.228084479
1.233006604
1.235055465
1.234282593
1.232671219
1.2292002
1.224883187
1.223263084
1.2225472
1.222912915
1.224491482
1.227150002
1.230295418
1.231563269
1.232399767
1.233400249
1.234235485
1.234599907
1.235032151
1.234668916
1.233107887
1.232760506
1.232545126
1.230373366
1.228843567
1.229507863
1.231188784
1.231652547
1.23300382
1.257362935
1.549760391
2.117053882
2.394529885
2.431040291
2.455380768
1.216388854
1.220573688
1.225536183
1.230685501
1.232762688
1.232688516
1.231020534
1.227285262
1.22210315
1.219788844
1.219062234
1.219433696
1.221472104
1.225284604
1.228945587
1.230494637
1.231367459
1.231679413
1.231451732
1.231265254
1.230786317
1.229924859
1.227700427
1.227202904
1.228587887
1.228725039
1.227884752
1.228068496
1.230047684
1.230685701
1.233414845
1.261637856
1.572792635
2.13803956
2.398731011
2.431069871
2.455075672
1.215538151
1.219488035
1.224743676
1.230193765
1.232436301
1.232481257
1.230771481
1.226788075
1.221622641
1.218719208
1.217994513
1.218365155
1.219922078
1.223151689
1.226817262
1.229344421
1.230704047
1.231057264
1.231155628
1.230906946
1.230163776
1.228830427
1.226935898
1.225186383
1.224930112
1.225105899
1.225027689
1.224795871
1.226392543
1.22861011
1.232806459
1.267494695
1.596845204
2.157960653
2.407444414
2.43344913
2.455861386
1.215394619
1.21918498
1.224497657
1.230003797
1.232554273
1.232203658
1.230454246
1.226588617
1.221494682
1.218032559
1.217463364
1.218019413
1.219417675
1.221706457
1.224353384
1.227314439
1.229032003
1.230180246
1.231162168
1.231137345
1.230352385
1.228938327
1.227306157
1.224816593
1.222747087
1.222687933
1.222703022
1.22257791
1.223219232
1.224842903
1.229493174
1.272819712
1.622064064
2.174278118
2.411598501
2.436908161
2.457387714
1.214132
1.218043398
1.223046726
1.228072491
1.229786877
1.229639959
1.227986801
1.225011759
1.220634733
1.217280988
1.216769109
1.217201228
1.218141197
1.219396716
1.220975008
1.222968745
1.225011607
1.226852414
1.2282995
1.229056517
1.228894097
1.228236818
1.227071107
1.224906428
1.222934339
1.222333798
1.222086186
1.222153278
1.222191796
1.223223165
1.226520978
1.27681836
1.6471493
2.189048086
2.410821809
2.43771033
2.458540829
1.206130101
1.210148105
1.213851827
1.218498624
1.222608909
1.22328024
1.222650357
1.220914487
1.218578065
1.216313769
1.214731433
1.214370312
1.214588101
1.214935502
1.215785212
1.217216182
1.218644783
1.219965077
1.220897313
1.222127584
1.223870434
1.224805797
1.225158204
1.225198699
1.224720642
1.223590616
1.222859751
1.222369993
1.222409546
1.222630121
1.222977679
1.22621271
1.281567878
1.671084851
2.202815206
2.41022971
2.4381146
1.202017619
1.20634815
1.210068943
1.214944526
1.218254527
1.218193653
1.217087204
1.214850071
1.212221869
1.210660654
1.209939908
1.209794825
1.210167581
1.211192728
1.21295074
1.215214701
1.216468435
1.217255115
1.21767598
1.218620039
1.219125181
1.219417857
1.219403406
1.219570206
1.220886554
1.222054815
1.22223505
1.222131126
1.222138817
1.223340943
1.223548406
1.226430714
1.289277733
1.694075346
2.216886744
2.410831027
2.437467636
1.200896795
1.205026855
1.208998597
1.214064172
1.216785707
1.216380024
1.215273764
1.212968756
1.209520686
1.207745519
1.207149224
1.206845998
1.207295793
1.209103972
1.211467898
1.21423335
1.215948934
1.21681095
1.217068319
1.216966813
1.216322776
1.21600281
1.215806446
1.215565336
1.215696446
1.216736629
1.217851857
1.21923036
1.220338699
1.222911415
1.223765249
1.226193304
1.299836104
1.717941851
2.229652158
2.412524194
2.434970077
1.200656862
1.204828213
1.209193322
1.214516553
1.217083341
1.216712019
1.215499827
1.212588711
1.208377779
1.2062988
1.20569971
1.20538198
1.20603627
1.208159701
1.21072749
1.213634314
1.216050955
1.217248768
1.21719196
1.216775356
1.216216635
1.215711639
1.215469198
1.215089718
1.213848241
1.213194515
1.213379142
1.214293668
1.216205497
1.218722722
1.221116436
1.225320808
1.31110841
1.743103705
2.240476603
2.41542728
2.435829762
1.199589675
1.204083388
1.208969357
1.214460705
1.217113234
1.216892056
1.215560327
1.212138242
1.207185332
1.204693374
1.204294349
1.2043239
1.205426987
1.207415498
1.209708677
1.212251209
1.214783119
1.21580276
1.215732422
1.21651304
1.216520206
1.215980177
1.215422101
1.214692414
1.212753109
1.21098745
1.21089932
1.211789719
1.213450138
1.214653777
1.21631559
1.222032581
1.321321108
1.769189823
2.252228258
2.41939326
2.439071497
1.196495331
1.200619537
1.205888583
1.212173912
1.214189636
1.213913823
1.212248635
1.209241398
1.204817141
1.202152355
1.201826038
1.202284786
1.203724341
1.205398872
1.206952887
1.208193366
1.209648968
1.210584026
1.211727373
1.212718426
1.213333546
1.213482825
1.213460607
1.213166651
1.212101547
1.210943129
1.211209341
1.211827137
1.212970572
1.213758829
1.21443129
1.219452442
1.331313519
1.794471628
2.265637577
2.425246956
2.444048002
1.187741487
1.191702728
1.195332617
1.200204172
1.206327079
1.207714049
1.207352996
1.205440897
1.202782706
1.199533558
1.197837897
1.197727962
1.198468937
1.199982833
1.20136039
1.202306478
1.203390831
1.20424217
1.204958902
1.205948368
1.206933983
1.207925
1.208771943
1.209725806
1.210765141
1.211162322
1.211026078
1.211593389
1.211733664
1.212450581
1.213397864
1.213699566
1.220008363
1.343613388
1.817541061
2.279809281
2.430191619
2.447353503
1.184348834
1.188810383
1.192481258
1.19687687
1.202212211
1.202944433
1.202426688
1.200576024
1.198165227
1.195603662
1.194034379
1.193871371
1.194640377
1.196158751
1.197884226
1.199211135
1.200069813
1.201585936
1.202368839
1.202654082
1.203544911
1.204147048
1.204339615
1.204701088
1.205703591
1.206878328
1.208027135
1.208702888
1.209046539
1.209988947
1.211875917
1.212878521
1.220560369
1.358716814
1.838727737
2.289247298
2.429963198
2.449046776
1.182447292
1.187069918
1.191027644
1.195136726
1.199580997
1.199695891
1.198885409
1.197149247
1.195276971
1.193513092
1.192348386
1.192130208
1.192790631
1.194178248
1.195931744
1.197383365
1.19864286
1.200258875
1.201337167
1.20164204
1.201919931
1.201830921
1.201519428
1.201410449
1.201978951
1.202585783
1.203534936
1.204069808
1.204542697
1.205838208
1.208207919
1.210937173
1.219193463
1.375228828
1.858759712
2.294307951
2.429488292
2.448989137
1.180272284
1.184954937
1.189488856
1.193826745
1.19776916
1.197617335
1.196767603
1.19492923
1.19280414
1.191550606
1.190886445
1.190738954
1.191480364
1.192811498
1.19409426
1.195329024
1.197152679
1.198807793
1.200116847
1.200858619
1.200969039
1.200845698
1.200568033
1.200209995
1.199989734
1.199859659
1.200056061
1.200236606
1.200797218
1.20171792
1.202940291
1.206097386
1.216684564
1.391868903
1.879178942
2.2983422
2.430107222
2.447311527
1.175256795
1.179827733
1.18525297
1.190897414
1.195100973
1.194881983
1.193978852
1.19193049
1.18899352
1.187872559
1.187755966
1.187970842
1.188875889
1.190066082
1.190459572
1.191382266
1.193224026
1.195561601
1.197051992
1.198055049
1.198886705
1.199504297
1.199592394
1.199069581
1.198347706
1.197926947
1.197944789
1.198070601
1.198678008
1.199134972
1.199317845
1.201608159
1.214751447
1.408979661
1.90076245
2.302369626
2.431585031
2.449261301
1.168757711
1.173279222
1.178571047
1.184858938
1.188785359
1.188479509
1.187486951
1.185543451
1.182866589
1.182039304
1.182461729
1.183221585
1.184103806
1.184988892
1.185654058
1.187010884
1.18881238
1.190931634
1.192228353
1.193244703
1.194192997
1.195137101
1.19572761
1.195948644
1.195822514
1.195559518
1.195786623
1.196143647
1.196962076
1.197834676
1.197993212
1.199070626
1.213866537
1.426923384
1.92428083
2.308994828
2.434211007
2.45251409
1.163863651
1.168637414
1.173890802
1.18012847
1.183375855
1.183032034
1.182090525
1.180440593
1.178199267
1.177393732
1.178009233
1.179194691
1.180286198
1.181284612
1.182689425
1.184621665
1.186607131
1.188119621
1.18877493
1.189148466
1.189439457
1.189884471
1.190489129
1.191385064
1.192063557
1.192162503
1.192715973
1.193398159
1.194604984
1.196687168
1.197287248
1.197854558
1.214486316
1.445371554
1.948460904
2.320457012
2.4375098
1.154984165
1.160105806
1.165168041
1.170485258
1.176579341
1.179520397
1.179485614
1.178799885
1.177560548
1.176065098
1.175409083
1.175991635
1.177303445
1.17860386
1.179738989
1.181220473
1.183387042
1.185515087
1.186446651
1.186908299
1.186963101
1.186817674
1.186726967
1.186626781
1.186895224
1.187345153
1.187523874
1.188246878
1.188883584
1.190286739
1.193478147
1.195482287
1.196682128
1.216022479
1.464256156
1.969135257
2.337697726
2.440935094
1.150876549
1.156072521
1.161300742
1.166651768
1.172552128
1.17529901
1.175770318
1.175514333
1.174951954
1.174562058
1.174293702
1.174738163
1.175957348
1.177464588
1.178828212
1.18017367
1.182278549
1.184143419
1.185056346
1.185565874
1.185662096
1.185354814
1.184748074
1.184171519
1.183934368
1.184106471
1.184261476
1.184873887
1.18510241
1.185832543
1.188575988
1.191847147
1.194626599
1.218245253
1.484368035
1.984690539
2.348183243
2.444393994
1.144541597
1.149743785
1.15511211
1.160675667
1.166336553
1.168779114
1.169471237
1.169685176
1.169851667
1.170643682
1.17113566
1.1713708
1.172085995
1.173378684
1.174978913
1.176957491
1.179318338
1.181059443
1.182164692
1.183024072
1.183777022
1.183930759
1.183455135
1.182898241
1.182340587
1.181688746
1.181886084
1.182424026
1.182940069
1.183509257
1.185128628
1.187350654
1.191044203
1.220470203
1.505943014
1.998585874
2.351702707
2.447125812
1.13595534
1.140993662
1.146322969
1.152191233
1.157341166
1.1595883
1.160578447
1.161212483
1.161890115
1.163106338
1.164037608
1.164341481
1.164841735
1.165938423
1.167678048
1.169886854
1.172222818
1.174108296
1.175506488
1.176996803
1.178722776
1.180331922
1.181314594
1.181543946
1.180847547
1.179476936
1.179449278
1.179847807
1.181376163
1.182354667
1.183559316
1.184660363
1.188217861
1.222648074
1.528561861
2.014040398
2.353353345
2.447990442
1.127361472
1.132140011
1.137305145
1.143300981
1.147943674
1.149605465
1.150809624
1.151921113
1.153093039
1.154499633
1.156046201
1.157178041
1.15813778
1.159346124
1.16121142
1.16359139
1.165928085
1.167862153
1.169195517
1.170312415
1.171949972
1.17411008
1.175920696
1.176989647
1.177112946
1.176704814
1.176954826
1.177510192
1.179384713
1.181632979
1.18271629
1.183428375
1.186069244
1.225789449
1.551693074
2.033127252
2.355955223
2.448491512
1.120773694
1.125453594
1.130065676
1.135403322
1.13917221
1.14013791
1.141525348
1.143410632
1.145315089
1.146871342
1.148669498
1.150791124
1.152452838
1.153896624
1.155775113
1.157992842
1.160526904
1.162859441
1.164312018
1.165155184
1.166272267
1.167986675
1.169635095
1.170831036
1.171762436
1.172243755
1.173197271
1.174753371
1.176853406
1.179916788
1.181706907
1.182660336
1.184813291
1.230418501
1.574502869
2.0555317
2.35963447
2.448703326
1.109386391
1.115169903
1.119996711
1.124606099
1.129598538
1.132602627
1.133167474
1.134055723
1.135683867
1.137830046
1.139758853
1.141712575
1.144327739
1.146417308
1.14782188
1.149323686
1.151566722
1.154633864
1.157605063
1.159519901
1.160628283
1.161595101
1.162835629
1.164031759
1.165187696
1.166591162
1.167875556
1.168753454
1.170032828
1.172470128
1.176081309
1.179091935
1.18060011
1.183279667
1.236600951
1.596875322
2.08048049
2.365594292
2.447102334
1.104172878
1.109024102
1.114290025
1.119551986
1.124448422
1.12679486
1.127014874
1.127172989
1.128129026
1.129858936
1.13180622
1.133763757
1.136256754
1.138432894
1.139773776
1.141250095
1.143998483
1.147632805
1.150970148
1.153309307
1.155088743
1.156421331
1.1576183
1.158721503
1.16002477
1.161927493
1.164086057
1.16542204
1.166863499
1.168834041
1.171486102
1.174224118
1.176149746
1.179889982
1.243276104
1.620213969
2.102475447
2.377660349
2.447483423
1.100591001
1.103742439
1.108616719
1.114280725
1.119021581
1.120788633
1.120464746
1.119741531
1.120496275
1.12179196
1.123370878
1.125154476
1.12697835
1.128733201
1.129811397
1.131526787
1.135243121
1.139463067
1.14287168
1.145283987
1.147641596
1.149740218
1.151535243
1.153171175
1.15492779
1.157067552
1.159736373
1.162029538
1.164062236
1.165927973
1.167886848
1.170344429
1.17191938
1.175771119
1.2496501
1.64455865
2.119490773
2.387782917
2.449535214
1.098019454
1.099659424
1.103198685
1.10832876
1.112997045
1.114496498
1.114110632
1.113324518
1.113334126
1.113911989
1.115448267
1.117593394
1.118715337
1.119805868
1.120724615
1.122763795
1.126704142
1.130799008
1.133735518
1.135874643
1.138383357
1.141060189
1.143686523
1.146258187
1.148686203
1.151020605
1.153771646
1.156719093
1.1593724
1.161873282
1.164073986
1.166695109
1.168861203
1.172749173
1.260115656
1.674968401
2.133860749
2.391948891
2.45237442
1.096221008
1.097681398
1.100369776
1.103868011
1.106911629
1.108218828
1.108358772
1.108560836
1.109177768
1.109679237
1.110179671
1.111520852
1.112476827
1.113154851
1.113984462
1.116290236
1.119713619
1.122857916
1.125170536
1.126981267
1.129154657
1.131775416
1.134524203
1.137417564
1.140109328
1.142571347
1.145316465
1.148540076
1.151949538
1.155387569
1.158773257
1.162131692
1.165493162
1.169158927
1.265850167
1.689931392
2.140276962
2.394186922
2.453367424
1.094384976
1.095927954
1.097298997
1.099848998
1.103150396
1.104462908
1.104023309
1.103321315
1.104067987
1.10600526
1.107351938
1.107359993
1.107572824
1.108125515
1.107913531
1.108192035
1.110772773
1.11347841
1.1154682
1.117110371
1.118736554
1.12059394
1.12277385
1.125023641
1.127563883
1.13010386
)
;

boundaryField
{
    inlet
    {
        type            calculated;
        value           nonuniform 0();
    }
    outlet
    {
        type            calculated;
        value           nonuniform 0();
    }
    bottom
    {
        type            calculated;
        value           nonuniform 0();
    }
    top
    {
        type            calculated;
        value           nonuniform 0();
    }
    obstacle
    {
        type            calculated;
        value           nonuniform 0();
    }
    defaultFaces
    {
        type            empty;
    }
    procBoundary16to10
    {
        type            processor;
        value           nonuniform List<scalar> 
36
(
1.849437383
2.31131486
2.458732647
2.499033144
2.489485476
1.27799303
1.278617414
1.277050181
1.274671308
1.271633178
1.267902689
1.263949709
1.262574641
1.263046965
1.264120591
1.266274923
1.26948208
1.272917131
1.274865409
1.275593918
1.275426747
1.274976579
1.274088698
1.272684372
1.270893274
1.269271199
1.268619002
1.268621198
1.267225078
1.268497014
1.372591459
1.372591459
1.275088805
1.275185784
1.275301981
1.275301981
)
;
    }
    procBoundary16to11
    {
        type            processor;
        value           uniform 2.446590974;
    }
    procBoundary16to15
    {
        type            processor;
        value           nonuniform List<scalar> 
70
(
1.275122686
1.27288237
1.270460859
1.267019396
1.265643527
1.265082384
1.265465106
1.265310996
1.264286559
1.264286559
1.258775216
1.257283652
1.256865492
1.256873459
1.256380509
1.25422221
1.250262645
1.250262645
1.246990601
1.246749067
1.247202805
1.246561563
1.24275026
1.239574627
1.23881839
1.23881839
1.237900926
1.237046861
1.232060878
1.227845387
1.226570175
1.226207932
1.226207932
1.223591744
1.220371531
1.215711802
1.213533947
1.212891513
1.212757315
1.210951664
1.210951664
1.202618232
1.198525904
1.197364491
1.197177066
1.196259112
1.193078951
1.193078951
1.18381907
1.180035492
1.178047391
1.175701045
1.170476873
1.163706369
1.158757284
1.158757284
1.150986156
1.146572404
1.139716556
1.130747401
1.121597233
1.114968225
1.114968225
1.104411047
1.101353238
1.099053948
1.097040144
1.095274099
1.095274099
1.09127528
)
;
    }
    procBoundary16to17
    {
        type            processor;
        value           nonuniform List<scalar> 
65
(
2.443460103
2.439692883
2.435906564
2.432851754
2.430190171
2.427648401
2.425163457
2.422674514
2.454556546
2.454556546
2.452317471
2.450030618
2.446759418
2.441626698
2.437346945
2.435894971
2.434677583
2.43317231
2.431184571
2.427657423
2.423237048
2.421759747
2.421167412
2.457422816
2.457422816
2.456058128
2.454266181
2.448374778
2.442788498
2.442381907
2.441940342
2.441297364
2.44019611
2.43696412
2.432398309
2.432094907
2.432850731
2.433670899
2.459144016
2.459144016
2.458258963
2.453179221
2.452972662
2.454377131
2.456328858
2.458457871
2.459884795