/*--------------------------------*- C++ -*----------------------------------*\
  =========                 |
  \\      /  F ield         | OpenFOAM: The Open Source CFD Toolbox
   \\    /   O peration     | Website:  https://openfoam.org
    \\  /    A nd           | Version:  7
     \\/     M anipulation  |
\*---------------------------------------------------------------------------*/
FoamFile
{
    version     2.0;
    format      ascii;
    class       volVectorField;
    location    "0.6";
    object      U;
}
// * * * * * * * * * * * * * * * * * * * * * * * * * * * * * * * * * * * * * //

dimensions      [0 1 -1 0 0 0 0];

internalField   nonuniform List<vector> 
2222
(
(3 1.638678603e-14 0)
(3 1.760723757e-14 0)
(3 1.82851419e-14 0)
(3 1.838027177e-14 0)
(3 1.588288475e-14 0)
(3 1.43508263e-14 0)
(3 1.327449722e-14 0)
(3 1.148435136e-14 0)
(3 1.071160577e-14 0)
(3 1.030167693e-14 0)
(3 8.828950415e-15 0)
(3 3.455708302e-15 0)
(3 6.421876994e-16 0)
(3 2.016815112e-16 0)
(3 1.260037175e-15 0)
(3 1.389216155e-15 0)
(3 2.2988248e-15 0)
(3 4.176527868e-15 0)
(3 3.138484551e-15 0)
(3 4.768572659e-15 0)
(3 4.765125449e-15 0)
(3 3.533706109e-15 0)
(3 1.230283512e-15 0)
(3 -1.826497609e-15 0)
(3 -6.12711546e-15 0)
(3 -1.401954741e-14 0)
(3 -1.700160185e-14 0)
(3 -1.478124279e-14 0)
(3 -1.025062447e-14 0)
(3 -3.756779755e-15 0)
(3 2.456902863e-15 0)
(3 1.035742415e-14 0)
(3 1.131711167e-14 0)
(3 8.220790443e-15 0)
(3 3.626263094e-15 0)
(3 -3.254450448e-15 0)
(3 -5.502796969e-15 0)
(3 -3.724701441e-15 0)
(3 3.078456136e-15 0)
(3 1.07018909e-14 0)
(3 1.619059308e-14 0)
(3 1.650528181e-14 0)
(3 1.3686216e-14 0)
(3 8.622342876e-15 0)
(3 6.495643387e-15 0)
(3 -1.851218633e-16 0)
(3 -6.195849271e-16 0)
(3 -3.833052242e-15 0)
(3 -4.344865994e-15 0)
(3 -6.473300966e-15 0)
(3 -7.673324431e-15 0)
(3 -7.31187059e-15 0)
(3 -7.138697909e-15 0)
(3 -4.863131001e-15 0)
(3 -3.534692241e-15 0)
(3 -4.415624098e-15 0)
(3 -5.203582819e-15 0)
(3 -4.652351933e-15 0)
(3 -3.668128003e-15 0)
(3 -2.872342243e-15 0)
(3 -4.035573777e-15 0)
(3 -4.313435305e-15 0)
(3 -3.657105225e-15 0)
(3 -3.690937386e-15 0)
(3 -1.469613083e-16 0)
(3 4.817407148e-15 0)
(3 7.872861635e-15 0)
(3 1.08921106e-14 0)
(3 1.156003222e-14 0)
(3 9.945261786e-15 0)
(3 8.392863297e-15 0)
(3 1.025392136e-14 0)
(3 1.164165253e-14 0)
(3 1.560230942e-14 0)
(3 1.633160059e-14 0)
(3 1.537265483e-14 0)
(3 1.379268171e-14 0)
(3 1.242787366e-14 0)
(3 1.043342942e-14 0)
(3 6.709545026e-15 0)
(3 2.069298251e-15 0)
(3 -1.543198046e-16 0)
(3 -4.211269876e-16 0)
(3 1.254021706e-15 0)
(3 6.824239902e-15 0)
(3 1.081022302e-14 0)
(3 9.893470392e-15 0)
(3 7.67217556e-15 0)
(3 5.890912393e-15 0)
(3 3.464164005e-15 0)
(3 -7.965661363e-16 0)
(3 -4.874063169e-15 0)
(3 -1.159118558e-14 0)
(3 -1.122755484e-14 0)
(3 -1.204062176e-14 0)
(3 -7.021365744e-15 0)
(3 -1.798456442e-15 0)
(3 2.919594244e-15 0)
(3 8.822302403e-15 0)
(3 6.275975245e-15 0)
(3 2.411667667e-15 0)
(3 -1.519036118e-15 0)
(3 -1.119485476e-14 0)
(3 -1.216182753e-14 0)
(3 -1.484374685e-14 0)
(3 -1.427580836e-14 0)
(3 -8.202285697e-15 0)
(3 4.105483753e-15 0)
(3 5.82428027e-15 0)
(3 4.331793043e-15 0)
(3 2.967583142e-15 0)
(3 2.178664039e-15 0)
(3 -2.414769027e-16 0)
(3 -1.409126507e-15 0)
(3 -1.919793991e-15 0)
(3 -3.452349147e-15 0)
(3 -2.779994485e-15 0)
(3 -4.202327381e-15 0)
(3 -2.521782495e-15 0)
(3 -2.835275302e-15 0)
(3 -2.971428347e-15 0)
(3 -3.256808306e-15 0)
(3 -2.556413541e-15 0)
(3 -1.783177568e-15 0)
(3 -3.91855432e-15 0)
(3 -4.83228423e-15 0)
(3 -5.509701853e-15 0)
(3 -1.102190649e-14 0)
(3 -1.336057414e-14 0)
(3 -1.187568891e-14 0)
(3 -9.752992685e-15 0)
(3 -3.617000262e-15 0)
(3 -3.71049458e-15 0)
(3 -2.865053609e-15 0)
(3 -1.30530742e-15 0)
(3 -2.718315999e-15 0)
(3 -8.450703499e-15 0)
(3 -9.514852979e-15 0)
(3 -4.664409967e-15 0)
(3 2.079708912e-16 0)
(3 3.728121143e-15 0)
(3 4.703688482e-15 0)
(3 5.989093191e-15 0)
(3 2.929753213e-15 0)
(3 2.744494438e-15 0)
(3 3.719441533e-15 0)
(3 4.130669239e-15 0)
(3 2.855131218e-15 0)
(3 9.142353444e-17 0)
(3 1.177241346e-15 0)
(3 2.639345318e-16 0)
(3 1.379456145e-15 0)
(3 4.242624459e-15 0)
(3 6.913061548e-15 0)
(3 1.021403658e-14 0)
(3 1.218218056e-14 0)
(3 1.097561003e-14 0)
(3 7.035649423e-15 0)
(3 6.01331373e-15 0)
(3 6.714858113e-16 0)
(3 2.570909058e-15 0)
(3 4.367992967e-15 0)
(3 4.312082404e-15 0)
(3 5.758912908e-15 0)
(3 4.905429397e-15 0)
(3 7.545960234e-16 0)
(3 -2.505810452e-15 0)
(3 -5.808264897e-15 0)
(3 -9.744368534e-15 0)
(3 -1.26090873e-14 0)
(3 -1.409195999e-14 0)
(3 -1.575891253e-14 0)
(3 -1.589197562e-14 0)
(3 -1.310099746e-14 0)
(3 -9.721629158e-15 0)
(3 -5.025595919e-15 0)
(3 -8.069821833e-15 0)
(3 -3.006153722e-15 0)
(3 3.510211234e-16 0)
(3 -1.153763834e-15 0)
(3 -2.511419615e-15 0)
(3 -9.376235648e-16 0)
(3 -3.18646922e-16 0)
(3 -2.989124671e-17 0)
(3 1.268119501e-16 0)
(3 3.089368629e-18 0)
(3 1.696739874e-16 0)
(3 -3.514208379e-16 0)
(3 -2.273800112e-15 0)
(3 -1.935438115e-15 0)
(3 -2.731492884e-15 0)
(3 -1.915482877e-15 0)
(3 -5.091194035e-15 0)
(3 -6.024786222e-15 0)
(3 -6.864620337e-15 0)
(3 -9.25744293e-15 0)
(3 -1.112919278e-14 0)
(3 -1.224379463e-14 0)
(3 -1.280478067e-14 0)
(3 -1.521623162e-14 0)
(3 -1.114536434e-14 0)
(3 -1.08947588e-14 0)
(3 -1.278781112e-14 0)
(3 -1.313916269e-14 0)
(3 -1.266013565e-14 0)
(3 -1.061890284e-14 0)
(3 -8.028456606e-15 0)
(3 -1.118131479e-14 0)
(3 -1.34557079e-14 0)
(3 -1.363379652e-14 0)
(3 -1.319412181e-14 0)
(3 -1.200017499e-14 0)
(3 -8.140921036e-15 0)
(3 -1.947640211e-15 0)
(3 1.103698054e-15 0)
(3 -1.133338507e-16 0)
(3 1.012158082e-15 0)
(3 1.402267699e-15 0)
(3 2.240458161e-15 0)
(3 4.154980189e-15 0)
(3 5.958991583e-15 0)
(3 8.890770692e-15 0)
(3 1.095884014e-14 0)
(3 1.102801721e-14 0)
(3 1.138284473e-14 0)
(3 9.458777191e-15 0)
(3 9.500610829e-15 0)
(3 9.797562474e-15 0)
(3 1.056497288e-14 0)
(3 7.68072829e-15 0)
(3 3.690655671e-15 0)
(3 2.207441387e-15 0)
(3 -2.322551193e-15 0)
(3 -4.339098464e-15 0)
(3 -4.67267977e-15 0)
(3 -4.286812582e-15 0)
(3 -7.424447497e-15 0)
(3 -1.004086532e-14 0)
(3 -1.249424356e-14 0)
(3 -1.555889186e-14 0)
(3 -1.898476064e-14 0)
(3 -2.045655775e-14 0)
(3 -1.602801009e-14 0)
(3 -9.927190371e-15 0)
(3 -5.821579854e-15 0)
(3 -4.002701893e-15 0)
(3 5.573546334e-16 0)
(3 5.091191671e-16 0)
(3 -9.850013495e-16 0)
(3 -6.592497501e-16 0)
(3 -1.962960537e-15 0)
(3 -1.881138491e-15 0)
(3 -3.739761507e-15 0)
(3 -3.133611125e-15 0)
(3 -1.810874922e-15 0)
(3 -1.29924944e-15 0)
(3 -6.921501478e-16 0)
(3 -2.173070872e-17 0)
(3 1.116989061e-15 0)
(3 1.898048623e-15 0)
(3 3.881357178e-15 0)
(3 3.823421977e-15 0)
(3 1.880854649e-15 0)
(3 -1.578108428e-15 0)
(3 -4.962841675e-15 0)
(3 -9.486767295e-15 0)
(3 -1.350923996e-14 0)
(3 -1.555094481e-14 0)
(3 -1.832005751e-14 0)
(3 -2.055916097e-14 0)
(3 -1.862314534e-14 0)
(3 -1.762105038e-14 0)
(3 -1.923605557e-14 0)
(3 -1.785407566e-14 0)
(3 -1.630849953e-14 0)
(3 -1.676322906e-14 0)
(3 -1.69104728e-14 0)
(3 -1.456056827e-14 0)
(3 -1.0702969e-14 0)
(3 -7.866579265e-15 0)
(3 -1.013653922e-14 0)
(3 -1.520953426e-14 0)
(3 -1.148239917e-14 0)
(3 -8.548846558e-15 0)
(3 -4.170639095e-15 0)
(3 -7.900376119e-16 0)
(3 3.509922833e-15 0)
(3 5.96650939e-15 0)
(3 7.299328021e-15 0)
(3 8.582615482e-15 0)
(3 8.381036864e-15 0)
(3 1.047723447e-14 0)
(3 1.285323071e-14 0)
(3 1.623615963e-14 0)
(3 1.427412834e-14 0)
(3 1.183701605e-14 0)
(3 9.223971933e-15 0)
(3 7.004212797e-15 0)
(3 -7.046473287e-16 0)
(3 -4.366857016e-15 0)
(3 -4.706957621e-15 0)
(3 -3.777612865e-15 0)
(3 -2.193830216e-16 0)
(3 5.695745516e-16 0)
(3 -9.744760434e-16 0)
(3 -6.210806944e-15 0)
(3 -1.381420859e-14 0)
(3 -1.870820637e-14 0)
(3 -1.72377942e-14 0)
(3 -1.424719932e-14 0)
(3 -8.395326419e-15 0)
(3 -2.848174702e-15 0)
(3 -2.107227349e-16 0)
(3 3.558500986e-16 0)
(3 1.132456634e-15 0)
(3 1.704406043e-16 0)
(3 -2.460008677e-16 0)
(3 -2.256375457e-16 0)
(3 -2.535536623e-15 0)
(3 -4.805497089e-15 0)
(3 -8.711705996e-15 0)
(3 -8.206723799e-15 0)
(3 -5.805583348e-15 0)
(3 -7.411663751e-17 0)
(3 2.065730794e-15 0)
(3 1.740799171e-15 0)
(3 3.002799045e-15 0)
(3 2.663371521e-15 0)
(3 3.558134268e-15 0)
(3 3.447571711e-15 0)
(3 1.228826578e-15 0)
(3 -2.027951975e-16 0)
(3 -2.999419915e-15 0)
(3 -4.714085161e-15 0)
(3 -1.084751379e-14 0)
(3 -1.291332667e-14 0)
(3 -1.298181966e-14 0)
(3 -1.290329224e-14 0)
(3 -9.173354455e-15 0)
(3 -7.873575446e-15 0)
(3 -8.302605003e-15 0)
(3 -8.994038926e-15 0)
(3 -1.124030352e-14 0)
(3 -1.181094028e-14 0)
(3 -1.188320207e-14 0)
(3 -1.051069456e-14 0)
(3 -1.542773479e-14 0)
(3 -2.00111487e-14 0)
(3 -1.924648211e-14 0)
(3 -1.331408173e-14 0)
(3 -9.495258619e-15 0)
(3 -6.554482289e-15 0)
(3 -3.819654134e-15 0)
(3 3.173228796e-15 0)
(3 4.60094968e-15 0)
(3 5.821535591e-15 0)
(3 8.341802493e-15 0)
(3 1.057521589e-14 0)
(3 1.139859197e-14 0)
(3 1.570188882e-14 0)
(3 1.758223935e-14 0)
(3 1.696105603e-14 0)
(3 1.26972774e-14 0)
(3 7.374163906e-15 0)
(3 5.548496912e-15 0)
(3 3.357211565e-15 0)
(3 -2.536562993e-15 0)
(3 -5.808788008e-15 0)
(3 -2.486856983e-15 0)
(3 2.933089997e-15 0)
(3 3.497678142e-15 0)
(3 3.317078404e-15 0)
(3 3.357959953e-15 0)
(3 -2.977743427e-15 0)
(3 -8.996089024e-15 0)
(3 -9.803109533e-15 0)
(3 -1.075633128e-14 0)
(3 -1.153748012e-14 0)
(3 -8.313416477e-15 0)
(3 -5.255061175e-15 0)
(3 -2.873683844e-16 0)
(3 -6.986495571e-16 0)
(3 2.152520521e-15 0)
(3 2.93453898e-15 0)
(3 2.906874536e-15 0)
(3 1.216064094e-15 0)
(3 5.253066207e-16 0)
(3 7.496165103e-16 0)
(3 -2.41866997e-16 0)
(3 -6.312555061e-17 0)
(3 1.62188946e-15 0)
(3 1.18190413e-15 0)
(3 -3.460385705e-15 0)
(3 -4.053795608e-15 0)
(3 -2.072763609e-15 0)
(3 -1.29619663e-15 0)
(3 1.521131574e-16 0)
(3 -1.19686603e-16 0)
(3 -2.353815556e-15 0)
(3 -1.267245227e-15 0)
(3 -1.343829686e-15 0)
(3 -3.738586649e-15 0)
(3 -3.102333591e-15 0)
(3 -5.610666875e-16 0)
(3 2.678429752e-15 0)
(3 4.911053861e-15 0)
(3 3.651963168e-15 0)
(3 1.31587447e-15 0)
(3 -1.682565506e-15 0)
(3 -3.177466707e-15 0)
(3 -4.807840822e-15 0)
(3 -6.652388675e-15 0)
(3 -9.429414118e-15 0)
(3 -1.636631011e-14 0)
(3 -2.025597295e-14 0)
(3 -1.797211433e-14 0)
(3 -1.609932551e-14 0)
(3 -1.322557584e-14 0)
(3 -1.200732998e-14 0)
(3 -7.733443386e-15 0)
(3 5.851870033e-16 0)
(3 6.873909217e-15 0)
(3 2.716862014e-15 0)
(3 2.740178891e-15 0)
(3 4.728193987e-15 0)
(3 7.348313955e-15 0)
(3 1.175715374e-14 0)
(3 1.484827539e-14 0)
(3 1.610680286e-14 0)
(3 1.495958407e-14 0)
(3 1.329900782e-14 0)
(3 9.077788749e-15 0)
(3 1.080692045e-14 0)
(3 1.122235685e-14 0)
(3 1.062374843e-14 0)
(3 1.204546567e-14 0)
(3 1.16351682e-14 0)
(3 1.150899132e-14 0)
(3 8.690868107e-15 0)
(3 6.162162929e-15 0)
(3 2.929542977e-15 0)
(3 -1.39714331e-15 0)
(3 -1.026911096e-14 0)
(3 -1.244275306e-14 0)
(3 -1.435984346e-14 0)
(3 -1.390675339e-14 0)
(3 -1.339875281e-14 0)
(3 1.578712987e-15 0)
(3 2.059104152e-15 0)
(3 2.851715523e-15 0)
(3 5.009263097e-15 0)
(3 4.37082374e-15 0)
(3 5.612090073e-15 0)
(3 9.565043184e-15 0)
(3 1.468742432e-14 0)
(3 1.228603314e-14 0)
(3 6.88973896e-15 0)
(3 2.307183749e-15 0)
(3 -2.177578902e-15 0)
(3 -5.4240804e-15 0)
(3 -5.494269898e-15 0)
(3 -3.662977838e-15 0)
(3 -3.355658828e-15 0)
(3 -2.674823002e-15 0)
(3 -1.165940256e-15 0)
(3 -1.022893504e-15 0)
(3 1.08657481e-15 0)
(3 3.998031083e-15 0)
(3 9.206815984e-15 0)
(3 9.74849838e-15 0)
(3 1.07138655e-14 0)
(3 1.12439787e-14 0)
(3 1.143425326e-14 0)
(3 8.11272461e-15 0)
(3 5.033716315e-15 0)
(3 2.339831542e-15 0)
(3 7.389110837e-16 0)
(3 -1.307225814e-15 0)
(3 -2.597596538e-15 0)
(3 -6.264555883e-15 0)
(3 -1.090426262e-14 0)
(3 -1.412012035e-14 0)
(3 -1.401999015e-14 0)
(3 -1.184965219e-14 0)
(3 -1.040321144e-14 0)
(3 -9.03942135e-15 0)
(3 -3.570443006e-15 0)
(3 -1.273698825e-15 0)
(3 2.191687241e-15 0)
(3 2.73912579e-15 0)
(3 -5.191583834e-15 0)
(3 -4.174899319e-15 0)
(3 1.077971273e-15 0)
(3 5.228905673e-15 0)
(3 7.00785403e-15 0)
(3 1.085819282e-14 0)
(3 1.559475747e-14 0)
(3 1.761073497e-14 0)
(3 2.066179072e-14 0)
(3 2.182970476e-14 0)
(3 2.511618814e-14 0)
(3 2.779744817e-14 0)
(3 2.98352418e-14 0)
(3 2.980927837e-14 0)
(3 2.503518795e-14 0)
(3 1.782742293e-14 0)
(3 1.228927976e-14 0)
(3 1.033338453e-14 0)
(3 7.632305805e-15 0)
(3 -4.253929156e-15 0)
(3 -8.313799087e-15 0)
(3 -1.291045416e-14 0)
(3 -1.587119909e-14 0)
(3 -1.571642272e-14 0)
(3 9.230891296e-16 0)
(3 2.192790351e-15 0)
(3 3.281907328e-15 0)
(3 4.345481315e-15 0)
(3 5.186388528e-15 0)
(3 7.375764776e-15 0)
(3 1.121828718e-14 0)
(3 1.379591463e-14 0)
(3 1.141262451e-14 0)
(3 5.613538456e-15 0)
(3 -1.594674343e-16 0)
(3 1.500631119e-15 0)
(3 2.922456459e-15 0)
(3 4.121407733e-15 0)
(3 3.619675214e-15 0)
(3 3.372307334e-15 0)
(3 3.235300115e-15 0)
(3 3.012479009e-15 0)
(3 4.508319172e-15 0)
(3 3.987943337e-15 0)
(3 3.148725293e-15 0)
(3 2.725965819e-15 0)
(3 2.062676133e-15 0)
(3 3.604331827e-15 0)
(3 2.955308823e-15 0)
(3 1.800255056e-15 0)
(3 3.763637268e-16 0)
(3 -8.374160625e-16 0)
(3 -3.271914081e-16 0)
(3 -1.520258775e-15 0)
(3 -5.804561407e-15 0)
(3 -7.841285861e-15 0)
(3 -6.932715789e-15 0)
(3 -8.447771198e-15 0)
(3 -7.175412649e-15 0)
(3 -7.170274009e-15 0)
(3 -5.502882697e-15 0)
(3 -4.364823518e-15 0)
(3 -2.42042003e-15 0)
(3 -2.090544027e-15 0)
(3 -8.452750707e-15 0)
(3 -8.581381623e-15 0)
(3 -8.965886189e-15 0)
(3 -8.096423135e-15 0)
(3 -4.809542434e-15 0)
(3 -9.087510229e-16 0)
(3 2.918757272e-15 0)
(3 6.147334111e-15 0)
(3 1.12707031e-14 0)
(3 1.496231772e-14 0)
(3 1.764691201e-14 0)
(3 1.962170859e-14 0)
(3 2.063868599e-14 0)
(3 2.294230915e-14 0)
(3 2.994763915e-14 0)
(3 3.100891005e-14 0)
(3 3.393231763e-14 0)
(3 2.730740457e-14 0)
(3 2.38067959e-14 0)
(3 2.466124255e-14 0)
(3 2.566482903e-14 0)
(3 1.910637788e-14 0)
(3 7.821464673e-15 0)
(3 2.017863659e-15 0)
(3 -2.266284055e-15 0)
(3 -4.63114708e-15 0)
(3 -6.803902688e-15 0)
(3 1.592104625e-16 0)
(3 2.355191526e-15 0)
(3 2.902314885e-15 0)
(3 1.613985656e-15 0)
(3 3.404653472e-15 0)
(3 6.397373144e-15 0)
(3 6.007862809e-15 0)
(3 5.349748261e-15 0)
(3 6.957134716e-15 0)
(3 7.113287351e-15 0)
(3 9.534667272e-15 0)
(3 1.058227964e-14 0)
(3 1.362046834e-14 0)
(3 1.46038217e-14 0)
(3 1.301537349e-14 0)
(3 1.300636262e-14 0)
(3 1.123949038e-14 0)
(3 8.760884608e-15 0)
(3 6.299557512e-15 0)
(3 3.987677578e-15 0)
(3 1.231967619e-15 0)
(3 1.082151834e-15 0)
(3 3.386692e-15 0)
(3 4.431039656e-15 0)
(3 3.471046225e-15 0)
(3 -1.714467431e-15 0)
(3 -3.008608169e-15 0)
(3 -5.892558344e-15 0)
(3 -5.773217915e-15 0)
(3 -5.739784636e-15 0)
(3 -4.555318305e-15 0)
(3 -4.068083043e-15 0)
(3 -2.317542617e-15 0)
(3 -1.349033333e-15 0)
(3 -1.648130489e-15 0)
(3 -2.610502809e-15 0)
(3 -4.709533769e-15 0)
(3 -5.262492027e-15 0)
(3 -8.742085599e-15 0)
(3 -1.112258065e-14 0)
(3 -1.095745969e-14 0)
(3 -1.210782172e-14 0)
(3 -1.640759139e-14 0)
(3 -1.247901541e-14 0)
(3 -7.820786956e-15 0)
(3 -5.697122467e-15 0)
(3 5.398764388e-15 0)
(3 1.095365638e-14 0)
(3 1.436212609e-14 0)
(3 1.44309777e-14 0)
(3 1.11782862e-14 0)
(3 1.103299797e-14 0)
(3 1.462405711e-14 0)
(3 1.955018782e-14 0)
(3 2.508651813e-14 0)
(3 2.558778958e-14 0)
(3 2.759261805e-14 0)
(3 3.053262666e-14 0)
(3 2.85603411e-14 0)
(3 2.579500807e-14 0)
(3 2.095413081e-14 0)
(3 1.413919317e-14 0)
(3 2.863097105e-15 0)
(3 -3.868706492e-15 0)
(3 2.366901953e-15 0)
(3 3.494886483e-15 0)
(3 3.050496374e-16 0)
(3 -7.879631672e-17 0)
(3 -4.44493143e-16 0)
(3 -9.277979394e-16 0)
(3 7.245134828e-16 0)
(3 -4.942210551e-16 0)
(3 -1.050630293e-15 0)
(3 -2.487801629e-15 0)
(3 1.598106042e-16 0)
(3 6.262216473e-15 0)
(3 9.671552527e-15 0)
(3 9.332068531e-15 0)
(3 9.259731714e-15 0)
(3 6.616491659e-15 0)
(3 6.113770477e-15 0)
(3 8.285043902e-15 0)
(3 7.843678647e-15 0)
(3 8.558741935e-15 0)
(3 8.601639775e-15 0)
(3 5.421044938e-15 0)
(3 3.969130908e-15 0)
(3 4.516399683e-15 0)
(3 7.539835261e-15 0)
(3 1.163030919e-14 0)
(3 1.163529934e-14 0)
(3 1.105798073e-14 0)
(3 6.149049889e-15 0)
(3 3.350100601e-15 0)
(3 2.585466344e-15 0)
(3 -1.406737029e-15 0)
(3 -7.577428878e-16 0)
(3 4.157489998e-15 0)
(3 6.795713348e-15 0)
(3 6.407262665e-15 0)
(3 9.082618128e-15 0)
(3 9.753307215e-15 0)
(3 5.445891708e-15 0)
(3 1.578437026e-15 0)
(3 -3.660994158e-15 0)
(3 -1.271059954e-14 0)
(3 -1.539929754e-14 0)
(3 -1.588762647e-14 0)
(3 -1.813793462e-14 0)
(3 -1.718597379e-14 0)
(3 -1.185098304e-14 0)
(3 -3.269011313e-15 0)
(3 -9.093128486e-16 0)
(3 4.071041323e-15 0)
(3 1.040499427e-14 0)
(3 1.27676574e-14 0)
(3 8.32060376e-15 0)
(3 5.441750163e-15 0)
(3 6.527721828e-15 0)
(3 1.154910673e-14 0)
(3 1.322763457e-14 0)
(3 1.515351633e-14 0)
(3 1.934532959e-14 0)
(3 2.170268875e-14 0)
(3 2.261472178e-14 0)
(3 2.237723032e-14 0)
(3 2.066523207e-14 0)
(3 1.510298122e-14 0)
(3 1.430652936e-14 0)
(3 1.258103081e-14 0)
(3 8.310517053e-15 0)
(3 1.09556474e-14 0)
(3 1.139165029e-14 0)
(3 9.027306665e-15 0)
(3 7.084946491e-16 0)
(3 -2.23265669e-15 0)
(3 -2.554311983e-15 0)
(3 -1.120977996e-15 0)
(3 -1.976767921e-15 0)
(3 -7.094549181e-15 0)
(3 -8.277153972e-15 0)
(3 -6.593446852e-15 0)
(3 -4.700853359e-15 0)
(3 -2.305189766e-15 0)
(3 -1.50578588e-15 0)
(3 -3.854019744e-16 0)
(3 7.210015901e-16 0)
(3 1.525135886e-15 0)
(3 2.302752072e-15 0)
(3 1.870578292e-15 0)
(3 1.636901698e-15 0)
(3 2.409093523e-15 0)
(3 4.847851065e-15 0)
(3 1.051554419e-14 0)
(3 1.312342289e-14 0)
(3 1.229572295e-14 0)
(3 9.176094515e-15 0)
(3 7.159212182e-15 0)
(3 6.179604269e-15 0)
(3 5.751474093e-15 0)
(3 6.2762925e-15 0)
(3 1.119017286e-14 0)
(3 1.339071648e-14 0)
(3 1.571847119e-14 0)
(3 1.844214571e-14 0)
(3 1.889082445e-14 0)
(3 1.73661611e-14 0)
(3 1.439622242e-14 0)
(3 1.369144231e-14 0)
(3 8.746493358e-15 0)
(3 3.257506388e-15 0)
(3 -1.726658021e-15 0)
(3 -6.213850674e-15 0)
(3 -1.088670741e-14 0)
(3 -1.146864282e-14 0)
(3 -1.385193688e-14 0)
(3 -1.425337963e-14 0)
(3 -1.371357125e-14 0)
(3 -1.09415903e-14 0)
(3 -5.78914834e-15 0)
(3 -4.421744322e-16 0)
(3 5.335912511e-15 0)
(3 5.001881458e-15 0)
(3 8.901753811e-16 0)
(3 1.37340919e-15 0)
(3 2.97285207e-15 0)
(3 5.054707077e-15 0)
(3 6.021293288e-15 0)
(3 8.943323267e-15 0)
(3 1.207745367e-14 0)
(3 1.221437436e-14 0)
(3 1.067966443e-14 0)
(3 9.177263129e-15 0)
(3 5.713211237e-15 0)
(3 8.209603488e-15 0)
(3 9.900588711e-15 0)
(3 1.540140365e-14 0)
(3 1.774021665e-14 0)
(3 1.112448197e-14 0)
(3 6.724455257e-15 0)
(3 3.851529504e-15 0)
(3 -2.403033273e-17 0)
(3 -1.826953278e-15 0)
(3 -2.70310314e-15 0)
(3 -4.878831257e-15 0)
(3 -5.010121371e-15 0)
(3 -6.28239307e-15 0)
(3 -7.310587565e-15 0)
(3 -1.046310715e-14 0)
(3 -1.151985857e-14 0)
(3 -1.08204052e-14 0)
(3 -8.438068914e-15 0)
(3 -2.927371151e-15 0)
(3 6.268114006e-16 0)
(3 3.904659229e-15 0)
(3 1.414777183e-15 0)
(3 4.268750982e-16 0)
(3 -2.23913994e-15 0)
(3 -7.174384028e-16 0)
(3 6.580521428e-16 0)
(3 2.313711563e-15 0)
(3 7.147784836e-15 0)
(3 7.543574339e-15 0)
(3 5.642476624e-15 0)
(3 2.181591836e-15 0)
(3 1.443674705e-15 0)
(3 4.584531921e-15 0)
(3 8.646485524e-15 0)
(3 1.014881618e-14 0)
(3 1.496035071e-14 0)
(3 1.881757957e-14 0)
(3 2.077866578e-14 0)
(3 2.18204238e-14 0)
(3 2.174835813e-14 0)
(3 1.936649529e-14 0)
(3 1.471806759e-14 0)
(3 9.102260783e-15 0)
(3 3.496492257e-15 0)
(3 2.374708739e-15 0)
(3 8.563138099e-16 0)
(3 -5.465078365e-15 0)
(3 -8.614411315e-15 0)
(3 -7.881870042e-15 0)
(3 -1.287622577e-14 0)
(3 -1.505749928e-14 0)
(3 -8.292126187e-15 0)
(3 -3.443080977e-15 0)
(3 -1.812858916e-16 0)
(3 -2.763004196e-15 0)
(3 -5.420088281e-15 0)
(3 -1.302822762e-15 0)
(3 3.516978183e-15 0)
(3 6.139243135e-15 0)
(3 5.750026975e-15 0)
(3 4.477146627e-15 0)
(3 4.225475907e-15 0)
(3 4.754595594e-15 0)
(3 2.880924234e-15 0)
(3 1.701131556e-15 0)
(3 -1.202682512e-16 0)
(3 3.157025279e-16 0)
(3 2.506338038e-15 0)
(3 5.92855436e-15 0)
(3 1.109212741e-14 0)
(3 1.21497942e-14 0)
(3 9.414548362e-15 0)
(3 5.332306045e-15 0)
(3 5.472126676e-15 0)
(3 -4.185240961e-16 0)
(3 -3.433474142e-15 0)
(3 -6.926762407e-15 0)
(3 -8.607584252e-15 0)
(3 -8.498226281e-15 0)
(3 -5.257379341e-15 0)
(3 -4.861391099e-15 0)
(3 -3.384995237e-15 0)
(3 -5.306070075e-15 0)
(3 -2.342633458e-15 0)
(3 -2.491770781e-15 0)
(3 -1.241959822e-15 0)
(3 -2.977140666e-15 0)
(3 -6.899234939e-15 0)
(3 -9.099535763e-15 0)
(3 -1.337442504e-14 0)
(3 -1.216211067e-14 0)
(3 -1.095241767e-14 0)
(3 -1.016060376e-14 0)
(3 -8.82158863e-15 0)
(3 -5.32368953e-15 0)
(3 -4.92361713e-15 0)
(3 -6.572431568e-15 0)
(3 -5.722002198e-15 0)
(3 -4.363297964e-15 0)
(3 1.047629421e-15 0)
(3 7.6571871e-15 0)
(3 9.465734979e-15 0)
(3 5.472456246e-15 0)
(3 6.360162485e-15 0)
(3 8.689753355e-15 0)
(3 1.181372426e-14 0)
(3 1.52386158e-14 0)
(3 1.463131586e-14 0)
(3 1.182482927e-14 0)
(3 6.812669813e-15 0)
(3 4.488167748e-15 0)
(3 3.971186953e-15 0)
(3 1.558549649e-15 0)
(3 -1.427045179e-15 0)
(3 -4.436054927e-15 0)
(3 -3.310739601e-15 0)
(3 -2.553255083e-15 0)
(3 -2.452975113e-15 0)
(3 -3.947557585e-15 0)
(3 -7.441279278e-15 0)
(3 -8.456350765e-15 0)
(3 -1.348641077e-14 0)
(3 -1.207285592e-14 0)
(3 -3.754850729e-15 0)
(3 9.320620062e-16 0)
(3 3.35725759e-15 0)
(3 -2.152443374e-16 0)
(3 -1.619371504e-15 0)
(3 -3.580412007e-15 0)
(3 -6.782063596e-15 0)
(3 -7.304786801e-15 0)
(3 -9.96219371e-15 0)
(3 -9.320558235e-15 0)
(3 -9.933361235e-15 0)
(3 -8.069582355e-15 0)
(3 -2.529615899e-15 0)
(3 6.319830917e-15 0)
(3 1.105405419e-14 0)
(3 9.274855219e-15 0)
(3 9.22724213e-15 0)
(3 1.143161979e-14 0)
(3 -2.863231607e-15 0)
(3 -1.945679265e-15 0)
(3 -2.517372529e-15 0)
(3 -2.551254612e-15 0)
(3 -1.296829724e-15 0)
(3 8.023507634e-16 0)
(3 -9.211003511e-17 0)
(3 1.28031961e-16 0)
(3 -3.6687396e-16 0)
(3 2.659151912e-16 0)
(3 -2.164310757e-16 0)
(3 -3.065414991e-15 0)
(3 -4.937638214e-15 0)
(3 -6.852866178e-15 0)
(3 -8.622982634e-15 0)
(3 -9.215264014e-15 0)
(3 -7.439244128e-15 0)
(3 -9.007249754e-15 0)
(3 -1.086223113e-14 0)
(3 -1.103643458e-14 0)
(3 -9.758318128e-15 0)
(3 -9.665077912e-15 0)
(3 -1.216123722e-14 0)
(3 -7.79438634e-15 0)
(3 -6.35495513e-15 0)
(3 -4.767193099e-15 0)
(3 -2.71042491e-15 0)
(3 5.479205404e-16 0)
(3 -1.743157005e-15 0)
(3 -2.485126753e-15 0)
(3 -2.676929397e-15 0)
(3 3.465558885e-16 0)
(3 4.069452439e-15 0)
(3 4.510741633e-15 0)
(3 8.212106096e-15 0)
(3 7.087840581e-15 0)
(3 7.731187559e-15 0)
(3 8.869228966e-15 0)
(3 4.015191475e-15 0)
(3 5.04022502e-15 0)
(3 3.825815732e-15 0)
(3 2.180140796e-16 0)
(3 -1.91254365e-16 0)
(3 3.707746848e-16 0)
(3 -2.93150214e-15 0)
(3 -5.143558916e-15 0)
(3 -8.512778005e-15 0)
(3 -8.8559612e-15 0)
(3 -5.564325188e-15 0)
(3 -3.416101796e-15 0)
(3 -3.837342188e-15 0)
(3 -3.719198455e-15 0)
(3 -4.136007796e-15 0)
(3 -6.616853037e-15 0)
(3 -6.215205184e-15 0)
(3 -7.534618356e-15 0)
(3 -1.016407291e-14 0)
(3 -1.218198621e-14 0)
(3 -1.26817624e-14 0)
(3 -1.246470283e-14 0)
(3 -9.638808641e-15 0)
(3 -6.140619263e-15 0)
(3 -1.691621912e-15 0)
(3 4.999744868e-15 0)
(3 9.135688374e-15 0)
(3 8.162832092e-15 0)
(3 7.43563568e-15 0)
(3 8.895876721e-16 0)
(3 2.743206508e-15 0)
(3 2.419443262e-15 0)
(3 2.182336638e-15 0)
(3 2.862635952e-15 0)
(3 2.59246975e-15 0)
(3 1.52098785e-15 0)
(3 -8.337196294e-16 0)
(3 -8.529069027e-16 0)
(3 -4.559163877e-15 0)
(3 -7.378609295e-15 0)
(3 -9.456513721e-15 0)
(3 -7.657419836e-15 0)
(3 -5.178404664e-15 0)
(3 -2.529641447e-15 0)
(3 3.128792487e-17 0)
(3 -1.498748926e-15 0)
(3 -2.686368809e-15 0)
(3 -1.443424156e-15 0)
(3 -1.792545111e-15 0)
(3 -3.668284145e-15 0)
(3 -5.76197599e-15 0)
(3 -9.34651023e-15 0)
(3 -1.149030212e-14 0)
(3 -1.291467708e-14 0)
(3 -1.398913145e-14 0)
(3 -1.695062278e-14 0)
(3 -1.724136607e-14 0)
(3 -1.376169166e-14 0)
(3 -1.21609998e-14 0)
(3 -1.209204559e-14 0)
(3 -9.132186392e-15 0)
(3 -4.195972211e-15 0)
(3 2.197993474e-17 0)
(3 5.802025075e-15 0)
(3 1.043128422e-14 0)
(3 1.223727841e-14 0)
(3 1.124034902e-14 0)
(3 1.196817658e-14 0)
(3 1.226967528e-14 0)
(3 1.25586218e-14 0)
(3 1.066732859e-14 0)
(3 1.205918716e-14 0)
(3 1.090695326e-14 0)
(3 6.337667337e-15 0)
(3 1.347235907e-15 0)
(3 -3.883359531e-15 0)
(3 -6.086304855e-15 0)
(3 -4.461052491e-15 0)
(3 -5.233612197e-15 0)
(3 -5.803662356e-15 0)
(3 -9.230283324e-15 0)
(3 -9.649106448e-15 0)
(3 -1.069803382e-14 0)
(3 -1.113507393e-14 0)
(3 -1.037733979e-14 0)
(3 -1.093125779e-14 0)
(3 -1.151279419e-14 0)
(3 -7.574717635e-15 0)
(3 -2.370193694e-15 0)
(3 2.034045511e-15 0)
(3 4.856219748e-15 0)
(3 4.709690994e-15 0)
(3 4.649814585e-15 0)
(3 9.780336718e-15 0)
(3 8.357787474e-15 0)
(3 4.923910881e-15 0)
(3 1.727454929e-15 0)
(3 1.427930697e-15 0)
(3 3.18599642e-16 0)
(3 4.25676076e-16 0)
(3 -2.378330943e-17 0)
(3 -1.972771682e-15 0)
(3 -1.555943919e-15 0)
(3 -2.269293282e-15 0)
(3 -2.806321054e-15 0)
(3 -2.762206886e-15 0)
(3 -3.835802466e-15 0)
(3 -3.758400639e-15 0)
(3 -4.279898391e-15 0)
(3 -4.090618427e-15 0)
(3 -2.70963192e-15 0)
(3 -1.426749877e-15 0)
(3 8.838098395e-16 0)
(3 2.926332525e-15 0)
(3 1.869619659e-15 0)
(3 4.96499138e-17 0)
(3 -3.212492573e-15 0)
(3 -1.091392583e-14 0)
(3 -1.239874003e-14 0)
(3 -1.432441295e-14 0)
(3 -1.892365429e-14 0)
(3 -2.32922103e-14 0)
(3 -2.292622165e-14 0)
(3 -2.004216313e-14 0)
(3 -1.851626499e-14 0)
(3 -1.346145787e-14 0)
(3 -1.064042676e-14 0)
(3 -8.586848316e-15 0)
(3 -5.205616407e-15 0)
(3 6.438908655e-16 0)
(3 4.643261431e-15 0)
(3 1.188117829e-14 0)
(3 1.567169248e-14 0)
(3 1.854727439e-14 0)
(3 2.261383482e-14 0)
(3 2.63847704e-14 0)
(3 2.856009886e-14 0)
(3 2.711226092e-14 0)
(3 2.26694792e-14 0)
(3 2.108755397e-14 0)
(3 6.754398721e-15 0)
(3 -2.42797903e-15 0)
(3 -1.307250213e-14 0)
(3 -2.153716795e-14 0)
(3 -2.135881745e-14 0)
(3 -2.062194058e-14 0)
(3 -1.641947181e-14 0)
(3 -1.455228386e-14 0)
(3 -1.438687707e-14 0)
(3 -1.473997247e-14 0)
(3 -1.42642399e-14 0)
(3 -1.512557367e-14 0)
(3 -1.285988348e-14 0)
(3 -9.621502427e-15 0)
(3 -5.662878781e-15 0)
(3 -5.510845082e-16 0)
(3 6.434552788e-15 0)
(3 7.787769878e-15 0)
(3 6.692805847e-15 0)
(3 3.914620916e-15 0)
(3 4.094632159e-15 0)
(3 8.72492804e-15 0)
(3 9.305827144e-15 0)
(3 -4.892542376e-16 0)
(3 -2.012913471e-15 0)
(3 -1.573312769e-15 0)
(3 -1.857797896e-15 0)
(3 -3.73951272e-15 0)
(3 -5.528759894e-15 0)
(3 -2.930844428e-15 0)
(3 -3.151538427e-15 0)
(3 -2.729962281e-15 0)
(3 -2.470452243e-15 0)
(3 -1.665172061e-15 0)
(3 -1.366807691e-15 0)
(3 -2.4774126e-15 0)
(3 -3.987134178e-15 0)
(3 -6.171185733e-15 0)
(3 -5.662610571e-15 0)
(3 -3.390179449e-15 0)
(3 -3.245677691e-15 0)
(3 -7.684281648e-15 0)
(3 -1.214107375e-14 0)
(3 -1.603789739e-14 0)
(3 -1.91395011e-14 0)
(3 -1.780725234e-14 0)
(3 -1.495548284e-14 0)
(3 -1.553696359e-14 0)
(3 -1.595686574e-14 0)
(3 -1.51127349e-14 0)
(3 -1.087224463e-14 0)
(3 -8.296274411e-15 0)
(3 -6.233350167e-15 0)
(3 -3.860509888e-15 0)
(3 -4.648806485e-15 0)
(3 -2.658732838e-15 0)
(3 -3.21171353e-16 0)
(3 3.0184901e-15 0)
(3 9.144418766e-15 0)
(3 1.335818175e-14 0)
(3 1.599035043e-14 0)
(3 1.886033431e-14 0)
(3 2.111919032e-14 0)
(3 1.825734855e-14 0)
(3 1.162002555e-14 0)
(3 4.323170511e-15 0)
(3 -1.343890812e-15 0)
(3 -1.325545636e-15 0)
(3 8.507866907e-17 0)
(3 -2.713727546e-16 0)
(3 -2.346311677e-15 0)
(3 -8.971309393e-15 0)
(3 -1.430138468e-14 0)
(3 -1.998476909e-14 0)
(3 -1.89014563e-14 0)
(3 -1.641679464e-14 0)
(3 -1.607432229e-14 0)
(3 -1.685753108e-14 0)
(3 -1.511680867e-14 0)
(3 -1.401156293e-14 0)
(3 -1.010186539e-14 0)
(3 -5.58886316e-15 0)
(3 -9.271006959e-16 0)
(3 1.344029662e-15 0)
(3 1.807514417e-15 0)
(3 2.361323798e-15 0)
(3 5.900068549e-15 0)
(3 7.70394109e-15 0)
(3 1.321500232e-14 0)
(3 1.826404603e-14 0)
(3 -1.058096831e-15 0)
(3 -1.058528365e-15 0)
(3 1.183033461e-15 0)
(3 1.382605606e-15 0)
(3 -2.480115727e-18 0)
(3 -3.934470342e-16 0)
(3 -1.306823515e-15 0)
(3 -2.961612992e-15 0)
(3 -1.547788954e-15 0)
(3 -2.356233328e-15 0)
(3 -1.586279706e-15 0)
(3 -4.289845476e-16 0)
(3 6.149686878e-16 0)
(3 5.233219322e-17 0)
(3 -3.04580421e-16 0)
(3 -4.277238539e-15 0)
(3 -5.130931537e-15 0)
(3 -9.04811551e-15 0)
(3 -1.098177584e-14 0)
(3 -1.206262374e-14 0)
(3 -1.436877112e-14 0)
(3 -1.355995665e-14 0)
(3 -1.212373944e-14 0)
(3 -1.056743721e-14 0)
(3 -1.129643106e-14 0)
(3 -9.527333714e-15 0)
(3 -7.344125342e-15 0)
(3 -6.797897487e-15 0)
(3 -5.39876841e-15 0)
(3 -2.585640779e-15 0)
(3 -1.36906574e-15 0)
(3 -2.091442568e-16 0)
(3 1.081639976e-15 0)
(3 2.613509956e-15 0)
(3 3.494490226e-15 0)
(3 6.574465813e-15 0)
(3 8.470057531e-15 0)
(3 1.261568109e-14 0)
(3 1.547784192e-14 0)
(3 1.742980643e-14 0)
(3 1.459170318e-14 0)
(3 7.816700072e-15 0)
(3 2.969895979e-15 0)
(3 -3.309856128e-15 0)
(3 -5.713673373e-15 0)
(3 -5.183206426e-15 0)
(3 -5.305373288e-16 0)
(3 -4.029673406e-16 0)
(3 -2.555983882e-15 0)
(3 -5.671434212e-15 0)
(3 -1.088232255e-14 0)
(3 -1.728684009e-14 0)
(3 -1.873530597e-14 0)
(3 -1.49249207e-14 0)
(3 -1.067003925e-14 0)
(3 -5.634697842e-15 0)
(3 -5.230103814e-15 0)
(3 -4.567367384e-15 0)
(3 -4.72102869e-15 0)
(3 -1.756909283e-15 0)
(3 -1.240513454e-15 0)
(3 4.806577228e-17 0)
(3 2.478883896e-15 0)
(3 5.035185218e-15 0)
(3 8.588340024e-15 0)
(3 1.116688626e-14 0)
(3 1.450401755e-14 0)
(3 1.792534902e-16 0)
(3 3.319053995e-15 0)
(3 4.28456773e-15 0)
(3 3.741528543e-15 0)
(3 3.234033376e-15 0)
(3 4.796052077e-16 0)
(3 -2.282769743e-15 0)
(3 -4.013653515e-15 0)
(3 -5.222626279e-15 0)
(3 -3.509231228e-15 0)
(3 -1.110505698e-15 0)
(3 1.689871238e-15 0)
(3 3.532811767e-15 0)
(3 4.480184413e-15 0)
(3 3.792704659e-15 0)
(3 2.025925598e-15 0)
(3 -1.182774934e-16 0)
(3 -6.908001562e-15 0)
(3 -8.638652765e-15 0)
(3 -9.438685754e-15 0)
(3 -9.965920836e-15 0)
(3 -8.562793725e-15 0)
(3 -7.494320091e-15 0)
(3 -7.487780238e-15 0)
(3 -8.317454401e-15 0)
(3 -6.726714287e-15 0)
(3 -4.047818597e-15 0)
(3 -3.992688927e-15 0)
(3 -2.613157397e-15 0)
(3 -1.601604867e-15 0)
(3 -8.202503945e-16 0)
(3 3.26448245e-16 0)
(3 3.191723112e-15 0)
(3 6.125810585e-15 0)
(3 7.070175892e-15 0)
(3 9.36232489e-15 0)
(3 1.037559009e-14 0)
(3 1.115829836e-14 0)
(3 1.14050439e-14 0)
(3 8.690778937e-15 0)
(3 5.246966891e-15 0)
(3 -2.530118562e-15 0)
(3 -3.933436877e-15 0)
(3 -6.457437477e-15 0)
(3 -6.944198776e-15 0)
(3 -8.599164751e-15 0)
(3 -1.916955844e-15 0)
(3 -2.001775062e-15 0)
(3 -2.074955556e-15 0)
(3 -1.825472982e-15 0)
(3 -3.366155129e-15 0)
(3 -4.766371214e-15 0)
(3 -9.312399962e-15 0)
(3 -6.907554945e-15 0)
(3 -5.93959033e-15 0)
(3 -5.261891419e-15 0)