/*--------------------------------*- C++ -*----------------------------------*\
  =========                 |
  \\      /  F ield         | OpenFOAM: The Open Source CFD Toolbox
   \\    /   O peration     | Website:  https://openfoam.org
    \\  /    A nd           | Version:  7
     \\/     M anipulation  |
\*---------------------------------------------------------------------------*/
FoamFile
{
    version     2.0;
    format      ascii;
    class       volVectorField;
    location    "4.7";
    object      U;
}
// * * * * * * * * * * * * * * * * * * * * * * * * * * * * * * * * * * * * * //

dimensions      [0 1 -1 0 0 0 0];

internalField   nonuniform List<vector> 
555
(
(2.85213303 0.001259496051 0)
(2.853043346 0.0004451911841 0)
(2.853986235 -0.0003927022817 0)
(2.854571563 -0.0004340982903 0)
(2.854894678 8.342773177e-05 0)
(2.855177749 0.0001686654246 0)
(2.855847423 -0.0006434211786 0)
(2.857003839 -0.002163633458 0)
(2.858588819 -0.003129372852 0)
(2.859616894 -0.003773333422 0)
(2.859996981 -0.003734973745 0)
(2.85989021 -0.003111145511 0)
(2.859964534 -0.001531849176 0)
(2.860086094 0.000333165833 0)
(2.860261794 -6.3033398e-05 0)
(2.860426858 -0.001314855273 0)
(2.86079796 -0.002888226183 0)
(2.8516712 0.00181391942 0)
(2.85263147 0.0004964391626 0)
(2.853347028 -0.000700658569 0)
(2.853873996 -0.00173487818 0)
(2.853813739 -0.001730043295 0)
(2.853983291 -0.001590239699 0)
(2.854940045 -0.001743473525 0)
(2.856280184 -0.002065494683 0)
(2.857537525 -0.002060866244 0)
(2.858888026 -0.001555837485 0)
(2.859991964 -0.001502435488 0)
(2.860444393 -0.001357114694 0)
(2.86041971 -0.0005463057476 0)
(2.860486021 0.0007480921649 0)
(2.86072582 0.0004907204078 0)
(2.861065188 -0.0008002457008 0)
(2.861664516 -0.00269650148 0)
(2.852505753 0.001836570086 0)
(2.853626156 0.0005271628023 0)
(2.854282401 -0.0008686373932 0)
(2.853998974 -0.002237180239 0)
(2.853905786 -0.003163922763 0)
(2.854164114 -0.003014461351 0)
(2.855114674 -0.002299327526 0)
(2.856506747 -0.001435658598 0)
(2.85817481 -0.0006177032492 0)
(2.859934932 0.0003411547126 0)
(2.860843922 0.000213127585 0)
(2.861797162 -0.000617785848 0)
(2.861984439 -0.000566312958 0)
(2.861992103 0.0003660284528 0)
(2.862372697 0.0009706043829 0)
(2.862960789 3.312818219e-05 0)
(2.863054151 -0.001405373092 0)
(2.854129626 0.001440124771 0)
(2.855161684 0.0001431714224 0)
(2.855840493 -0.001475475027 0)
(2.855642377 -0.002703196217 0)
(2.855659777 -0.003830847129 0)
(2.855827346 -0.003376333893 0)
(2.856708428 -0.001689710739 0)
(2.858339104 0.0001707341543 0)
(2.860251105 0.002591516346 0)
(2.861538222 0.00298271097 0)
(2.862623169 0.00173317457 0)
(2.86338113 0.0004665221572 0)
(2.864141942 -0.0002943604214 0)
(2.864277112 -3.751578746e-05 0)
(2.864581543 0.001032956468 0)
(2.865185398 0.0006559807656 0)
(2.865610277 7.27461094e-05 0)
(2.856860878 0.0004297351782 0)
(2.857620521 -0.0007234987632 0)
(2.858277821 -0.002267767724 0)
(2.858845773 -0.003040092755 0)
(2.858927472 -0.00302465598 0)
(2.859219728 -0.002900250886 0)
(2.860338842 -0.001696798555 0)
(2.862126285 0.00218624096 0)
(2.864293685 0.004531262781 0)
(2.865802658 0.00399428744 0)
(2.86674711 0.002605744005 0)
(2.86707201 0.0008609086849 0)
(2.867418324 -0.0005640877032 0)
(2.86729877 -0.001670147328 0)
(2.867570659 -0.0008607805909 0)
(2.867998014 0.001279114595 0)
(2.868340383 0.002756004686 0)
(2.861276612 -0.0006334464315 0)
(2.861634539 -0.000966976602 0)
(2.862131871 -0.0007609363909 0)
(2.862769199 -0.001031362439 0)
(2.863123486 -0.001092571891 0)
(2.86370221 -0.0005197543957 0)
(2.865292116 0.001466787893 0)
(2.867582864 0.00311220337 0)
(2.869500682 0.004145507953 0)
(2.871150258 0.003882399787 0)
(2.871920837 0.002843848746 0)
(2.871975107 0.001169440351 0)
(2.871751672 -0.0008122835411 0)
(2.871990856 -0.002219285695 0)
(2.872098216 -0.002839171452 0)
(2.87220363 -0.001050391066 0)
(2.872848894 0.002204635774 0)
(2.867532012 -7.681183641e-05 0)
(2.867524354 -0.0003305844132 0)
(2.86771501 -0.0001106238268 0)
(2.867913405 0.000735614997 0)
(2.868198166 0.001802027758 0)
(2.86904012 0.001999176243 0)
(2.870352576 0.002173066543 0)
(2.873133288 0.002533827602 0)
(2.874888729 0.002323576664 0)
(2.876031349 0.002383579883 0)
(2.876950243 0.001947178547 0)
(2.877276278 0.0009075781882 0)
(2.877036836 -0.001173765702 0)
(2.877589867 -0.003337288132 0)
(2.878292174 -0.003658023136 0)
(2.878596096 -0.002752076332 0)
(2.878666709 -0.0003083725807 0)
(2.874332609 0.0003991935782 0)
(2.874765271 0.0008268209645 0)
(2.875284922 0.001129955061 0)
(2.875441543 0.002089529152 0)
(2.875179272 0.002874232822 0)
(2.875367869 0.003379779527 0)
(2.875904115 0.002716204879 0)
(2.878030362 0.001087703398 0)
(2.879649666 -0.0001385397664 0)
(2.880515352 -6.192092026e-05 0)
(2.881401959 0.0003218406261 0)
(2.882370319 5.979998661e-05 0)
(2.883132263 -0.001051777365 0)
(2.884001727 -0.00215370064 0)
(2.884994787 -0.002601055553 0)
(2.88549068 -0.002518590281 0)
(2.885894119 -0.001752711321 0)
(2.881963822 0.001534864993 0)
(2.882952574 0.001325347094 0)
(2.88381835 0.0008876807542 0)
(2.883988259 0.001367328407 0)
(2.883808194 0.001879503731 0)
(2.883751581 0.002794086193 0)
(2.884009023 0.001880630997 0)
(2.88402519 -0.0001717081244 0)
(2.885464441 -0.001834796138 0)
(2.886367536 -0.002156419122 0)
(2.887098179 -0.00156819727 0)
(2.888326952 -0.0009543890694 0)
(2.889922136 -0.001001158847 0)
(2.891191339 -0.001059592651 0)
(2.891886323 -0.0009962304839 0)
(2.89207187 -0.001546482805 0)
(2.892872507 -0.002585548785 0)
(2.891721742 0.002470398146 0)
(2.892170468 0.002531806051 0)
(2.892846139 0.002317874476 0)
(2.893353629 0.001777831185 0)
(2.893516451 0.001558394676 0)
(2.893964875 0.001154006307 0)
(2.894120215 0.001488286113 0)
(2.894337541 0.0008030785008 0)
(2.893819736 -0.001108140432 0)
(2.894219481 -0.002879478127 0)
(2.894979025 -0.003528160904 0)
(2.895868774 -0.002899768646 0)
(2.896718437 -0.001758601701 0)
(2.89769959 5.575900858e-05 0)
(2.898470564 0.0012335368 0)
(2.89939398 0.001114006046 0)
(2.900508453 -0.0001245717346 0)
(2.900924993 -0.002216527644 0)
(2.905088884 0.003185995763 0)
(2.905550903 0.002746719384 0)
(2.905739591 0.002057206983 0)
(2.906063351 0.001383358124 0)
(2.906182334 0.000543698072 0)
(2.906234551 0.0001141175389 0)
(2.906298236 -0.0003499292482 0)
(2.906171198 -0.001111529837 0)
(2.906045303 -0.002155518209 0)
(2.90601263 -0.003046533949 0)
(2.906497763 -0.003473587921 0)
(2.90721364 -0.003060455329 0)
(2.907758054 -0.001642143783 0)
(2.908255892 0.0002697909107 0)
(2.909323703 0.001866200885 0)
(2.910619373 0.002018768862 0)
(2.911365613 0.0006353373795 0)
(2.911849022 -0.001682187368 0)
(2.921529958 0.002468054277 0)
(2.921980685 0.001869873711 0)
(2.922216035 0.001390760921 0)
(2.921983708 0.000326447216 0)
(2.921478639 -0.0005819476666 0)
(2.920962306 -0.001144443202 0)
(2.920784487 -0.002076874425 0)
(2.920497696 -0.002719990197 0)
(2.920142681 -0.002963630289 0)
(2.919613032 -0.00299090914 0)
(2.919582715 -0.002493129413 0)
(2.919960738 -0.001902632395 0)
(2.920859484 -0.001104350845 0)
(2.921960755 0.0006265434966 0)
(2.923322436 0.002228697191 0)
(2.924298499 0.002568721612 0)
(2.924689513 0.0008615367436 0)
(2.924505508 -0.0009379546479 0)
(2.940368681 0.001090623798 0)
(2.940546074 0.0001903695399 0)
(2.940540142 -0.0002495545935 0)
(2.940127629 -0.0009733182811 0)
(2.939378182 -0.00177464032 0)
(2.938549089 -0.002143204115 0)
(2.937870896 -0.003237652953 0)
(2.937167761 -0.00381330633 0)
(2.936080043 -0.003085779606 0)
(2.935038488 -0.001680900237 0)
(2.93466664 -0.0005289258877 0)
(2.934864347 3.236472257e-05 0)
(2.935925114 0.0006487759161 0)
(2.937968666 0.0009038386159 0)
(2.939722994 0.001009449604 0)
(2.93991964 0.001068067922 0)
(2.939683517 0.0007697420601 0)
(2.939033379 -0.000331476848 0)
(2.960929583 -0.0005809171332 0)
(2.960892255 -0.001284916403 0)
(2.960495928 -0.001670366191 0)
(2.959772915 -0.002235076898 0)
(2.958845651 -0.002597814765 0)
(2.957833989 -0.002765965901 0)
(2.9566476 -0.003397589911 0)
(2.955686303 -0.003319947475 0)
(2.954751742 -0.002162466511 0)
(2.953455625 6.03130968e-05 0)
(2.952665497 0.001606516598 0)
(2.952951736 0.001623979186 0)
(2.95416997 0.001368339342 0)
(2.956257075 0.0006784194956 0)
(2.957776351 -0.0004815054194 0)
(2.957768754 -0.0009705703213 0)
(2.957089031 0.000145325609 0)
(2.955914739 0.001395810449 0)
(2.983058735 -0.00124946652 0)
(2.982762975 -0.002267196972 0)
(2.981836302 -0.003058202508 0)
(2.980574531 -0.003239271269 0)
(2.979413228 -0.003002188198 0)
(2.97810686 -0.002632913508 0)
(2.976781751 -0.00262027135 0)
(2.976090975 -0.00161766627 0)
(2.974948043 0.0001626476311 0)
(2.974132305 0.001917793937 0)
(2.974062359 0.002214733596 0)
(2.974515342 0.001610402533 0)
(2.975644204 0.0007351765084 0)
(2.977123823 -0.0003853030224 0)
(2.978008235 -0.001713492 0)
(2.978244731 -0.002445161218 0)
(2.977990578 -0.001102582204 0)
(2.976606039 0.00176262912 0)
(3.005793381 -0.001564625841 0)
(3.005524948 -0.002181655529 0)
(3.004648702 -0.002956593189 0)
(3.003153536 -0.003268348626 0)
(3.001825094 -0.002588831875 0)
(3.000394044 -0.001595194479 0)
(2.998940016 -0.0001690470174 0)
(2.997547791 0.001520465611 0)
(2.99658356 0.001951417195 0)
(2.997000586 0.00152626412 0)
(2.997679059 0.001031314362 0)
(2.998207359 0.0006537266061 0)
(2.999109107 -0.0001779283121 0)
(3.000166539 -0.001313258982 0)
(3.000581341 -0.002494545673 0)
(3.00082191 -0.002816204492 0)
(3.000402019 -0.001035056914 0)
(2.999478492 0.0009204138554 0)
(3.028460844 -0.0006012922409 0)
(3.028109505 -0.0008415184857 0)
(3.0276006 -0.001502360704 0)
(3.026464521 -0.001477407627 0)
(3.025187642 -0.0004407457839 0)
(3.0237582 0.0009843411963 0)
(3.022178066 0.002723560729 0)
(3.021216159 0.003413162759 0)
(3.021343024 0.002004231093 0)
(3.021372995 0.0002826693578 0)
(3.021463265 -0.0005020291239 0)
(3.022183547 -0.0006035594174 0)
(3.023398169 -0.001007967907 0)
(3.024385149 -0.001932987459 0)
(3.024762517 -0.002576987486 0)
(3.024076278 -0.002098714453 0)
(3.023039408 -0.001053911355 0)
(3.022534655 -0.0007195500382 0)
(3.050989376 0.0006994880248 0)
(3.050589852 0.0008248290019 0)
(3.050159857 0.0006857612505 0)
(3.049360099 0.0008850747271 0)
(3.048574633 0.001572338277 0)
(3.047732776 0.002664145508 0)
(3.04700702 0.003523532965 0)
(3.047258751 0.003047967137 0)
(3.046734863 0.00169160727 0)
(3.046088234 -0.0004809591497 0)
(3.046143275 -0.001671912163 0)
(3.04705316 -0.001949403035 0)
(3.048337781 -0.002071124518 0)
(3.049218141 -0.002256643093 0)
(3.049210757 -0.001905110954 0)
(3.048150718 -0.001148743019 0)
(3.047440209 -0.001554354878 0)
(3.046661552 -0.001716236475 0)
(3.074686936 0.001671959953 0)
(3.074717722 0.001862788334 0)
(3.074637338 0.001934538381 0)
(3.074197886 0.001810273264 0)
(3.073704171 0.001834016605 0)
(3.073381558 0.002211741376 0)
(3.07343405 0.002579405722 0)
(3.072874841 0.002007957159 0)
(3.071766842 0.0005128887501 0)
(3.071320349 -0.0008372701092 0)
(3.071547949 -0.002023608608 0)
(3.072471973 -0.002655207489 0)
(3.073719718 -0.00282199811 0)
(3.07432399 -0.002085140482 0)
(3.074585667 -0.0006603697774 0)
(3.074276701 5.179714542e-05 0)
(3.073504836 -0.001540209609 0)
(3.072338132 -0.002370739403 0)
(3.099226346 0.001652811592 0)
(3.099674774 0.001940032628 0)
(3.100028196 0.002101121851 0)
(3.099907642 0.001938568642 0)
(3.099531326 0.001540737863 0)
(3.09913276 0.001465453299 0)
(3.098833647 0.001188379333 0)
(3.098319174 0.0001626121742 0)
(3.097864101 -0.0006034776055 0)
(3.097397301 -0.001199798172 0)
(3.09781081 -0.001884221931 0)
(3.098732421 -0.002644283929 0)
(3.099694135 -0.002409081395 0)
(3.100407612 -0.00110827283 0)
(3.100713043 0.0007979726761 0)
(3.100956541 0.001028800666 0)
(3.099828411 -0.0004058778235 0)
(3.098518049 -0.001814328666 0)
(3.123414158 0.0008889322102 0)
(3.123838161 0.001074689874 0)
(3.124204216 0.001080199846 0)
(3.124185604 0.001027292278 0)
(3.124152069 0.0005319234791 0)
(3.124008568 -2.973371444e-05 0)
(3.123920794 -0.0009931853281 0)
(3.123941371 -0.00158575095 0)
(3.123824894 -0.001342572784 0)
(3.123703937 -0.0009420206513 0)
(3.124111341 -0.001319543487 0)
(3.125136968 -0.001579000732 0)
(3.126099836 -0.0009998855946 0)
(3.126688597 0.0004647918029 0)
(3.127387982 0.001004902164 0)
(3.127015812 0.001002082628 0)
(3.125984273 0.0003967170626 0)
(3.124768534 0.0002586079485 0)
(3.147456006 -2.31238822e-05 0)
(3.148028862 -5.412942042e-05 0)
(3.148537923 -0.0003165105079 0)
(3.148707117 -0.0007236350841 0)
(3.148684227 -0.001219957114 0)
(3.148722781 -0.001766567468 0)
(3.148884282 -0.002424982404 0)
(3.148666232 -0.002384167342 0)
(3.148587396 -0.00172823933 0)
(3.149048654 -0.0004336022539 0)
(3.150007203 5.453943252e-05 0)
(3.151133704 0.0005651836691 0)
(3.152171272 0.001157084815 0)
(3.152814119 0.001463014717 0)
(3.153167349 0.001142084774 0)
(3.152467882 0.0007246494519 0)
(3.151632852 0.001169771401 0)
(3.150343964 0.001735419408 0)
(3.170267183 0.0002711854829 0)
(3.170990107 -0.0004919413062 0)
(3.17177777 -0.001055369116 0)
(3.172379963 -0.001617741248 0)
(3.172591422 -0.001923421529 0)
(3.172382909 -0.001913592351 0)
(3.172354807 -0.002001053701 0)
(3.172235911 -0.002254079346 0)
(3.172185843 -0.002078754795 0)
(3.172690889 -0.001187192739 0)
(3.173459039 0.0002150545299 0)
(3.174807783 0.001865221859 0)
(3.176077607 0.00252286371 0)
(3.17714479 0.002376059351 0)
(3.177690252 0.001847773833 0)
(3.176992802 0.001205410022 0)
(3.176409476 0.0009581848861 0)
(3.175339878 0.001859032785 0)
(3.174325656 0.002597293815 0)
(3.192637193 0.0006704572249 0)
(3.193130506 -0.0002504848233 0)
(3.193827823 -0.0009918675702 0)
(3.194116623 -0.001623868513 0)
(3.194252478 -0.001697670754 0)
(3.193952175 -0.001472271959 0)
(3.193801578 -0.001386698413 0)
(3.193787018 -0.001280301345 0)
(3.194217647 -0.0008782987293 0)
(3.194834325 0.0002946401482 0)
(3.195810843 0.001512683344 0)
(3.197148431 0.002328153201 0)
(3.198369861 0.002765293243 0)
(3.199095658 0.002527253174 0)
(3.199094292 0.001618546575 0)
(3.198967084 0.0008800831648 0)
(3.197990386 0.001152591731 0)
(3.196860141 0.00217937228 0)
(3.195948609 0.002728734298 0)
(3.212481139 0.001051034364 0)
(3.21281107 9.75578729e-05 0)
(3.213313016 -0.0005313740113 0)
(3.213220687 -0.001181506452 0)
(3.213170264 -0.001127901823 0)
(3.212934045 -0.0008083179882 0)
(3.212812556 -0.00032413306 0)
(3.213060306 0.0004242129836 0)
(3.213625624 0.0008976534336 0)
(3.214219222 0.001337008611 0)
(3.215041394 0.001447086466 0)
(3.216367939 0.001835743246 0)
(3.217159394 0.002207450393 0)
(3.21765423 0.001636523726 0)
(3.217886646 0.0004967269081 0)
(3.217587295 1.335261276e-05 0)
(3.216416875 0.0005475115729 0)
(3.215534471 0.001670244992 0)
(3.214896726 0.002008688872 0)
(3.229111951 0.001570250889 0)
(3.229343087 0.0007857305645 0)
(3.229447307 0.0001351829844 0)
(3.229339634 -0.0003774649212 0)
(3.228967108 -0.0004877598169 0)
(3.228858635 -3.968728889e-05 0)
(3.228804737 0.0009033428794 0)
(3.229035396 0.001710819822 0)
(3.229670218 0.001787980569 0)
(3.230461233 0.00151575245 0)
(3.231097372 0.0009632453843 0)
(3.231758225 0.0005808165849 0)
(3.232396246 0.0003156729116 0)
(3.2326569 -0.000512718936 0)
(3.232538494 -0.0009423685011 0)
(3.231394553 -0.001097727321 0)
(3.230677876 -0.0001124562658 0)
(3.229437708 -0.0001340119969 0)
(3.227914002 -0.0006739796415 0)
(3.242011968 0.001661048955 0)
(3.241925934 0.0009512434992 0)
(3.241635562 0.0005241602025 0)
(3.24152942 0.0003758001957 0)
(3.240982578 0.0001564443281 0)
(3.240745399 0.0001201016746 0)
(3.240788131 0.0008917339783 0)
(3.241179028 0.001577406593 0)
(3.241531903 0.001738365585 0)
(3.24196869 0.001106227481 0)
(3.242318442 0.0001315897142 0)
(3.242414135 -0.001062078578 0)
(3.242488127 -0.001911458145 0)
(3.242445212 -0.002126852694 0)
(3.241983754 -0.001784465651 0)
(3.241301164 -0.001355244735 0)
(3.240269639 -0.001322422557 0)
(3.238792311 -0.001846012667 0)
(3.236358992 -0.002856037604 0)
(3.251183603 0.001647769488 0)
(3.250644645 0.001094786894 0)
(3.25016827 0.001227422185 0)
(3.249644572 0.0007943118243 0)
(3.249302126 0.0003410519425 0)
(3.248873781 -0.000118705786 0)
(3.248891114 0.0001105110024 0)
(3.248855749 0.0005931393106 0)
(3.248843737 0.0004741785364 0)
(3.248844776 -0.0006607794972 0)
(3.249069323 -0.001898841316 0)
(3.249294713 -0.00270952001 0)
(3.248875873 -0.003141905272 0)
(3.248416149 -0.002905828514 0)
(3.248280417 -0.002201914459 0)
(3.247683379 -0.001644631246 0)
(3.246314896 -0.001954820719 0)
(3.244624131 -0.002780744256 0)
(3.242479694 -0.003531797242 0)
(3.256256021 0.00180326193 0)
(3.255740947 0.00139446082 0)
(3.255274472 0.001351592474 0)
(3.254621849 0.0007095772509 0)
(3.253992624 0.0001064420474 0)
(3.253352619 -0.0005676089279 0)
(3.252938465 -0.001164244695 0)
(3.252625875 -0.001246389404 0)
(3.252774625 -0.001510012025 0)
(3.252806941 -0.002141841208 0)
(3.253163007 -0.002638383232 0)
(3.253172124 -0.003073624184 0)
(3.253018296 -0.00307695276 0)
(3.252979358 -0.00243195962 0)
(3.25276542 -0.001388423873 0)
(3.25131412 -0.00124186183 0)
(3.249833364 -0.002017030277 0)
(3.248392833 -0.002964792392 0)
(3.246858511 -0.00333943286 0)
(3.258599056 0.001806457441 0)
(3.258163438 0.001449037118 0)
(3.25769423 0.0008628832902 0)
(3.256733069 0.0001180310985 0)
(3.25566181 -0.0007955583455 0)
(3.254984819 -0.0009552707153 0)
(3.254408521 -0.001541795217 0)
(3.254560557 -0.001979060861 0)
(3.254729491 -0.002189946514 0)
(3.254926493 -0.002204779372 0)
(3.255280731 -0.002237446967 0)
(3.256114571 -0.002637634944 0)
(3.256491811 -0.002261422476 0)
(3.256245185 -0.0009961596759 0)
(3.254897112 5.336065845e-05 0)
(3.25369231 0.0002415159268 0)
(3.252373015 -0.0006385470266 0)
(3.250954268 -0.002043030862 0)
(3.24912094 -0.002157106379 0)
(3.25962973 0.0004740307321 0)
(3.258906554 0.0006750307166 0)
(3.258290687 0.0001597636538 0)
(3.257123348 -0.0004125921739 0)
(3.256127074 -0.0008082612958 0)
(3.25569151 -0.0002816575513 0)
(3.255562744 -0.0003875185929 0)
(3.255613536 -0.001237416733 0)
(3.255751181 -0.001540780178 0)
(3.256236754 -0.001666735847 0)
(3.256997392 -0.001064953884 0)
(3.258010499 -3.398697178e-05 0)
(3.258267316 0.0007343834788 0)
(3.257303192 0.001738641418 0)
(3.255913355 0.002288464887 0)
(3.255120679 0.002525799406 0)
)
;

boundaryField
{
    inlet
    {
        type            fixedValue;
        value           nonuniform 0();
    }
    outlet
    {
        type            inletOutlet;
        inletValue      uniform (3 0 0);
        value           nonuniform List<vector> 
30
(
(2.86079796 -0.002888226183 0)
(2.861664516 -0.00269650148 0)
(2.863054151 -0.001405373092 0)
(2.865610277 7.27461094e-05 0)
(2.868340383 0.002756004686 0)
(2.872848894 0.002204635774 0)
(2.878666709 -0.0003083725807 0)
(2.885894119 -0.001752711321 0)
(2.892872507 -0.002585548785 0)
(2.900924993 -0.002216527644 0)
(2.911849022 -0.001682187368 0)
(2.924505508 -0.0009379546479 0)
(2.939033379 -0.000331476848 0)
(2.955914739 0.001395810449 0)
(2.976606039 0.00176262912 0)
(2.999478492 0.0009204138554 0)
(3.022534655 -0.0007195500382 0)
(3.046661552 -0.001716236475 0)
(3.072338132 -0.002370739403 0)
(3.098518049 -0.001814328666 0)
(3.124768534 0.0002586079485 0)
(3.150343964 0.001735419408 0)
(3.174325656 0.002597293815 0)
(3.195948609 0.002728734298 0)
(3.214896726 0.002008688872 0)
(3.227914002 -0.0006739796415 0)
(3.236358992 -0.002856037604 0)
(3.242479694 -0.003531797242 0)
(3.246858511 -0.00333943286 0)
(3.24912094 -0.002157106379 0)
)
;
    }
    bottom
    {
        type            slip;
    }
    top
    {
        type            slip;
    }
    obstacle
    {
        type            slip;
    }
    defaultFaces
    {
        type            empty;
    }
    procBoundary17to11
    {
        type            processor;
        value           nonuniform List<vector> 
17
(
(2.854478229 0.000687435514 0)
(2.855203504 0.0003701943982 0)
(2.85605347 0.000309151335 0)
(2.856340347 0.0008318371816 0)
(2.856788742 0.001383450166 0)
(2.857553326 0.001332053818 0)
(2.858457088 0.0005924853917 0)
(2.859034043 -0.001713385644 0)
(2.859931022 -0.003886381413 0)
(2.860619445 -0.004844251321 0)
(2.860994171 -0.0043911005 0)
(2.861022962 -0.003041078989 0)
(2.861098854 -0.0006095201384 0)
(2.861053325 0.0006423180118 0)
(2.860995562 -0.0001533289571 0)
(2.861205152 -0.001310993324 0)
(2.861872438 -0.002163418069 0)
)
;
    }
    procBoundary17to16
    {
        type            processor;
        value           nonuniform List<vector> 
32
(
(2.851273329 0.00318213998 0)
(2.850621909 0.003472260914 0)
(2.851338128 0.002738707226 0)
(2.85330086 0.001734472816 0)
(2.856502872 0.001039402618 0)
(2.861196859 0.0002827086561 0)
(2.867300655 0.0004928027095 0)
(2.873914316 0.0003124348954 0)
(2.881479397 0.001606739697 0)
(2.881479397 0.001606739697 0)
(2.891110619 0.002588771381 0)
(2.904282247 0.003374895336 0)
(2.920736069 0.002787032106 0)
(2.93986638 0.002009489561 0)
(2.960775564 0.0005140191228 0)
(2.983067513 -0.000350081728 0)
(3.005836858 -0.0008517876879 0)
(3.028440491 4.478236847e-05 0)
(3.050969946 0.001172266661 0)
(3.074360997 0.001993541301 0)
(3.098657051 0.001734546955 0)
(3.122718404 0.0009976097695 0)
(3.146699214 0.000361845979 0)
(3.146699214 0.000361845979 0)
(3.16895026 0.0007394008363 0)
(3.191767444 0.00127581636 0)
(3.212136403 0.001915725897 0)
(3.228837511 0.002128616896 0)
(3.241960103 0.001843048349 0)
(3.251486669 0.001802268477 0)
(3.256218112 0.001696718478 0)
(3.258531779 0.001492595793 0)
)
;
    }
    procBoundary17to22
    {
        type            processor;
        value           uniform (3.26010908 0.000649199934 0);
    }
    procBoundary17to23
    {
        type            processor;
        value           nonuniform List<vector> 
20
(
(3.254043985 0.001741085122 0)
(3.252616505 0.0006997064892 0)
(3.250310305 -0.0001187598864 0)
(3.259715928 -0.0003805443236 0)
(3.259019582 -0.0001678892122 0)
(3.258245874 0.0002427756202 0)
(3.257043897 0.0001290266499 0)
(3.256150226 3.837714612e-05 0)
(3.255519427 0.0005074775613 0)
(3.255426848 0.000322334972 0)
(3.255601938 -5.716908826e-05 0)
(3.255956529 -0.0003694492543 0)
(3.257158826 8.092137537e-05 0)
(3.257902101 0.0010780926 0)
(3.257785032 0.002561250825 0)
(3.257633729 0.003356996636 0)
(3.257182878 0.004004008696 0)
(3.25619981 0.004146526373 0)
(3.254043985 0.001741085122 0)
(3.254854691 0.003775406196 0)
)
;
    }
}


// ************************************************************************* //
