/*--------------------------------*- C++ -*----------------------------------*\
  =========                 |
  \\      /  F ield         | OpenFOAM: The Open Source CFD Toolbox
   \\    /   O peration     | Website:  https://openfoam.org
    \\  /    A nd           | Version:  7
     \\/     M anipulation  |
\*---------------------------------------------------------------------------*/
FoamFile
{
    version     2.0;
    format      ascii;
    class       volVectorField;
    location    "0.3";
    object      U;
}
// * * * * * * * * * * * * * * * * * * * * * * * * * * * * * * * * * * * * * //

dimensions      [0 1 -1 0 0 0 0];

internalField   nonuniform List<vector> 
2222
(
(3 8.391942549e-15 0)
(3 2.684173816e-15 0)
(3 2.488549838e-15 0)
(3 2.157690964e-15 0)
(3 6.741395927e-15 0)
(3 -6.614887857e-16 0)
(3 -1.952914705e-15 0)
(3 6.710325398e-16 0)
(3 3.165247036e-15 0)
(3 2.954470045e-15 0)
(3 -3.365844801e-15 0)
(3 -6.12399594e-15 0)
(3 -4.287882024e-15 0)
(3 -5.260492911e-15 0)
(3 -5.704043099e-15 0)
(3 -7.309890439e-16 0)
(3 4.32440658e-15 0)
(3 7.824019956e-15 0)
(3 4.57934438e-15 0)
(3 3.258270834e-15 0)
(3 1.756948949e-15 0)
(3 2.630683104e-15 0)
(3 -5.251468924e-16 0)
(3 -1.49636444e-15 0)
(3 -4.188218686e-15 0)
(3 -3.944715585e-15 0)
(3 -1.966344005e-15 0)
(3 1.916183367e-15 0)
(3 3.40306239e-15 0)
(3 3.718550811e-15 0)
(3 3.906421876e-15 0)
(3 4.728306433e-15 0)
(3 7.938018538e-15 0)
(3 2.380196481e-15 0)
(3 7.414649505e-15 0)
(3 9.89580807e-15 0)
(3 1.565580923e-14 0)
(3 -2.541823742e-15 0)
(3 1.328280909e-16 0)
(3 4.540791088e-15 0)
(3 5.704076861e-15 0)
(3 1.909585503e-15 0)
(3 -5.973663747e-15 0)
(3 -1.066069724e-14 0)
(3 -3.907738908e-15 0)
(3 -2.992502535e-15 0)
(3 -2.213076704e-15 0)
(3 4.678921267e-15 0)
(3 1.363876579e-14 0)
(3 1.672101182e-14 0)
(3 6.850302931e-15 0)
(3 3.570268935e-15 0)
(3 5.436380524e-16 0)
(3 1.87671748e-15 0)
(3 8.039420696e-16 0)
(3 -6.989520425e-15 0)
(3 -1.504468736e-14 0)
(3 -4.911378915e-15 0)
(3 -3.331497448e-16 0)
(3 6.804695418e-15 0)
(3 4.915791767e-15 0)
(3 4.574696021e-15 0)
(3 5.650864373e-15 0)
(3 5.899049776e-15 0)
(3 -2.894312698e-11 0)
(3 -8.986465673e-13 0)
(3 -1.834545501e-14 0)
(3 1.484520511e-14 0)
(3 1.949005978e-14 0)
(3 9.425933944e-15 0)
(3 6.769969911e-15 0)
(3 8.236437349e-15 0)
(3 3.037210191e-15 0)
(3 -5.875998053e-15 0)
(3 -1.665303135e-14 0)
(3 -1.977656243e-14 0)
(3 -6.494723095e-15 0)
(3 -3.779957937e-15 0)
(3 3.862016117e-15 0)
(3 2.147428629e-14 0)
(3 2.821647979e-14 0)
(3 2.439493047e-14 0)
(3 7.946521332e-15 0)
(3 3.865365152e-15 0)
(3 -1.08278959e-15 0)
(3 -1.761495169e-15 0)
(3 -3.466545776e-15 0)
(3 -1.637081346e-14 0)
(3 -2.792977407e-14 0)
(3 -1.928337619e-14 0)
(3 -1.245451043e-14 0)
(3 1.125772492e-16 0)
(3 8.171800322e-16 0)
(3 5.377851341e-15 0)
(3 5.970840911e-15 0)
(3 6.640403503e-15 0)
(3.00000003 -2.451820705e-07 0)
(3.000000003 -1.917827555e-08 0)
(3 -6.878193094e-10 0)
(3 -9.824236187e-12 0)
(3 -5.250882144e-14 0)
(3 1.661594508e-14 0)
(3 1.420975184e-14 0)
(3 1.390543604e-14 0)
(3 1.18678349e-14 0)
(3 -4.112974785e-15 0)
(3 -2.82556663e-14 0)
(3 -1.759254927e-14 0)
(3 5.676999978e-16 0)
(3 3.930537369e-15 0)
(3 2.175877922e-15 0)
(3 2.091359576e-14 0)
(3 3.081502137e-14 0)
(3 3.026032626e-14 0)
(3 1.140495912e-14 0)
(3 1.635914071e-15 0)
(3 -3.222889618e-15 0)
(3 -4.003556951e-15 0)
(3 -9.876061239e-15 0)
(3 -2.769012295e-14 0)
(3 -3.212478117e-14 0)
(3 -2.253137221e-14 0)
(3 -1.988822893e-15 0)
(3 3.258886272e-15 0)
(3 5.599268981e-15 0)
(3 1.725737075e-15 0)
(3 -8.791935021e-16 0)
(3 3.863525742e-15 0)
(3.000016248 -0.0001445531832 0)
(3.000003423 -2.580242365e-05 0)
(3.000000379 -2.580294306e-06 0)
(3.000000019 -1.253907195e-07 0)
(3 -2.495449902e-09 0)
(3 -1.675463154e-11 0)
(3 -3.199816447e-14 0)
(3 2.048500316e-14 0)
(3 1.727575032e-14 0)
(3 -4.126106476e-15 0)
(3 -2.998686116e-14 0)
(3 -2.245572734e-14 0)
(3 -3.630887646e-15 0)
(3 8.768556977e-17 0)
(3 1.64161478e-15 0)
(3 1.436148711e-14 0)
(3 3.23958871e-14 0)
(3 3.426856915e-14 0)
(3 1.655434999e-14 0)
(3 8.326385215e-15 0)
(3 2.48360638e-15 0)
(3 -4.50853532e-15 0)
(3 -1.790519877e-14 0)
(3 -3.444576433e-14 0)
(3 -3.452317237e-14 0)
(3 -2.050140478e-14 0)
(3 -6.403217073e-15 0)
(3 -2.803305567e-15 0)
(3 8.200322995e-15 0)
(3 4.121629366e-15 0)
(3 -8.002726545e-16 0)
(3 -2.67989094e-15 0)
(3.000919008 -0.008746835917 0)
(3.000380814 -0.003030107866 0)
(3.000101467 -0.0007012565751 0)
(3.000015393 -9.572987352e-05 0)
(3.000001135 -6.601901227e-06 0)
(3.000000034 -1.912366911e-07 0)
(3 -1.886781079e-09 0)
(3 -5.088568064e-12 0)
(3 -2.580079051e-17 0)
(3 -3.832028608e-15 0)
(3 -2.150698687e-14 0)
(3 -2.336717864e-14 0)
(3 -1.114732126e-14 0)
(3 -1.78075444e-15 0)
(3 3.21890152e-15 0)
(3 1.339808813e-14 0)
(3 3.239064672e-14 0)
(3 3.694938949e-14 0)
(3 2.043506648e-14 0)
(3 1.276124219e-14 0)
(3 2.123467378e-15 0)
(3 -6.266957214e-15 0)
(3 -2.538431717e-14 0)
(3 -3.545122131e-14 0)
(3 -2.909093877e-14 0)
(3 -1.487453486e-14 0)
(3 -6.240537201e-15 0)
(3 -5.999329122e-15 0)
(3 -2.293513446e-15 0)
(3 7.626713615e-15 0)
(3 5.496556838e-15 0)
(3 -4.310073632e-15 0)
(3.009085225 -0.08465230497 0)
(3.006120453 -0.04855391565 0)
(3.003103574 -0.02153501012 0)
(3.001080045 -0.006679696188 0)
(3.000226841 -0.001273512433 0)
(3.000024303 -0.0001268807672 0)
(3.000001085 -5.436522647e-06 0)
(3.000000016 -8.015344674e-08 0)
(3 -3.184612877e-10 0)
(3 -3.161295607e-13 0)
(3 -1.483037605e-14 0)
(3 -1.882510551e-14 0)
(3 -1.646536823e-15 0)
(3 6.812906385e-15 0)
(3 7.948121842e-15 0)
(3 1.99543685e-14 0)
(3 3.257037709e-14 0)
(3 3.99305391e-14 0)
(3 3.078428063e-14 0)
(3 9.270962218e-15 0)
(3 -2.136880013e-15 0)
(3 -1.461142948e-14 0)
(3 -2.648996395e-14 0)
(3 -3.239940396e-14 0)
(3 -2.99001466e-14 0)
(3 -1.941659566e-14 0)
(3 -8.03162854e-15 0)
(3 -2.138277785e-15 0)
(3 -3.454779441e-15 0)
(3 1.982846051e-15 0)
(3 6.527685827e-15 0)
(3 3.946829077e-15 0)
(3.025073723 -0.2259981438 0)
(3.023089138 -0.178458032 0)
(3.018189813 -0.1236607326 0)
(3.011470739 -0.06978266698 0)
(3.005236391 -0.02886930797 0)
(3.001511698 -0.0076433991 0)
(3.000232601 -0.00109453285 0)
(3.000015439 -6.908500182e-05 0)
(3.000000346 -1.516456906e-06 0)
(3.000000002 -8.919141975e-09 0)
(3 -1.073617907e-11 0)
(3 -2.81043843e-14 0)
(3 -7.478626594e-17 0)
(3 1.47962907e-14 0)
(3 1.851923939e-14 0)
(3 2.897214807e-14 0)
(3 3.770653943e-14 0)
(3 4.588049629e-14 0)
(3 3.868872022e-14 0)
(3 1.668443779e-14 0)
(3 -1.956822713e-15 0)
(3 -1.909566782e-14 0)
(3 -2.118672563e-14 0)
(3 -2.270510432e-14 0)
(3 -2.167264832e-14 0)
(3 -1.116970198e-14 0)
(3 -6.907397282e-15 0)
(3 -2.733204687e-15 0)
(3 -2.104506753e-15 0)
(3 -1.664549354e-15 0)
(3 -7.52413852e-16 0)
(3 9.151650712e-16 0)
(3.036699903 -0.3113975345 0)
(3.038312044 -0.2837558624 0)
(3.037270474 -0.2458605145 0)
(3.032759739 -0.1950770437 0)
(3.024516314 -0.1330353945 0)
(3.014170694 -0.0705521781 0)
(3.005486407 -0.02520740892 0)
(3.001183607 -0.005061835949 0)
(3.000114106 -0.0004607279958 0)
(3.000003794 -1.477699063e-05 0)
(3.000000033 -1.264356856e-07 0)
(3 -2.157739479e-10 0)
(3 -7.047828183e-14 0)
(3 2.599748458e-14 0)
(3 3.595811159e-14 0)
(3 3.908255205e-14 0)
(3 4.298405892e-14 0)
(3 4.724712367e-14 0)
(3 4.172921431e-14 0)
(3 2.310918872e-14 0)
(3 2.223834451e-15 0)
(3 -1.320719006e-14 0)
(3 -2.07178085e-14 0)
(3 -1.985865201e-14 0)
(3 -1.465162146e-14 0)
(3 -1.315745662e-14 0)
(3 -1.464220465e-14 0)
(3 -1.244374567e-14 0)
(3 -5.730237347e-15 0)
(3 -4.272490527e-15 0)
(3 -9.798198253e-15 0)
(3 -7.300967137e-15 0)
(3.044413448 -0.3359365641 0)
(3.047592408 -0.3210563283 0)
(3.049085584 -0.3019468547 0)
(3.048665862 -0.2755466853 0)
(3.045209799 -0.2374740959 0)
(3.037650788 -0.183960181 0)
(3.025830237 -0.1174987748 0)
(3.012730056 -0.05384774058 0)
(3.003705975 -0.01458405371 0)
(3.000501194 -0.001848967986 0)
(3.000023921 -8.400386504e-05 0)
(3.000000297 -1.016503185e-06 0)
(3.000000001 -2.404073785e-09 0)
(3 -7.960604283e-13 0)
(3 5.506244942e-14 0)
(3 5.789600795e-14 0)
(3 5.727727852e-14 0)
(3 5.421468262e-14 0)
(3 5.028250301e-14 0)
(3 2.442617843e-14 0)
(3 -3.157387766e-15 0)
(3 -5.456564239e-15 0)
(3 -1.812347149e-14 0)
(3 -2.297582947e-14 0)
(3 -1.562321253e-14 0)
(3 -1.619452768e-14 0)
(3 -1.824966029e-14 0)
(3 -1.447057682e-14 0)
(3 -1.156440987e-14 0)
(3 -5.357194995e-15 0)
(3 -7.027588609e-15 0)
(3 -2.680708436e-15 0)
(3.048752612 -0.3397744234 0)
(3.053404368 -0.3276792934 0)
(3.056850595 -0.3149206506 0)
(3.058250043 -0.3002832077 0)
(3.057496958 -0.2814259653 0)
(3.054571343 -0.2542299666 0)
(3.0481606 -0.2131337067 0)
(3.036881356 -0.1544982018 0)
(3.021693927 -0.08543293865 0)
(3.008070503 -0.02964822104 0)
(3.001465456 -0.005011091705 0)
(3.000096474 -0.0003098076853 0)
(3.000001662 -5.107251912e-06 0)
(3.000000005 -1.612720533e-08 0)
(3 -6.994782362e-12 0)
(3 6.1317722e-14 0)
(3 6.719882161e-14 0)
(3 6.269037599e-14 0)
(3 5.501883541e-14 0)
(3 3.10765577e-14 0)
(3 -7.615836081e-15 0)
(3 -1.22540951e-14 0)
(3 -2.091205264e-14 0)
(3 -2.833317821e-14 0)
(3 -2.106996251e-14 0)
(3 -1.743432659e-14 0)
(3 -1.602455865e-14 0)
(3 -1.374423219e-14 0)
(3 -1.023059031e-14 0)
(3 -4.852271835e-15 0)
(3 -6.823718494e-15 0)
(3 -2.098263865e-15 0)
(3.051830807 -0.335430044 0)
(3.056792763 -0.3267104206 0)
(3.060769373 -0.3161776929 0)
(3.063636418 -0.3038123082 0)
(3.065468927 -0.2901973883 0)
(3.065079032 -0.2746824758 0)
(3.062280055 -0.2539862599 0)
(3.056447061 -0.2233460407 0)
(3.045940811 -0.1760572312 0)
(3.030363311 -0.1113598904 0)
(3.013586242 -0.04689509337 0)
(3.003143319 -0.01007299405 0)
(3.000272161 -0.0008092827542 0)
(3.000006212 -1.735894667e-05 0)
(3.000000026 -6.990220446e-08 0)
(3 -3.74091498e-11 0)
(3 6.140440084e-14 0)
(3 6.063568482e-14 0)
(3 5.097607215e-14 0)
(3 2.771505758e-14 0)
(3 -2.35911958e-15 0)
(3 -1.685938389e-14 0)
(3 -2.257647158e-14 0)
(3 -3.214297327e-14 0)
(3 -2.778078606e-14 0)
(3 -2.126698029e-14 0)
(3 -2.04652926e-14 0)
(3 -1.900554607e-14 0)
(3 -1.198595038e-14 0)
(3 -4.253074701e-15 0)
(3 -7.889475107e-15 0)
(3 -4.914030644e-15 0)
(3.054057642 -0.3188681581 0)
(3.059024167 -0.3126725708 0)
(3.063280429 -0.3065088839 0)
(3.066904088 -0.2996020454 0)
(3.069429796 -0.2906173917 0)
(3.070464395 -0.2790139441 0)
(3.069934647 -0.266163235 0)
(3.067145742 -0.2500787154 0)
(3.061461803 -0.2261414966 0)
(3.052124691 -0.1871772776 0)
(3.037350388 -0.1292733842 0)
(3.01910384 -0.06259924731 0)
(3.005335256 -0.01620880545 0)
(3.000576788 -0.001607191098 0)
(3.000016564 -4.259528008e-05 0)
(3.000000086 -2.075536847e-07 0)
(3 -1.292524347e-10 0)
(3 4.553648772e-14 0)
(3 5.7608117e-14 0)
(3 4.590287693e-14 0)
(3 1.657182408e-14 0)
(3 -9.404624895e-15 0)
(3 -1.515967494e-14 0)
(3 -2.890802431e-14 0)
(3 -2.800877689e-14 0)
(3 -2.107376855e-14 0)
(3 -2.0237054e-14 0)
(3 -1.884772295e-14 0)
(3 -1.234808154e-14 0)
(3 -7.064619775e-15 0)
(3 -9.438693956e-15 0)
(3 -7.689150429e-15 0)
(3.056221682 -0.3029278944 0)
(3.061068729 -0.2958330377 0)
(3.06528785 -0.2894443478 0)
(3.068770561 -0.2838419392 0)
(3.071404597 -0.2786173078 0)
(3.073473576 -0.2726120299 0)
(3.074446101 -0.2631496298 0)
(3.073934373 -0.2496002867 0)
(3.072313124 -0.2340845428 0)
(3.067383117 -0.2151806182 0)
(3.057852586 -0.1855939939 0)
(3.043037356 -0.1372624983 0)
(3.02392741 -0.0737270223 0)
(3.007636834 -0.02198055091 0)
(3.000975147 -0.002559582782 0)
(3.00003328 -7.935316528e-05 0)
(3.000000201 -4.407350996e-07 0)
(3 -2.997635002e-10 0)
(3 4.256999296e-14 0)
(3 4.992309718e-14 0)
(3 1.404219178e-14 0)
(3 -3.199380993e-15 0)
(3 -4.075699251e-15 0)
(3 -1.84274755e-14 0)
(3 -2.440505329e-14 0)
(3 -2.067005992e-14 0)
(3 -1.955150377e-14 0)
(3 -1.758470721e-14 0)
(3 -1.182570257e-14 0)
(3 -1.194995066e-14 0)
(3 -1.437409548e-14 0)
(3 -5.111572673e-15 0)
(3.058731433 -0.2906949702 0)
(3.063362292 -0.2828737378 0)
(3.067348747 -0.2754039265 0)
(3.070653227 -0.2683815989 0)
(3.073249978 -0.2621065379 0)
(3.075070886 -0.257000579 0)
(3.076140857 -0.253169586 0)
(3.076780574 -0.2489951911 0)
(3.076042373 -0.2414212515 0)
(3.073106259 -0.2299650834 0)
(3.068154777 -0.2134202733 0)
(3.059633625 -0.1866729532 0)
(3.046185312 -0.1419507765 0)
(3.027350377 -0.08080078899 0)
(3.009578648 -0.02637979386 0)
(3.001371095 -0.003414466396 0)
(3.000052363 -0.0001165695543 0)
(3.000000344 -6.924757452e-07 0)
(3 -4.820640397e-10 0)
(3 3.525647766e-15 0)
(3 1.652714313e-14 0)
(3 1.171358592e-14 0)
(3 4.485332972e-15 0)
(3 -1.217670758e-14 0)
(3 -3.00731672e-14 0)
(3 -2.04174935e-14 0)
(3 -1.81377773e-14 0)
(3 -1.669601797e-14 0)
(3 -1.084037588e-14 0)
(3 -9.686470759e-15 0)
(3 -1.035453651e-14 0)
(3 -2.247476988e-15 0)
(3.061363344 -0.2800007289 0)
(3.065950505 -0.2718003935 0)
(3.069847604 -0.2638600508 0)
(3.072917903 -0.2563531516 0)
(3.075135665 -0.2494712454 0)
(3.076604461 -0.243390371 0)
(3.077629232 -0.2382227172 0)
(3.078334985 -0.2340019768 0)
(3.078115427 -0.2298723427 0)
(3.077169659 -0.2225517297 0)
(3.075340274 -0.2097620225 0)
(3.071942421 -0.1939900174 0)
(3.06363408 -0.1730720111 0)
(3.049311805 -0.1369430799 0)
(3.029811426 -0.08200100357 0)
(3.010930485 -0.02841729061 0)
(3.001657941 -0.003901493214 0)
(3.00006651 -0.0001385807342 0)
(3.000000446 -8.255299781e-07 0)
(3 -5.485896727e-10 0)
(3 -4.958903533e-15 0)
(3 2.532362225e-14 0)
(3 1.547056213e-14 0)
(3 1.383187292e-15 0)
(3 -1.330753718e-14 0)
(3 -2.144708234e-14 0)
(3 -1.932375342e-14 0)
(3 -1.786876646e-14 0)
(3 -1.147205834e-14 0)
(3 -2.163829784e-15 0)
(3 1.213879205e-15 0)
(3 3.489193155e-15 0)
(3.06406262 -0.2692851256 0)
(3.068496453 -0.2612919802 0)
(3.072245933 -0.2535732365 0)
(3.075267152 -0.2459530033 0)
(3.07755311 -0.2383097849 0)
(3.079048396 -0.2307667648 0)
(3.079672708 -0.2237366659 0)
(3.079514448 -0.2178741956 0)
(3.078932519 -0.2140649429 0)
(3.078324856 -0.2125622087 0)
(3.077487027 -0.2107243485 0)
(3.075069743 -0.2046885024 0)
(3.070116904 -0.1928085311 0)
(3.062292172 -0.1719708088 0)
(3.049299134 -0.1353040442 0)
(3.030513948 -0.08117375658 0)
(3.011406254 -0.02844229249 0)
(3.001751162 -0.003923566177 0)
(3.000069567 -0.000136212623 0)
(3.000000443 -7.58771175e-07 0)
(3 -4.47091619e-10 0)
(3 -1.42292883e-14 0)
(3 1.449463138e-14 0)
(3 9.998286534e-15 0)
(3 -4.991928993e-15 0)
(3 -2.810168906e-14 0)
(3 -2.327853676e-14 0)
(3 -2.054059917e-14 0)
(3 -1.251186488e-14 0)
(3 1.598284364e-15 0)
(3 4.025847967e-15 0)
(3 7.000238952e-15 0)
(3.066656619 -0.2584682366 0)
(3.07107129 -0.2504266673 0)
(3.074860251 -0.2426277354 0)
(3.077847586 -0.235104331 0)
(3.079898572 -0.2279926485 0)
(3.080962856 -0.2213951398 0)
(3.081081207 -0.2152987692 0)
(3.080505336 -0.2095017754 0)
(3.079690921 -0.204012232 0)
(3.079115892 -0.1994627496 0)
(3.07851355 -0.1966091893 0)
(3.076927028 -0.1937413021 0)
(3.074894962 -0.185633602 0)
(3.071730815 -0.1718554704 0)
(3.064621291 -0.1537658059 0)
(3.05036046 -0.123354049 0)
(3.030497273 -0.07502088814 0)
(3.011147744 -0.02611803088 0)
(3.0016452 -0.00347113927 0)
(3.000060617 -0.0001111053611 0)
(3.000000341 -5.40551738e-07 0)
(3 -2.626913795e-10 0)
(3 -1.120226299e-14 0)
(3 -3.736453087e-14 0)
(3 -2.472656546e-13 0)
(3 -3.770448307e-13 0)
(3 -3.081447676e-13 0)
(3 -1.619809042e-13 0)
(3 -4.079379826e-14 0)
(3 -5.766616143e-15 0)
(3 -5.701151886e-15 0)
(3 8.869707758e-16 0)
(3.069310837 -0.2472546172 0)
(3.073569931 -0.2393648678 0)
(3.077149465 -0.2319844689 0)
(3.079972226 -0.2249514809 0)
(3.082077959 -0.2179555278 0)
(3.083509145 -0.2107604604 0)
(3.084221049 -0.2033508342 0)
(3.084029182 -0.1960902699 0)
(3.082918398 -0.1893451116 0)
(3.081108557 -0.1837559492 0)
(3.078958871 -0.1802535508 0)
(3.077189245 -0.1795998489 0)
(3.076027956 -0.1798797076 0)
(3.074348318 -0.1774855931 0)
(3.069784582 -0.1688523663 0)
(3.061509598 -0.1507779642 0)
(3.047954783 -0.1177850688 0)
(3.028799903 -0.06884068719 0)
(3.010080621 -0.02261902675 0)
(3.001366118 -0.002738093832 0)
(3.000043971 -7.578541288e-05 0)
(3.000000204 -2.997914469e-07 0)
(3 -1.111612962e-10 0)
(3 -1.131717846e-12 0)
(3 -4.495166563e-12 0)
(3 -1.049884999e-11 0)
(3 -1.036781937e-11 0)
(3 -7.477640379e-12 0)
(3 -3.09772644e-12 0)
(3 -5.209139084e-13 0)
(3 -3.251369646e-14 0)
(3 -1.150430738e-15 0)
(3.071831136 -0.2362390001 0)
(3.075978351 -0.2283321224 0)
(3.079569795 -0.2207933953 0)
(3.082464072 -0.2135581584 0)
(3.084494872 -0.2067346813 0)
(3.085582394 -0.2004152185 0)
(3.085671727 -0.1946970692 0)
(3.084865189 -0.1892992899 0)
(3.083322369 -0.183954055 0)
(3.081369108 -0.1782185219 0)
(3.079177485 -0.1724590689 0)
(3.077244107 -0.1681477029 0)
(3.076423746 -0.1665675405 0)
(3.075474015 -0.1654465918 0)
(3.073251109 -0.160809319 0)
(3.069657772 -0.1491110904 0)
(3.061917186 -0.1321739623 0)
(3.046850092 -0.1030891817 0)
(3.026533715 -0.05873871402 0)
(3.008515233 -0.01793635765 0)
(3.001008582 -0.00189665515 0)
(3.000026571 -4.271155482e-05 0)
(3.000000094 -1.277200892e-07 0)
(3 -4.751308655e-11 0)
(3 -3.474481864e-11 0)
(3 -8.424073209e-11 0)
(3 -1.123664146e-10 0)
(3 -1.001433677e-10 0)
(3 -6.32085255e-11 0)
(3 -2.113795555e-11 0)
(3 -2.546180837e-12 0)
(3 -5.686396965e-14 0)
(3.074453273 -0.2249574923 0)
(3.078473154 -0.2169759964 0)
(3.081832202 -0.2097143 0)
(3.084424377 -0.2030607338 0)
(3.086290323 -0.1966951836 0)
(3.087511687 -0.1902824721 0)
(3.088168358 -0.1836077751 0)
(3.088137543 -0.1769337464 0)
(3.087404466 -0.1703106873 0)
(3.08562612 -0.1641656988 0)
(3.082676977 -0.1586675668 0)
(3.079112244 -0.1540097917 0)
(3.076506874 -0.1516039449 0)
(3.075399245 -0.1515368828 0)
(3.074073323 -0.1519636809 0)
(3.072310371 -0.1509827742 0)
(3.067468772 -0.143260343 0)
(3.057795639 -0.1258888448 0)
(3.042667459 -0.09376818304 0)
(3.023011471 -0.04937909558 0)
(3.00660978 -0.0132711464 0)
(3.000649865 -0.001153274307 0)
(3.000013108 -1.971941161e-05 0)
(3.000000033 -4.144926653e-08 0)
(3 -2.007568941e-10 0)
(3 -3.114246166e-10 0)
(3 -4.819520317e-10 0)
(3 -4.930053728e-10 0)
(3 -4.056281557e-10 0)
(3 -2.205807686e-10 0)
(3 -5.981374478e-11 0)
(3 -4.209993136e-12 0)
(3.076965484 -0.2139211245 0)
(3.080730254 -0.2060627866 0)
(3.084066542 -0.1986070723 0)
(3.086750557 -0.1915930914 0)
(3.088641838 -0.1850755916 0)
(3.089693893 -0.1790395121 0)
(3.08986014 -0.1735695522 0)
(3.089281692 -0.1684230731 0)
(3.088016099 -0.1632179471 0)
(3.085956463 -0.157943445 0)
(3.083092628 -0.152495781 0)
(3.079674991 -0.1469894582 0)
(3.076588954 -0.1426341675 0)
(3.075057867 -0.1410316273 0)
(3.074433921 -0.1406665784 0)
(3.073169971 -0.1399008391 0)
(3.070265376 -0.136229864 0)
(3.065501617 -0.1257131985 0)
(3.05578276 -0.1085912687 0)
(3.039178003 -0.07856535316 0)
(3.019131067 -0.03830823577 0)
(3.004683411 -0.008826094095 0)
(3.000361835 -0.0005997590139 0)
(3.000005218 -7.285808264e-06 0)
(3.000000008 -1.059384396e-08 0)
(3 -8.567448728e-10 0)
(3 -1.131846197e-09 0)
(3 -1.295100747e-09 0)
(3 -1.20989734e-09 0)
(3 -8.875608142e-10 0)
(3 -4.210210379e-10 0)
(3 -7.05533086e-11 0)
(3.079550309 -0.2026548706 0)
(3.083220256 -0.1945928851 0)
(3.086298152 -0.1873551222 0)
(3.088645307 -0.1809039179 0)
(3.090320861 -0.1748137538 0)
(3.091384939 -0.1687755922 0)
(3.091793752 -0.162864965 0)
(3.091628907 -0.156961393 0)
(3.090731647 -0.1511272052 0)
(3.088957744 -0.1455348392 0)
(3.086312172 -0.1401605061 0)
(3.082849197 -0.1349388671 0)
(3.078928823 -0.1303107556 0)
(3.075880478 -0.1277983965 0)
(3.074813086 -0.1275408923 0)
(3.072838404 -0.127665224 0)
(3.071225982 -0.1277668214 0)
(3.068390902 -0.1262060993 0)
(3.062273585 -0.1174832283 0)
(3.050555779 -0.09858636061 0)
(3.033646049 -0.06631010725 0)
(3.01476971 -0.02842555414 0)
(3.002970427 -0.005294541091 0)
(3.000169514 -0.0002628346365 0)
(3.00000162 -2.105145155e-06 0)
(3.000000001 -3.660023152e-09 0)
(3 -2.09431774e-09 0)
(3 -2.38521056e-09 0)
(3 -2.376657896e-09 0)
(3 -2.048280858e-09 0)
(3 -1.348735945e-09 0)
(3 -4.162604194e-10 0)
(3.081980777 -0.1917229197 0)
(3.085365089 -0.1836868791 0)
(3.088445423 -0.1762904186 0)
(3.090851415 -0.169556303 0)
(3.092500624 -0.1633061495 0)
(3.093382855 -0.1575401052 0)
(3.093547122 -0.1522016394 0)
(3.093092708 -0.1469747641 0)
(3.09191743 -0.1418062236 0)
(3.089954482 -0.136831016 0)
(3.087237502 -0.1320546263 0)
(3.083772345 -0.1272937521 0)
(3.079666455 -0.1225800393 0)
(3.075868315 -0.1190280714 0)
(3.074044184 -0.117977306 0)
(3.072928108 -0.1179068123 0)
(3.071528113 -0.1177434759 0)
(3.069495776 -0.1168790141 0)
(3.065401868 -0.1126980424 0)
(3.058786119 -0.1019800291 0)
(3.04618159 -0.08279294218 0)
(3.028193572 -0.05181232972 0)
(3.010568131 -0.01912570882 0)
(3.00164924 -0.002753194203 0)
(3.000065113 -9.377362919e-05 0)
(3.000000383 -4.626048485e-07 0)
(3 -3.466403052e-09 0)
(3 -3.274707707e-09 0)
(3 -3.306026341e-09 0)
(3.000000001 -3.096229475e-09 0)
(3.000000001 -2.498240761e-09 0)
(3.000000001 -1.187288381e-09 0)
(3.084474776 -0.180336165 0)
(3.08765389 -0.1723738526 0)
(3.090706638 -0.1652082558 0)
(3.0927277 -0.1588216002 0)
(3.094229643 -0.1526880868 0)
(3.095087384 -0.1469275803 0)
(3.095254196 -0.1415346679 0)
(3.094848543 -0.136102625 0)
(3.093732487 -0.1306723911 0)
(3.091874863 -0.1255145013 0)
(3.089354495 -0.1206955131 0)
(3.086104655 -0.1160930634 0)
(3.081963936 -0.1115848521 0)
(3.077400815 -0.1077483479 0)
(3.07467797 -0.1062436531 0)
(3.073590607 -0.1062308174 0)
(3.071423915 -0.106326745 0)
(3.069311024 -0.1063438786 0)
(3.066860547 -0.10603781 0)
(3.062361644 -0.1024583042 0)
(3.053940975 -0.09123678994 0)
(3.039820251 -0.06989994967 0)
(3.021939003 -0.0390013342 0)
(3.006812088 -0.01173301571 0)
(3.000780625 -0.001220772327 0)
(3.000019785 -2.642422927e-05 0)
(3.000000066 -7.784792812e-08 0)
(3 -4.61256814e-09 0)
(3 -4.586113443e-09 0)
(3.000000001 -4.438277715e-09 0)
(3.000000001 -3.869088645e-09 0)
(3.000000001 -2.36833335e-09 0)
(3.086330594 -0.1694999707 0)
(3.09004749 -0.1615484252 0)
(3.093031666 -0.154333864 0)
(3.094621292 -0.1478752564 0)
(3.09620158 -0.1414737055 0)
(3.096971818 -0.135760824 0)
(3.096975501 -0.1305964172 0)
(3.096458 -0.1253876815 0)
(3.095198194 -0.1202887955 0)
(3.093193723 -0.1155707327 0)
(3.090570766 -0.1112190063 0)
(3.087287104 -0.1070449079 0)
(3.083133063 -0.1028094468 0)
(3.078227666 -0.09877771822 0)
(3.074433515 -0.0965273965 0)
(3.073302978 -0.09633431202 0)
(3.071213661 -0.09648029211 0)
(3.06925756 -0.09660335113 0)
(3.067310958 -0.09660461133 0)
(3.06375982 -0.09545956424 0)
(3.058161411 -0.08983077711 0)
(3.048575139 -0.07728620777 0)
(3.033371125 -0.05525187545 0)
(3.015946207 -0.02681214818 0)
(3.00386641 -0.006268990789 0)
(3.000303264 -0.0004417137167 0)
(3.000004565 -5.640049983e-06 0)
(3.000000008 -1.27731859e-08 0)
(3.000000001 -4.408235856e-09 0)
(3.000000001 -4.304747028e-09 0)
(3.000000001 -3.989438206e-09 0)
(3.000000001 -3.002543498e-09 0)
(3.088382101 -0.1583335546 0)
(3.093105993 -0.1504878207 0)
(3.095005505 -0.1437152058 0)
(3.096298644 -0.1372535899 0)
(3.098144718 -0.1306560153 0)
(3.09869933 -0.1250658375 0)
(3.098544315 -0.119936542 0)
(3.098006096 -0.1145896513 0)
(3.096744269 -0.1093702192 0)
(3.094770523 -0.1045969898 0)
(3.092205125 -0.1002578202 0)
(3.08898625 -0.09621755024 0)
(3.084889792 -0.09223919533 0)
(3.079812966 -0.08830136177 0)
(3.075119443 -0.0855677147 0)
(3.073529507 -0.08513924813 0)
(3.071605594 -0.08546188758 0)
(3.0691121 -0.08601324458 0)
(3.066788583 -0.08622886861 0)
(3.064358145 -0.08633870885 0)
(3.060168186 -0.08512832646 0)
(3.053519684 -0.07855009612 0)
(3.042054306 -0.06453627088 0)
(3.026140469 -0.04172752114 0)
(3.010429234 -0.01676027249 0)
(3.001865964 -0.002850188921 0)
(3.000093013 -0.0001260101316 0)
(3.000000766 -8.815987818e-07 0)
(3.000000001 -6.002815528e-09 0)
(3.000000001 -4.961504246e-09 0)
(3.000000001 -4.753588112e-09 0)
(3.000000002 -4.034781152e-09 0)
(3.091756353 -0.1471981397 0)
(3.095865977 -0.1395359158 0)
(3.096287765 -0.1335510138 0)
(3.098268816 -0.1264411894 0)
(3.10033285 -0.1196226472 0)
(3.10048195 -0.1141457937 0)
(3.100209871 -0.1089046762 0)
(3.099624989 -0.1034773599 0)
(3.09820349 -0.09849721033 0)
(3.096097159 -0.09407188536 0)
(3.093452661 -0.09003411585 0)
(3.090205611 -0.08625591585 0)
(3.086152072 -0.08256549107 0)
(3.081083098 -0.07877741428 0)
(3.07580011 -0.07552947056 0)
(3.073247376 -0.07457770748 0)
(3.07154018 -0.07474986838 0)
(3.06889375 -0.07556712948 0)
(3.066348556 -0.07619288125 0)
(3.064050581 -0.07657853261 0)
(3.061061523 -0.07667732655 0)
(3.055776478 -0.074527194 0)
(3.047910808 -0.06634043692 0)
(3.034970088 -0.05100035666 0)
(3.019014024 -0.02888610361 0)
(3.00598391 -0.009106278348 0)
(3.00073359 -0.001050578797 0)
(3.000021441 -2.711023207e-05 0)
(3.000000091 -1.023542904e-07 0)
(3.000000001 -4.91377177e-09 0)
(3.000000002 -4.554037022e-09 0)
(3.000000002 -3.861627709e-09 0)
(3.095550532 -0.1361620562 0)
(3.09763853 -0.1286897531 0)
(3.097351068 -0.123032469 0)
(3.100780437 -0.1156120123 0)
(3.102433551 -0.1089329581 0)
(3.101960395 -0.1036842212 0)
(3.101748865 -0.09805636195 0)
(3.101186026 -0.09233172479 0)
(3.099667713 -0.08736717374 0)
(3.097508722 -0.08304495946 0)
(3.094845451 -0.07909527807 0)
(3.091586376 -0.0754713676 0)
(3.087573633 -0.0720622732 0)
(3.082561447 -0.06857061659 0)
(3.076859655 -0.06515084228 0)
(3.073155428 -0.06359152845 0)
(3.071558713 -0.06362980976 0)
(3.068806774 -0.06447398228 0)
(3.06609397 -0.06569792449 0)
(3.063393145 -0.06640125601 0)
(3.060744336 -0.06687936123 0)
(3.05695299 -0.06686015067 0)
(3.050747445 -0.06373201274 0)
(3.041338683 -0.05414345182 0)
(3.027245467 -0.03783849136 0)
(3.01237109 -0.01788814253 0)
(3.002872841 -0.004128921908 0)
(3.000222595 -0.0003008632028 0)
(3.000003556 -4.600388453e-06 0)
(3.000000012 -2.365781456e-08 0)
(3.000000002 -4.701877568e-09 0)
(3.000000002 -3.935989142e-09 0)
(3.098447732 -0.1243409969 0)
(3.098014565 -0.1186088772 0)
(3.09946379 -0.1115360258 0)
(3.103363053 -0.1047431467 0)
(3.104435904 -0.09807028622 0)
(3.103313582 -0.09300366741 0)
(3.103385721 -0.08688722927 0)
(3.102738126 -0.08109931592 0)
(3.100996762 -0.07643894771 0)
(3.098720363 -0.07236901639 0)
(3.09601375 -0.0685281902 0)
(3.092752019 -0.06496474373 0)
(3.088815777 -0.06165107159 0)
(3.083958194 -0.05828298148 0)
(3.078120522 -0.05474867986 0)
(3.073225884 -0.05251583711 0)
(3.071599818 -0.0523676118 0)
(3.068696777 -0.05299377544 0)
(3.065800072 -0.05431599578 0)
(3.06293213 -0.05571630249 0)
(3.060045374 -0.05655440358 0)
(3.057040045 -0.05724493936 0)
(3.052061908 -0.05693385565 0)
(3.044774637 -0.05241691048 0)
(3.03386662 -0.04159308084 0)
(3.019407785 -0.02537573848 0)
(3.006891422 -0.009365905372 0)
(3.001074275 -0.001461772631 0)
(3.000047888 -6.802099881e-05 0)
(3.000000722 -9.418532619e-07 0)
(3.000000004 -2.541385418e-09 0)
(3.000000002 -2.312015788e-09 0)
(3.100289587 -0.1125639372 0)
(3.098831273 -0.1073949792 0)
(3.102391444 -0.09975145612 0)
(3.105629722 -0.09375457098 0)
(3.105974231 -0.08754959893 0)
(3.10462372 -0.08270631629 0)
(3.105058491 -0.07577221441 0)
(3.104375143 -0.06953655978 0)
(3.102483803 -0.06488689044 0)
(3.100123642 -0.06092268748 0)
(3.097332079 -0.05728856389 0)
(3.09395587 -0.05407871809 0)
(3.089939291 -0.05123147999 0)
(3.085094876 -0.04836740135 0)
(3.079202533 -0.04508853396 0)
(3.073423855 -0.04226414367 0)
(3.071133546 -0.04170690235 0)
(3.068475606 -0.04210357322 0)
(3.065281703 -0.04318698383 0)
(3.062430965 -0.04466863618 0)
(3.059299122 -0.04601644136 0)
(3.056158414 -0.04689663098 0)
(3.052583465 -0.04758969409 0)
(3.046427751 -0.04667254789 0)
(3.03797405 -0.04065543816 0)
(3.025775253 -0.02898959599 0)
(3.012062175 -0.01444732437 0)
(3.003015841 -0.003743916026 0)
(3.00028155 -0.0003423781007 0)
(3.000006175 -4.269857957e-06 0)
(3.000000019 1.115817424e-06 0)
(2.999999923 6.362229621e-07 0)
(3.101124341 -0.1020982376 0)
(3.100929338 -0.09492567161 0)
(3.104407338 -0.0882201628 0)
(3.107743379 -0.08216581294 0)
(3.107652021 -0.07605145515 0)
(3.106382687 -0.07144727524 0)
(3.106837625 -0.06462539217 0)
(3.105671002 -0.05892161925 0)
(3.103497852 -0.05466429649 0)
(3.101054377 -0.0507589734 0)
(3.098283959 -0.04694153822 0)
(3.094994745 -0.0434282716 0)
(3.091141954 -0.0402631234 0)
(3.086549524 -0.03718395961 0)
(3.080865697 -0.03378778677 0)
(3.074571868 -0.03053953168 0)
(3.071020828 -0.02943375368 0)
(3.068822997 -0.02967416925 0)
(3.06525351 -0.0306902051 0)
(3.062145119 -0.03215043866 0)
(3.058924887 -0.03404167429 0)
(3.055422214 -0.03555349567 0)
(3.051917467 -0.03682685965 0)
(3.047174974 -0.03759284911 0)
(3.039934879 -0.0358545196 0)
(3.030338586 -0.02855330901 0)
(3.017566064 -0.01705566034 0)
(3.006136562 -0.005957560321 0)
(3.000979319 -0.0007098832097 0)
(3.000034555 5.145866226e-05 0)
(2.999999974 6.583671389e-05 0)
(2.999994764 4.104457777e-05 0)
(3.102001894 -0.09100256975 0)
(3.103815139 -0.08202494108 0)
(3.106340885 -0.07663099967 0)
(3.109320431 -0.07065687484 0)
(3.108805247 -0.06554052766 0)
(3.107859444 -0.06079450636 0)
(3.108690172 -0.05348392928 0)
(3.107478288 -0.04709932039 0)
(3.105129954 -0.04248180917 0)
(3.102683966 -0.03840075684 0)
(3.099777016 -0.03486396112 0)
(3.096226736 -0.03202686494 0)
(3.092087669 -0.02975645297 0)
(3.08727936 -0.02763570004 0)
(3.08148596 -0.02511269071 0)
(3.074886491 -0.0220054707 0)
(3.07007581 -0.02007765093 0)
(3.068105597 -0.02011259634 0)
(3.064495061 -0.02068159921 0)
(3.061199773 -0.02160972545 0)
(3.05803171 -0.02298467852 0)
(3.054463369 -0.02441840196 0)
(3.050817735 -0.02563065543 0)
(3.04691808 -0.02673722844 0)
(3.040830609 -0.02711646367 0)
(3.03255484 -0.02432008765 0)
(3.022028644 -0.01630353888 0)
(3.010208764 -0.00665628598 0)
(3.002136693 -0.0006129952303 0)
(3.000124128 0.0008719669041 0)
(2.999995718 0.0008867400029 0)
(2.999923032 0.0006198758012 0)
(3.103788926 -0.07918318433 0)
(3.106169976 -0.06961266458 0)
(3.108439381 -0.06495756376 0)
(3.111033415 -0.05795880995 0)
(3.110279662 -0.05329816678 0)
(3.110305209 -0.04797042362 0)
(3.110414505 -0.04200322827 0)
(3.108383288 -0.03743324203 0)
(3.105581967 -0.03372462078 0)
(3.103037514 -0.02978318822 0)
(3.100208614 -0.02585203987 0)
(3.096871144 -0.02224702328 0)