/*--------------------------------*- C++ -*----------------------------------*\
  =========                 |
  \\      /  F ield         | OpenFOAM: The Open Source CFD Toolbox
   \\    /   O peration     | Website:  https://openfoam.org
    \\  /    A nd           | Version:  7
     \\/     M anipulation  |
\*---------------------------------------------------------------------------*/
FoamFile
{
    version     2.0;
    format      ascii;
    class       volScalarField;
    location    "4.2";
    object      rho;
}
// * * * * * * * * * * * * * * * * * * * * * * * * * * * * * * * * * * * * * //

dimensions      [1 -3 0 0 0 0 0];

internalField   nonuniform List<scalar> 5(1.310440222 1.409649358 1.341067975 1.414751344 1.355110897);

boundaryField
{
    inlet
    {
        type            calculated;
        value           nonuniform 0();
    }
    outlet
    {
        type            calculated;
        value           nonuniform 0();
    }
    bottom
    {
        type            calculated;
        value           nonuniform 0();
    }
    top
    {
        type            calculated;
        value           nonuniform 0();
    }
    obstacle
    {
        type            calculated;
        value           nonuniform 0();
    }
    defaultFaces
    {
        type            empty;
    }
    procBoundary16to10
    {
        type            processor;
        value           nonuniform List<scalar> 2(1.300411608 1.411166378);
    }
    procBoundary16to21
    {
        type            processor;
        value           nonuniform List<scalar> 3(1.199113525 1.181849435 1.179668945);
    }
    procBoundary16to22
    {
        type            processor;
        value           nonuniform List<scalar> 3(1.412790874 1.412790874 1.318210275);
    }
    procBoundary16to23
    {
        type            processor;
        value           nonuniform List<scalar> 2(1.386112882 1.382626024);
    }
}


// ************************************************************************* //
