/*--------------------------------*- C++ -*----------------------------------*\
  =========                 |
  \\      /  F ield         | OpenFOAM: The Open Source CFD Toolbox
   \\    /   O peration     | Website:  https://openfoam.org
    \\  /    A nd           | Version:  7
     \\/     M anipulation  |
\*---------------------------------------------------------------------------*/
FoamFile
{
    version     2.0;
    format      ascii;
    class       volVectorField;
    location    "3.3";
    object      U;
}
// * * * * * * * * * * * * * * * * * * * * * * * * * * * * * * * * * * * * * //

dimensions      [0 1 -1 0 0 0 0];

internalField   nonuniform List<vector> 
2222
(
(2.955524654 0.0003561216314 0)
(2.958979835 -0.004715057226 0)
(2.959433864 -0.005097022355 0)
(2.959725466 -0.004445870181 0)
(2.95938668 -0.003780701282 0)
(2.959324266 -0.002982833333 0)
(2.959013308 -0.003309182288 0)
(2.959026223 -0.002913447169 0)
(2.959082468 -0.001826267732 0)
(2.959267034 0.0009908329233 0)
(2.958939455 0.002448895413 0)
(2.958800263 0.002889871425 0)
(2.958873425 0.002918873365 0)
(2.958947556 0.002488073036 0)
(2.95947975 0.001838396164 0)
(2.959994018 0.0008411383811 0)
(2.959323296 -0.0008221122468 0)
(2.958641895 -0.00260952142 0)
(2.958427356 -0.001960413825 0)
(2.958147327 -0.001667345446 0)
(2.95809121 -0.0005840184745 0)
(2.958491102 0.0009820411976 0)
(2.958224186 0.002450723146 0)
(2.958134739 0.00224502877 0)
(2.958125435 0.002091183106 0)
(2.958281313 0.001248268547 0)
(2.958278551 0.0003047363799 0)
(2.957920639 -0.0005310024494 0)
(2.962539331 0.002703704874 0)
(2.962296193 0.005102213182 0)
(2.9617091 0.004888969327 0)
(2.961473109 0.002821818077 0)
(2.961118531 0.0005001456322 0)
(2.961549496 -0.001502465398 0)
(2.962039627 -0.003394568502 0)
(2.962135317 -0.005066677536 0)
(2.962266198 -0.005619325232 0)
(2.962721513 -0.004993942549 0)
(2.962560581 -0.00375232418 0)
(2.962747976 -0.003227015011 0)
(2.962589812 -0.002497561268 0)
(2.962244665 -0.00133683373 0)
(2.961825298 0.001011763186 0)
(2.961608968 0.001966095474 0)
(2.961188604 0.002573822485 0)
(2.961158311 0.002687823168 0)
(2.961840858 0.002195340299 0)
(2.962221036 0.001728433871 0)
(2.962240974 0.0002069559883 0)
(2.962656358 -0.0006184955255 0)
(2.961901338 -0.001343127241 0)
(2.961549666 -0.0009649150491 0)
(2.961372589 -0.0005295250276 0)
(2.961096948 0.0009418862125 0)
(2.96098833 0.00209485173 0)
(2.960852414 0.002246194648 0)
(2.96077483 0.002315073039 0)
(2.960579195 0.002049591014 0)
(2.960715076 0.001012019764 0)
(2.960807021 0.0003260315314 0)
(2.96086135 -0.0007785865614 0)
(2.960495673 -0.001287468526 0)
(2.965213271 0.003850069803 0)
(2.964827387 0.005691159806 0)
(2.96405842 0.005409159974 0)
(2.963814062 0.003185312192 0)
(2.964050754 0.0003404560429 0)
(2.964412974 -0.001739160509 0)
(2.964849393 -0.003652349226 0)
(2.96494882 -0.005080428969 0)
(2.965061304 -0.004901307412 0)
(2.96536733 -0.003858795631 0)
(2.965420846 -0.002799164347 0)
(2.965570629 -0.001958776931 0)
(2.965550573 -0.001238507996 0)
(2.964681033 0.0006478178444 0)
(2.963828253 0.001673997319 0)
(2.963464244 0.002107087688 0)
(2.963764943 0.00234409448 0)
(2.964109036 0.00206150022 0)
(2.964755441 0.00112174619 0)
(2.96515782 0.0004635119248 0)
(2.964600435 -0.001054274021 0)
(2.964547987 -0.001546583268 0)
(2.964782608 -0.001472537702 0)
(2.964572279 -0.0006200707273 0)
(2.964049528 0.0020061159 0)
(2.96379937 0.002503923404 0)
(2.963491384 0.002373749484 0)
(2.96308727 0.002441002542 0)
(2.963224417 0.001857104974 0)
(2.963758025 0.001609871373 0)
(2.963072184 0.0002479137852 0)
(2.96329824 -0.0006457094917 0)
(2.963377583 -0.001419538412 0)
(2.963155086 -0.00160778113 0)
(2.967661687 0.002788415498 0)
(2.967163634 0.004858668332 0)
(2.967166924 0.004950774438 0)
(2.967050666 0.002731419876 0)
(2.966826717 -0.0005381507422 0)
(2.966810177 -0.002679609756 0)
(2.96694966 -0.004265359951 0)
(2.967169217 -0.004450219656 0)
(2.9678676 -0.004164439339 0)
(2.967789093 -0.002874804601 0)
(2.967784642 -0.002003863393 0)
(2.967896418 -0.001353424806 0)
(2.967739886 -0.0006380994167 0)
(2.966716258 0.00118042025 0)
(2.966113525 0.001751477796 0)
(2.966195317 0.002036305985 0)
(2.966829584 0.001877731232 0)
(2.967355151 0.001105510281 0)
(2.967560549 -0.0002864809297 0)
(2.967563783 -0.001454663445 0)
(2.967331615 -0.001435391968 0)
(2.967225557 -0.00183144302 0)
(2.967588533 -0.001489490694 0)
(2.967289652 0.0009486318318 0)
(2.966816408 0.002337385185 0)
(2.966311405 0.002503043884 0)
(2.965878497 0.002072673951 0)
(2.966200392 0.001973059926 0)
(2.966262729 0.001412191831 0)
(2.966244108 -0.0002693573013 0)
(2.965788246 -0.0006105818273 0)
(2.965677211 -0.001222796356 0)
(2.965809557 -0.001662087479 0)
(2.965825378 -0.001593140511 0)
(2.970203523 0.001877745176 0)
(2.970079806 0.004009026485 0)
(2.969479432 0.003578425966 0)
(2.969279161 0.00154166471 0)
(2.969272515 -0.001138876767 0)
(2.968981644 -0.003499383082 0)
(2.968841906 -0.004496245483 0)
(2.969572828 -0.004427177001 0)
(2.970218329 -0.003076508571 0)
(2.970176878 -0.002445538536 0)
(2.970307298 -0.001875747232 0)
(2.970200901 -0.001562898365 0)
(2.969664156 -0.0001409648091 0)
(2.969176155 0.001144589303 0)
(2.969020034 0.001464387832 0)
(2.968900527 0.001454392547 0)
(2.969491413 0.0009623964571 0)
(2.970220376 0.0001584036912 0)
(2.970191417 -0.001958081514 0)
(2.9700538 -0.002697247887 0)
(2.969644242 -0.002653535984 0)
(2.969726621 -0.002079044641 0)
(2.970220786 -0.001093060003 0)
(2.969879749 0.001603381241 0)
(2.969262895 0.0020676103 0)
(2.968897764 0.002030744847 0)
(2.968778822 0.001444043802 0)
(2.968671804 0.0003675536012 0)
(2.968684575 -0.0003659305066 0)
(2.967982487 -0.001310647694 0)
(2.968006748 -0.001436770011 0)
(2.967915424 -0.001807797711 0)
(2.968345718 -0.001690611909 0)
(2.968411438 -0.0008606128877 0)
(2.972883299 0.001113857558 0)
(2.972465671 0.002965881797 0)
(2.971344456 0.002356682221 0)
(2.970977707 0.0005884579072 0)
(2.971102446 -0.001467977758 0)
(2.971204345 -0.003128709628 0)
(2.971349284 -0.003793436496 0)
(2.971889415 -0.003309303305 0)
(2.9723721 -0.002989343153 0)
(2.972637946 -0.002857977303 0)
(2.972774296 -0.002438022743 0)
(2.972599217 -0.001800607838 0)
(2.972182518 -8.094694222e-06 0)
(2.971868593 0.0006506981497 0)
(2.971736164 0.0006310548377 0)
(2.972135848 0.0003400710549 0)
(2.972123955 -0.0008465278383 0)
(2.972159056 -0.002679768455 0)
(2.972245912 -0.003948790965 0)
(2.972139005 -0.003288428926 0)
(2.971849755 -0.003860117582 0)
(2.972149084 -0.002847250441 0)
(2.972538508 0.0006493827212 0)
(2.972014924 0.001761754497 0)
(2.971998288 0.001430482394 0)
(2.971794596 0.001090739186 0)
(2.971486759 0.0005789216533 0)
(2.970781207 -0.0009373895218 0)
(2.970362701 -0.001554629651 0)
(2.970456145 -0.001424573124 0)
(2.969974839 -0.002303875862 0)
(2.970336322 -0.002276157191 0)
(2.970902256 -0.001203595853 0)
(2.970646758 1.579314427e-05 0)
(2.975227808 0.0006070407613 0)
(2.974894167 0.003088872274 0)
(2.973869894 0.002857980214 0)
(2.973278704 0.001007080945 0)
(2.973254314 -0.001900340215 0)
(2.973920734 -0.002914596273 0)
(2.97405044 -0.002626075947 0)
(2.974173924 -0.002298521708 0)
(2.974451068 -0.003029151699 0)
(2.974776417 -0.003051722761 0)
(2.974982542 -0.002455262345 0)
(2.974858625 -0.001505975692 0)
(2.97474487 -0.0006020129613 0)
(2.974536427 -0.0002550241276 0)
(2.974644813 -0.000472932746 0)
(2.974433275 -0.0008611593203 0)
(2.974152349 -0.002048538327 0)
(2.973712072 -0.004227171654 0)
(2.974044107 -0.00471016744 0)
(2.974293071 -0.004151855151 0)
(2.974689044 -0.002672075527 0)
(2.974659458 -7.696381178e-05 0)
(2.974548867 0.00199898186 0)
(2.974172033 0.001578990083 0)
(2.974121 0.0002763229072 0)
(2.973693001 -0.0006982168407 0)
(2.97349664 -0.001741296116 0)
(2.973203575 -0.001220326292 0)
(2.972696305 -0.002061356209 0)
(2.972813386 -0.002058744785 0)
(2.972858744 -0.002385126527 0)
(2.973003293 -0.001795142196 0)
(2.973082871 -1.877793548e-05 0)
(2.972917965 0.0003646922705 0)
(2.977207628 0.003454552867 0)
(2.976521927 0.00346157472 0)
(2.975905415 0.001772069728 0)
(2.975903216 0.0001331932556 0)
(2.976377812 -0.0008626258405 0)
(2.976380277 -0.0009495293942 0)
(2.976461057 -0.00162946438 0)
(2.97672947 -0.003027863192 0)
(2.977070337 -0.003216624039 0)
(2.977367972 -0.002295231847 0)
(2.977318032 -0.001339724766 0)
(2.977107817 -0.001057085792 0)
(2.9770265 -0.001221154728 0)
(2.97641574 -0.001518488809 0)
(2.975901642 -0.002746711719 0)
(2.975969451 -0.00378591536 0)
(2.975914089 -0.003851300133 0)
(2.976534708 -0.00407149618 0)
(2.976858908 -0.002826763845 0)
(2.976966552 0.0001160072004 0)
(2.976782996 0.002645724427 0)
(2.97639328 0.002436161085 0)
(2.97627991 0.000917523806 0)
(2.976241742 -0.0008588177404 0)
(2.975707992 -0.002171051834 0)
(2.975386056 -0.002954144958 0)
(2.975462756 -0.00221582431 0)
(2.975228414 -0.002128223212 0)
(2.97520033 -0.003163085312 0)
(2.975575173 -0.001743371192 0)
(2.975294567 0.0001296736497 0)
(2.975257875 0.0008331035318 0)
(2.975163796 0.0003092392534 0)
(2.979202755 0.003697143513 0)
(2.978722239 0.004626837665 0)
(2.977938171 0.003421083816 0)
(2.978288296 0.001666504931 0)
(2.978639502 0.0001843438057 0)
(2.978711371 -0.0007191189564 0)
(2.978771962 -0.002082646582 0)
(2.979079438 -0.003572665142 0)
(2.979423708 -0.003301371453 0)
(2.979626165 -0.002131757982 0)
(2.979524826 -0.0016946846 0)
(2.979155409 -0.001680847266 0)
(2.978662436 -0.002127068427 0)
(2.978096727 -0.003218100455 0)
(2.977577769 -0.003896322225 0)
(2.977852295 -0.005200930371 0)
(2.97858141 -0.004942298168 0)
(2.97880684 -0.00278801213 0)
(2.978771424 0.0009408457876 0)
(2.979085988 0.003246194275 0)
(2.978773779 0.00323227909 0)
(2.978638242 0.002102410008 0)
(2.978691842 0.0002160562594 0)
(2.97865074 -0.001144449129 0)
(2.97801916 -0.002675352437 0)
(2.977622005 -0.002333634629 0)
(2.977672616 -0.003542219155 0)
(2.977812526 -0.002677894876 0)
(2.977739766 -0.0006519499924 0)
(2.977655197 0.001173382829 0)
(2.977455658 0.001966869982 0)
(2.977379211 0.001463006582 0)
(2.977357521 0.0005583322028 0)
(2.977203673 0.0002079442546 0)
(2.981267495 0.003266910039 0)
(2.980705974 0.004391935131 0)
(2.979891957 0.003684095654 0)
(2.979970455 0.001871054717 0)
(2.98024065 8.539329031e-05 0)
(2.980460405 -0.0007552803974 0)
(2.980776262 -0.002015184232 0)
(2.981272495 -0.002884292647 0)
(2.981532256 -0.002872681177 0)
(2.981522065 -0.00268443133 0)
(2.981141319 -0.002383968765 0)
(2.980867097 -0.002373737994 0)
(2.980472705 -0.003239692196 0)
(2.980129045 -0.004109660235 0)
(2.980249226 -0.00482060198 0)
(2.980407828 -0.004152392994 0)
(2.980442023 -0.00186158537 0)
(2.980616752 0.001618402538 0)
(2.980709643 0.003476438844 0)
(2.980848707 0.003321303436 0)
(2.980691753 0.002783279306 0)
(2.980724464 0.001123537052 0)
(2.980952436 -0.0002954430134 0)
(2.980586151 -0.001721505346 0)
(2.98033517 -0.00229254202 0)
(2.98017534 -0.002475315319 0)
(2.979973292 -0.001231718477 0)
(2.980121348 0.0005277136044 0)
(2.979827919 0.00214562018 0)
(2.979608993 0.002528046151 0)
(2.979483864 0.002307774511 0)
(2.979291134 0.001480513036 0)
(2.979606061 0.001007371749 0)
(2.979489591 0.0008362354861 0)
(2.983232834 0.002596063217 0)
(2.982587429 0.004270789166 0)
(2.981848088 0.003654172221 0)
(2.981335895 0.001810027766 0)
(2.981548002 -5.680315629e-05 0)
(2.98172702 -0.001192910843 0)
(2.982164201 -0.002275397015 0)
(2.9827161 -0.003039997793 0)
(2.982996802 -0.003732535606 0)
(2.98315749 -0.003374014705 0)
(2.982841803 -0.002947053919 0)
(2.982627464 -0.003398609871 0)
(2.982455726 -0.003932875114 0)
(2.982366489 -0.004094294946 0)
(2.982345454 -0.003587436926 0)
(2.982336612 -0.00129284958 0)
(2.982221678 0.001938511758 0)
(2.982249424 0.003100241056 0)
(2.982391012 0.003357072799 0)
(2.982488767 0.003040561199 0)
(2.982718767 0.001925819399 0)
(2.982672501 6.651483798e-05 0)
(2.982624688 -0.001218922074 0)
(2.98235929 -0.002182846545 0)
(2.982553926 -0.001800920724 0)
(2.982223698 -0.0001433836507 0)
(2.981891256 0.001408590773 0)
(2.981710506 0.002324419123 0)
(2.981691735 0.002511528922 0)
(2.981386379 0.002433556084 0)
(2.981294033 0.001820127627 0)
(2.981150059 0.001148312786 0)
(2.981425033 0.00069652549 0)
(2.98136785 0.001023056202 0)
(2.985170067 0.002738001305 0)
(2.984470998 0.0041505521 0)
(2.983743203 0.003578949098 0)
(2.983191221 0.001895958925 0)
(2.983579146 -0.0001394858632 0)
(2.983410145 -0.001298492786 0)
(2.98364608 -0.002506900452 0)
(2.983861779 -0.003608895245 0)
(2.98461384 -0.004026642319 0)
(2.985236933 -0.00383949834 0)
(2.984861923 -0.003867878383 0)
(2.984623777 -0.004250705244 0)
(2.984449145 -0.003719963262 0)
(2.984260306 -0.003304264123 0)
(2.983949822 -0.0008728917753 0)
(2.983705118 0.00197695367 0)
(2.983631731 0.002660981269 0)
(2.983771413 0.003025836377 0)
(2.984091361 0.002895472542 0)
(2.98452621 0.002607672697 0)
(2.984606633 0.001399132673 0)
(2.984561728 -0.0005040004311 0)
(2.984201864 -0.001951218356 0)
(2.984394268 -0.001339051229 0)
(2.984332673 0.000714027917 0)
(2.98401545 0.001780511386 0)
(2.983631775 0.002262724398 0)
(2.983439234 0.002351595384 0)
(2.983435768 0.002146865269 0)
(2.983356002 0.002046588616 0)
(2.983345287 0.001353991673 0)
(2.983211519 0.0005972144831 0)
(2.983338808 0.0007686957722 0)
(2.982979206 0.0008613909645 0)
(2.986903479 0.003144910398 0)
(2.98623167 0.004369553758 0)
(2.985506941 0.003799283853 0)
(2.985012867 0.001700090486 0)
(2.98565933 -0.0003823996949 0)
(2.985540065 -0.001501382893 0)
(2.985578139 -0.002821716346 0)
(2.985859312 -0.004000056955 0)
(2.986836245 -0.004384195584 0)
(2.986885699 -0.004704544452 0)
(2.98699326 -0.004727033483 0)
(2.986556985 -0.003603307178 0)
(2.986220267 -0.003101599761 0)
(2.985754119 -0.0009416681705 0)
(2.985349579 0.001700358204 0)
(2.985090316 0.00279893833 0)
(2.985306946 0.002682148726 0)
(2.985694575 0.002439399596 0)
(2.986021139 0.002366407045 0)
(2.986181258 0.0009424641921 0)
(2.986070127 -0.0009761695766 0)
(2.986194846 -0.001640502829 0)
(2.986144588 -0.001696856056 0)
(2.986176925 0.0001926860637 0)
(2.98631967 0.00220126653 0)
(2.985787898 0.002301896009 0)
(2.985506107 0.00202411432 0)
(2.985499317 0.001830545376 0)
(2.985333063 0.001598248137 0)
(2.985331572 0.001446545759 0)
(2.985496495 0.0009387611309 0)
(2.985340456 0.0002037554138 0)
(2.985269496 0.0002603799551 0)
(2.985014388 0.0003337614182 0)
(2.988527209 0.003360278417 0)
(2.987989403 0.004139477395 0)
(2.987160287 0.003471318604 0)
(2.986428562 0.00124838046 0)
(2.987065707 -0.000764877106 0)
(2.987146117 -0.001972744602 0)
(2.987621072 -0.003127156445 0)
(2.987920493 -0.004343709902 0)
(2.988329712 -0.005074496353 0)
(2.988431234 -0.005347702412 0)
(2.988758104 -0.004055580769 0)
(2.98834915 -0.002868326544 0)
(2.987729295 -0.00108537859 0)
(2.987204255 0.0008055681137 0)
(2.986836472 0.002252290212 0)
(2.987014557 0.002568240966 0)
(2.987286428 0.002446418632 0)
(2.987436642 0.001316459957 0)
(2.98756163 0.0006910764508 0)
(2.987634344 -0.001262625161 0)
(2.987484212 -0.002151914377 0)
(2.987690523 -0.002674482374 0)
(2.988051069 -0.001182343058 0)
(2.987991823 0.001378246491 0)
(2.988212223 0.002110598069 0)
(2.987632844 0.001847882325 0)
(2.987341235 0.001399953374 0)
(2.987168609 0.001061933734 0)
(2.98719442 0.001242819445 0)
(2.986937493 0.0005468149035 0)
(2.987026933 6.215528784e-05 0)
(2.986994276 -3.195065555e-05 0)
(2.987038237 0.0001336798101 0)
(2.986692655 -1.360611256e-05 0)
(2.98996 0.002550783364 0)
(2.989514308 0.003395876565 0)
(2.988666303 0.002958008461 0)
(2.987708312 0.0009040447146 0)
(2.988185793 -0.001185921213 0)
(2.988332241 -0.002507609096 0)
(2.988902245 -0.00349911419 0)
(2.989266461 -0.004569085029 0)
(2.989541238 -0.005747468319 0)
(2.990160344 -0.005072639453 0)
(2.990379877 -0.003360429783 0)
(2.989877173 -0.001602551702 0)
(2.989369528 -0.0003475805805 0)
(2.988893907 0.0008048805857 0)
(2.988746878 0.001764994991 0)
(2.988865297 0.001967848799 0)
(2.988889783 0.0009284965992 0)
(2.988759137 -0.0003888453135 0)
(2.988697573 -0.001933056242 0)
(2.989043906 -0.002306022941 0)
(2.989090695 -0.001568114375 0)
(2.989396374 -0.00130034151 0)
(2.98988182 0.0004972463606 0)
(2.9897095 0.001309885629 0)
(2.989399772 0.001091269013 0)
(2.989212996 0.001005139848 0)
(2.988805779 0.0007830086515 0)
(2.988650035 0.0005487240133 0)
(2.988596547 7.166654448e-05 0)
(2.988244051 -0.0002088962847 0)
(2.988330492 -0.0004848818613 0)
(2.988555875 0.0001814716251 0)
(2.988533777 3.720642697e-05 0)
(2.988373716 5.23859824e-05 0)
(2.991083772 0.002971471233 0)
(2.990161902 0.002538268264 0)
(2.98925215 0.0009065812705 0)
(2.989723358 -0.001260511312 0)
(2.989801661 -0.002323150021 0)
(2.990087054 -0.003676857886 0)
(2.990429706 -0.004626453056 0)
(2.990824935 -0.00426462324 0)
(2.991407644 -0.003047338794 0)
(2.991564048 -0.002130063612 0)
(2.991159789 -0.001855792266 0)
(2.990813593 -0.001269148839 0)
(2.990508858 -0.0002568981985 0)
(2.990233145 0.0005588560569 0)
(2.989872854 7.305374267e-05 0)
(2.989732097 -0.001336976332 0)
(2.989836404 -0.002769080481 0)
(2.989991546 -0.002678564412 0)
(2.990524585 -0.002141389589 0)
(2.990838488 -0.001109839051 0)
(2.991018686 0.0005837885031 0)
(2.991212871 0.001441112945 0)
(2.991049697 0.00125751991 0)
(2.990802759 0.0006021775419 0)
(2.990602629 0.0001521206686 0)
(2.990291467 -2.022528759e-05 0)
(2.990187563 -0.0001073366497 0)
(2.98982842 -0.0006345249968 0)
(2.990053906 -9.558040973e-05 0)
(2.990142867 0.0001127462791 0)
(2.990292455 0.0004084879882 0)
(2.990024518 0.0004805505851 0)
(2.989916735 -0.0002869936553 0)
(2.992603172 0.002525725028 0)
(2.99183006 0.002678122028 0)
(2.990871893 0.0008844078632 0)
(2.991102428 -0.000832565145 0)
(2.991263093 -0.001860001193 0)
(2.991408822 -0.002488542975 0)
(2.991642558 -0.002646406743 0)
(2.992231836 -0.002127524971 0)
(2.992608785 -0.001858471716 0)
(2.992766371 -0.002127595232 0)
(2.992316514 -0.002402872924 0)
(2.991994099 -0.002444695254 0)
(2.991739745 -0.002110638829 0)
(2.991260302 -0.001998535006 0)
(2.990833594 -0.002491754165 0)
(2.990845911 -0.002797575191 0)
(2.991220738 -0.003152444378 0)
(2.991603042 -0.002337333659 0)
(2.992085677 -0.00121099022 0)
(2.992339975 0.001205697139 0)
(2.992410987 0.001832179108 0)
(2.992296387 0.001611474295 0)
(2.992246783 0.001088594189 0)
(2.992225634 0.0003148878359 0)
(2.992080513 -0.0002927621933 0)
(2.991988249 -0.0007095708082 0)
(2.991792967 -0.0008052394261 0)
(2.991634652 2.54253127e-05 0)
(2.991939262 5.40221145e-05 0)
(2.991885205 0.0007501504034 0)
(2.991668976 0.0007940798252 0)
(2.991528787 -4.694597002e-05 0)
(2.991196567 -0.0008742575184 0)
(2.994064102 0.002549828946 0)
(2.993324187 0.002913323116 0)
(2.992089001 0.001965479517 0)
(2.992182157 0.0009680537332 0)
(2.992431716 0.0001568240424 0)
(2.992709491 -0.0002576220607 0)
(2.993015341 -0.000602784675 0)
(2.993422919 -0.001372892545 0)
(2.993894521 -0.002064285178 0)
(2.994288932 -0.00257005373 0)
(2.99362896 -0.002899993303 0)
(2.993230977 -0.003080903814 0)
(2.992906383 -0.00329385742 0)
(2.992623301 -0.003582424656 0)
(2.992473302 -0.003697510204 0)
(2.992601441 -0.003687049839 0)
(2.992807784 -0.002544725734 0)
(2.993067216 -0.0007387474969 0)
(2.993231998 0.001099494634 0)
(2.993673082 0.00212904749 0)
(2.993650021 0.001749822271 0)
(2.993654652 0.001358368146 0)
(2.993600992 0.0006344449657 0)
(2.993669971 0.0001300216344 0)
(2.993625388 -0.0002935880903 0)
(2.993489052 -0.0002178360849 0)
(2.993221463 0.0001093611091 0)
(2.993293831 0.000609731538 0)
(2.993134359 0.0009964692005 0)
(2.993191297 0.0008013743017 0)
(2.992943057 0.0002502181791 0)
(2.992730976 -0.0007020422756 0)
(2.992449801 -0.001421802506 0)
(2.995274148 0.002803397789 0)
(2.994491988 0.003986621398 0)
(2.99320333 0.003257313476 0)
(2.993053096 0.001900865151 0)
(2.993316535 0.0009366262929 0)
(2.99371089 0.000313754349 0)
(2.994105388 -0.0004980621169 0)
(2.994424212 -0.001601906837 0)
(2.995009511 -0.0028356225 0)
(2.995339528 -0.003589223651 0)
(2.995026264 -0.003684461799 0)
(2.994669409 -0.003705707032 0)
(2.994317898 -0.003657332062 0)
(2.994031217 -0.003354809503 0)
(2.994034924 -0.003072559325 0)
(2.993808727 -0.002214219786 0)
(2.99390909 -0.0006023139794 0)
(2.994069887 0.0007448907235 0)
(2.994324959 0.001670018611 0)
(2.994764531 0.001815878554 0)
(2.994971021 0.00137267043 0)
(2.995029522 0.0007314574723 0)
(2.995039305 0.0001549394617 0)
(2.994864217 -0.00012464071 0)
(2.994805629 -0.0002002386963 0)
(2.994734519 0.0002468330896 0)
(2.994451905 0.0007342172751 0)
(2.994295388 0.000870471273 0)
(2.99422635 0.001131209677 0)
(2.994241451 0.0004991890333 0)
(2.994131193 -0.000376491985 0)
(2.99389618 -0.001165404386 0)
(2.99386524 -0.001154873367 0)
(2.996330356 0.003480125645 0)
(2.995772609 0.004403973201 0)
(2.994341547 0.003547823226 0)
(2.993895998 0.002127872808 0)
(2.994169868 0.00109748712 0)
(2.994617741 0.0003301943188 0)
(2.995066886 -0.0007497437607 0)
(2.995544612 -0.002024412577 0)
(2.996038249 -0.003503865589 0)
(2.996264746 -0.004481436214 0)
(2.99633769 -0.003974954126 0)
(2.995848452 -0.003562456561 0)
(2.995583056 -0.003382720568 0)
(2.99524902 -0.002874888648 0)
(2.994792457 -0.002117585476 0)
(2.994652819 -0.0009187857089 0)
(2.994795455 0.0002356416925 0)
(2.994967829 0.001040269084 0)
(2.995469701 0.001374036076 0)
(2.995974413 0.001199030202 0)
(2.996146791 0.000933507366 0)
(2.996180011 3.843493926e-05 0)
(2.996321375 -0.0003106917823 0)
(2.996081502 -0.0002820004471 0)
(2.995875079 -4.055080721e-05 0)
(2.995723857 0.0004514010921 0)
(2.995510518 0.0007199693113 0)
(2.995289565 0.0007990406639 0)
(2.995422853 0.0007350669471 0)
(2.995547185 0.0003065211337 0)
(2.99532641 -0.0007374125701 0)
(2.995227251 -0.0009112821546 0)
(2.995301742 -0.001214861061 0)
(2.997443087 0.003385921647 0)
(2.996977677 0.003940542155 0)
(2.995562736 0.003161950297 0)
(2.994947499 0.001954108657 0)
(2.995306849 0.001058481594 0)
(2.995803475 0.0002853629949 0)
(2.996166969 -0.0009359062202 0)
(2.996506926 -0.002674684537 0)
(2.996855567 -0.004469959132 0)
(2.997317981 -0.00418668242 0)
(2.997462095 -0.003489795751 0)
(2.996891305 -0.002901730831 0)
(2.996392797 -0.002642802629 0)
(2.995922837 -0.002230317604 0)
(2.995507603 -0.001370894935 0)
(2.995514172 -0.0004640014494 0)
(2.995913301 0.0003138941008 0)
(2.996260424 0.0008654429219 0)
(2.996673609 0.0007382819771 0)
(2.996897824 0.0002987926126 0)
(2.997030413 -0.0003017328332 0)
(2.99719168 -0.0004087919312 0)
(2.997419845 -0.0006018152944 0)
(2.997259145 -0.0004749295948 0)
(2.997125267 -0.000142020292 0)
(2.996749994 0.0003475116671 0)
(2.996576131 0.0004510766198 0)
(2.996562032 0.0005552413767 0)
(2.996623966 8.638719581e-05 0)
(2.996486725 -0.0002469772265 0)
(2.996514813 -0.0007107176594 0)
(2.996553475 -0.001132697157 0)
(2.996282395 0.0001254666743 0)
(2.998158073 0.002644323063 0)
(2.997873848 0.003138610646 0)
(2.996681487 0.002355851937 0)
(2.995952909 0.001068980418 0)
(2.996295756 0.0002472422556 0)
(2.996759006 -0.0005313342091 0)
(2.997116308 -0.001884273337 0)
(2.997279662 -0.003710511818 0)
(2.997722002 -0.004461193606 0)
(2.998380631 -0.003918785335 0)
(2.998497113 -0.002764105765 0)
(2.997802277 -0.002384705552 0)
(2.997406849 -0.002143323952 0)
(2.99702384 -0.001804820152 0)
(2.996790806 -0.001048392478 0)
(2.996836808 -0.0004762282278 0)
(2.997174315 -8.501907238e-05 0)
(2.997321054 0.0001909935147 0)
(2.997696462 0.000303344824 0)
(2.997877892 -0.0006272876392 0)
(2.99792173 -0.0009702510889 0)
(2.997932307 -0.0009021571706 0)
(2.998078209 -0.0009621286073 0)
(2.998033384 -0.0005978793785 0)
(2.997927944 -0.0003407296515 0)
(2.997757061 0.0002123836021 0)
(2.997588628 0.0002374983604 0)
(2.997421443 0.0001027403932 0)
(2.997563758 -0.0001746207216 0)
(2.997298931 -0.0006741276057 0)
(2.997483012 -0.0006427915098 0)
(2.997388 0.0006779251671 0)
(2.997060786 0.002009808424 0)
(2.998741774 0.001955900031 0)
(2.998618731 0.002609837687 0)
(2.997554721 0.001564939325 0)
(2.996616106 3.028439813e-05 0)
(2.996873795 -0.0010173261 0)
(2.997346176 -0.001683859557 0)
(2.997801037 -0.002682208023 0)
(2.9981088 -0.003615166403 0)
(2.998677833 -0.00375680623 0)
(2.999249296 -0.002820849579 0)
(2.999447132 -0.002438443633 0)
(2.998987725 -0.002493483061 0)
(2.998672819 -0.002415218077 0)
(2.998307242 -0.002164589571 0)
(2.998059255 -0.001538857137 0)
(2.998004581 -0.0009127176265 0)
(2.998116938 -0.0005838576038 0)
(2.99818246 -0.0004135873652 0)
(2.998362504 -0.0007000104846 0)
(2.998646168 -0.00106037942 0)
(2.998716674 -0.0008722735469 0)
(2.998677946 -0.0009017777279 0)
(2.998752796 -0.0009095698644 0)
(2.998670609 -0.0003034223436 0)
(2.998473068 -0.0001912239124 0)
(2.99828511 0.0001702754896 0)
(2.99816188 0.0001218333514 0)
(2.998000954 -0.0001765912996 0)
(2.9981776 1.740803483e-05 0)
(2.998101484 -0.0001318318628 0)
(2.998109945 0.001093986095 0)
(2.997936784 0.002400148852 0)
(2.997634083 0.002446784857 0)
(2.999515208 0.001812379955 0)
(2.998700437 0.0007101824328 0)
(2.99746483 -0.0008726743934 0)
(2.997613174 -0.001730284537 0)
(2.998105424 -0.001982882645 0)
(2.998590446 -0.002488541644 0)
(2.999067268 -0.003142750827 0)
(2.999527038 -0.00254345104 0)
(3.000002658 -0.002460933092 0)
(3.000334662 -0.002821869714 0)
(2.99987954 -0.002986154795 0)
(2.999390607 -0.002915703798 0)
(2.999003565 -0.002784300606 0)
(2.998637662 -0.002310835783 0)
(2.998545812 -0.00161848904 0)
(2.998724204 -0.00103026871 0)
(2.998874731 -0.0007156658131 0)
(2.999005396 -0.001042584178 0)
(2.99937284 -0.0009973365975 0)
(2.999467485 -0.0006321257935 0)
(2.99954188 -0.0004015930739 0)
(2.999404062 0.0001920813865 0)
(2.99933606 0.0004386912603 0)
(2.999047043 0.0001358388153 0)
(2.998713226 0.000241690175 0)
(2.998593435 7.668657121e-05 0)
(2.998535595 0.0001677360236 0)
(2.998606969 0.0001170078169 0)
(2.998593984 0.001310318412 0)
(2.998453027 0.002523936147 0)
(2.998366137 0.002698714701 0)
(2.998135364 0.002417986761 0)
(3.000360326 0.001648671715 0)
(2.999588621 0.0006635645195 0)
(2.998532957 -0.0007279078861 0)
(2.998735209 -0.001629349432 0)
(2.999119163 -0.001919852358 0)
(2.999581135 -0.001864039621 0)
(2.999935742 -0.001799149032 0)
(3.000388443 -0.002023845996 0)
(3.000850375 -0.002551683184 0)
(3.000967891 -0.003467576047 0)
(3.000411737 -0.00370553735 0)
(2.999946304 -0.00342563679 0)
(2.999554657 -0.00312579794 0)
(2.999147318 -0.002690811722 0)
(2.999080246 -0.001966415363 0)
(2.999290182 -0.001462367255 0)
(2.999497926 -0.001058849107 0)
(2.999715658 -0.0002984522182 0)
(2.999972434 -0.0001795863204 0)
(3.000023416 0.0005771372589 0)
(2.999925861 0.001188700085 0)
(2.999775815 0.001489899785 0)
(2.999568249 0.00156957717 0)
(2.999352097 0.0009247296334 0)
(2.999083478 0.0007435706782 0)
(2.998908626 0.0005779782203 0)
(2.998789891 0.0007535447769 0)
(2.998770731 0.00130863373 0)
(2.998822485 0.002501871709 0)
(2.99878643 0.002761542181 0)
(2.998733838 0.002721160058 0)
(2.998607174 0.002002403454 0)
(2.998218819 0.001156125781 0)
(3.001358524 0.00183502917 0)
(3.000603612 0.0007492303988 0)
(2.999704462 -0.0002722783633 0)
(2.999688302 -0.0007899644791 0)
(2.999933697 -0.0007671613678 0)
(3.000324771 -0.0006932334465 0)
(3.000582894 -0.001405559643 0)
(3.000903744 -0.002449913915 0)
(3.001448237 -0.003279178254 0)
(3.001520922 -0.004150394626 0)
(3.001230921 -0.004594639922 0)
(3.000712167 -0.004432535521 0)
(3.000306946 -0.003965441302 0)
(2.999985976 -0.002959377612 0)
(2.999872343 -0.001986977037 0)
(2.999944927 -0.001243725387 0)
(3.000100307 -0.0004777073648 0)
(3.000192419 0.0005072008069 0)
(3.000155622 0.00120738919 0)
(3.000160322 0.001826758292 0)
(3.000014592 0.001931471434 0)
(2.999936832 0.001785574133 0)
(2.999648665 0.001683593463 0)
(2.999433502 0.001002397964 0)
(2.999140497 0.0007286392534 0)
(2.998934636 0.0007232504726 0)
(2.998700411 0.001063078168 0)
(2.998748102 0.00170919381 0)
(2.998878925 0.002400095381 0)
(2.998912099 0.002787329775 0)
(2.998796233 0.002508373339 0)
(2.99851335 0.001822586084 0)
(2.998122462 -2.544216033e-05 0)
(3.00253752 0.002197603386 0)
(3.00184854 0.001215534548 0)
(3.000697492 0.0005467610739 0)
(3.000567915 4.674412435e-06 0)
(3.000572487 -0.0002175927674 0)
(3.000859165 -0.0006943728586 0)
(3.001119031 -0.001483075415 0)
(3.001394581 -0.002741795294 0)
(3.001778101 -0.004136060743 0)
(3.002347761 -0.00438852512 0)
(3.00200507 -0.004133252482 0)
(3.001294762 -0.003672806079 0)
(3.00088572 -0.003149886989 0)
(3.000517855 -0.002337574655 0)
(3.000282241 -0.001780514793 0)
(3.000194982 -0.0009763265312 0)
(3.000291296 0.0001521576523 0)
(3.000264685 0.0011833092 0)
(3.00017497 0.001454185079 0)
(3.000073697 0.001651533243 0)
(2.999946557 0.001622863598 0)
(2.999813286 0.001489066624 0)
(2.999421222 0.001229345636 0)
(2.999253032 0.0007345471618 0)
(2.998897195 0.0004454139104 0)
(2.998560122 0.0007748786079 0)
(2.998318075 0.0009126825597 0)
(2.998428269 0.00177344218 0)
(2.998669982 0.002018192646 0)
(2.998637563 0.002182636008 0)
(2.998366234 0.002005154059 0)
(2.998125538 0.0002673508784 0)
(2.997869096 -0.0008490896794 0)
(3.003400942 0.002167923185 0)
(3.002677926 0.001189178775 0)
(3.001511484 0.0004107134388 0)
(3.00125326 -0.0001786128763 0)
(3.001170367 -0.0003194465585 0)
(3.001324777 -0.0007343934757 0)
(3.001664383 -0.001666699055 0)
(3.00179165 -0.002984674212 0)
(3.002180336 -0.00403948542 0)
(3.002737218 -0.003936898605 0)
(3.002289088 -0.003209184148 0)
(3.001456796 -0.003038981817 0)
(3.001050669 -0.002907284214 0)
(3.000658553 -0.002550352773 0)
(3.000262794 -0.002106723867 0)
(3.000147132 -0.001313288426 0)
(3.00023257 -0.000111893821 0)
(3.0001698 0.0008466622297 0)
(3.000013584 0.001107086063 0)
(2.999695695 0.001200112873 0)
(2.999644323 0.001143625236 0)
(2.999271392 0.001165446777 0)
(2.998804475 0.0005917295387 0)
(2.998499031 0.0004974839003 0)
(2.998115505 0.0001603547108 0)
(2.997668407 0.0001956641533 0)
(2.997426449 0.0005798374118 0)
(2.997583277 0.001547705472 0)