/*--------------------------------*- C++ -*----------------------------------*\
  =========                 |
  \\      /  F ield         | OpenFOAM: The Open Source CFD Toolbox
   \\    /   O peration     | Website:  https://openfoam.org
    \\  /    A nd           | Version:  7
     \\/     M anipulation  |
\*---------------------------------------------------------------------------*/
FoamFile
{
    version     2.0;
    format      ascii;
    class       volVectorField;
    location    "3.3";
    object      U;
}
// * * * * * * * * * * * * * * * * * * * * * * * * * * * * * * * * * * * * * //

dimensions      [0 1 -1 0 0 0 0];

internalField   nonuniform List<vector> 
143
(
(3 3.243590569e-15 0)
(3 4.651476698e-15 0)
(3 6.234611753e-15 0)
(3 8.897494442e-15 0)
(3 7.247837316e-15 0)
(3 5.979209077e-15 0)
(3 1.659462379e-15 0)
(3 -3.546114427e-16 0)
(3 -7.417616509e-16 0)
(3 1.021154573e-15 0)
(3 1.811451196e-15 0)
(3 1.190069533e-15 0)
(3 9.117893993e-16 0)
(3 -3.713876463e-16 0)
(3 -1.58250088e-15 0)
(3 -3.120151125e-15 0)
(3 -4.40388296e-15 0)
(3 -3.968194662e-15 0)
(3 -2.246189985e-15 0)
(3 3.794267996e-16 0)
(3 2.899403713e-15 0)
(3 5.641928923e-15 0)
(3 5.0416029e-15 0)
(3 2.091954275e-15 0)
(3 6.994352907e-16 0)
(3 3.531240296e-16 0)
(3 6.847738756e-16 0)
(3 -4.163180348e-16 0)
(3 -1.153338635e-15 0)
(3 -3.643181412e-16 0)
(3 1.072742914e-15 0)
(3 4.076100804e-16 0)
(3 -4.345069586e-16 0)
(3 -1.841874517e-15 0)
(3 -2.95324656e-15 0)
(3 -4.292013071e-15 0)
(3 -4.698191682e-15 0)
(3 -5.07075513e-15 0)
(3 -5.188373107e-15 0)
(3 -4.154683781e-15 0)
(3 -3.168809021e-15 0)
(3 -2.144910367e-16 0)
(3 -8.928106573e-16 0)
(3 -6.16634838e-16 0)
(3 -4.847990023e-16 0)
(3 5.218933731e-16 0)
(3 1.578201948e-15 0)
(3 2.685599038e-15 0)
(3 4.20710414e-15 0)
(3 3.298862266e-15 0)
(3 2.021241667e-16 0)
(3 -2.744185092e-15 0)
(3 -5.07474725e-15 0)
(3 -8.67469474e-15 0)
(3 -1.239692338e-14 0)
(3 -1.158546967e-14 0)
(3 -1.053338215e-14 0)
(3 -6.946059084e-15 0)
(3 -6.518717693e-16 0)
(3 -1.447058376e-15 0)
(3 -3.210130216e-15 0)
(3 -2.173298051e-15 0)
(3 1.427578417e-16 0)
(3 1.495977069e-15 0)
(3 1.078524236e-15 0)
(3 3.08563356e-16 0)
(3 -6.891549644e-16 0)
(3 -1.103436479e-15 0)
(3 -2.834653683e-15 0)
(3 -4.047078019e-15 0)
(3 -5.540723136e-15 0)
(3 -5.366121531e-15 0)
(3 -5.454784141e-15 0)
(3 -4.985692326e-15 0)
(3 -3.495548257e-15 0)
(3 6.401255312e-16 0)
(3 9.940491276e-16 0)
(3 1.373224493e-15 0)
(3 1.727806574e-15 0)
(3 9.973921921e-16 0)
(3 -3.30139769e-16 0)
(3 -1.818202607e-15 0)
(3 -3.728950787e-15 0)
(3 -4.049877274e-15 0)
(3 -1.177794489e-15 0)
(3 -1.645752251e-15 0)
(3 -3.060561724e-15 0)
(3 -9.934462946e-16 0)
(3 -7.316872941e-16 0)
(3 -3.099705667e-15 0)
(3 -3.544127151e-15 0)
(3 -3.36732598e-15 0)
(3 -1.160007222e-16 0)
(3 1.418322249e-15 0)
(3 1.798355365e-15 0)
(3 1.589406017e-15 0)
(3 1.406952503e-15 0)
(3 -8.149764998e-16 0)
(3 -2.296197744e-15 0)
(3 -1.35528538e-15 0)
(3 -1.734224806e-15 0)
(3 -1.217018056e-15 0)
(3 -3.456320227e-15 0)
(3 -2.002404696e-15 0)
(3 -1.22182956e-15 0)
(3 -3.211707985e-15 0)
(3 -6.72476715e-15 0)
(3 -7.733099784e-15 0)
(3 -7.179678263e-15 0)
(3 -1.863334389e-16 0)
(3 2.47985117e-15 0)
(3 1.463826686e-15 0)
(3 -1.402772565e-15 0)
(3 -2.435378495e-15 0)
(3 -2.274533244e-15 0)
(3 -1.809176443e-15 0)
(3 1.782668543e-16 0)
(3 1.261679749e-15 0)
(3 5.82163874e-16 0)
(3 1.235451184e-15 0)
(3 3.840126125e-16 0)
(3 -9.016002969e-16 0)
(3 -3.451640271e-15 0)
(3 -5.127646803e-15 0)
(3 -5.593747538e-15 0)
(3 -5.469511301e-15 0)
(3 6.534533182e-16 0)
(3 1.868177815e-15 0)
(3 1.994931144e-15 0)
(3 8.483499221e-16 0)
(3 -2.085517296e-16 0)
(3 1.360440255e-16 0)
(3 8.270012916e-16 0)
(3 1.154811578e-15 0)
(3 2.276260922e-15 0)
(3 1.960173284e-15 0)
(3 2.5024873e-15 0)
(3 2.506755954e-16 0)
(3 5.551685743e-19 0)
(3 -5.07001834e-17 0)
(3 -1.661794946e-16 0)
(3 -5.384962369e-16 0)
(3 -8.331985869e-16 0)
)
;

boundaryField
{
    inlet
    {
        type            fixedValue;
        value           uniform (3 0 0);
    }
    outlet
    {
        type            inletOutlet;
        inletValue      nonuniform 0();
        value           nonuniform 0();
    }
    bottom
    {
        type            slip;
    }
    top
    {
        type            slip;
    }
    obstacle
    {
        type            slip;
    }
    defaultFaces
    {
        type            empty;
    }
    procBoundary30to24
    {
        type            processor;
        value           nonuniform List<vector> 
18
(
(3 6.655022633e-15 0)
(3 7.214484068e-15 0)
(3 6.943467505e-15 0)
(3 8.236916539e-15 0)
(3 8.202106218e-15 0)
(3 6.873309667e-15 0)
(3 9.129406015e-15 0)
(3 -1.163980652e-15 0)
(3 -4.4237928e-17 0)
(3 3.224291733e-15 0)
(3 2.615318587e-15 0)
(3 1.689678303e-15 0)
(3 1.747315504e-15 0)
(3 4.408692086e-16 0)
(3 9.241284635e-16 0)
(3 1.397173805e-15 0)
(3 1.009295723e-15 0)
(3 1.009295723e-15 0)
)
;
    }
    procBoundary30to25
    {
        type            processor;
        value           uniform (3 1.253213894e-16 0);
    }
    procBoundary30to31
    {
        type            processor;
        value           nonuniform List<vector> 8((3 -1.606454679e-15 0) (3 -1.791185797e-15 0) (3 -4.423754511e-15 0) (3 -7.173575432e-16 0) (3 -1.395959527e-15 0) (3 -7.938164341e-15 0) (3 -7.3445541e-15 0) (3 -1.554685502e-15 0));
    }
}


// ************************************************************************* //
