/*--------------------------------*- C++ -*----------------------------------*\
  =========                 |
  \\      /  F ield         | OpenFOAM: The Open Source CFD Toolbox
   \\    /   O peration     | Website:  https://openfoam.org
    \\  /    A nd           | Version:  7
     \\/     M anipulation  |
\*---------------------------------------------------------------------------*/
FoamFile
{
    version     2.0;
    format      ascii;
    class       volScalarField;
    location    "0.6";
    object      rho;
}
// * * * * * * * * * * * * * * * * * * * * * * * * * * * * * * * * * * * * * //

dimensions      [1 -3 0 0 0 0 0];

internalField   nonuniform List<scalar> 
2222
(
1.301477724
1.300165903
1.297906688
1.295119471
1.291333145
1.285557421
1.278910842
1.275290516
1.271711919
1.266984831
1.263343516
1.2614367
1.260900332
1.261042034
1.260383076
1.258735654
1.25592894
1.25158913
1.245515095
1.241938997
1.240726755
1.240116148
1.240520384
1.241652526
1.240759087
1.238951101
1.236435969
1.233225182
1.231089325
1.229091346
1.22704556
1.299199133
1.301003608
1.301320212
1.300770373
1.299568776
1.297581362
1.295153273
1.291427617
1.285932542
1.280914549
1.277470203
1.2720861
1.266293632
1.26272297
1.261264599
1.260473954
1.26040718
1.260090644
1.258524737
1.255520126
1.249999688
1.244728728
1.242286019
1.24172259
1.241951118
1.243177691
1.242657261
1.24084993
1.23849775
1.2350859
1.232898275
1.231017859
1.229406176
1.228106784
1.298940702
1.300356475
1.300502983
1.299819197
1.298863405
1.297412574
1.295242374
1.291843982
1.287095952
1.283325586
1.278771418
1.272106885
1.265521913
1.262607284
1.261228775
1.260422215
1.259795166
1.259354923
1.258090317
1.254504478
1.248582351
1.244836724
1.243554527
1.243886525
1.245027438
1.244508616
1.242718949
1.240718461
1.237419053
1.235116456
1.23333965
1.231675555
1.230568312
1.229856394
1.298700909
1.299317563
1.299208269
1.298740656
1.298183304
1.297219266
1.29538144
1.292460547
1.288889761
1.284548882
1.279097139
1.272302866
1.26605258
1.262962834
1.261400847
1.260368487
1.25920474
1.258143578
1.256524188
1.252527172
1.248586321
1.245877792
1.245959871
1.246872199
1.246411811
1.244610103
1.242518006
1.239625216
1.237040576
1.235187006
1.233996282
1.232883619
1.23214002
1.230653267
1.297539584
1.297550678
1.29767631
1.297927315
1.297594782
1.296866845
1.295386245
1.292920624
1.289513685
1.28483551
1.279006724
1.272060021
1.266328629
1.26342915
1.261776049
1.260206576
1.258581192
1.256983577
1.254705853
1.251645385
1.248789255
1.248263761
1.248564053
1.247749292
1.246362233
1.24437034
1.241559471
1.238507671
1.236773436
1.235583469
1.234786825
1.233734404
1.232860458
1.230924822
1.296574983
1.296340278
1.296748799
1.29743278
1.297117506
1.296441654
1.29522221
1.293042174
1.289622575
1.284910092
1.278971761
1.271952439
1.266325456
1.263547152
1.262051532
1.260302761
1.258125661
1.256215241
1.253989356
1.251485646
1.250365948
1.250132253
1.249082325
1.247600295
1.245799039
1.243341044
1.240251248
1.23818862
1.236930569
1.235987664
1.234732381
1.233696636
1.232951849
1.230906882
1.296736752
1.296400956
1.296729385
1.297152426
1.296748542
1.296042218
1.29507453
1.293104924
1.289836658
1.285161035
1.279169719
1.271965406
1.266164635
1.263348851
1.26187252
1.260206141
1.258041199
1.256018128
1.253890449
1.251985803
1.251495864
1.250391508
1.248919239
1.247308374
1.245008253
1.242096768
1.239850484
1.238116805
1.236826626
1.2353847
1.234230883
1.233371166
1.232763992
1.230659167
1.296312853
1.296596611
1.296776646
1.296304342
1.295918181
1.294982635
1.293220086
1.290186214
1.285760049
1.279667919
1.271944515
1.265834878
1.262890057
1.261589661
1.260136332
1.258126103
1.256033807
1.25414427
1.252880816
1.251700809
1.250242267
1.248599971
1.246367469
1.24364457
1.241573474
1.239875082
1.238582661
1.236956223
1.234767839
1.233185466
1.232179958
1.231592942
1.22915597
1.29643856
1.296422689
1.296623497
1.296402475
1.295952479
1.295054333
1.293459779
1.290656825
1.286278886
1.27984955
1.271994331
1.265663603
1.262633166
1.261606677
1.260267177
1.25824144
1.256133622
1.254448537
1.253156802
1.251656543
1.249925067
1.247693586
1.245063352
1.243035797
1.241460383
1.240358705
1.239223668
1.236978973
1.234214453
1.231814664
1.230205349
1.229251409
1.227455337
1.295818659
1.295838098
1.296199234
1.296141997
1.295850071
1.295192739
1.293689529
1.290921594
1.286423018
1.279828154
1.27199469
1.265863148
1.262735957
1.260668516
1.25996326
1.258208171
1.25621748
1.254520972
1.253030445
1.251476417
1.249135723
1.246579938
1.244818521
1.243186708
1.242004999
1.241264203
1.239577623
1.236799353
1.233113043
1.229506931
1.227923974
1.227597601
1.226446236
1.295046505
1.294567017
1.294883434
1.295450845
1.295575945
1.295164129
1.293763937
1.291125381
1.286719637
1.280156188
1.272260272
1.266439293
1.26300174
1.260034247
1.259157353
1.257934312
1.256015504
1.254316652
1.252745225
1.250768793
1.248548897
1.246716153
1.245056111
1.243832642
1.243121979
1.241910885
1.239420213
1.236191809
1.231258652
1.228341653
1.227380294
1.227140878
1.226173011
1.294330221
1.293317041
1.293278009
1.293678655
1.294640861
1.294894013
1.293753581
1.291293574
1.287050355
1.280686589
1.27350878
1.268125418
1.263577001
1.259825437
1.257982984
1.257184102
1.255617399
1.253864496
1.251873555
1.249765143
1.248362103
1.246884107
1.245826915
1.245224676
1.244145077
1.241840137
1.239000055
1.234668286
1.230805525
1.228626086
1.227267966
1.227083882
1.226230192
1.293548982
1.292111737
1.291918506
1.292129723
1.293059924
1.294461361
1.293614154
1.291333149
1.287254641
1.281233192
1.27522504
1.26995302
1.264148072
1.259720047
1.256890101
1.255776324
1.254356435
1.252444585
1.250621903
1.249393614
1.248437764
1.247738775
1.247166934
1.246289159
1.24429286
1.241441815
1.237679546
1.233294983
1.230554916
1.229018195
1.22794452
1.227877335
1.227276442
1.292675027
1.291305727
1.291003756
1.291157123
1.29206189
1.293612208
1.29353486
1.291443051
1.287731917
1.282460937
1.276950455
1.270926023
1.264710961
1.259212698
1.25530927
1.253623996
1.251994744
1.250453275
1.249782769
1.249267368
1.24886707
1.248396935
1.247579151
1.246278543
1.244201127
1.240920331
1.236369805
1.232586732
1.230375364
1.229531854
1.229078143
1.229370047
1.228328505
1.293149223
1.29143017
1.290836672
1.29100284
1.291955385
1.293171039
1.293111789
1.291568221
1.288174476
1.283201401
1.277270302
1.270945554
1.264794596
1.258166425
1.25377385
1.25134528
1.249860368
1.249096134
1.248986711
1.248680873
1.248216328
1.247900163
1.247357519
1.246077302
1.243969396
1.240258619
1.236071435
1.232279354
1.230874732
1.231336811
1.230672506
1.229883633
1.228377026
1.29319844
1.291937339
1.291252399
1.291307066
1.292186841
1.293115332
1.2926334
1.29101843
1.287746898
1.282892956
1.277043745
1.270881616
1.264667483
1.258807917
1.253313425
1.250220524
1.249133173
1.248613011
1.248489264
1.248297914
1.247561079
1.246970511
1.246555374
1.245451886
1.24328263
1.240151786
1.236107106
1.233338514
1.232209214
1.230827599
1.230074752
1.229589085
1.228301502
1.293338169
1.292431742
1.29198526
1.292057909
1.292749869
1.293268101
1.292478251
1.290704517
1.287373836
1.282494784
1.276445635
1.270337431
1.264434931
1.259067203
1.253527051
1.249903637
1.248927182
1.248592244
1.248296658
1.24806739
1.247166109
1.246245392
1.245469478
1.244537299
1.242722883
1.240057364
1.237333233
1.235720739
1.233282181
1.230529967
1.228606206
1.227771951
1.227219117
1.293914919
1.29319669
1.292942824
1.293081767
1.293478044
1.293421898
1.292592145
1.290627803
1.287231049
1.282414151
1.276297627
1.269783654
1.264522574
1.259250242
1.254371713
1.250920389
1.249319732
1.248561045
1.248276055
1.247865121
1.246738739
1.245459347
1.244643554
1.243969708
1.242588396
1.240685049
1.239507839
1.237153534
1.233703799
1.230411727
1.22761412
1.225582993
1.224513405
1.295211453
1.294331975
1.293803018
1.293856614
1.293991798
1.293643298
1.292633093
1.290676559
1.287357284
1.282711732
1.276455113
1.269870137
1.264229432
1.259299756
1.25456241
1.251402538
1.249942391
1.249058566
1.248422415
1.247267636
1.246137921
1.245266097
1.244603642
1.243764048
1.242744116
1.242101363
1.24071204
1.23772481
1.234017939
1.230350722
1.226345505
1.223391528
1.221950297
1.294641088
1.294012959
1.293862095
1.293933064
1.294054436
1.293579346
1.292529016
1.290632526
1.287681993
1.283324725
1.2771238
1.27021913
1.264186141
1.259077327
1.254549788
1.251789789
1.250367452
1.249348562
1.248193711
1.247452632
1.246307176
1.2452841
1.244691439
1.243976654
1.243472242
1.242628158
1.240792931
1.237895191
1.234210918
1.228938063
1.224294303
1.221894919
1.220727828
1.294416268
1.293013834
1.292740026
1.293298516
1.293681769
1.293329943
1.292341633
1.290590469
1.287842968
1.283731855
1.277848532
1.270830379
1.264051802
1.258719339
1.254604267
1.252345326
1.250560215
1.249360704
1.248471299
1.247523695
1.246501414
1.245547634
1.24509841
1.244494453
1.243353225
1.242177107
1.240540455
1.237662665
1.233637598
1.229395289
1.225138491
1.222122372
1.220782196
1.294420725
1.292336387
1.291378086
1.291559009
1.292475332
1.29293203
1.292179963
1.290528462
1.287790968
1.283882742
1.27816918
1.271330822
1.264173842
1.258813511
1.254849949
1.252628806
1.250590224
1.249361913
1.24856554
1.247762939
1.246973406
1.246188597
1.245297724
1.244371111
1.243161786
1.24156316
1.239398994
1.236372888
1.232805454
1.22906106
1.226187012
1.223739024
1.221263227
1.294239615
1.291409433
1.290245091
1.290178368
1.290861942
1.292101987
1.291716839
1.290114597
1.287251617
1.283512233
1.278289201
1.27153381
1.264768202
1.25909437
1.255508724
1.252603169
1.25004527
1.249067536
1.248449076
1.24799302
1.247681465
1.247038974
1.24564989
1.244329608
1.242807055
1.240673005
1.237773851
1.234984342
1.232024232
1.229132517
1.227124774
1.225452832
1.222429588
1.290828282
1.290209458
1.290086894
1.290284002
1.291046088
1.291048213
1.289710648
1.286760919
1.282555665
1.277705849
1.271692812
1.265486003
1.260185508
1.256327496
1.252480771
1.24928762
1.248356256
1.248093715
1.248142614
1.248168934
1.247460422
1.24600104
1.244172798
1.241976251
1.239145278
1.236286051
1.233909267
1.231774421
1.229572169
1.228427708
1.227252225
1.223677487
1.291941935
1.29108917
1.290565301
1.290404872
1.290527398
1.290470552
1.289333134
1.28640278
1.281711577
1.276723
1.271544447
1.26615715
1.261535326
1.256908806
1.252454796
1.249027313
1.247716091
1.247448956
1.247709671
1.248199215
1.247654917
1.246216861
1.243756806
1.240524445
1.237411362
1.235138288
1.23304382
1.231502932
1.230881899
1.230176424
1.228720409
1.224454404
1.292682568
1.292302061
1.291790373
1.291159645
1.290655368
1.289972696
1.28859063
1.285666217
1.280875647
1.27582399
1.271131057
1.266685578
1.2620648
1.257334397
1.252513417
1.249288645
1.247531523
1.246882931
1.24701794
1.247373602
1.246907509
1.245630799
1.24296748
1.239534047
1.236508161
1.234215395
1.232610862
1.231132861
1.230435949
1.229872971
1.229020586
1.224958045
1.293468324
1.2933161
1.292867747
1.292106229
1.291073045
1.289454343
1.287464451
1.284401982
1.279931458
1.275175054
1.270602419
1.266388407
1.262243607
1.25732164
1.252685759
1.249767908
1.247632146
1.246448931
1.246262057
1.246260951
1.245510589
1.244179524
1.242088707
1.239176394
1.236276881
1.233904748
1.232319714
1.23130927
1.23035059
1.229149756
1.227588819
1.223881631
1.293694771
1.293993015
1.293684019
1.29286567
1.291317829
1.289028311
1.28646707
1.283147393
1.278880001
1.27428741
1.269859868
1.265713063
1.26147498
1.256787462
1.252701096
1.249924211
1.247637562
1.245893473
1.244980871
1.244321684
1.243465676
1.242460968
1.241271672
1.239141762
1.236536003
1.234065141
1.231945105
1.230621878
1.229440126
1.227823078
1.225559668
1.22162708
1.292790159
1.293748385
1.293993731
1.293173303
1.291272444
1.288641786
1.285595747
1.282095453
1.277820178
1.272846172
1.268384327
1.264710486
1.260509379
1.25604928
1.25251232
1.24936519
1.247027267
1.245058623
1.243274489
1.241912005
1.24125048
1.240884176
1.240232087
1.238897627
1.236723171
1.234226571
1.231761574
1.229623954
1.227766408
1.225503532
1.222576608
1.218963366
1.291614176
1.292235466
1.292425811
1.291712632
1.290130404
1.287616729
1.284307029
1.280713477
1.276488213
1.271356399
1.266794402
1.263055117
1.259310579
1.255303865
1.2516574
1.248548957
1.245826708
1.243604564
1.241391391
1.239705111
1.239215101
1.239196773
1.238778613
1.237945664
1.236327452
1.233963817
1.231353303
1.228536549
1.225693586
1.222216101
1.219131133
1.216910519
1.290626773
1.290445054
1.289983466
1.289107379
1.287972356
1.285828247
1.282561526
1.278868179
1.274676602
1.269465176
1.265148666
1.261456362
1.257968407
1.2543232
1.250483742
1.246813589
1.244013514
1.241854797
1.23994045
1.238299574
1.237499599
1.237216166
1.236870734
1.236478151
1.235473966
1.233273601
1.230205492
1.226821599
1.223180618
1.219126945
1.216825915
1.215450092
1.28845264
1.287590814
1.286699383
1.285969012
1.28522605
1.283558307
1.280694726
1.277015669
1.272723121
1.267403904
1.263255581
1.259938951
1.256509419
1.252743308
1.248835073
1.244840565
1.241828982
1.240109761
1.2385647
1.237125709
1.235990336
1.235365201
1.2350672
1.234798312
1.233862644
1.231730439
1.228497155
1.224732128
1.220643202
1.217314725
1.215680131
1.214314323
1.285157101
1.284361504
1.283753058
1.283343401
1.282703281
1.281267559
1.278748809
1.275047566
1.270792968
1.265594981
1.261309826
1.258114413
1.255088127
1.251586974
1.247403717
1.24295037
1.239709017
1.238498471
1.237413125
1.236276422
1.235021368
1.233908463
1.233599113
1.233185144
1.231764435
1.229082272
1.225835551
1.222406637
1.219659989
1.217286033
1.215607592
1.214055965
1.281772906
1.281842766
1.281599962
1.281153778
1.280457538
1.279142624
1.276653005
1.273107789
1.269116168
1.263969831
1.259702932
1.256847349
1.254037602
1.250347232
1.245754842
1.241956744
1.23890018
1.237555694
1.23692837
1.236098495
1.234780113
1.233288347
1.232380369
1.230998386
1.228383905
1.225506022
1.223647881
1.222232878
1.220223861
1.218052872
1.216116632
1.214116781
1.27883919
1.279957278
1.280356955
1.279936069
1.279257601
1.277770717
1.275061887
1.271677269
1.267684173
1.262732255
1.258816754
1.256027715
1.252939456
1.248849438
1.245384282
1.2418567
1.238730827
1.236957288
1.236421206
1.235712326
1.234376162
1.232866133
1.230932491
1.227827219
1.224603383
1.223474472
1.222903766
1.221984285
1.220519233
1.219039481
1.217840908
1.215056151
1.277078467
1.279531281
1.280432431
1.27968445
1.27875812
1.276745515
1.273693902
1.270662782
1.267049696
1.262412508
1.258270119
1.254908886
1.251445814
1.248483308
1.245550265
1.24246346
1.239046989
1.236290695
1.23552791
1.235016544
1.234280478
1.232542921
1.228912675
1.224673003
1.223320194
1.22311684
1.222746068
1.22181736
1.220958533
1.220326564
1.219432953
1.215451025
1.276480017
1.279334949
1.280806271
1.280200536
1.278220179
1.275570484
1.2726431
1.269879355
1.266516623
1.262260104
1.257482211
1.253307028
1.250824191
1.248570849
1.246278031
1.243494691
1.239348611
1.236023703
1.234687888
1.234298723
1.233917076
1.23134221
1.226323203
1.223943754
1.223090689
1.22292646
1.22292017
1.222769883
1.222485358
1.221401782
1.219398662
1.214994481
1.276299846
1.279269451
1.280311849
1.280081691
1.278423491
1.275601196
1.27247346
1.269657014
1.266432912
1.261481913
1.256326935
1.252803611
1.250591299
1.248995901
1.247011881
1.243841646
1.239686224
1.236260774
1.234387473
1.233673687
1.232837489
1.229990996
1.22675179
1.224921373
1.223833868
1.22327028
1.223538576
1.223920243
1.222984914
1.221232231
1.218927863
1.213679108
1.276618225
1.278692751
1.279572122
1.279454782
1.27814563
1.275795865
1.272849906
1.269868413
1.266259216
1.261474964
1.256637605
1.253148299
1.251307846
1.249719981
1.247230439
1.243758544
1.240044068
1.237140015
1.234626286
1.233382935
1.23160697
1.228918489
1.227163411
1.226291925
1.225594933
1.225262059
1.225183736
1.224371837
1.222805482
1.220647459
1.21791025
1.213349136
1.28089919
1.282025651
1.282858711
1.282815228
1.281978294
1.280045981
1.277451597
1.274321394
1.270481656
1.265627702
1.260701181
1.2571183
1.255225237
1.253461536
1.251444426
1.249034504
1.246406878
1.243596418
1.240548176
1.237255353
1.234317559
1.232641862
1.231825375
1.231385604
1.23104302
1.230499221
1.229455765
1.227901237
1.225908008
1.223372574
1.220733281
1.217987942
1.290251361
1.291035121
1.291852302
1.291686794
1.290625429
1.288885054
1.286650541
1.283816861
1.279822381
1.274834445
1.26860383
1.264246505
1.262798914
1.261877027
1.260635901
1.259175969
1.257396969
1.255012044
1.252001276
1.248461331
1.245184575
1.242864894
1.241143584
1.240264308
1.239388294
1.238225721
1.236899663
1.235282485
1.233467599
1.231327079
1.229467995
1.227186526
1.301303237
1.301271117
1.30127228
1.300711877
1.299479414
1.298104089
1.29642912
1.294063885
1.290535218
1.285702351
1.279354953
1.273703052
1.270770317
1.269090621
1.267528033
1.265945788
1.264181028
1.262467107
1.260336856
1.257832759
1.255273474
1.253456668
1.252084805
1.251169446
1.250133287
1.248678875
1.246872931
1.244779691
1.242603127
1.240289257
1.238224924
1.234855767
1.311158007
1.310727229
1.310316075
1.309440837
1.308252742
1.307170798
1.305630289
1.30322645
1.299645332
1.294987321
1.289044618
1.282898078
1.278352284
1.27538213
1.272970983
1.270634183
1.268884585
1.267546609
1.266125745
1.264552652
1.262954753
1.26193282
1.261195873
1.260406188
1.259521751
1.258358624
1.256836061
1.254840128
1.25266782
1.250548004
1.248304867
1.243511955
1.319395092
1.319431285
1.31907808
1.317834931
1.315877431
1.313908746
1.311729139
1.308951026
1.305288665
1.300758962
1.295388647
1.289959364
1.285820697
1.282343543
1.279057847
1.27579266
1.27387598
1.272442666
1.271032589
1.26953179
1.268287787
1.267443598
1.267031932
1.266625548
1.265919341
1.264842703
1.263410475
1.261519009
1.259605706
1.257717896
1.255861081
1.251614018
1.32691195
1.327411544
1.327064626
1.325409328
1.32240995
1.31925796
1.316197432
1.313012018
1.309426639
1.305128017
1.300143332
1.295187574
1.291446401
1.28864159
1.285466741
1.282308199
1.280258275
1.278614288
1.276972345
1.275377539
1.274025572
1.272914442
1.271874185
1.270688864
1.269258479
1.26762615
1.265779257
1.263700098
1.261523116
1.259445564
1.257654701
1.254650368
1.331079452
1.331323741
1.330941367
1.329436779
1.326420685
1.323087784
1.319818415
1.316477292
1.313019921
1.308863918
1.303804998
1.298596768
1.294874165
1.292088443
1.289231253
1.287457111
1.286212508
1.284744353
1.282932254
1.280773099
1.27843611
1.276343911
1.274638234
1.272996488
1.271225789
1.269379942
1.267378305
1.265168696
1.262663579
1.260285903
1.258276091
1.255787612
1.330672625
1.330725509
1.330662621
1.329854895
1.328031715
1.326228645
1.324139669
1.321197697
1.317422456
1.312636288
1.306637622
1.300307885
1.29572137
1.292441147
1.289895513
1.288728205
1.288181655
1.287358276
1.285988272
1.283865142
1.280977245
1.278152027
1.276231856
1.274713757
1.273095894
1.271314194
1.269440031
1.267385812
1.264857615
1.262344026
1.260261671
1.257726168
1.328897539
1.329071331
1.32941393
1.329398998
1.329309297
1.329056555
1.327865664
1.325234014
1.32134246
1.316120562
1.309292928
1.301586123
1.295705635
1.292262687
1.289667202
1.288403071
1.288074332
1.287788897
1.286982296
1.285466074
1.283135524
1.280546506
1.278501403
1.276919247
1.275406429
1.273830444
1.272444869
1.270948678
1.269033193
1.266713632
1.264891906
1.261545927
1.329015984
1.329519607
1.331475415
1.332452118
1.331915039
1.330633223
1.329114422
1.326415001
1.322743597
1.317766352
1.311571766
1.303845336
1.297704662
1.293871615
1.29060663
1.288698075
1.288032661
1.287650143
1.287039316
1.285997782
1.284372709
1.282527546
1.280841036
1.279256107
1.277614953
1.276049078
1.274757207
1.273412687
1.271776346
1.269646499
1.267760772
1.264002104
1.335324632
1.338069103
1.339836561
1.338507352
1.334716455
1.33088548
1.328228113
1.325768417
1.322366772
1.3181907
1.313647999
1.307823757
1.302178503
1.29797941
1.294222965
1.290968354
1.288608351
1.287518795
1.286780455
1.285739193
1.284511789
1.28329495
1.282152426
1.280776954
1.278975303
1.277141235
1.275639243
1.274350052
1.272800524
1.270884498
1.26889272
1.265106703
1.342616661
1.345646217
1.344747724
1.341742643
1.335084686
1.329366452
1.327368193
1.325453635
1.322375752
1.319237722
1.315808784
1.310470622
1.304938942
1.300639206
1.296872432
1.293435953
1.290261104
1.288220034
1.286943674
1.285695184
1.284697736
1.283824507
1.282968843
1.281851278
1.2801503
1.2780375
1.276199337
1.274789058
1.273185116
1.271184587
1.268975518
1.265474094
1.345351182
1.347559538
1.346064478
1.341830275
1.334983501
1.32978359
1.328946797
1.328858254
1.326968138
1.323340134
1.318203361
1.311605004
1.305632105
1.301358221
1.298045499
1.295369877
1.292859922
1.290796613
1.289058757
1.287631626
1.286243458
1.284927671
1.283617109
1.282294923
1.280464964
1.278455965
1.27656809
1.275053588
1.273408661
1.271388736
1.269227568
1.266191062
1.339392063
1.338000965
1.339672166
1.340928376
1.338306133
1.336484058
1.33668757
1.336259997
1.333611045
1.327643654
1.319514012
1.310336509
1.304383053
1.301142689
1.298605148
1.296972038
1.295540254
1.294296171
1.292907305
1.290876349
1.28849973
1.286120148
1.284018408
1.282042087
1.279982016
1.277989572
1.276712082
1.275762869
1.274512894
1.27278137
1.271000117
1.268136575
1.321453092
1.325041261
1.338756221
1.345668892
1.342934552
1.340517675
1.339319109
1.338114342
1.335131077
1.328694502
1.320432749
1.310639768
1.30461529
1.301970172
1.300065627
1.298794183
1.297176749
1.295717995
1.294107747
1.29184174
1.289418957
1.286987
1.284626715
1.282237042
1.279665845
1.278199743
1.277709266
1.277607945
1.277012158
1.275798925
1.274311844
1.270937432
1.296671864
1.319687435
1.35233275
1.350414044
1.343881235
1.340331196
1.338711633
1.336430992
1.333229909
1.329004495
1.322735444
1.314799451
1.309478388
1.307171657
1.304829156
1.301615099
1.297808543
1.295340334
1.293688544
1.291811364
1.289736248
1.287847103
1.286124293
1.284075649
1.282033714
1.280758902
1.280207777
1.279839404
1.27915523
1.277931821
1.27619664
1.272413858
1.110606687
1.26135605
1.338920569
1.334264766
1.33356122
1.330968866
1.326730173
1.327742741
1.330469725
1.330327897
1.327091266
1.321725755
1.317458022
1.313943141
1.30969076
1.304089072
1.297793918
1.294461163
1.293027568
1.291375146
1.289648291
1.288964974
1.288356075
1.287176707
1.285477168
1.283661727
1.282146936
1.280870137
1.279638331
1.278116295
1.276274696
1.273090734
0.8451763553
0.9895925857
1.173416547
1.242605359
1.308597468
1.325880555
1.321200984
1.327797682
1.334827154
1.333557153
1.328308518
1.323160727
1.319358458
1.315841274
1.311197949
1.305541475
1.298600064
1.294503609
1.29338141
1.291654866
1.290330103
1.289768682
1.289371302
1.288596047
1.287013887
1.284808632
1.282751585
1.280795296
1.279282148
1.277714863
1.275995992
1.273724422
0.7671340062
0.7954120922
0.8885013747
1.072136524
1.248085145
1.313832972
1.323192461
1.342324795
1.340998937
1.334406487
1.3253572
1.317479314
1.313670685
1.312466574
1.310790892
1.307488445
1.302028929
1.298744802
1.297249259
1.295393939
1.292464082
1.290079774
1.289212324
1.288430345
1.286944763
1.284782158
1.282741884
1.280611509
1.278678276
1.276883783
1.275774083
1.273965741
0.7711791233
0.7725610545
0.7780775756
0.8292458649
0.9536295041
1.125622608
1.257766249
1.330971517
1.326750688
1.322285804
1.316756787
1.308716407
1.308119721
1.31027729
1.312372271
1.3110255
1.306650232
1.303218643
1.301118133
1.298134471
1.293983247
1.289534955
1.287547882
1.286813733
1.285690213
1.284239378
1.282780191
1.281285123
1.279250682
1.277743806
1.276447361
1.27385516
0.7846443653
0.7811843247
0.777621582
0.7780426663
0.792694121
0.8703034544
1.00721347
1.176883338
1.237760294
1.29411257
1.319887768
1.31092183
1.312594865
1.316428174
1.316720075
1.313464264
1.307960018
1.303643965
1.300514259
1.297317679
1.293502615
1.289411732
1.286811833
1.285962193
1.284869453
1.284251524
1.283577094
1.282761425
1.281275862
1.279226443
1.277168916
1.273480374
0.7991279405
0.7947508951
0.7895778904
0.780917218
0.7810835716
0.7852875027
0.8148084409
0.9031277064
1.074802904
1.235225987
1.300812548
1.307812076
1.325332511
1.325557634
1.319790852
1.3113267
1.302550726
1.296688607
1.294451581
1.294464331
1.293565706
1.291764569
1.290506842
1.289458299
1.287482276
1.285224405
1.284120648
1.28347828
1.282200001
1.280032426
1.277378561
1.272769399
0.8109463041
0.8080910428
0.8037861004
0.7961430787
0.7897616766
0.7885948908
0.7869569732
0.7916975586
0.843033352
0.9626058653
1.122380012
1.23593098
1.314590004
1.312276505
1.304529964
1.30378769
1.297193305
1.29315526
1.294207483
1.295931977
1.296715234
1.296115435
1.294977198
1.293020621
1.289669345
1.285796528
1.283288283
1.282190956
1.281131105
1.279275884
1.276969106
1.272361332
0.8246159111
0.8212761571
0.8173957766
0.8107735214
0.8034411102
0.7981309688
0.793603519
0.7878613287
0.7883944804
0.8057021662
0.8878349073
1.024312304
1.173743874
1.224619768
1.273394065
1.308485926
1.300975046
1.300399313
1.303129158
1.302408671
1.299690959
1.297449702
1.295289315
1.292856421
1.289212239
1.284441754
1.280592047
1.279377208
1.27909558
1.278204301
1.27666694
1.273647345
0.8371049445
0.833415752
0.8301047326
0.823997454
0.817302387
0.8127004829
0.8066994206
0.7983631294
0.7889140201
0.7894114437
0.7945264892
0.8275891337
0.911369431
1.067053772
1.215842993
1.28521091
1.292735483
1.307210001
1.310868689
1.305386463
1.297311318
1.292580204
1.288870927
1.287402011
1.286259153
1.283429364
1.280111314
1.279417705
1.279272704
1.278845855
1.277888684
1.274512854
0.8502321825
0.8464136056
0.8423591719
0.8362815944
0.8287775082
0.8243650892
0.8195542002
0.8129112402
0.8028403411
0.7972475378
0.79650444
0.794212966
0.7994086251
0.8488655146
0.9565500514
1.102276886
1.208986196
1.293051318
1.299437866
1.286060544
1.287347505
1.284772979
1.283004128
1.284970341
1.28692732
1.286116455
1.284334053
1.283854015
1.283403277
1.282257656
1.279431992
1.273977016
0.8635791854
0.8595076393
0.8557191853
0.8496124501
0.841752569
0.8363991195
0.8319821637
0.8259154983
0.8173354633
0.810037153
0.8056667355
0.8008973585
0.7942218757
0.7950133103
0.8110246918
0.8843598965
1.018469441
1.150473488
1.216616991
1.253011959
1.290942829
1.28619637
1.285981954
1.29060135
1.292048059
1.290405256
1.289163716
1.288168533
1.286643726
1.283861424
1.278945588
1.271213214
0.8761896739
0.8718241187
0.8678408762
0.8615951398
0.8533831747
0.8479276552
0.8431058441
0.8382274018
0.8292452993
0.822756868
0.8182299064
0.8129761853
0.8027930155
0.796582493
0.7976715753
0.8024400561
0.832449566
0.9082158208
1.043264546
1.188988837
1.270471713
1.276752736
1.290582714
1.299241867
1.294540612
1.289676261
1.288679803
1.288192597
1.287078213
1.28430779
1.278707531
1.270611147
0.8906902677
0.8858756622
0.8815333833
0.8751238619
0.8658533151
0.8595750114
0.8544646907
0.8489467465
0.8403164201
0.8334472395
0.8295924358
0.8252245847
0.8178737885
0.8077850882
0.804307813
0.8042077166
0.8022881696
0.8068846177
0.8444545291
0.9386918195
1.072963576
1.176307282
1.267873623
1.290997684
1.276251293
1.277432134
1.278115642
1.278962639
1.282322499
1.282748905
1.280368407
1.274563452
0.9035890473
0.8983910813
0.8941115832
0.8877871577
0.8783976702
0.8719874702
0.8669828479
0.8616496737
0.8525290669
0.8440958821
0.8399492268
0.8363143179
0.830132666
0.8217965054
0.8161448423
0.8128421754
0.8078838862
0.8032687553
0.8041267818
)
;

boundaryField
{
    inlet
    {
        type            calculated;
        value           nonuniform 0();
    }
    outlet
    {
        type            calculated;
        value           nonuniform List<scalar> 
68
(
1.217974967
1.227193681
1.234867104
1.243515551
1.251628413
1.254669041
1.255797618
1.257725015
1.261554032
1.264032511
1.265142732
1.265503015
1.266209176
1.268145822
1.270952276
1.272440103
1.273114344
1.273739742
1.273977226
1.273868038
1.273496574
1.272794406
1.272394936
1.273671504
1.274526173
1.273984438
1.271233603
1.270661065
1.274643848
1.226994212
1.227983249
1.229763717
1.230673345
1.230990521
1.230985999
1.230856638
1.229385832
1.22753501
1.2264451
1.226166652
1.226151524
1.227186639
1.228326013
1.228398587
1.228315297
1.227188359
1.224499822
1.221983713
1.220721784
1.220772545
1.221284822
1.222478327
1.223739934
1.224530282
1.22503528
1.22392694
1.221659328
1.218975213
1.216879217
1.215389845
1.214246851
1.213989998
1.214074845
1.215106783
1.215529713
1.215105293
1.213782327
1.213445023
)
;
    }
    bottom
    {
        type            calculated;
        value           nonuniform 0();
    }
    top
    {
        type            calculated;
        value           nonuniform 0();
    }
    obstacle
    {
        type            calculated;
        value           nonuniform 0();
    }
    defaultFaces
    {
        type            empty;
    }
    procBoundary29to23
    {
        type            processor;
        value           nonuniform List<scalar> 
35
(
1.301908761
1.300613226
1.298263726
1.295361395
1.29163052
1.285887024
1.278450036
1.273053208
1.270637451
1.267036425
1.264153
1.262307115
1.261641717
1.260417664
1.259139757
1.258298217
1.255845732
1.252045518
1.247080809
1.242192048
1.239924565
1.239099675
1.238840547
1.239646677
1.24027909
1.238962914
1.237329445
1.234854874
1.231622041
1.2291862
1.226914919
1.299206897
1.301178478
1.301932186
1.301932186
)
;
    }
    procBoundary29to28
    {
        type            processor;
        value           nonuniform List<scalar> 
69
(
1.297269998
1.297673243
1.297847326
1.297461093
1.297677112
1.297097782
1.296556461
1.296556461
1.296513143
1.297098819
1.296957368
1.296613794
1.296213213
1.295585491
1.295553705
1.295146566
1.29499378
1.295065172
1.296105332
1.296003295
1.296224353
1.296491571
1.296752411
1.292927574
1.292927574
1.293057072
1.292978382
1.293028384
1.29288297
1.291907537
1.291301807
1.290659718
1.288965143
1.286087381
1.281998582
1.278215902
1.275279803
1.274385941
1.274123939
1.27455238
1.280066536
1.290066108
1.302032862
1.312132532
1.319314407
1.325349135
1.329914454
1.331127495
1.330008764
1.329298979
1.333206314
1.339774959
1.343098196
1.336060577
1.310120863
1.245042358