/*--------------------------------*- C++ -*----------------------------------*\
  =========                 |
  \\      /  F ield         | OpenFOAM: The Open Source CFD Toolbox
   \\    /   O peration     | Website:  https://openfoam.org
    \\  /    A nd           | Version:  7
     \\/     M anipulation  |
\*---------------------------------------------------------------------------*/
FoamFile
{
    version     2.0;
    format      ascii;
    class       volScalarField;
    location    "2.7";
    object      T;
}
// * * * * * * * * * * * * * * * * * * * * * * * * * * * * * * * * * * * * * //

dimensions      [0 0 0 1 0 0 0];

internalField   nonuniform List<scalar> 
558
(
1.107950085
1.11333731
1.113293978
1.113726667
1.112263114
1.107592844
1.099519254
1.088596503
1
1
1.000000002
1.000000085
1.000003525
1.000071881
1.000766476
1.005807891
1.021193863
1.05544427
1.090563089
1.102615319
1.109384804
1.113602294
1.11356175
1.111714057
1.106777806
1.098693396
1
1
1
1.000000002
1.00000016
1.000004464
1.000080049
1.000905861
1.005448619
1.023455722
1.054293167
1.084129544
1.107144621
1.112058856
1.112315513
1.112791096
1.111047425
1.106085528
1
1
1
1
1.000000005
1.000000185
1.000005797
1.000090214
1.000903623
1.006056052
1.02187264
1.055656695
1.089225085
1.101488132
1.109066496
1.113037167
1.112805794
1.110485029
1
1
1
1
1
1.000000006
1.000000281
1.000006138
1.00009885
1.000985936
1.005794067
1.023765417
1.054326521
1.083908659
1.106752324
1.111711208
1.111593765
1.11177666
1
1
1
1
1
1
1.00000001
1.000000276
1.000007641
1.000102905
1.001014456
1.006241358
1.022609205
1.055830448
1.088895084
1.10106621
1.108566824
1.112254618
1
1
1
1
1
1
1
1.000000009
1.000000388
1.000007469
1.000114469
1.001057772
1.006083798
1.024137223
1.054586999
1.083975084
1.106220356
1.110909701
1
1
1
1
1
1
1
1
1.000000014
1.000000349
1.000009012
1.000112138
1.001080841
1.006365442
1.02297898
1.055816019
1.088825221
1.100501292
1
1
1
1
1
1
1
1
1
1.000000011
1.000000456
1.000008194
1.000121678
1.001087695
1.006179409
1.024283639
1.054766756
1.083797027
1
1
1
1
1
1
1
1
1
1
1.000000016
1.000000389
1.000009649
1.000116437
1.001103722
1.006424848
1.023114701
1.05571413
1
1
1
1
1
1
1
1
1
1
1
1.000000013
1.000000506
1.000008728
1.000125589
1.00110398
1.006195771
1.024407959
1
1
1
1
1
1
1
1
1
1
1
1
1.000000019
1.000000434
1.000010186
1.000120505
1.001107554
1.006530479
1
1
1
1
1
1
1
1
1
1
1
1
1
1.000000015
1.00000056
1.000009378
1.000129001
1.001135424
1
1
1
1
1
1
1
1
1
1
1
1
1
1
1.000000022
1.000000494
1.000010852
1.000127918
1
1
1
1
1
1
1
1
1
1
1
1
1
1
1.000000001
1.000000018
1.000000624
1.000010318
1
1
1
1
1
1
1
1
1
1
1
1
1
1
1
1
1.000000026
1.000000562
1
1
1
1
1
1
1
1
1
1
1
1
1
1
1
1
1.000000001
1.000000021
1
1
1
1
1
1
1
1
1
1
1
1
1
1
1
1
1
1.000000001
1
1
1
1
1
1
1
1
1
1
1
1
1
1
1
1
1
1
1
1
1
1
1
1
1
1
1
1
1
1
1
1
1
1
1
1
1
1
1
1
1
1
1
1
1
1
1
1
1
1
1
1
1
1
1
1
1
1
1
1
1
1
1
1
1
1
1
1
1
1
1
1
1
1
1
1
1
1
1
1
1
1
1
1
1
1
1
1
1
1
1
1
1
1
1
1
1
1
1
1
1
1
1
1
1
1
1
1
1
1
1
1
1
1
1
1
1
1
1
1
1
1
1
1
1
1
1
1
1
1
1
1
1
1
1
1
1
1
1
1
1
1
1
1
1
1
1
1
1
1
1
1
1
1
1
1
1
1
1
1
1
1
1
1
1
1
1
1
1
1
1
1
1
1
1
1
1
1
1
1
1
1
1
1
1
1
1
1
1
1
1
1
1
1
1
1
1
1
1
1
1
1
1
1
1
1
1
1
1
1
1
1
1
1
1
1
1
1
1
1
1
1
1
1
1
1
1
1
1
1
1
1
1
1
1
1
1
1
1
1
1
1
1
1
)
;

boundaryField
{
    inlet
    {
        type            fixedValue;
        value           nonuniform 0();
    }
    outlet
    {
        type            inletOutlet;
        inletValue      nonuniform 0();
        value           nonuniform 0();
    }
    bottom
    {
        type            slip;
    }
    top
    {
        type            slip;
    }
    obstacle
    {
        type            zeroGradient;
    }
    defaultFaces
    {
        type            empty;
    }
    procBoundary33to26
    {
        type            processor;
        value           nonuniform List<scalar> 
13
(
1
1
1
1
1
1
1
1
1
1
1
1
1
)
;
    }
    procBoundary33to27
    {
        type            processor;
        value           nonuniform List<scalar> 
19
(
1.110275683
1.114811645
1.114810184
1.113235809
1.10857321
1.100525194
1.089331251
1.076854466
1
1
1.000000055
1.000002537
1.000055591
1.000779679
1.004924387
1.022877088
1.053879351
1.084105424
1.084105424
)
;
    }
    procBoundary33to32
    {
        type            processor;
        value           nonuniform List<scalar> 
17
(
1
1
1
1
1
1
1
1
1
1
1
1
1
1
1
1
1
)
;
    }
    procBoundary33to34
    {
        type            processor;
        value           nonuniform List<scalar> 
32
(
1.07657241
1.088036766
1.097663172
1.105187049
1.109849235
1.111868336
1.110638769
1.107723326
1.105520244
1.088948026
1.054923672
1.02308537
1.006212368
1.001115827
1.000133336
1.000011512
1.000000678
1.000000028
1.000000001
1
1
1
1
1
1
1
1
1
1
1
1
1
)
;
    }
}


// ************************************************************************* //
