/*--------------------------------*- C++ -*----------------------------------*\
  =========                 |
  \\      /  F ield         | OpenFOAM: The Open Source CFD Toolbox
   \\    /   O peration     | Website:  https://openfoam.org
    \\  /    A nd           | Version:  7
     \\/     M anipulation  |
\*---------------------------------------------------------------------------*/
FoamFile
{
    version     2.0;
    format      ascii;
    class       volVectorField;
    location    "3.7";
    object      U;
}
// * * * * * * * * * * * * * * * * * * * * * * * * * * * * * * * * * * * * * //

dimensions      [0 1 -1 0 0 0 0];

internalField   nonuniform List<vector> 
2222
(
(3 -5.415545095e-15 0)
(3 -5.670897148e-15 0)
(3 -4.512540233e-15 0)
(3 -1.788340501e-15 0)
(3 -1.375553709e-16 0)
(3 1.625917117e-16 0)
(3 1.758948072e-15 0)
(3 5.870943728e-15 0)
(3 2.338057725e-15 0)
(3 -1.24407642e-15 0)
(3 -2.525557126e-15 0)
(3 -4.3757242e-15 0)
(3 -3.92933291e-15 0)
(3 -3.525343351e-15 0)
(3 -4.401618874e-15 0)
(3 -1.824458522e-15 0)
(3 1.157072628e-15 0)
(3 2.330159954e-15 0)
(3 5.191689688e-15 0)
(3 6.211828444e-15 0)
(3 8.819610588e-15 0)
(3 8.44061013e-15 0)
(3 9.715194372e-15 0)
(3 8.993765059e-16 0)
(3 8.23434927e-16 0)
(3 8.539625645e-16 0)
(3 -3.523297474e-16 0)
(3 -3.893953268e-16 0)
(3 6.890868963e-16 0)
(3 6.818674347e-16 0)
(3 5.06500124e-16 0)
(3 1.477617136e-15 0)
(3 9.15858072e-16 0)
(3 2.013974471e-15 0)
(3 1.694292822e-15 0)
(3 5.303077733e-15 0)
(3 8.340092769e-15 0)
(3 9.132192554e-15 0)
(3 8.808101332e-15 0)
(3 6.944562712e-15 0)
(3 4.567737302e-15 0)
(3 3.708247261e-15 0)
(3 4.220059934e-15 0)
(3 3.956039463e-15 0)
(3 2.884071602e-15 0)
(3 3.198797266e-15 0)
(3 3.353368962e-15 0)
(3 3.452059106e-15 0)
(3 3.616991257e-15 0)
(3 5.661744213e-15 0)
(3 7.189881526e-15 0)
(3 5.035678676e-15 0)
(3 5.633201418e-15 0)
(3 1.844401431e-15 0)
(3 -1.609502439e-15 0)
(3 -3.52308004e-15 0)
(3 -5.124299677e-15 0)
(3 -6.027394227e-15 0)
(3 -6.174300183e-15 0)
(3 -5.898930808e-15 0)
(3 -6.58555518e-15 0)
(3 -8.771773354e-15 0)
(3 -1.026320337e-14 0)
(3 -8.232415644e-15 0)
(3 -8.329426804e-15 0)
(3 -9.279659225e-15 0)
(3 -1.023769905e-14 0)
(3 -1.365005085e-14 0)
(3 -1.275419214e-14 0)
(3 -1.222082525e-14 0)
(3 -1.012763958e-14 0)
(3 -8.629278734e-15 0)
(3 -4.875471652e-15 0)
(3 3.970063296e-15 0)
(3 6.841735683e-15 0)
(3 4.638241765e-15 0)
(3 3.763756597e-15 0)
(3 2.938785001e-15 0)
(3 1.758828029e-15 0)
(3 -5.851751944e-16 0)
(3 -7.176445432e-16 0)
(3 -8.628958073e-16 0)
(3 -7.450722236e-16 0)
(3 2.590652467e-15 0)
(3 5.56913946e-15 0)
(3 3.681478989e-15 0)
(3 4.096149591e-15 0)
(3 3.953850488e-15 0)
(3 2.660331484e-15 0)
(3 -1.470553856e-15 0)
(3 -1.712125676e-15 0)
(3 -2.938633165e-15 0)
(3 -3.829067336e-15 0)
(3 -2.621743249e-15 0)
(3 -2.648413184e-16 0)
(3 1.267447178e-15 0)
(3 1.365725794e-15 0)
(3 1.67003279e-15 0)
(3 2.287635912e-15 0)
(3 2.587920051e-15 0)
(3 8.836369261e-16 0)
(3 3.122446863e-15 0)
(3 2.880226931e-15 0)
(3 1.131194303e-15 0)
(3 -4.692001064e-15 0)
(3 -8.385186921e-15 0)
(3 -7.633115286e-15 0)
(3 -4.828378747e-15 0)
(3 -1.596257352e-15 0)
(3 7.604804022e-16 0)
(3 3.86216657e-15 0)
(3 6.24746523e-15 0)
(3 1.063062132e-14 0)
(3 1.391603534e-14 0)
(3 1.410000802e-14 0)
(3 1.251496042e-14 0)
(3 8.932093838e-15 0)
(3 5.407986784e-15 0)
(3 9.541330559e-16 0)
(3 -1.641061147e-15 0)
(3 -4.961674026e-15 0)
(3 -5.808483271e-15 0)
(3 -5.699393128e-15 0)
(3 -4.55550382e-15 0)
(3 -1.828221226e-15 0)
(3 -2.962562055e-16 0)
(3 4.486179253e-16 0)
(3 -2.802224622e-16 0)
(3 -1.267855403e-15 0)
(3 -3.039167135e-15 0)
(3 -4.735204172e-15 0)
(3 -8.966477161e-15 0)
(3 -1.434864885e-14 0)
(3 -1.390526264e-14 0)
(3 -1.153630013e-14 0)
(3 -1.09387265e-14 0)
(3 -1.122502319e-14 0)
(3 -9.757421431e-15 0)
(3 -6.446955445e-15 0)
(3 -5.751443405e-15 0)
(3 3.647310124e-16 0)
(3 5.09289007e-15 0)
(3 6.187420966e-15 0)
(3 6.085296841e-15 0)
(3 4.953852799e-15 0)
(3 2.674331505e-15 0)
(3 -7.271487434e-16 0)
(3 -1.249407618e-15 0)
(3 2.134898271e-15 0)
(3 4.417803291e-15 0)
(3 4.13363629e-15 0)
(3 3.317135327e-15 0)
(3 -3.997798935e-15 0)
(3 -5.050964619e-15 0)
(3 -6.935125769e-15 0)
(3 -9.686019998e-15 0)
(3 -1.149091962e-14 0)
(3 -8.894144772e-16 0)
(3 -1.839586002e-15 0)
(3 -1.385444153e-15 0)
(3 -1.343117803e-15 0)
(3 -6.463878946e-16 0)
(3 -8.644806913e-16 0)
(3 -1.991669137e-15 0)
(3 -2.299274896e-15 0)
(3 -6.153255433e-16 0)
(3 1.687473066e-16 0)
(3 -2.013258475e-15 0)
(3 -2.223719213e-15 0)
(3 -3.761510182e-15 0)
(3 -8.955674491e-15 0)
(3 -1.364445865e-14 0)
(3 -1.333118011e-14 0)
(3 -1.10678537e-14 0)
(3 -8.959910748e-15 0)
(3 -5.140312992e-15 0)
(3 -9.83411165e-16 0)
(3 2.673860295e-15 0)
(3 6.571036838e-15 0)
(3 1.137750452e-14 0)
(3 1.135081483e-14 0)
(3 8.741394337e-15 0)
(3 7.818292346e-15 0)
(3 3.445723876e-15 0)
(3 4.881972706e-16 0)
(3 -4.110424827e-16 0)
(3 -2.663323997e-15 0)
(3 -2.613043973e-15 0)
(3 -1.762604676e-15 0)
(3 -5.290726013e-16 0)
(3 1.18141032e-15 0)
(3 1.4075575e-15 0)
(3 1.832297129e-15 0)
(3 6.594697152e-16 0)
(3 6.275224842e-16 0)
(3 3.311709908e-15 0)
(3 2.946308835e-15 0)
(3 1.355667523e-15 0)
(3 -9.448905511e-16 0)
(3 -4.305285531e-15 0)
(3 -6.468799484e-15 0)
(3 -3.510383227e-15 0)
(3 -3.461835214e-15 0)
(3 -4.596408095e-15 0)
(3 -3.916540895e-15 0)
(3 -1.176664494e-15 0)
(3 2.042847144e-15 0)
(3 3.972807002e-15 0)
(3 3.744067563e-15 0)
(3 5.206658904e-15 0)
(3 6.279127655e-15 0)
(3 5.653250934e-15 0)
(3 2.820010145e-15 0)
(3 2.514048844e-16 0)
(3 -1.457552976e-16 0)
(3 1.703409854e-15 0)
(3 2.466643894e-15 0)
(3 2.159564884e-15 0)
(3 -1.171001611e-15 0)
(3 -9.033834809e-15 0)
(3 -1.067561993e-14 0)
(3 -1.496987808e-14 0)
(3 -1.968240158e-14 0)
(3 -1.984256229e-14 0)
(3 1.05756715e-16 0)
(3 -2.01366973e-16 0)
(3 -7.927981132e-17 0)
(3 -1.452349335e-15 0)
(3 -2.753267791e-15 0)
(3 -3.975344742e-15 0)
(3 -2.537581118e-15 0)
(3 -1.241138561e-15 0)
(3 -3.25117335e-16 0)
(3 -6.193664224e-16 0)
(3 -1.958175474e-15 0)
(3 -3.834978236e-15 0)
(3 -3.432343175e-15 0)
(3 -5.834366217e-15 0)
(3 -8.201922677e-15 0)
(3 -9.288205462e-15 0)
(3 -8.397519247e-15 0)
(3 -6.529815268e-15 0)
(3 -3.37310775e-15 0)
(3 -7.481247368e-16 0)
(3 -1.204208305e-15 0)
(3 -4.382662295e-16 0)
(3 -1.050522894e-15 0)
(3 -3.445216602e-15 0)
(3 -4.904644111e-15 0)
(3 -3.438116508e-15 0)
(3 -4.693324447e-15 0)
(3 -2.789962088e-15 0)
(3 -9.571168525e-16 0)
(3 1.584620725e-15 0)
(3 7.171205674e-15 0)
(3 7.992115367e-15 0)
(3 7.803658564e-15 0)
(3 4.91570599e-15 0)
(3 3.233789608e-15 0)
(3 3.064327611e-15 0)
(3 3.707347212e-15 0)
(3 3.929520955e-15 0)
(3 2.066771431e-15 0)
(3 -3.561778478e-15 0)
(3 -9.61072608e-15 0)
(3 -1.073827541e-14 0)
(3 -8.165661182e-15 0)
(3 -6.355260122e-15 0)
(3 -6.428759996e-15 0)
(3 -5.014656504e-15 0)
(3 -5.621040879e-15 0)
(3 -2.85633041e-15 0)
(3 1.585322846e-15 0)
(3 8.483534321e-15 0)
(3 9.433812703e-15 0)
(3 1.09849278e-14 0)
(3 1.037392625e-14 0)
(3 1.121710149e-14 0)
(3 1.275353664e-14 0)
(3 1.200242308e-14 0)
(3 9.859263273e-15 0)
(3 6.797029346e-15 0)
(3 3.633166602e-15 0)
(3 -6.622143396e-16 0)
(3 -5.190670638e-15 0)
(3 -6.387127882e-15 0)
(3 -8.637296095e-15 0)
(3 -1.312004992e-14 0)
(3 -1.523410202e-14 0)
(3 -1.893440029e-14 0)
(3 -2.489844892e-14 0)
(3 5.163616311e-16 0)
(3 1.414667973e-15 0)
(3 1.706517417e-15 0)
(3 -1.935561514e-16 0)
(3 -1.519859738e-15 0)
(3 -7.17404833e-16 0)
(3 -4.215461239e-16 0)
(3 -8.463783985e-16 0)
(3 -2.357679863e-15 0)
(3 -5.344494449e-15 0)
(3 -7.677320715e-15 0)
(3 -8.525637031e-15 0)
(3 -6.70731578e-15 0)
(3 -5.725895405e-15 0)
(3 -5.420318293e-15 0)
(3 -2.933242882e-15 0)
(3 -2.460414309e-15 0)
(3 -8.545081448e-16 0)
(3 -1.897519773e-15 0)
(3 -4.668596125e-15 0)
(3 -6.561975525e-15 0)
(3 -8.806536789e-15 0)
(3 -9.623777918e-15 0)
(3 -9.232096434e-15 0)
(3 -8.601743951e-15 0)
(3 -7.863495013e-15 0)
(3 -7.12262907e-15 0)
(3 -4.583225907e-15 0)
(3 -1.806604991e-15 0)
(3 1.828342285e-15 0)
(3 3.044053515e-15 0)
(3 5.545711641e-15 0)
(3 5.954533071e-15 0)
(3 6.290926171e-15 0)
(3 6.579918313e-15 0)
(3 6.489861404e-15 0)
(3 6.276765138e-15 0)
(3 5.181421992e-15 0)
(3 2.270920341e-15 0)
(3 -3.787318433e-15 0)
(3 -4.594908265e-15 0)
(3 -4.464888766e-15 0)
(3 -1.348780244e-15 0)
(3 -5.04859915e-16 0)
(3 -1.037668331e-16 0)
(3 1.658322427e-15 0)
(3 4.963816474e-15 0)
(3 8.261902657e-15 0)
(3 1.013342933e-14 0)
(3 9.102325508e-15 0)
(3 9.739658462e-15 0)
(3 1.065205938e-14 0)
(3 7.381752687e-15 0)
(3 5.396690084e-15 0)
(3 5.341207606e-15 0)
(3 8.933472871e-15 0)
(3 1.019599823e-14 0)
(3 1.136618546e-15 0)
(3 -7.489409204e-15 0)
(3 -4.328993694e-15 0)
(3 -3.953928656e-15 0)
(3 -5.022584509e-15 0)
(3 -8.840564985e-15 0)
(3 -1.512728729e-14 0)
(3 -1.887260104e-14 0)
(3 -1.909027988e-14 0)
(3 -2.218131278e-14 0)
(3 1.345347265e-15 0)
(3 1.802194911e-15 0)
(3 3.126287884e-16 0)
(3 -3.677227919e-16 0)
(3 -7.274863575e-16 0)
(3 1.843471099e-15 0)
(3 1.778218322e-15 0)
(3 9.793194151e-17 0)
(3 -2.777679517e-15 0)
(3 -4.323001595e-15 0)
(3 -5.091520981e-15 0)
(3 -4.598036545e-15 0)
(3 -4.815819611e-15 0)
(3 -2.940266565e-15 0)
(3 -1.364727941e-15 0)
(3 -6.62628553e-16 0)
(3 -8.205962864e-16 0)
(3 -1.841878831e-15 0)
(3 -3.782559042e-15 0)
(3 -4.818066398e-15 0)
(3 -4.244192153e-15 0)
(3 -2.647696751e-15 0)
(3 -1.432427959e-15 0)
(3 -9.825698499e-16 0)
(3 -1.143475588e-15 0)
(3 -9.80595544e-16 0)
(3 6.195863963e-16 0)
(3 2.496049258e-15 0)
(3 1.940915535e-15 0)
(3 1.919745519e-15 0)
(3 3.778877976e-15 0)
(3 5.284528249e-15 0)
(3 7.764265899e-15 0)
(3 8.703722555e-15 0)
(3 7.726831912e-15 0)
(3 1.063367368e-14 0)
(3 1.241237216e-14 0)
(3 1.130743832e-14 0)
(3 8.037895276e-15 0)
(3 8.631069439e-15 0)
(3 8.0665644e-15 0)
(3 7.750438532e-15 0)
(3 7.858492743e-15 0)
(3 8.088327581e-15 0)
(3 8.605626601e-15 0)
(3 8.787148811e-15 0)
(3 1.114402461e-14 0)
(3 1.38409564e-14 0)
(3 1.367997413e-14 0)
(3 1.044046158e-14 0)
(3 4.835964659e-15 0)
(3 2.705418453e-15 0)
(3 2.756994365e-16 0)
(3 -6.004919613e-17 0)
(3 -1.696558162e-15 0)
(3 -2.332392424e-15 0)
(3 -4.352970632e-15 0)
(3 -6.139317888e-15 0)
(3 -6.235568535e-15 0)
(3 -6.832412364e-15 0)
(3 -6.657297966e-15 0)
(3 -7.247175424e-15 0)
(3 -7.780227831e-15 0)
(3 -1.087987702e-14 0)
(3 -1.366525507e-14 0)
(3 -1.843739182e-14 0)
(3 -2.109869214e-14 0)
(3 -3.376323006e-16 0)
(3 -5.091991014e-16 0)
(3 -1.899462108e-15 0)
(3 -4.816808846e-16 0)
(3 5.585606554e-17 0)
(3 -1.497741134e-16 0)
(3 4.774990493e-16 0)
(3 1.731497868e-15 0)
(3 1.197135465e-15 0)
(3 2.377176439e-15 0)
(3 3.015383899e-15 0)
(3 2.428840189e-15 0)
(3 2.085794919e-15 0)
(3 3.275147777e-15 0)
(3 3.694344711e-15 0)
(3 -1.03625838e-15 0)
(3 -4.845607501e-15 0)
(3 -8.373200863e-15 0)
(3 -8.438606979e-15 0)
(3 -7.733833587e-15 0)
(3 -4.115677262e-15 0)
(3 -1.489591811e-15 0)
(3 5.702625354e-16 0)
(3 1.694784405e-15 0)
(3 5.077411543e-17 0)
(3 -1.849577661e-15 0)
(3 -2.717020244e-15 0)
(3 -4.344430421e-15 0)
(3 -7.30938514e-15 0)
(3 -7.725598757e-15 0)
(3 -5.448415741e-15 0)
(3 -3.606509037e-15 0)
(3 1.47142114e-16 0)
(3 2.406330569e-15 0)
(3 8.36140595e-15 0)
(3 1.256877243e-14 0)
(3 1.501872402e-14 0)
(3 1.535405587e-14 0)
(3 1.42703494e-14 0)
(3 1.526263239e-14 0)
(3 1.402836186e-14 0)
(3 1.418715192e-14 0)
(3 1.218400678e-14 0)
(3 1.282721681e-14 0)
(3 1.347395218e-14 0)
(3 1.373337302e-14 0)
(3 1.281675435e-14 0)
(3 1.272752327e-14 0)
(3 1.154936118e-14 0)
(3 1.052448363e-14 0)
(3 9.187809221e-15 0)
(3 6.093707892e-15 0)
(3 4.056669851e-15 0)
(3 3.24618419e-15 0)
(3 1.684792628e-15 0)
(3 -6.266287135e-15 0)
(3 -1.039041997e-14 0)
(3 -7.803052589e-15 0)
(3 -4.563717441e-15 0)
(3 -1.032944894e-14 0)
(3 -1.338189691e-14 0)
(3 -1.288028878e-14 0)
(3 -1.095859681e-14 0)
(3 -6.582738172e-15 0)
(3 -6.623978331e-15 0)
(3 -8.939995202e-15 0)
(3 -9.241184336e-15 0)
(3 -1.505170151e-15 0)
(3 -2.103243284e-15 0)
(3 1.88480379e-15 0)
(3 3.997833988e-15 0)
(3 3.454176545e-15 0)
(3 -3.034874017e-16 0)
(3 -8.114011176e-16 0)
(3 -2.184864232e-17 0)
(3 1.020685714e-15 0)
(3 3.710464723e-15 0)
(3 3.808584506e-15 0)
(3 2.577239742e-15 0)
(3 8.952846344e-16 0)
(3 -4.447505704e-16 0)
(3 -2.568002918e-16 0)
(3 -1.057719404e-15 0)
(3 -3.848801097e-15 0)
(3 -5.861504145e-15 0)
(3 -6.511920769e-15 0)
(3 -9.046313681e-15 0)
(3 -1.06727118e-14 0)
(3 -1.005158159e-14 0)
(3 -7.967386965e-15 0)
(3 -5.608335958e-15 0)
(3 -6.772833008e-15 0)
(3 -1.067463918e-14 0)
(3 -1.67239295e-14 0)
(3 -2.044729984e-14 0)
(3 -1.97795171e-14 0)
(3 -1.800191933e-14 0)
(3 -1.143168331e-14 0)
(3 -8.38105576e-15 0)
(3 -4.66328178e-15 0)
(3 -1.93310694e-15 0)
(3 1.461194043e-15 0)
(3 2.417318936e-15 0)
(3 4.077342961e-15 0)
(3 5.433991184e-15 0)
(3 8.30271969e-15 0)
(3 8.341319019e-15 0)
(3 1.21026587e-14 0)
(3 1.505621366e-14 0)
(3 1.604362702e-14 0)
(3 1.650502694e-14 0)
(3 1.825555172e-14 0)
(3 1.725735389e-14 0)
(3 1.624994686e-14 0)
(3 1.227828584e-14 0)
(3 1.148336509e-14 0)
(3 8.576558347e-15 0)
(3 5.223466566e-15 0)
(3 3.147416248e-15 0)
(3 2.654154133e-15 0)
(3 3.177653443e-15 0)
(3 2.43258553e-15 0)
(3 -3.923802265e-16 0)
(3 -1.873921516e-15 0)
(3 -9.593092903e-16 0)
(3 4.503323636e-16 0)
(3 -1.273945446e-15 0)
(3 -3.289604526e-15 0)
(3 -3.278297278e-15 0)
(3 2.812222833e-18 0)
(3 3.390604696e-15 0)
(3 5.63592223e-15 0)
(3 4.605242329e-15 0)
(3 3.929392462e-15 0)
(3 4.895549968e-17 0)
(3 1.031727915e-15 0)
(3 2.524165327e-15 0)
(3 1.618449429e-15 0)
(3 9.017706213e-16 0)
(3 2.57477134e-16 0)
(3 1.009867791e-15 0)
(3 4.892612266e-16 0)
(3 7.639731432e-16 0)
(3 2.315094118e-15 0)
(3 4.192177828e-15 0)
(3 1.794490275e-15 0)
(3 -1.291764326e-15 0)
(3 -4.068121027e-15 0)
(3 -3.730666304e-15 0)
(3 -3.420921719e-15 0)
(3 -4.424845025e-15 0)
(3 -2.923464227e-15 0)
(3 -4.191338406e-15 0)
(3 -1.617986515e-15 0)
(3 -3.279199321e-15 0)
(3 -3.401260162e-15 0)
(3 -7.273475964e-15 0)
(3 -1.001696327e-14 0)
(3 -1.290893581e-14 0)
(3 -1.426806067e-14 0)
(3 -1.771799608e-14 0)
(3 -1.740297246e-14 0)
(3 -1.21942327e-14 0)
(3 -9.343706479e-15 0)
(3 -1.025244869e-14 0)
(3 -8.522422787e-15 0)
(3 -5.044276828e-15 0)
(3 1.058762044e-15 0)
(3 4.567332439e-16 0)
(3 1.1144482e-15 0)
(3 2.086115126e-15 0)
(3 2.483885248e-15 0)
(3 4.740164342e-15 0)
(3 6.500261154e-15 0)
(3 7.596848452e-15 0)
(3 2.055657686e-15 0)
(3 2.47740815e-15 0)
(3 2.176245148e-15 0)
(3 4.57625643e-15 0)
(3 5.860004181e-15 0)
(3 8.110470004e-15 0)
(3 8.311555484e-15 0)
(3 5.451793222e-15 0)
(3 1.565843267e-15 0)
(3 -4.572319364e-15 0)
(3 -6.280429366e-15 0)
(3 -7.285281737e-15 0)
(3 -5.815272494e-15 0)
(3 -4.741180118e-15 0)
(3 -2.850711475e-15 0)
(3 -3.452054854e-16 0)
(3 -7.538575094e-16 0)
(3 5.252391912e-16 0)
(3 5.091735878e-15 0)
(3 8.061645125e-15 0)
(3 4.206382876e-15 0)
(3 8.79344784e-16 0)
(3 4.156155129e-15 0)
(3 6.405420442e-15 0)
(3 1.086598527e-14 0)
(3 1.726576012e-14 0)
(3 2.48138375e-16 0)
(3 5.299780583e-16 0)
(3 -1.354566805e-15 0)
(3 -1.283916874e-15 0)
(3 -1.598640308e-15 0)
(3 1.165037847e-15 0)
(3 3.257358796e-16 0)
(3 6.996087304e-16 0)
(3 1.522664246e-16 0)
(3 -4.265160257e-17 0)
(3 5.382056009e-16 0)
(3 8.139147594e-16 0)
(3 1.936619655e-15 0)
(3 2.151371495e-15 0)
(3 9.229632232e-16 0)
(3 7.664879949e-16 0)
(3 1.67865016e-15 0)
(3 3.643606005e-15 0)
(3 4.135587353e-15 0)
(3 4.132860262e-15 0)
(3 7.411571232e-15 0)
(3 9.578740233e-15 0)
(3 1.03634864e-14 0)
(3 5.824258297e-15 0)
(3 1.821936487e-15 0)
(3 3.102788528e-15 0)
(3 5.096387921e-15 0)
(3 5.588427134e-15 0)
(3 6.315922095e-15 0)
(3 5.101523782e-15 0)
(3 2.692483909e-15 0)
(3 7.268601403e-17 0)
(3 1.746433883e-15 0)
(3 4.828790559e-15 0)
(3 1.300454423e-15 0)
(3 -2.328858661e-15 0)
(3 -3.505551311e-15 0)
(3 -5.115932486e-15 0)
(3 -1.605095122e-15 0)
(3 4.600585439e-15 0)
(3 5.849060432e-15 0)
(3 2.293502554e-15 0)
(3 7.561787841e-16 0)
(3 9.770942205e-16 0)
(3 1.70370867e-15 0)
(3 3.14685492e-15 0)
(3 4.692118409e-15 0)
(3 1.813316613e-15 0)
(3 -1.189321539e-15 0)
(3 -2.137648513e-15 0)
(3 -5.817982551e-15 0)
(3 -7.132148111e-15 0)
(3 -9.51052336e-15 0)
(3 -1.035286625e-14 0)
(3 -8.331463625e-15 0)
(3 -9.410460381e-15 0)
(3 -7.458676094e-15 0)
(3 -6.216990189e-15 0)
(3 -5.451562851e-15 0)
(3 8.866292825e-16 0)
(3 7.197073376e-15 0)
(3 1.360580719e-14 0)
(3 1.575799566e-14 0)
(3 1.476980243e-14 0)
(3 1.279206608e-14 0)
(3 1.464498252e-14 0)
(3 1.280664134e-14 0)
(3 2.649052578e-16 0)
(3 -4.140014952e-16 0)
(3 -7.068656271e-17 0)
(3 1.087083101e-15 0)
(3 7.871902648e-16 0)
(3 1.413989962e-15 0)
(3 1.196868423e-15 0)
(3 1.729798367e-15 0)
(3 8.61110447e-16 0)
(3 -1.482888149e-15 0)
(3 -1.817980403e-15 0)
(3 4.747527832e-17 0)
(3 3.111082745e-15 0)
(3 3.399643707e-15 0)
(3 1.609973481e-15 0)
(3 4.695106892e-15 0)
(3 6.900597034e-15 0)
(3 7.986295116e-15 0)
(3 8.839485204e-15 0)
(3 7.315605534e-15 0)
(3 8.810687118e-15 0)
(3 1.186296338e-14 0)
(3 1.584529613e-14 0)
(3 1.594540388e-14 0)
(3 1.564672445e-14 0)
(3 2.289913158e-14 0)
(3 3.05945271e-14 0)
(3 2.857922825e-14 0)
(3 2.281796667e-14 0)
(3 1.632588734e-14 0)
(3 1.268460246e-14 0)
(3 9.191022702e-15 0)
(3 8.577347678e-15 0)
(3 4.517547909e-15 0)
(3 1.780955816e-16 0)
(3 -2.997324657e-15 0)
(3 -1.877587522e-15 0)
(3 -2.407522876e-15 0)
(3 -1.242589418e-17 0)
(3 3.036703668e-15 0)
(3 3.168961464e-15 0)
(3 -1.355632109e-15 0)
(3 -1.622065544e-15 0)
(3 -4.080427234e-15 0)
(3 -5.612931251e-15 0)
(3 -4.700268311e-15 0)
(3 -6.416640714e-15 0)
(3 -8.059857658e-15 0)
(3 -8.969287208e-15 0)
(3 -6.799776697e-15 0)
(3 -6.454202101e-15 0)
(3 -4.838901098e-15 0)
(3 -7.78920223e-15 0)
(3 -1.240237339e-14 0)
(3 -9.423835539e-15 0)
(3 -8.459186561e-15 0)
(3 -9.345423378e-15 0)
(3 -2.770112324e-15 0)
(3 2.510002479e-15 0)
(3 8.4261415e-15 0)
(3 1.460695963e-14 0)
(3 2.328311368e-14 0)
(3 3.042430125e-14 0)
(3 2.868890445e-14 0)
(3 2.503532511e-14 0)
(3 1.276519916e-14 0)
(3 6.368460588e-15 0)
(3 1.365219462e-15 0)
(3 2.645042515e-15 0)
(3 3.251013468e-15 0)
(3 3.054024384e-15 0)
(3 3.208975413e-15 0)
(3 3.142034991e-15 0)
(3 1.424511038e-15 0)
(3 4.327150198e-16 0)
(3 -1.676175732e-16 0)
(3 -1.315969504e-15 0)
(3 -1.720413554e-15 0)
(3 -7.112399742e-16 0)
(3 -1.896589836e-16 0)
(3 -2.531264112e-16 0)
(3 1.10924404e-15 0)
(3 3.757897257e-15 0)
(3 4.175892429e-15 0)
(3 4.191185205e-15 0)
(3 3.870400982e-15 0)
(3 3.438700584e-15 0)
(3 2.198862582e-15 0)
(3 3.386557897e-15 0)
(3 6.897397857e-15 0)
(3 1.14348912e-14 0)
(3 1.824561259e-14 0)
(3 2.126492147e-14 0)
(3 2.129678698e-14 0)
(3 1.94490199e-14 0)
(3 1.390243775e-14 0)
(3 1.139406376e-14 0)
(3 9.951585332e-15 0)
(3 4.525696483e-15 0)
(3 2.581025007e-15 0)
(3 1.515794773e-15 0)
(3 1.296163258e-15 0)
(3 -2.440021782e-15 0)
(3 -6.48303078e-15 0)
(3 -8.276266957e-15 0)
(3 -1.05803409e-14 0)
(3 -1.077727556e-14 0)
(3 -1.145106662e-14 0)
(3 -9.500389385e-15 0)
(3 -1.068913818e-14 0)
(3 -1.118348717e-14 0)
(3 -1.259651749e-14 0)
(3 -1.46972074e-14 0)
(3 -1.705394367e-14 0)
(3 -1.710896949e-14 0)
(3 -1.682809268e-14 0)
(3 -1.184863406e-14 0)
(3 -7.412014632e-15 0)
(3 -3.541324752e-15 0)
(3 -5.119866369e-16 0)
(3 -5.24489244e-16 0)
(3 -1.732977686e-15 0)
(3 2.017819884e-15 0)
(3 3.679609587e-15 0)
(3 8.826998395e-15 0)
(3 1.572718203e-14 0)
(3 1.855654255e-14 0)
(3 2.2569437e-14 0)
(3 2.124199781e-14 0)
(3 2.065556754e-14 0)
(3 1.70894842e-14 0)
(3 7.891237616e-15 0)
(3 2.684370264e-15 0)
(3 -6.607823649e-15 0)
(3 -2.16273361e-15 0)
(3 -1.381493375e-15 0)
(3 -1.144800161e-15 0)
(3 -2.617969953e-16 0)
(3 5.236267729e-16 0)
(3 1.099852235e-15 0)
(3 4.71613671e-16 0)
(3 -6.442634637e-16 0)
(3 -1.222374414e-15 0)
(3 -3.251801268e-16 0)
(3 -9.350326231e-16 0)
(3 6.848592299e-16 0)
(3 1.782131435e-15 0)
(3 2.58345822e-15 0)
(3 4.894315903e-15 0)
(3 4.933080216e-15 0)
(3 6.608013811e-15 0)
(3 6.29295455e-15 0)
(3 5.887673402e-15 0)
(3 7.736145486e-15 0)
(3 8.29957774e-15 0)
(3 9.295763713e-15 0)
(3 9.753688165e-15 0)
(3 1.252088161e-14 0)
(3 1.11622251e-14 0)
(3 1.136566218e-14 0)
(3 6.357816697e-15 0)
(3 3.994075644e-15 0)
(3 4.518962638e-15 0)
(3 6.945631324e-15 0)
(3 7.788621696e-15 0)
(3 6.381453233e-15 0)
(3 4.649577964e-15 0)
(3 2.784696542e-15 0)
(3 1.507854299e-15 0)
(3 -6.75337839e-16 0)
(3 -1.352755862e-15 0)
(3 -5.719090265e-15 0)
(3 -1.47387282e-14 0)
(3 -2.034558955e-14 0)
(3 -2.13333877e-14 0)
(3 -1.760076952e-14 0)
(3 -1.184755454e-14 0)
(3 -1.006844172e-14 0)
(3 -1.05312239e-14 0)
(3 -1.440007353e-14 0)
(3 -1.757616769e-14 0)
(3 -1.631639598e-14 0)
(3 -1.609970025e-14 0)
(3 -1.384479529e-14 0)
(3 -8.737126675e-15 0)
(3 -3.168118111e-15 0)
(3 5.562063414e-15 0)
(3 1.404793771e-14 0)
(3 1.534568671e-14 0)
(3 1.81579263e-14 0)
(3 1.798461344e-14 0)
(3 1.700157224e-14 0)
(3 1.397285002e-14 0)
(3 1.052345379e-14 0)
(3 1.10412447e-14 0)
(3 1.105194913e-14 0)
(3 2.999567448e-15 0)
(3 -1.217186168e-15 0)
(3 -2.569485254e-15 0)
(3 -1.863087817e-15 0)
(3 -4.283026788e-15 0)
(3 -1.553823514e-15 0)
(3 -2.668607019e-15 0)
(3 -2.625564616e-15 0)
(3 -8.642668934e-16 0)
(3 -9.921961383e-16 0)
(3 -1.408127206e-15 0)
(3 3.916088882e-16 0)
(3 5.453629592e-16 0)
(3 2.032533891e-15 0)
(3 3.328592671e-15 0)
(3 2.751051762e-15 0)
(3 7.268884363e-16 0)
(3 5.428409789e-16 0)
(3 1.352268585e-15 0)
(3 1.459636789e-15 0)
(3 4.300607471e-15 0)
(3 6.924429949e-15 0)
(3 9.79336265e-15 0)
(3 1.030904463e-14 0)
(3 9.587699544e-15 0)
(3 7.842803757e-15 0)
(3 5.279837473e-15 0)
(3 3.577843344e-15 0)
(3 2.912819348e-15 0)
(3 2.072859112e-16 0)
(3 -3.86318824e-15 0)
(3 -6.350949274e-15 0)
(3 -7.09216223e-15 0)
(3 -4.691884985e-15 0)
(3 -2.797149769e-16 0)
(3 3.61423792e-15 0)
(3 5.912321258e-15 0)
(3 5.109519875e-15 0)
(3 5.394626833e-15 0)
(3 6.427252701e-16 0)
(3 1.727909927e-15 0)
(3 2.810928404e-15 0)
(3 -7.327689158e-16 0)
(3 -7.161083383e-15 0)
(3 -1.238853759e-14 0)
(3 -1.291901004e-14 0)
(3 -1.313145836e-14 0)
(3 -1.071028881e-14 0)
(3 -9.51600693e-15 0)
(3 -1.041284155e-14 0)
(3 -1.277027933e-14 0)
(3 -1.468345393e-14 0)
(3 -1.443616458e-14 0)
(3 -1.11350705e-14 0)
(3 -1.045579857e-14 0)
(3 -5.526360969e-15 0)
(3 3.897720446e-16 0)
(3 8.958512134e-15 0)
(3 1.762439638e-14 0)
(3 2.26271217e-14 0)
(3 2.078509233e-14 0)
(3 1.643254139e-14 0)
(3 1.242451315e-14 0)
(3 1.234651106e-14 0)
(3 1.063875067e-14 0)
(3 3.379263585e-15 0)
(3 -2.564287535e-15 0)
(3 -8.510285659e-15 0)
(3 -1.258404962e-14 0)
(3 -1.230973621e-14 0)
(3 -1.235583368e-14 0)
(3 -8.387335362e-15 0)
(3 1.909516021e-15 0)
(3 2.15202344e-15 0)
(3 6.681988492e-16 0)
(3 2.888800277e-17 0)
(3 -1.830923438e-16 0)
(3 5.301059416e-16 0)
(3 2.274189274e-15 0)
(3 3.791601115e-15 0)
(3 5.620034258e-15 0)
(3 5.669703906e-15 0)
(3 4.979611448e-15 0)
(3 1.693103208e-15 0)
(3 9.274775863e-16 0)
(3 -1.546256967e-15 0)
(3 -2.420203402e-15 0)
(3 -1.463461059e-15 0)
(3 -3.519969461e-15 0)
(3 -2.80952028e-15 0)
(3 -1.373835623e-15 0)
(3 -3.952970969e-16 0)
(3 1.154026719e-15 0)
(3 9.742436718e-16 0)
(3 -1.195686469e-15 0)
(3 -6.490503875e-15 0)
(3 -6.836709877e-15 0)
(3 -5.902448477e-15 0)
(3 -4.934137636e-15 0)
(3 -7.240135117e-16 0)
(3 -1.657528776e-16 0)
(3 3.679265942e-15 0)
(3 3.432217131e-15 0)
(3 6.270035318e-15 0)
(3 7.218560097e-15 0)
(3 7.901167785e-15 0)
(3 5.637143067e-15 0)
(3 6.139408302e-15 0)
(3 5.656043452e-15 0)
(3 5.766449562e-15 0)
(3 4.112540714e-15 0)
(3 -8.3792807e-16 0)
(3 -2.538362104e-15 0)
(3 -4.561325217e-15 0)
(3 -6.806452062e-15 0)
(3 -8.660770234e-15 0)
(3 -1.09391916e-14 0)
(3 -1.21413906e-14 0)
(3 -1.071059623e-14 0)
(3 -9.198762174e-15 0)
(3 -3.344808659e-15 0)
(3 -1.144863625e-15 0)
(3 3.166205862e-15 0)
(3 5.981051683e-15 0)
(3 7.199528981e-15 0)
(3 1.27514079e-14 0)
(3 2.127820942e-14 0)
(3 1.916413294e-14 0)
(3 1.085452813e-14 0)
(3 7.87655863e-15 0)
(3 1.626712262e-15 0)
(3 -3.816694306e-15 0)
(3 -8.608430638e-15 0)
(3 -1.255185022e-14 0)
(3 -1.761364792e-14 0)
(3 -2.22513037e-14 0)
(3 -2.145371894e-14 0)
(3 -1.953229261e-14 0)
(3 -1.338383915e-14 0)
(3 1.271391902e-15 0)
(3 1.047175561e-15 0)
(3 -1.819852438e-15 0)
(3 -5.367095686e-15 0)
(3 -4.997096843e-15 0)
(3 -2.096434617e-15 0)
(3 -1.828783679e-15 0)
(3 -9.661192448e-16 0)
(3 -4.307005412e-16 0)
(3 2.701874593e-16 0)
(3 1.647851411e-15 0)
(3 1.658634027e-15 0)
(3 1.024947906e-15 0)
(3 -1.579511319e-15 0)
(3 -5.412307854e-15 0)
(3 -1.070504112e-14 0)
(3 -1.267061665e-14 0)
(3 -1.519261961e-14 0)
(3 -1.348451814e-14 0)
(3 -8.510575014e-15 0)
(3 -2.886897909e-15 0)
(3 -3.532198081e-15 0)
(3 -3.491873191e-15 0)
(3 -3.683835895e-15 0)
(3 1.025199069e-15 0)
(3 1.719009495e-15 0)
(3 5.050141763e-15 0)
(3 9.998756205e-15 0)
(3 1.46394281e-14 0)
(3 1.310084444e-14 0)
(3 1.017964719e-14 0)
(3 9.822151452e-15 0)
(3 1.057699414e-14 0)
(3 1.232223127e-14 0)
(3 1.490863748e-14 0)
(3 1.389984531e-14 0)
(3 1.301147907e-14 0)
(3 1.401340526e-14 0)
(3 1.461594958e-14 0)
(3 1.256287262e-14 0)
(3 8.166100925e-15 0)
(3 5.209174403e-15 0)
(3 4.299636223e-16 0)
(3 -4.820179834e-15 0)
(3 -5.455682799e-15 0)
(3 -4.332350655e-15 0)
(3 -2.840349927e-15 0)
(3 5.519207636e-16 0)
(3 1.865050239e-15 0)
(3 3.694839498e-15 0)
(3 4.649372162e-15 0)
(3 3.045596647e-15 0)
(3 -3.588748429e-16 0)
(3 1.132693421e-16 0)
(3 2.367472488e-15 0)
(3 -1.09477983e-15 0)
(3 -4.97604713e-15 0)
(3 -5.5888023e-15 0)
(3 -9.786122695e-15 0)
(3 -9.177145137e-15 0)
(3 -1.074894208e-14 0)
(3 -1.271740723e-14 0)
(3 -1.500870494e-14 0)
(3 -1.421834183e-14 0)
(3 -1.337763819e-14 0)
(3 -9.460084475e-15 0)
(3 -4.665938099e-15 0)
(3 -8.978279308e-16 0)
(3 -1.213696744e-15 0)
(3 -3.200786923e-15 0)
(3 -3.943331311e-15 0)
(3 -4.617069157e-15 0)
(3 -3.850877179e-15 0)
(3 -4.992242179e-15 0)
(3 -3.354765931e-15 0)
(3 -2.970996972e-15 0)
(3 -2.33045918e-15 0)
(3 -3.139815304e-15 0)
(3 -2.096995744e-15 0)
(3 -2.711692375e-15 0)
(3 -5.784361233e-15 0)
(3 -7.583729484e-15 0)
(3 -7.250666253e-15 0)
(3 -5.29361482e-15 0)
(3 -6.654855155e-15 0)
(3 -6.816741291e-15 0)
(3 -4.656425021e-15 0)
(3 -4.663656713e-15 0)
(3 -4.067092592e-15 0)
(3 -2.71161713e-15 0)
(3 1.046521946e-15 0)
(3 4.131792916e-15 0)
(3 7.360760408e-15 0)
(3 1.279811786e-14 0)
(3 1.697282214e-14 0)
(3 1.59773662e-14 0)
(3 1.065984089e-14 0)
(3 8.596880625e-15 0)
(3 4.195988071e-15 0)
(3 2.53805025e-15 0)
(3 3.486735005e-15 0)
(3 8.343894251e-15 0)
(3 1.185347414e-14 0)
(3 1.218577088e-14 0)
(3 1.289325769e-14 0)
(3 1.524466333e-14 0)
(3 1.435342789e-14 0)
(3 1.123685647e-14 0)
(3 8.889249175e-15 0)
(3 5.513364662e-15 0)
(3 7.457973619e-16 0)
(3 1.422999092e-15 0)
(3 5.43975032e-15 0)
(3 5.046012961e-15 0)
(3 2.173167878e-15 0)
(3 1.938898919e-15 0)
(3 1.726730764e-15 0)
(3 -1.658016493e-15 0)
(3 -6.12322585e-15 0)
(3 -1.085370175e-14 0)
(3 -1.692978059e-14 0)
(3 -1.816698664e-14 0)
(3 -1.438152161e-14 0)
(3 -9.742476878e-15 0)
(3 -8.11444861e-15 0)
(3 -4.452657147e-15 0)
(3 -6.354337476e-15 0)
(3 -1.154922971e-14 0)
(3 -1.473977825e-14 0)
(3 -1.553179876e-14 0)
(3 -9.510777077e-15 0)
(3 -8.032401571e-15 0)
(3 -2.77468138e-15 0)
(3 1.601932988e-15 0)
(3 -7.252153589e-16 0)
(3 -9.902508675e-17 0)
(3 1.213896824e-15 0)
(3 1.22135132e-15 0)
(3 -3.23807946e-16 0)
(3 -2.17687683e-15 0)
(3 -2.078950365e-15 0)
(3 -1.105605753e-15 0)
(3 -1.217547339e-15 0)
(3 -1.136356191e-15 0)
(3 -1.453157258e-15 0)
(3 -6.635657039e-16 0)
(3 -9.434009241e-16 0)
(3 -1.708548428e-15 0)
(3 -1.36257896e-15 0)
(3 7.890973346e-16 0)
(3 7.022043424e-15 0)
(3 5.430697011e-15 0)
(3 4.237326289e-15 0)
(3 9.07187079e-16 0)
(3 -1.336359302e-15 0)
(3 -1.171474772e-15 0)
(3 1.227441615e-15 0)
(3 3.429458799e-15 0)
(3 4.605569499e-15 0)
(3 8.45305586e-15 0)
(3 8.792146141e-15 0)
(3 9.117343412e-15 0)
(3 6.042132427e-15 0)
(3 4.511831659e-15 0)
(3 1.692473168e-15 0)
(3 9.549630079e-17 0)
(3 -4.67578759e-15 0)
(3 -5.884958785e-15 0)
(3 -4.056414816e-15 0)
(3 -2.102487186e-15 0)
(3 -3.296005051e-17 0)
(3 4.035201527e-15 0)
(3 5.721066717e-15 0)
(3 7.220192973e-15 0)
(3 8.694310298e-15 0)
(3 8.829130937e-15 0)
(3 9.452467015e-15 0)
(3 8.668077656e-15 0)
(3 7.369331836e-15 0)
(3 7.319347027e-15 0)
(3 7.269422936e-15 0)
(3 5.080667612e-15 0)
(3 1.793458672e-15 0)
(3 -3.688629954e-15 0)
(3 -8.706364018e-15 0)
(3 -1.024614164e-14 0)
(3 -1.149712911e-14 0)
(3 -1.295876167e-14 0)
(3 -1.38348475e-14 0)
(3 -1.067806334e-14 0)
(3 -5.203409606e-15 0)
(3 -6.57235402e-15 0)
(3 -9.874124498e-15 0)
(3 -1.18332229e-14 0)
(3 -9.772879528e-15 0)
(3 -7.998844282e-15 0)
(3 -2.368734704e-15 0)
(3 1.673544481e-15 0)
(3 5.779590869e-15 0)
(3 1.051792229e-14 0)
(3 1.241586941e-14 0)
(3 -2.412649361e-16 0)
(3 -1.428238297e-15 0)
(3 1.852553499e-16 0)
(3 7.310804632e-16 0)
(3 -1.049463146e-15 0)
(3 -1.100961819e-15 0)
(3 -3.427075956e-15 0)
(3 -5.996611689e-15 0)
(3 -5.970582207e-15 0)
(3 -4.615980417e-15 0)
(3 -1.444341843e-15 0)
(3 -2.382784659e-16 0)
(3 6.75831702e-16 0)
(3 7.375695435e-16 0)
(3 2.514795266e-15 0)
(3 2.955729967e-15 0)
(3 4.886960874e-15 0)
(3 7.54479269e-15 0)
(3 6.776244003e-15 0)
(3 2.358332425e-15 0)
(3 2.788153263e-16 0)
(3 -2.323172562e-15 0)
(3 -2.438127431e-15 0)
(3 -1.821750192e-15 0)
(3 -7.31801928e-16 0)
(3 1.221576714e-15 0)
(3 6.019469455e-16 0)
(3 -3.977662499e-15 0)
(3 -8.591352414e-15 0)
(3 -9.507927452e-15 0)
(3 -9.143436401e-15 0)
(3 -7.999353547e-15 0)
(3 -6.32445322e-15 0)
(3 -4.438537879e-15 0)
(3 -4.303548154e-15 0)
(3 -3.844856466e-15 0)
(3 -2.347572341e-15 0)
(3 1.476228145e-16 0)
(3 9.80903942e-16 0)
(3 5.012369191e-15 0)
(3 7.905256618e-15 0)
(3 1.119559457e-14 0)
(3 1.519117491e-14 0)
(3 1.939499437e-14 0)
(3 2.077720618e-14 0)
(3 2.018556223e-14 0)
(3 1.789186564e-14 0)
(3 1.416713204e-14 0)
(3 9.352213275e-15 0)
(3 1.017768073e-16 0)
(3 -4.27920514e-15 0)
(3 -8.961661216e-15 0)
(3 -1.240852269e-14 0)
(3 -1.364275773e-14 0)
(3 -1.632536766e-14 0)
(3 -1.770908968e-14 0)
(3 -1.481557342e-14 0)
(3 -8.831813373e-15 0)
(3 -9.188892022e-15 0)
(3 -7.429692447e-15 0)
(3 -5.918706961e-15 0)
(3 -9.346340473e-16 0)
(3 1.915728886e-15 0)
(3 6.447888534e-15 0)
(3 9.238183681e-15 0)
(3 1.431602347e-14 0)
(3 1.458220102e-14 0)
(3 6.828486051e-16 0)
(3 -4.803869445e-16 0)
(3 -2.04226062e-15 0)
(3 -1.961339348e-15 0)
(3 -1.066583043e-15 0)
(3 6.018517563e-16 0)
(3 -9.951091584e-16 0)
(3 -1.267756749e-15 0)
(3 -3.38001284e-15 0)
(3 -4.080191237e-15 0)
(3 -3.411073416e-15 0)
(3 -9.689438486e-16 0)
(3 -5.202289939e-18 0)