/*--------------------------------*- C++ -*----------------------------------*\
  =========                 |
  \\      /  F ield         | OpenFOAM: The Open Source CFD Toolbox
   \\    /   O peration     | Website:  https://openfoam.org
    \\  /    A nd           | Version:  7
     \\/     M anipulation  |
\*---------------------------------------------------------------------------*/
FoamFile
{
    version     2.0;
    format      ascii;
    class       volScalarField;
    location    "3.5";
    object      p;
}
// * * * * * * * * * * * * * * * * * * * * * * * * * * * * * * * * * * * * * //

dimensions      [1 -1 -2 0 0 0 0];

internalField   nonuniform List<scalar> 5(0.9001774553 1.034106728 1.017474151 0.9499646031 0.9734511132);

boundaryField
{
    inlet
    {
        type            fixedValue;
        value           nonuniform 0();
    }
    outlet
    {
        type            zeroGradient;
    }
    bottom
    {
        type            slip;
    }
    top
    {
        type            slip;
    }
    obstacle
    {
        type            zeroGradient;
    }
    defaultFaces
    {
        type            empty;
    }
    procBoundary28to22
    {
        type            processor;
        value           nonuniform List<scalar> 2(0.9336332814 1.048220276);
    }
    procBoundary28to27
    {
        type            processor;
        value           nonuniform List<scalar> 4(0.8076970214 0.8628400086 0.8628400086 0.9326382473);
    }
    procBoundary28to34
    {
        type            processor;
        value           nonuniform List<scalar> 2(0.9618574197 0.9581343887);
    }
    procBoundary28to35
    {
        type            processor;
        value           nonuniform List<scalar> 4(1.028731525 1.023706517 1.023706517 0.9979571663);
    }
}


// ************************************************************************* //
