/*--------------------------------*- C++ -*----------------------------------*\
  =========                 |
  \\      /  F ield         | OpenFOAM: The Open Source CFD Toolbox
   \\    /   O peration     | Website:  https://openfoam.org
    \\  /    A nd           | Version:  7
     \\/     M anipulation  |
\*---------------------------------------------------------------------------*/
FoamFile
{
    version     2.0;
    format      ascii;
    class       volScalarField;
    location    "1.7";
    object      rho;
}
// * * * * * * * * * * * * * * * * * * * * * * * * * * * * * * * * * * * * * //

dimensions      [1 -3 0 0 0 0 0];

internalField   nonuniform List<scalar> 
2222
(
1.215990411
1.217482403
1.218541459
1.218885248
1.219084664
1.219390704
1.219750559
1.219583145
1.219658435
1.219741972
1.219282124
1.218976385
1.21908278
1.219429011
1.219956256
1.220769373
1.205312265
1.204575234
1.203925683
1.204086452
1.205165386
1.20704157
1.209215016
1.211339172
1.213787106
1.215623363
1.215819217
1.21569543
1.215016853
1.214074463
1.213157612
1.211230662
1.210356374
1.210584116
1.211407356
1.21276749
1.214289206
1.215123407
1.215692568
1.216651514
1.217666687
1.218211702
1.21867692
1.218921483
1.219243886
1.219082172
1.219085035
1.219115767
1.219027831
1.21917567
1.219506415
1.219928185
1.220300407
1.220657214
1.205857363
1.205107192
1.204382032
1.204542322
1.205547364
1.207473795
1.209422807
1.211532986
1.213828326
1.215689637
1.215924153
1.21558854
1.214770055
1.21401493
1.213207223
1.212369012
1.211665546
1.211785134
1.212788192
1.21440731
1.215378124
1.215596283
1.215793624
1.216370926
1.217353037
1.21801086
1.218562915
1.218942051
1.218995992
1.218558022
1.218098075
1.218311684
1.218821036
1.219392228
1.219908874
1.220495547
1.221105534
1.221429521
1.207739533
1.207186608
1.206178777
1.206164306
1.207002783
1.208819688
1.210792758
1.212929121
1.21529673
1.21720867
1.217449756
1.216978959
1.215994656
1.215144172
1.214338189
1.214062403
1.214090239
1.214468339
1.215755309
1.217083157
1.217559553
1.217468928
1.21677204
1.21732436
1.21835364
1.219043431
1.219560565
1.219881541
1.219842278
1.219283875
1.218610226
1.218444404
1.2188213
1.21957816
1.220498143
1.221652375
1.222544702
1.223322293
1.211321658
1.21112462
1.210115593
1.209703697
1.210303656
1.211852575
1.214076288
1.216738573
1.219280073
1.220911464
1.221065946
1.220481189
1.219203992
1.218132502
1.217630982
1.217568861
1.217911724
1.218747243
1.219808438
1.220315678
1.22045989
1.220666187
1.220739682
1.220621472
1.221199296
1.22188559
1.222272184
1.222412961
1.222167874
1.221460785
1.220666136
1.220316938
1.220710029
1.221447921
1.222340656
1.223546423
1.224882837
1.226531714
1.217775917
1.217379365
1.216239129
1.215896706
1.216362505
1.217601558
1.219810272
1.22286149
1.225965874
1.22759265
1.22771155
1.227175832
1.225806566
1.224288756
1.223591135
1.223484767
1.223865926
1.224249181
1.224525939
1.224756632
1.224972433
1.225210339
1.225969172
1.226639178
1.227118842
1.227483216
1.22756401
1.227444155
1.226959961
1.22619589
1.22520333
1.224705978
1.225055055
1.22579795
1.226640718
1.227741097
1.228931215
1.231732546
1.226960217
1.226563459
1.225168748
1.224698121
1.224982296
1.226139595
1.228387478
1.231551203
1.234952993
1.236926777
1.237181598
1.236697845
1.235494727
1.234253672
1.232908503
1.231950889
1.231400958
1.231291804
1.231275747
1.23103538
1.231088851
1.231861864
1.233407292
1.234804726
1.235310649
1.235408373
1.235351469
1.235165911
1.234724822
1.234138604
1.233298859
1.232264308
1.232110368
1.232769858
1.233659142
1.234691027
1.235544724
1.237919868
1.238323893
1.237885984
1.236501539
1.23569344
1.235847989
1.236925316
1.239226122
1.242689431
1.246410033
1.248728975
1.249095328
1.248777223
1.247910711
1.246818126
1.244811294
1.242513363
1.240869717
1.240106955
1.239534015
1.239158975
1.239580949
1.241127473
1.243345854
1.245116824
1.245514479
1.245433375
1.245272278
1.245087528
1.244850531
1.244498364
1.243970103
1.243170602
1.242263464
1.242367318
1.243063285
1.243917501
1.244855264
1.246762336
1.25133115
1.250678678
1.249239617
1.248326964
1.248363871
1.249296295
1.251584771
1.255194435
1.259167838
1.261544291
1.262134567
1.262008038
1.261460593
1.260324652
1.258031013
1.254682574
1.252356154
1.250544873
1.249508047
1.249354878
1.250258713
1.252441602
1.255572665
1.256942969
1.257240994
1.257035167
1.25673413
1.256607288
1.256545681
1.256366179
1.256037424
1.255694342
1.255101748
1.254416159
1.254451756
1.255058745
1.255712586
1.257183394
1.264684498
1.263864763
1.262465277
1.261413313
1.261360055
1.262119813
1.26432376
1.2676629
1.271543198
1.274016775
1.274774053
1.274730339
1.274391655
1.273298319
1.270964596
1.267475647
1.263728698
1.26185385
1.261225683
1.261346375
1.262280524
1.264757973
1.266788601
1.267980604
1.268854617
1.269103943
1.268854549
1.26888067
1.268771171
1.268703717
1.26868107
1.268766518
1.268800084
1.268330284
1.267529415
1.26710518
1.26721831
1.268457438
1.277008567
1.276201564
1.275002485
1.27402561
1.273798255
1.27430644
1.275882307
1.278850431
1.282570305
1.285287588
1.286351209
1.286307181
1.286187326
1.28517715
1.282764369
1.279336873
1.276747947
1.274889572
1.273870403
1.273773173
1.275223099
1.277261576
1.278184749
1.278926096
1.279633603
1.280210048
1.280508863
1.280412121
1.28052021
1.280576867
1.280945065
1.281424888
1.281595146
1.281286852
1.280796511
1.279912739
1.279013515
1.279500014
1.287705805
1.287234242
1.286203257
1.28446197
1.283865832
1.284314711
1.285781415
1.288336158
1.291678965
1.294487177
1.295670934
1.295508506
1.295180475
1.294270397
1.29201516
1.28950809
1.2878931
1.286628641
1.28590259
1.286072653
1.287211747
1.287905271
1.288136203
1.288445285
1.289174283
1.289913841
1.290251275
1.290217709
1.290228448
1.290796759
1.291684155
1.292289749
1.292465424
1.292284955
1.291971982
1.29117734
1.289995666
1.289170257
1.295485696
1.294971456
1.293934854
1.292355888
1.291627693
1.292053278
1.293435177
1.295740387
1.298522732
1.301099018
1.302437817
1.302399171
1.301706881
1.300308558
1.298510791
1.297646708
1.296937215
1.296128309
1.295777587
1.295882443
1.296337
1.296364176
1.295926351
1.296045155
1.296883615
1.297708658
1.298117922
1.298049772
1.297780756
1.298071525
1.299233267
1.300592546
1.30115267
1.301132836
1.300709886
1.299967276
1.299070589
1.297989504
1.300472173
1.299125491
1.297507142
1.296756101
1.297196467
1.298655012
1.3010114
1.30336822
1.305484903
1.306627951
1.306741014
1.305985216
1.304310379
1.302671241
1.302318074
1.30279427
1.302908341
1.30265538
1.302697192
1.302990498
1.302271638
1.301528764
1.301823805
1.302639913
1.303286546
1.303612386
1.3035906
1.303202642
1.303153923
1.303715545
1.305036114
1.306448031
1.307201675
1.307123972
1.306645242
1.305799931
1.304423995
1.303370817
1.301834245
1.30023984
1.299609071
1.300111519
1.301708996
1.304224986
1.306653383
1.308523172
1.309326171
1.309387991
1.30859321
1.306782995
1.305223283
1.305029926
1.305518779
1.30624355
1.306818188
1.307106205
1.30689482
1.306029785
1.305574122
1.306029116
1.306534515
1.306793356
1.307047108
1.307081492
1.306598842
1.3062321
1.306588106
1.307521584
1.308725423
1.309935266
1.310750081
1.310986095
1.310619087
1.309197533
1.304196998
1.302572637
1.300949494
1.30068655
1.301404264
1.303204526
1.305908533
1.3085233
1.310240185
1.310668086
1.31057561
1.309785586
1.308090091
1.306632232
1.306278144
1.306544046
1.307337445
1.308207844
1.308776054
1.308541051
1.308235286
1.308439717
1.309059184
1.309193545
1.309104055
1.309096875
1.308812682
1.308148347
1.307743579
1.307943648
1.308644741
1.309793076
1.310990029
1.311938603
1.312556431
1.312962584
1.312272905
1.304014647
1.302574874
1.301075547
1.300956468
1.301841561
1.303692254
1.306460329
1.309050526
1.310637408
1.310831871
1.310493305
1.309724249
1.308437579
1.307311831
1.306710555
1.306702793
1.307371843
1.308290983
1.308909517
1.309170346
1.309478094
1.310279655
1.310984318
1.310876398
1.310442238
1.309945911
1.309109871
1.308365333
1.308331272
1.308591421
1.309372781
1.310537188
1.311621561
1.312508318
1.313075399
1.313590009
1.31345105
1.30430873
1.302971781
1.301667569
1.300896904
1.301624596
1.303114741
1.30578522
1.308293093
1.309907233
1.310249386
1.309782093
1.308943174
1.30825379
1.307648304
1.306938039
1.306696174
1.306977152
1.307731079
1.308453316
1.30921345
1.31033861
1.311573488
1.311958914
1.311624126
1.310909941
1.309796778
1.308632301
1.30825773
1.308585435
1.309104848
1.309943819
1.310972429
1.311830673
1.312584781
1.313165969
1.313871301
1.31387175
1.304704091
1.303520988
1.302338697
1.301033652
1.301407747
1.302428085
1.304467297
1.306471144
1.307706045
1.308148338
1.308116698
1.307814599
1.308079013
1.308020652
1.30753125
1.307104526
1.306981786
1.307379826
1.308158783
1.309321933
1.310805012
1.312006709
1.312110544
1.311648333
1.310715446
1.30936156
1.308518427
1.308526283
1.309077143
1.309785853
1.310523815
1.311350263
1.312131008
1.312764455
1.313263113
1.313919564
1.313740812
1.304749169
1.30385468
1.302969701
1.3014693
1.301337149
1.301821327
1.302891091
1.303988503
1.304820593
1.305493673
1.306222565
1.306779062
1.307571188
1.30795846
1.307795109
1.307426134
1.307230966
1.307407349
1.30802458
1.309315835
1.310666434
1.311361656
1.311377948
1.310797971
1.309750937
1.308831473
1.308568333
1.308800484
1.309430033
1.310202058
1.310863451
1.311605412
1.312391449
1.312953335
1.313330098
1.313759551
1.313317834
1.304175599
1.303777755
1.302718447
1.30136451
1.300733389
1.301147207
1.301031513
1.301206604
1.301710259
1.302597691
1.303900621
1.305367744
1.306637415
1.307294974
1.307433737
1.307269528
1.307096621
1.307144019
1.307826739
1.309109156
1.309978155
1.310089467
1.309778398
1.308959527
1.308172475
1.307893142
1.308090262
1.30862061
1.30934936
1.310144048
1.310756228
1.311306377
1.311853124
1.31234286
1.312851676
1.313297882
1.312722407
1.302342395
1.302179995
1.303094023
1.302496101
1.301535542
1.299763091
1.298679033
1.298440231
1.298692526
1.299582809
1.301207838
1.303358848
1.304828205
1.305493212
1.306154994
1.306211293
1.305972506
1.306181073
1.307041289
1.30798864
1.308321033
1.308053223
1.307202897
1.306278395
1.305967686
1.306281538
1.307008968
1.307822711
1.308595653
1.309437479
1.310078558
1.310340356
1.310396255
1.310794697
1.311577706
1.312070121
1.311320693
1.299351727
1.300527352
1.301731
1.301745132
1.300673291
1.299333229
1.297037686
1.296006223
1.295978616
1.29660305
1.29815526
1.300432755
1.301708584
1.302352774
1.303314272
1.304096074
1.304547238
1.304868258
1.305513887
1.305752287
1.305575269
1.304874067
1.303717927
1.303322383
1.303748147
1.304492199
1.305216058
1.305941047
1.30657725
1.307434386
1.308196723
1.308230055
1.308496383
1.309441645
1.310057588
1.310049565
1.30885301
1.296298627
1.297869923
1.299563489
1.300072689
1.299230706
1.297606874
1.295367103
1.293558646
1.293146355
1.293423183
1.294747606
1.296712308
1.297790627
1.298509771
1.299518398
1.301222527
1.302427922
1.303239119
1.30322993
1.30294182
1.301948735
1.300904092
1.300589363
1.301030176
1.301676459
1.302405834
1.302807495
1.303056793
1.303331989
1.304191765
1.305300666
1.306194835
1.306943416
1.307696934
1.307889026
1.307183683
1.30554216
1.293302218
1.295187123
1.297469036
1.297961988
1.297075488
1.295447665
1.293570667
1.291515414
1.290360224
1.290348434
1.291228137
1.292628296
1.293665688
1.294653081
1.296080101
1.298242763
1.300063314
1.300886638
1.30087
1.299538564
1.298248993
1.297957095
1.298131665
1.298679148
1.299585239
1.300200898
1.300292368
1.299990275
1.300087788
1.300987575
1.302496224
1.303971794
1.305107709
1.305644545
1.30481924
1.303653005
1.302629691
1.290987749
1.293254786
1.295330142
1.295466678
1.29433022
1.293132591
1.291636534
1.289564214
1.288240168
1.287874245
1.288379863
1.289408338
1.290613216
1.291824983
1.293343202
1.295555301
1.297744512
1.298435748
1.298257691
1.297459593
1.296161797
1.295549004
1.295881713
1.296779221
1.297780885
1.298213873
1.297970998
1.297441155
1.297567928
1.29837822
1.29986231
1.301441778
1.302824543
1.302968305
1.302732222
1.301822984
1.300800925
1.29152847
1.293033763
1.293017699
1.291882548
1.291136208
1.289996085
1.287992788
1.286632686
1.286280019
1.286662591
1.287590453
1.2886643
1.289889549
1.291404144
1.293654281
1.295658742
1.29627049
1.296128513
1.295588514
1.294838103
1.294033756
1.294262617
1.295427087
1.296295065
1.296559936
1.296308893
1.295456451
1.29545593
1.296041023
1.297369426
1.298960862
1.300166683
1.30072145
1.3008917
1.300721424
1.300045316
1.290116411
1.291361918
1.291345013
1.29062198
1.290105669
1.289049631
1.287086767
1.285518956
1.285252107
1.285633024
1.286584067
1.287768701
1.28915927
1.290820132
1.292741483
1.29411214
1.294609723
1.294640762
1.294431395
1.294105415
1.293605514
1.293738283
1.294707827
1.295241939
1.294951562
1.294435722
1.293824354
1.293675806
1.294040499
1.295220021
1.296740688
1.297947076
1.298914705
1.299620418
1.300129807
1.299830569
1.289148928
1.290583443
1.290652417
1.290300656
1.289802376
1.288731265
1.286836386
1.28511585
1.284871995
1.285211699
1.286097097
1.287302608
1.288811881
1.290673196
1.292124963
1.29323212
1.293849393
1.294071853
1.294161411
1.294277272
1.294405088
1.294394215
1.294360262
1.293948498
1.293275261
1.292441209
1.292311206
1.292238124
1.29259348
1.293514565
1.29499958
1.296505589
1.297772115
1.298909262
1.300098639
1.300266335
1.288557751
1.29044479
1.29074751
1.290564656
1.29013924
1.289136337
1.287282302
1.28544404
1.2850185
1.285344198
1.286101905
1.287188594
1.288636137
1.290302125
1.291676979
1.292905642
1.294022052
1.294563868
1.294877971
1.295220848
1.295499223
1.294992281
1.293817166
1.292462939
1.291595567
1.291012839
1.291119651
1.291319144
1.291727726
1.292618541
1.294152563
1.295916137
1.297391104
1.29887601
1.300510592
1.300972947
1.288537286
1.290860396
1.291324085
1.291192398
1.290691547
1.289727745
1.288071191
1.286099847
1.285113279
1.285232659
1.285747066
1.286738798
1.288138326
1.28959679
1.291245484
1.293186697
1.29489595
1.295700797
1.296170936
1.296446128
1.296101422
1.294746757
1.292815554
1.291175849
1.289944402
1.289822399
1.290428485
1.291030671
1.291594045
1.292684037
1.294228565
1.296074147
1.297941107
1.29953951
1.301112858
1.301241269
1.288634945
1.291189072
1.29169534
1.291582757
1.291073786
1.29013909
1.288617747
1.286499598
1.284969148
1.28475923
1.285054064
1.285958258
1.287419226
1.288981802
1.290865096
1.293772804
1.296040093
1.296816066
1.297093751
1.297009467
1.29613801
1.294194742
1.291867657
1.290103714
1.289199706
1.289250945
1.290195449
1.291435115
1.292545027
1.293831767
1.295282106
1.296910137
1.298619946
1.299923522
1.301031369
1.300695096
1.288707587
1.291225088
1.291751992
1.291725953
1.291284552
1.290377055
1.28896631
1.286820812
1.284958836
1.284515003
1.284703864
1.285471778
1.286900287
1.288770843
1.291334028
1.294548148
1.296529048
1.297122569
1.29721005
1.296847595
1.295706622
1.293842044
1.291739376
1.290238242
1.289699072
1.28977849
1.290731498
1.29255781
1.294443438
1.295905083
1.296969467
1.297890629
1.298883174
1.299700022
1.300243683
1.299289186
1.288816381
1.291061119
1.291737548
1.291867604
1.291527242
1.290671684
1.289298768
1.287303966
1.285454394
1.284892341
1.28506538
1.285702767
1.286989256
1.289139572
1.292335061
1.294994954
1.296308949
1.296808813
1.296836157
1.296246005
1.294971417
1.29360718
1.292523529
1.291755574
1.291476965
1.291732766
1.29276408
1.294737736
1.296794229
1.297884565
1.298356522
1.29864627
1.298823603
1.298809248
1.298496546
1.29727767
1.288851165
1.29088681
1.291845327
1.292269491
1.292010013
1.291139543
1.289786468
1.288066232
1.286513971
1.286049805
1.28623821
1.286772821
1.287913458
1.290273445
1.293431087
1.295384553
1.296028673
1.296327699
1.296251864
1.295549861
1.294372046
1.293545141
1.293646233
1.294062755
1.294528435
1.295125512
1.295952831
1.297069094
1.29820955
1.298732867
1.298748964
1.298477423
1.297970495
1.297269395
1.296289313
1.295490658
1.28903378
1.290995309
1.292284508
1.29299759
1.292706051
1.291816932
1.290590696
1.289255143
1.288202534
1.287911487
1.28817091
1.288707792
1.289722987
1.291854812
1.294247542
1.295553649
1.295918753
1.296023535
1.295864334
1.295102772
1.294201938
1.294367615
1.295384687
1.296634317
1.297636371
1.298456473
1.298914254
1.298841098
1.298764069
1.298768539
1.298584099
1.298015859
1.297181581
1.296127838
1.294953097
1.294677213
1.289166795
1.291058259
1.292828993
1.29398619
1.293595226
1.292811169
1.291810488
1.290911275
1.290279019
1.290067565
1.29034294
1.290929818
1.291932884
1.293518894
1.294839229
1.295693252
1.296079224
1.296151634
1.295948882
1.295281391
1.295010799
1.295955654
1.297372045
1.298631156
1.299467319
1.300130713
1.300301937
1.299912056
1.299182504
1.298767211
1.298470971
1.29796388
1.297128592
1.295943496
1.294761314
1.294868277
1.289429255
1.291662327
1.293785555
1.294861745
1.294629688
1.294243169
1.293591435
1.292966335
1.292448279
1.291906555
1.292000693
1.292645427
1.293642589
1.294791389
1.295512372
1.296119106
1.296617908
1.296801338
1.29663668
1.296409208
1.296859022
1.297963103
1.298972135
1.299438608
1.299948099
1.300492541
1.300749677
1.300418789
1.299591094
1.298892872
1.298559244
1.298187623
1.297536043
1.296572488
1.295610784
1.295935019
1.289740861
1.292336143
1.294170585
1.295068462
1.295559336
1.295866485
1.295576728
1.295138697
1.294356269
1.29318288
1.293155681
1.293763918
1.294728723
1.29567748
1.296391722
1.297001047
1.297642761
1.298015295
1.298056162
1.298213654
1.298931925
1.299568344
1.299459235
1.29960177
1.300119238
1.300430315
1.300520693
1.300230053
1.299761243
1.299330104
1.299104325
1.298898159
1.29846291
1.298050185
1.297603297
1.297871599
1.289865797
1.292332103
1.293912332
1.295265424
1.296958548
1.29783857
1.297544464
1.29668593
1.295119114
1.293751522
1.293784736
1.294386339
1.295366073
1.296394758
1.297299772
1.297954289
1.298806461
1.299442565
1.299854874
1.300216745
1.300467163
1.30003335
1.299352151
1.29946053
1.299816461
1.300054982
1.300056139
1.299972094
1.300193927
1.300365366
1.300252413
1.300122782
1.299934031
1.30004405
1.300014777
1.299988019
1.292062089
1.293845254
1.295995106
1.298898234
1.299389369
1.298783624
1.297380636
1.295497338
1.294325719
1.29440083
1.295087506
1.296242798
1.297265938
1.298074107
1.298946846
1.300127379
1.301068731
1.30167556
1.30177824
1.300974613
1.299982467
1.299173621
1.299237594
1.299437954
1.299382026
1.299545079
1.300137093
1.301126444
1.301711352
1.301665317
1.301631671
1.301732702
1.301996866
1.301974524
1.301723925
1.292336378
1.294291921
1.297316522
1.299614713
1.299715581
1.29924736
1.297969048
1.296287678
1.295513129
1.295619323
1.296417817
1.297465361
1.298120776
1.29892918
1.300569185
1.302101983
1.30281993
1.302954981
1.302505067
1.301319926
1.299676468
1.298923285
1.298924161
1.298945384
1.299084858
1.299528826
1.300982441
1.302675498
1.303108144
1.303021724
1.303080641
1.303261349
1.303221144
1.303188882
1.3028377
1.293255006
1.295165758
1.297877956
1.299719585
1.299863952
1.299530658
1.29881933
1.297939031
1.29772306
1.297824586
1.298213966
1.298495524
1.298925338
1.300317655
1.302741675
1.303604023
1.303540952
1.303229044
1.302645593
1.301556546
1.300264837
1.299345066
1.299069007
1.299046506
1.299402076
1.30076107
1.303183644
1.30442132
1.304377079
1.304214032
1.304192202
1.304042959
1.303944984
1.304075208
1.303249638
1.294230329
1.295570229
1.297995196
1.29958938
1.299817816
1.299915128
1.299940341
1.300280587
1.300658935
1.30017889
1.29952598
1.299181838
1.299895622
1.301950236
1.30344013
1.303749432
1.3036291
1.303219813
1.30260166
1.301707697
1.300515671
1.299771032
1.299477546
1.29968276
1.300945064
1.303519102
1.305186332
1.305121063
1.304828186
1.304671193
1.304486504
1.304411078
1.30450315
1.304405011
1.30336169
1.294606439
1.295683072
1.297716316
1.298871221
1.299899235
1.300607649
1.301356684
1.302263382
1.302648122
1.301766777
1.300692319
1.300089031
1.300937597
1.302801848
1.303507154
1.303569657
1.30331596
1.302674329
1.302046935
1.301541146
1.301081354
1.300761936
1.300756631
1.301720541
1.303967589
1.30554598
1.305581942
1.305179934
1.304920827
1.304748518
1.304599455
1.30473923
1.304871918
1.304505822
1.303240102
1.294585288
1.295519382
1.296752051
1.298455449
1.300328426
1.302007331
1.303082679
1.303597379
1.30353666
1.302871244
1.302103816
1.301734047
1.301960418
1.303106692
1.303400183
1.303112715
1.302693237
1.301877072
1.30173512
1.301699536
1.30215453
1.302677994
1.303388088
1.304720028
1.305586416
1.305764386
1.305588252
1.305122015
1.304753068
1.304610633
1.304762121
1.305162825
1.305074852
1.304259522
1.30277641
1.294159137
1.294876324
1.296338721
1.298514075
1.301539144
1.303520088
1.304076355
1.304135479
1.30370205
1.303453753
1.303342403
1.303383304
1.303086185
1.303259242
1.30299915
1.302489109
1.301822546
1.301473226
1.301629387
1.302634729
1.304014708
1.305162052
1.30583969
1.30606697
1.305889376
1.305572563
1.305012678
1.304371875
1.304277449
1.304511661
1.305093248
1.305568786
1.305208274
1.303899577
1.302175131
1.294048594
1.294671818
1.296289998
1.29922541
1.302599942
1.303667892
1.304008152
1.304101859
1.30376668
1.303889005
1.304342712
1.304373448
1.303942997
1.302900801
1.302180992
1.301481887
1.301118022
1.301424706
1.302174604
1.303312737
1.304983472
1.305804975
1.306165069
1.306220652
1.305955642
1.305126709
1.30398862
1.303502018
1.30389614
1.304685841
1.305706027
1.305858724
1.305173527
1.303197597
1.302057078
1.294106147
1.294727884
1.296668607
1.299990091
1.30230778
1.303217058
1.303580004
1.303738799
1.303557275
1.304110641
1.304520477
1.304510608
1.303928767
1.302788817
1.301488018
1.30041479
1.300744637
1.30168874
1.302714544
1.303586185
1.304552237
1.305643501
1.306171337
1.306156942
1.305456543
1.303785311
1.303064791
1.303201972
1.303780253
1.305226935
1.306253857
1.305924996
1.304618664
1.302795017
1.30228633
1.294960365
1.295316765
1.297231563
1.299859164
1.301972038
1.30274897
1.303103049
1.303227417
1.303278945
1.303914418
1.304393376
1.304319887
1.303776719
1.302213613
1.300934801
1.300847968
1.301012654
1.301969784
1.302846241
1.303478428
1.304051446
1.305014209
1.305536339
1.305332963
1.304565076
1.303596398
1.303042537
1.303190452
1.304148431
1.306242662
1.306477956
1.305806548
1.30447255
1.303456007
1.303559252
1.29603311
1.295878314
1.297125012
1.299602973
1.301315063
1.301971423
1.302225688
1.302666041
1.303092052
1.303713298
1.304201115
1.304110055
1.30346306
1.302157486
1.301194432
1.301063376
1.301180262
1.301944325
1.3028219
1.302999329
1.303300154
1.303889761
1.304335383
1.30410563
1.303805493
1.303564043
1.303070838
1.303474083
1.305502726
1.306257667
1.306124567
1.305129316
1.304365448
1.304338995
1.305815851
1.296430545
1.295766075
1.296715597
1.29865276
1.300096497
1.301146892
1.302281467
1.302741086
1.303030284
1.303599285
1.304196174
1.304158935
1.303432759
1.302332562
1.301740937
1.301238307
1.301182584
1.301837659
1.302241754
1.3024
1.302226956
1.302382051
1.303037317
1.303578648
1.303615304
1.3038854
1.304313508
1.305534669
1.306608507
1.306245471
1.305457208
1.304637084
1.304507942
1.305935275
1.30832459
1.296576743
1.295419407
1.29597597
1.297460099
1.299535174
1.301365629
1.302707951
1.303724275
1.304190698
1.304753694
1.305011182
1.304835261
1.304070818
1.303296026
1.302555858
1.301269113
1.300910738
1.301215272
1.30158803
1.301187379
1.301022859
1.301375282
1.302085609
1.303209299
1.303966908
1.304986626
1.306999883
1.308090149
1.307306299
1.306048925
1.304836566
1.304427583
1.305417461
1.307289474
1.308713534
1.296677288
1.295310102
1.295637577
1.29716512
1.29947756
1.30153706
1.303254635
1.304891092
1.306106027
1.306471714
1.306226353
1.305867573
1.305148026
1.30432491
1.302775678
1.301164365
1.300217077
1.300303252
1.300840517
1.301378469
1.301434905
1.30133928
1.301983216
1.302935962
1.304684719
1.307580689
1.309515718
1.309121969
1.307597566
1.305966208
1.304538707
1.30462149
1.305500761
1.306766402
1.308501596
1.295340803
1.295480014
1.29699764
1.299362683
1.30164101
1.304024045
1.306181157
1.307290617
1.307384729
1.306794411
1.306138632
1.30532896
1.304097943
1.302510204
1.300823267
1.300113435
1.300282875
1.300853944
1.301471311
1.301886151
1.302066248
1.302528538
1.304336368
1.307319795
1.309434046
1.309710847
1.309189531
1.3078131
1.305122954
1.304171204
1.304606106
1.305450458
1.306321254
1.307493168
1.295569001
1.295536348
1.29696887
1.298990278
1.301363222
1.304014337
1.30621805
1.307299727
1.307472433
1.307067585
1.306238839
1.305197515
1.303721731
1.301883171
1.300284912
1.299987922
1.300241275
1.300980304
1.301870922
1.302346658
1.303069363
1.304494366
1.307279775
1.309192743
1.309523786
1.30940244
1.308994162
1.307284856
1.305656257
1.305123203
1.305072339
1.305467063
1.305972995
1.3064158
1.295837136
1.295738213
1.296701281
1.298428897
1.300570018
1.303196789
1.305755044
1.306929533
1.307260353
1.306934262
1.306312843
1.304860609
1.303277088
1.301479577
1.300090022
1.300054271
1.30050312
1.301485529
1.302724377
1.303677595
1.305324595
1.307347048
1.308253081
1.308796707
1.309269837
1.308957872
1.307787938
1.305950604
1.305549214
1.305887764
1.306254753
1.306243935
1.30600839
1.305862686
1.295859934
1.295654947
1.296491319
1.297963092
1.29987068
1.302147916
1.304245632
1.305554877
1.306441981
1.306572142
1.306092258
1.305091612
1.303219409
1.301412696
1.300334207
1.300710952
1.30122945
1.302136288
1.303458667
1.305168202
1.307149698
1.308383781
1.308531258
1.308342352
1.308285958
1.307519752
1.305452389
1.30500995
1.305568122
1.306424051
1.307280654
1.307501084
1.306717283
1.305624483
1.29584899
1.295637105
1.296141182
1.297413108
1.29941779
1.301518612
1.303024806
1.304078647
1.305253625
1.306073774
1.305941487
1.305354148
1.303706952
1.30208334
1.30176088
1.301250785
1.301239949
1.301990313
1.303468111
1.305495732
1.307305251
1.308328988
1.308405324
1.308087105
1.306881759
1.30468473
1.303739991
1.304636146
1.305827687
1.307242865
1.308255322
1.30837568
1.307735588
1.305758577
1.295931538
1.295957151
1.296351734
1.297537796
1.299348351
1.30101179
1.301971792
1.302593969
1.304022777
1.305727392
1.306231866
1.305876374
1.304763916
1.303917676
1.302859918
1.3012389
1.30110184
1.301729366
1.303231191
1.305430388
1.307289966
1.307974798
1.30765209
1.306367388
1.304151963
1.303047785
1.303544961
1.304517124
1.306479093
1.308425092
1.308864923
1.308667503
1.308126805
1.306625987
1.296318533
1.296660663
1.296957901
1.297859559
1.299257128
1.300361992
1.300911884
1.301911476
1.3036577
1.305834779
1.307394668
1.307394795
1.306557185
1.305189992
1.303075724
1.301238986
1.300852796
1.301292603
1.302878712
1.305281282
1.307182734
1.307259243
1.30595823
1.304083768
1.302941013
1.302924955
1.303516693
1.305047639
1.307748778
1.308591691
1.308817577
1.308584299
1.308029617
1.307072951
1.297007236
1.297286925
1.297551768
1.298168748
1.298804717
1.299218067
1.300251528
1.301876606
1.303840853
1.306008007
1.306954783
1.307208832
1.306880116
1.305256337
1.303151704
1.300980636
1.300659374
1.301156966
1.302777856
1.305096744
1.306219788
1.30554646
1.30416495
1.303574377
1.303073606
1.303058609
1.303979792
1.306580265
1.307612837
1.308079902
1.308223008
1.308021868
1.30763185
1.307409894
1.297367294
1.297528803
1.297706563
)
;

boundaryField
{
    inlet
    {
        type            calculated;
        value           nonuniform 0();
    }
    outlet
    {
        type            calculated;
        value           nonuniform List<scalar> 
62
(
1.22066385
1.221464341
1.223332333
1.226502192
1.231647439
1.237806142
1.246720057
1.257202134
1.268505407
1.279575424
1.289295971
1.298128323
1.30454363
1.309278309
1.312265767
1.313375876
1.313776082
1.31365854
1.313266997
1.312690654
1.311306514
1.308884168
1.305608445
1.302629608
1.300806484
1.30005368
1.299812243
1.300193413
1.300905764
1.301232161
1.300756556
1.299441712
1.297432187
1.295577192
1.294702859
1.294865066
1.295905188
1.297822949
1.299966832
1.301735624
1.302869551
1.303295343
1.303412171
1.303284931
1.302814555
1.30220299
1.302053931
1.302279849
1.303494038
1.305649331
1.30823415
1.308709111
1.308493315
1.307486769
1.30643556
1.305889053
1.305669149
1.305855893
1.306700304
1.307099827
1.307390318
1.220779128
)
;
    }
    bottom
    {
        type            calculated;
        value           nonuniform 0();
    }
    top
    {
        type            calculated;
        value           nonuniform 0();
    }
    obstacle
    {
        type            calculated;
        value           nonuniform 0();
    }
    defaultFaces
    {
        type            empty;
    }
    procBoundary23to17
    {
        type            processor;
        value           nonuniform List<scalar> 
39
(
1.217217306
1.218852402
1.219808477
1.2199513
1.220006177
1.220136813
1.2200641
1.220000494
1.220183854
1.220225188
1.220154164
1.219855451
1.219608294
1.219730446
1.220262387
1.221285067
1.205431526
1.204746498
1.20412412
1.204137343
1.205217449
1.207177835
1.209512207
1.211740144
1.213820652
1.215573066
1.21589489
1.215909117
1.215743435
1.214971423
1.213337044
1.211324046
1.210399384
1.210621673
1.211376255
1.212344491
1.213485407
1.214771897
1.214771897
)
;
    }
    procBoundary23to22
    {
        type            processor;
        value           nonuniform List<scalar> 
64
(
1.205961644
1.20637919
1.207846163
1.211219416
1.217847314
1.226861622
1.238390109
1.251637821
1.265162322
1.277559899
1.288081018
1.295931585
1.301154226
1.301154226
1.304339785
1.305514592
1.305339586
1.305516558
1.305719935
1.305444277
1.304453782
1.302259732
1.298975365
1.295252331
1.292022514
1.289247843
1.289491507
1.289491507
1.288350491
1.287361158
1.286458976
1.285693844
1.285233679
1.285100262
1.285321105
1.285842812
1.286491492
1.286882757
1.28720822
1.287517123
1.287771689
1.289883261
1.289883261
1.29051649
1.292009754
1.293528707
1.294258362
1.294465695
1.294170352
1.294493551
1.294953689
1.295914527
1.29716268
1.297988889
1.298326299
1.298619045
1.296891354
1.296891354
1.297132297
1.297102894
1.29698207
1.296688223
1.2966228
1.296866541
)
;
    }
    procBoundary23to28
    {
        type            processor;