/*--------------------------------*- C++ -*----------------------------------*\
  =========                 |
  \\      /  F ield         | OpenFOAM: The Open Source CFD Toolbox
   \\    /   O peration     | Website:  https://openfoam.org
    \\  /    A nd           | Version:  7
     \\/     M anipulation  |
\*---------------------------------------------------------------------------*/
FoamFile
{
    version     2.0;
    format      ascii;
    class       volScalarField;
    location    "4.8";
    object      rho;
}
// * * * * * * * * * * * * * * * * * * * * * * * * * * * * * * * * * * * * * //

dimensions      [1 -3 0 0 0 0 0];

internalField   nonuniform List<scalar> 
22
(
1.325259265
1.328195096
1.332685362
1.33567206
1.336094329
1.339374154
1.344962508
1.347206178
1.346489874
1.349578716
1.352026227
1.348652441
1.349756562
1.351931684
1.350231768
1.349433525
1.351773845
1.362089966
1.361579539
1.361663196
1.362955857
1.366451926
)
;

boundaryField
{
    inlet
    {
        type            calculated;
        value           nonuniform 0();
    }
    outlet
    {
        type            calculated;
        value           nonuniform List<scalar> 6(1.361634596 1.335441477 1.347026101 1.352246959 1.352422322 1.351824722);
    }
    bottom
    {
        type            calculated;
        value           nonuniform 0();
    }
    top
    {
        type            calculated;
        value           nonuniform 0();
    }
    obstacle
    {
        type            calculated;
        value           nonuniform 0();
    }
    defaultFaces
    {
        type            empty;
    }
    procBoundary29to22
    {
        type            processor;
        value           uniform 1.360975527;
    }
    procBoundary29to23
    {
        type            processor;
        value           nonuniform List<scalar> 4(1.314915392 1.319491889 1.324709914 1.329616844);
    }
    procBoundary29to28
    {
        type            processor;
        value           nonuniform List<scalar> 7(1.370534076 1.338673874 1.338673874 1.339954185 1.34160572 1.352895132 1.329811879);
    }
    procBoundary29to35
    {
        type            processor;
        value           nonuniform List<scalar> 4(1.372621022 1.314248053 1.372621022 1.352543606);
    }
}


// ************************************************************************* //
