/*--------------------------------*- C++ -*----------------------------------*\
  =========                 |
  \\      /  F ield         | OpenFOAM: The Open Source CFD Toolbox
   \\    /   O peration     | Website:  https://openfoam.org
    \\  /    A nd           | Version:  7
     \\/     M anipulation  |
\*---------------------------------------------------------------------------*/
FoamFile
{
    version     2.0;
    format      ascii;
    class       volScalarField;
    location    "1.7";
    object      p;
}
// * * * * * * * * * * * * * * * * * * * * * * * * * * * * * * * * * * * * * //

dimensions      [1 -1 -2 0 0 0 0];

internalField   nonuniform List<scalar> 
22
(
0.847154117
0.6701401635
0.7209812733
0.886646931
0.6779421293
0.7498122237
0.9318232331
0.6854726483
0.785181895
0.9733054441
0.6943509969
0.8230342152
1.004622578
0.7049728833
0.8689339415
1.027602811
0.7172455987
0.9232084048
0.7303025103
0.9706576068
0.7286458537
1.037147817
)
;

boundaryField
{
    inlet
    {
        type            fixedValue;
        value           nonuniform 0();
    }
    outlet
    {
        type            zeroGradient;
    }
    bottom
    {
        type            slip;
    }
    top
    {
        type            slip;
    }
    obstacle
    {
        type            zeroGradient;
    }
    defaultFaces
    {
        type            empty;
    }
    procBoundary15to9
    {
        type            processor;
        value           nonuniform List<scalar> 4(0.7911235495 0.6562915985 0.6968039121 0.6968039121);
    }
    procBoundary15to10
    {
        type            processor;
        value           nonuniform List<scalar> 3(0.9847534427 0.9997808627 1.009380959);
    }
    procBoundary15to16
    {
        type            processor;
        value           nonuniform List<scalar> 7(1.016440027 1.018955391 1.022557294 1.037289313 1.037289313 1.045241234 1.044828009);
    }
    procBoundary15to21
    {
        type            processor;
        value           nonuniform List<scalar> 2(0.728988072 1.013394299);
    }
}


// ************************************************************************* //
