/*--------------------------------*- C++ -*----------------------------------*\
  =========                 |
  \\      /  F ield         | OpenFOAM: The Open Source CFD Toolbox
   \\    /   O peration     | Website:  https://openfoam.org
    \\  /    A nd           | Version:  7
     \\/     M anipulation  |
\*---------------------------------------------------------------------------*/
FoamFile
{
    version     2.0;
    format      ascii;
    class       volScalarField;
    location    "2.1";
    object      p;
}
// * * * * * * * * * * * * * * * * * * * * * * * * * * * * * * * * * * * * * //

dimensions      [1 -1 -2 0 0 0 0];

internalField   nonuniform List<scalar> 
2222
(
11.49537058
11.53784316
11.5022679
11.45989955
11.41472327
11.37122472
11.54563953
11.52525259
11.49880007
11.4627675
11.41728133
11.36760338
11.32229158
11.28896634
11.26698068
11.53435707
11.52484148
11.50790105
11.48625173
11.45705858
11.41659375
11.36603477
11.31288556
11.27018945
11.24096867
11.22180619
11.21220861
11.21210981
11.48777582
11.49444542
11.49645301
11.4880215
11.47054601
11.44598328
11.41045959
11.36263023
11.3063022
11.25462853
11.21887331
11.19475653
11.18146949
11.17985758
11.1864061
11.19342873
11.45488647
11.44930814
11.45376671
11.46160213
11.46303168
11.45323758
11.43275935
11.40121712
11.35596297
11.2995938
11.24095103
11.19881088
11.17023734
11.1533881
11.14961981
11.15763074
11.16987856
11.1753775
11.16962495
11.15082738
11.45786978
11.43379794
11.41922104
11.41743967
11.42587503
11.43489176
11.43338447
11.41894994
11.39077353
11.34757228
11.29157573
11.22863783
11.17967282
11.14752815
11.12761548
11.12169101
11.13047675
11.14721493
11.15878277
11.15736544
11.14229535
11.11074979
11.06751391
11.51365654
11.4538378
11.41919478
11.39607583
11.38688635
11.39266733
11.40568877
11.41239103
11.40468939
11.38036299
11.33905915
11.28347602
11.21801907
11.16201048
11.12680911
11.10429363
11.09621039
11.10512559
11.12521149
11.14187806
11.14459898
11.13234436
11.1030339
11.0624496
11.01501918
10.9659413
10.92551263
11.58515845
11.52252252
11.45339344
11.40738795
11.3765403
11.36033086
11.3625326
11.37761496
11.39133535
11.39047339
11.37086656
11.33142699
11.27659558
11.2098489
11.1473243
11.10853324
11.08314476
11.07290887
11.08124357
11.10332643
11.12430483
11.13073069
11.12023379
11.09207107
11.05405481
11.01044117
10.96520499
10.92500854
10.89409689
10.87695314
11.62309387
11.57991121
11.52096006
11.44966686
11.39349145
11.35821645
11.33615303
11.33498343
11.35134475
11.37094207
11.37691626
11.36205402
11.32441037
11.27089435
11.20396959
11.13638079
11.09276075
11.06412466
11.05174206
11.05905823
11.08183802
11.10567192
11.11499982
11.10534944
11.07678398
11.04118958
11.00142518
10.96243385
10.92679025
10.89711155
10.87956749
10.87599132
10.87828031
11.63890377
11.61381402
11.57058237
11.51294139
11.44067577
11.37706431
11.33865144
11.31258019
11.30884437
11.3263055
11.35124512
11.3633943
11.35272129
11.31679469
11.26513272
11.19921703
11.12899652
11.07981556
11.04813844
11.03368471
11.03954709
11.06144952
11.08579045
11.09620369
11.08610988
11.05692435
11.0230877
10.98832022
10.95608201
10.92708193
10.90330582
10.88894429
10.88376584
10.88145509
10.86850295
10.83537927
11.60524474
11.62019668
11.60455201
11.56107982
11.50294114
11.42827686
11.35848004
11.31707173
11.28842612
11.28288101
11.30155144
11.33127009
11.34889792
11.34180625
11.30718889
11.25755996
11.19393683
11.12436117
11.07098806
11.0366832
11.01981527
11.02414936
11.04351977
11.06480993
11.07294348
11.05953113
11.03173633
11.00070518
10.97232661
10.94634283
10.92480195
10.90995592
10.9025287
10.90038218
10.89082159
10.85620103
10.8119418
10.76260035
10.71469813
11.54976287
11.58613127
11.60687568
11.59720398
11.55358604
11.49359584
11.41480092
11.33864846
11.29427736
11.26403803
11.25726442
11.27715181
11.31074118
11.33268325
11.3281728
11.29414532
11.24630696
11.18621934
11.12062958
11.06663456
11.03061232
11.01197853
11.0145849
11.02983186
11.04452407
11.04501159
11.02480504
10.9976363
10.97030993
10.948521
10.93165084
10.92120098
10.91867632
10.92215821
10.92571611
10.9060365
10.85547218
10.79075918
10.72582115
10.67203047
10.62805245
10.59864898
11.51865168
11.53914498
11.57606604
11.60034986
11.59360374
11.54895322
11.48611296
11.40243037
11.31969338
11.27233409
11.24082658
11.23341091
11.2542152
11.29000469
11.31409024
11.31063093
11.27620544
11.22974398
11.17367456
11.11549842
11.06679444
11.03117647
11.01267705
11.01428877
11.02402309
11.02928955
11.01363537
10.98760802
10.95700566
10.93190565
10.91768064
10.91141576
10.91516778
10.92696263
10.94203236
10.94798718
10.92200171
10.86412315
10.78068948
10.69122086
10.6311779
10.58413149
10.55217662
10.54430099
11.52855681
11.51387897
11.53376584
11.57186724
11.59845822
11.59242079
11.54587048
11.48011712
11.39190875
11.3038164
11.25326395
11.22051986
11.21302883
11.23422586
11.26976586
11.29276104
11.28776353
11.25222217
11.2069675
11.15511825
11.10811802
11.06957254
11.04010171
11.02580991
11.02634645
11.03050357
11.01767662
10.98972111
10.9550092
10.91595583
10.89199182
10.88291454
10.88815155
10.90761201
10.93652724
10.96166151
10.96917835
10.93987832
10.87432197
10.77721624
10.66383631
10.59245414
10.54751233
10.51363679
10.505445
10.52480418
10.56364021
11.56198154
11.52162715
11.50643436
11.5280111
11.56877846
11.59719194
11.59006582
11.54071231
11.47252229
11.38204926
11.29242515
11.23861822
11.20457635
11.19801121
11.21881977
11.250715
11.26881605
11.25778769
11.22191815
11.17817636
11.13381914
11.09862721
11.06994117
11.0527864
11.04884409
11.05282858
11.04368633
11.01179385
10.97314792
10.92347429
10.87585381
10.85454574
10.84841759
10.86291155
10.89840162
10.9447091
10.98005613
10.98887797
10.95960926
10.8883822
10.78012515
10.65089763
10.5595281
10.51356571
10.48607698
10.47428483
10.4911129
10.52891107
10.563059
10.57626663
11.63207207
11.54816971
11.50727379
11.49409028
11.51912292
11.56306355
11.59190875
11.58145326
11.52878257
11.45882608
11.36979669
11.28534456
11.22972146
11.19511157
11.19049517
11.20964525
11.23354377
11.24118505
11.21740446
11.18211293
11.14137058
11.10928452
11.08516643
11.06996412
11.07021441
11.08092794
11.0891241
11.06158743
11.00960738
10.94839244
10.88936088
10.83998528
10.81792373
10.81252664
10.83448949
10.88518967
10.94730463
10.99247368
11.0051881
10.97800569
10.90489246
10.79404607
10.66533278
10.55784902
10.48896696
10.4514599
10.45287475
10.47732388
10.50761871
10.53108699
10.53835466
10.50971499
11.72648872
11.60932389
11.52917159
11.48840081
11.47875873
11.507586
11.55284049
11.5789451
11.56247998
11.50733717
11.43612009
11.35313119
11.28038399
11.22719066
11.1954252
11.19322617
11.20833774
11.22069375
11.20550391
11.17125075
11.13050022
11.09258201
11.07188835
11.06034794
11.06605888
11.08673909
11.11365058
11.12239689
11.08792422
11.02082143
10.92972698
10.85173393
10.8061202
10.78250338
10.77752793
10.80532494
10.86549629
10.93896706
10.9931292
11.01273848
10.98533587
10.91418411
10.80749005
10.68478897
10.58843849
10.50966832
10.45192234
10.43067065
10.44673787
10.47327718
10.49068786
10.48862265
10.45366919
10.38799589
11.81102183
11.7068202
11.5841035
11.51074473
11.47008325
11.4648467
11.49669447
11.53902024
11.55756684
11.53178896
11.47572556
11.40367438
11.33005901
11.27352954
11.22950762
11.20676422
11.20851858
11.2178868
11.20908375
11.1717015
11.1261495
11.07452781
11.03944257
11.02490774
11.02977843
11.05761707
11.10341195
11.1444666
11.15440544
11.11188653
11.02952114
10.9173174
10.81786937
10.7716163
10.74964481
10.74854054
10.77925556
10.8418503
10.91975109
10.98213536
11.00610758
10.97799951
10.9079897
10.81139341
10.71042782
10.61960252
10.5346846
10.47558672
10.45310646
10.45870106
10.46680518
10.46577232
10.44828362
10.40472379
10.33625075
10.24714109
10.14334498
11.88474884
11.80386272
11.68577706
11.56389777
11.49743839
11.45786544
11.45909613
11.49168997
11.52453667
11.52734012
11.48804113
11.43257748
11.36327025
11.30523236
11.26050965
11.23129646
11.22622273
11.23488632
11.23308336
11.1926247
11.14269697
11.08059666
11.01835158
10.98880298
10.9783019
10.99708745
11.04714165
11.11635717
11.16996225
11.18267081
11.13262176
11.03970992
10.91396752
10.80402652
10.74403934
10.71402673
10.71873937
10.75824214
10.82360097
10.90241313
10.96070337
10.97592451
10.94738769
10.88030326
10.80119993
10.71624256
10.63050299
10.55369589
10.49922495
10.46962132
10.45821699
10.4513778
10.43671729
10.40493823
10.35282115
10.27921292
10.18994416
10.08272559
9.967943912
11.93873314
11.8821947
11.78901988
11.6626162
11.55422981
11.49195876
11.45826924
11.4672453
11.49460525
11.51105647
11.48626885
11.43576612
11.37150677
11.31070012
11.27043241
11.24276051
11.24080891
11.25729665
11.27715848
11.25098915
11.18055001
11.09924215
11.02160943
10.96627604
10.94122081
10.93424484
10.96560107
11.03589616
11.12327742
11.18809276
11.20138094
11.14735325
11.05066282
10.92254097
10.80861654
10.7352793
10.68832269
10.68701163
10.7337543
10.79812628
10.85847486
10.90523997
10.91508064
10.88838363
10.83817265
10.77272531
10.69806232
10.62249868
10.55540249
10.50333107
10.46974199
10.44792437
10.42779578
10.39957934
10.35750013
10.29815014
10.2241375
10.12620426
10.01771735
9.893208428
9.753793511
11.94831493
11.92975993
11.86454387
11.75927328
11.63622882
11.55236933
11.4971487
11.47610024
11.48849578
11.50434673
11.49055657
11.43727027
11.37191655
11.30080594
11.25342097
11.2237998
11.22496208
11.25248833
11.29411483
11.31926656
11.27669732
11.18719702
11.07326909
10.96778921
10.91195849
10.88743752
10.89461303
10.94000807
11.02679887
11.12629385
11.18887383
11.20502246
11.15638303
11.06779125
10.95372387
10.84607087
10.76186491
10.70396572
10.69328256
10.71966855
10.76957506
10.8256828
10.8622792
10.86846483
10.84630933
10.80370952
10.74722688
10.68311366
10.61795027
10.55792843
10.50880774
10.46998353
10.43766476
10.40374118
10.3634381
10.31028433
10.2468061
10.15987335
10.05754101
9.938680039
9.801400976
9.645729128
9.479912058
9.30323569
11.92681911
11.94161942
11.89827347
11.8221249
11.70873708
11.61125706
11.54904585
11.51030557
11.50968216
11.51979341
11.51261487
11.45646431
11.3857012
11.30289624
11.22789165
11.18462076
11.17260171
11.20292587
11.26447168
11.32950645
11.35609184
11.29951318
11.19228229
11.0540519
10.93657904
10.87380591
10.83955677
10.85495895
10.91727458
11.0116767
11.1086489
11.17121399
11.18209644
11.14148154
11.06516347
10.97500735
10.88829941
10.81378566
10.75965948
10.74283389
10.76109132
10.79676789
10.83081382
10.84971144
10.84994101
10.83084933
10.79300496
10.74010636
10.67843684
10.61372732
10.55323203
10.50014925
10.45567778
10.41384146
10.37112092
10.31813119
10.25627808
10.1773765
10.08279167
9.969847332
9.838524966
9.681774608
9.509706825
9.318619427
9.114201893
8.944983888
11.91151464
11.9447847
11.91833907
11.85135169
11.74948851
11.64613075
11.58257823
11.54445858
11.54476696
11.56099678
11.57094982
11.52657517
11.42645043
11.31534577
11.21193024
11.15152442
11.11738882
11.13259959
11.19271939
11.27848546
11.35056597
11.37506869
11.31609525
11.2041371
11.062076
10.93999035
10.86057351
10.81265903
10.822956
10.88191946
10.97072572
11.05805647
11.11542083
11.12644579
11.09776614
11.04428448
10.97613325
10.90280983
10.83490405
10.78793564
10.76967756
10.77811261
10.80004886
10.82124206
10.83308688
10.8316253
10.81541121
10.7831508
10.73675848
10.6792045
10.61661496
10.55325489
10.49437393
10.43862003
10.38654028
10.32991584
10.26794118
10.19432456
10.10420906
9.991999071
9.861987218
9.704991622
9.530080735
9.330992217
9.118137612
8.918641216
8.630415706
11.92798739
11.96456192
11.95631543
11.8865885
11.78260165
11.66419351
11.58467512
11.54021838
11.54471122
11.57950331
11.61789069
11.62059841
11.53730855
11.40477279
11.25719875
11.1456975
11.07788491
11.05125963
11.08472693
11.16758111
11.26744623
11.34103787
11.35888873
11.30813113
11.20061743
11.08077392
10.97195284
10.88396747
10.83534111
10.84060863
10.89155343
10.96280586
11.03132466
11.07413519
11.08349513
11.0614683
11.01634036
10.95936259
10.9011389
10.8509023
10.81729384
10.80354483
10.80618898
10.81745447
10.82820659
10.83195633
10.82632219
10.80910248
10.77754569
10.73210502
10.67664003
10.61351199
10.54815861
10.48325667
10.42086994
10.35725222
10.29100041
10.21839727
10.1321761
10.0243395
9.895760648
9.737605276
9.553913774
9.344848486
9.115875578
8.889242289
8.608610521
11.98416044
12.01182835
12.01019602
11.93417718
11.82116042
11.68194315
11.57377977
11.51336817
11.50872202
11.54671757
11.60879243
11.65409685
11.64728202
11.54079631
11.38496037
11.22240394
11.10049878
11.01416045
10.99013191
11.02892518
11.11481465
11.21145288
11.28077945
11.29288375
11.24936248
11.17171334
11.07702408
10.98317969
10.90516771
10.86316677
10.86278608
10.90027921
10.9573193
11.01168071
11.04804116
11.05844636
11.04203628
11.00256864
10.94982369
10.89583553
10.8513163
10.82327042
10.81270033
10.81499937
10.82456835
10.83458811
10.84017527
10.83647257
10.820468
10.78752106
10.73645754
10.67342443
10.60445814
10.53354399
10.46072417
10.38463531
10.30492612
10.22072063
10.12747221
10.0209265
9.898519607
9.746938515
9.564925451
9.356370711
9.114219588
8.866150707
8.57674685
12.05442342
12.09250208
12.11130773
12.06739168
11.92570648
11.75256535
11.58942772
11.48734155
11.44227499
11.47090968
11.53725066
11.61325902
11.65462004
11.62843561
11.52350296
11.37270176
11.2212631
11.0928637
11.00946169
10.99245772
11.02991218
11.10063342
11.17695481
11.22551476
11.2313702
11.19490012
11.1268688
11.04527057
10.96617273
10.90534145
10.87369079
10.87572691
10.90531728
10.94927035
10.99260631
11.02278391
11.03241807
11.01992521
10.98818474
10.94485102
10.90112201
10.8652822
10.84065597
10.82731404
10.82489503
10.83124436
10.84179359
10.85120724
10.8507629
10.82970697
10.79193463
10.73614921
10.66812736
10.59309226
10.51315743
10.43118753
10.34725934
10.25745555
10.15881762
10.04908999
9.923102711
9.768375594
9.578555187
9.360326288
9.105025837
8.841793249
8.537681653
12.07437652
12.13389128
12.18958339
12.19690916
12.09229888
11.90596217
11.70231519
11.53526294
11.42229133
11.38968686
11.42755321
11.50557158
11.58219993
11.61215834
11.5701314
11.46722157
11.33211437
11.19472388
11.08269021
11.01404135
10.9969862
11.02541095
11.08169627
11.14124161
11.18097055
11.18456138
11.149102
11.08675429
11.01485254
10.95042162
10.90665742
10.88852505
10.89291458
10.91249215
10.93905417
10.96561402
10.98681648
10.99409126
10.98203954
10.95361272
10.91680984
10.88061885
10.85380825
10.84074291
10.83895968
10.8412388
10.84131863
10.84001532
10.84096821
10.84335847
10.83579167
10.79766099
10.74086501
10.66997763
10.58607519
10.49760403
10.40893364
10.31363134
10.20866739
10.08985816
9.955426453
9.795917848
9.600884682
9.375859467
9.108251495
8.828970376
8.506610304
12.03579822
12.10243238
12.18502742
12.23352012
12.19998855
12.05748394
11.86234611
11.67178601
11.51893306
11.42477242
11.39990679
11.42929181
11.48805526
11.53486544
11.53433487
11.4772252
11.37504542
11.25281708
11.13845109
11.04941415
11.00077999
10.99338047
11.01995867
11.06215908
11.10181454
11.12692398
11.12608192
11.09382711
11.03902744
10.97809964
10.92673862
10.8942939
10.8834827
10.89325474
10.92001283
10.95700399
10.99479474
11.01838443
11.01905363
10.99703245
10.95757085
10.91613515
10.88064143
10.85377649
10.83845857
10.83578154
10.84089247
10.8507639
10.86369493
10.87376535
10.86227209
10.82725128
10.78157762
10.72396406
10.65000989
10.56168188
10.46853616
10.37223247
10.26041734
10.13337872
9.998257637
9.838718849
9.641867124
9.407972602
9.126097788
8.828308896
8.480578434
12.02874817
12.04995905
12.13088102
12.21845689
12.23831804
12.14877471
11.98135608
11.78806485
11.61391617
11.48434765
11.41635911
11.40619027
11.43891575
11.48413932
11.50684554
11.48201021
11.40862925
11.29908391
11.18174356
11.07797715
11.00225402
10.96345176
10.95981539
10.9835975
11.02126152
11.05822178
11.08381128
11.08615334
11.06092592
11.01792628
10.97090158
10.93281518
10.91147663
10.90528305
10.91286648
10.93329842
10.96006887
10.98698777
11.00861042
11.00494222
10.9777841
10.94629355
10.90885379
10.87668175
10.86037051
10.85498217
10.85497106
10.86111188
10.87548274
10.89062577
10.89144296
10.86512292
10.82531686
10.77484122
10.70957347
10.62725401
10.52972043
10.4260903
10.31608624
10.1892
10.04718144
9.886355267
9.693213332
9.449319427
9.153653511
8.832773522
8.45888661
12.12844167
12.09384833
12.12602423
12.18989199
12.21791517
12.16564922
12.03015221
11.85394933
11.67826317
11.53120783
11.42538577
11.37012745
11.36109302
11.38356293
11.41402012
11.4239938
11.38838174
11.30617789
11.20325863
11.10459298
11.02765971
10.98004808
10.95683294
10.95328397
10.96505602
10.98568347
11.01031357
11.02675615
11.0134867
10.9779557
10.93750188
10.90209253
10.879118
10.87319952
10.88584751
10.90789104
10.93218567
10.96628574
11.0005941
11.00448694
10.98985086
10.97094067
10.94399162
10.91035192
10.88016851
10.86242631
10.85623727
10.85877424
10.87168418
10.89390525
10.90861428
10.89449609
10.86450926
10.82220755
10.7645272
10.68723035
10.59193033
10.48915584
10.38017094
10.25677607
10.11165473
9.942171927
9.744261606
9.492725879
9.18459854
8.834943425
8.435459079
12.25886985
12.17842683
12.17116932
12.21611297
12.25473991
12.2246416
12.11138081
11.94222964
11.76444928
11.60717241
11.48306615
11.39580695
11.34874163
11.34114143
11.35794397
11.36342962
11.33767118
11.28765184
11.2018027
11.10450084
11.01622551
10.95133296
10.91099489
10.90310954
10.92755815
10.96172339
10.99469862
11.02112054
11.01188504
10.98714677
10.95496172
10.91356358
10.87971156
10.86786623
10.86286172
10.87419352
10.90169738
10.94323377
10.98654894
11.00911932
11.00629988
10.99663905
10.97758344
10.94540679
10.90645997
10.87421298
10.8578445
10.85245434
10.85692323
10.87517349
10.90078389
10.90539563
10.88545882
10.85463709
10.81039581
10.74686788
10.66094547
10.55793775
10.44548259
10.32316564
10.17939958
10.00686915
9.802367732
9.544899453
9.22617078
8.8499284
8.417257632
12.36768052
12.24834666
12.1925294
12.19246823
12.21513874
12.20484154
12.12832635
11.97523367
11.79341925
11.62255076
11.47989883
11.37026147
11.29737474
11.2640434
11.26058806
11.27861957
11.30615283
11.28736086
11.21354808
11.12672592
11.02830682
10.95551242
10.9094522
10.88361109
10.88272492
10.90529312
10.94191421
10.98023928
10.98661044
10.97205252
10.95017061
10.91545556
10.87266205
10.8518267
10.84928199
10.8549976
10.87742015
10.91906378
10.97638048
11.01895392
11.02789549
11.02424126
11.00988788
10.98074001
10.94259353
10.91099356
10.88961429
10.87479665
10.86569064
10.86610249
10.88247706
10.89962608
10.89038264
10.86874347
10.83520034
10.78516683
10.71454385
10.62130692
10.51139149
10.39275306
10.25271978
10.08051006
9.871456717
9.608649316
9.282737564
8.885270903
8.412412964
12.58960283
12.41264328
12.29704936
12.24010207
12.23323962
12.2342768
12.19402115
12.05528304
11.87524311
11.70077428
11.5535872
11.42780402
11.32782044
11.26563489
11.23437019
11.2250092
11.23177225
11.20087866
11.14349191
11.0764469
10.99590261
10.92307169
10.875976
10.84986063
10.84356209
10.86106371
10.90045853
10.95020843
10.97380557
10.96625449
10.94991425
10.9192637
10.87664245
10.84430143
10.83616445
10.83703854
10.84829807
10.87816042
10.93068376
10.98814709
11.01993798
11.027955
11.02377398
11.00491685
10.97228331
10.93613187
10.90789426
10.89213088
10.88412791
10.88074594
10.88846612
10.90424716
10.90303488
10.88472113
10.85618367
10.81603145
10.75976133
10.68028257
10.57721509
10.46481635
10.33257737
10.1659247
9.956527848
9.688468107
9.35157749
8.931203796
8.42258561
12.91049669
12.70012532
12.52297981
12.3816801
12.28983546
12.24115596
12.1613062
12.01707615
11.85784391
11.68583098
11.53776772
11.42437899
11.33030831
11.25125607
11.20153298
11.18354109
11.18692351
11.16204578
11.11102951
11.05390242
10.98096943
10.90172715
10.85149295
10.82378886
10.81201857
10.82062913
10.8548842
10.91082219
10.95380356
10.95886104
10.95151994
10.92972239
10.89229423
10.8538231
10.83543745
10.83393816
10.84119292
10.86198259
10.90341917
10.95876997
11.00303756
11.02191371
11.02582638
11.01817224
10.99782308
10.96813029
10.93884293
10.91954644
10.90939531
10.9013449
10.89648627
10.90046753
10.90888493
10.89970925
10.87804205
10.84439305
10.79436488
10.72326574
10.63347399
10.53307585
10.40935311
10.25210242
10.04709102
9.780079197
9.428071312
8.982623354
8.434197817
13.11002787
12.8956449
12.70090716
12.53219848
12.40402097
12.31620237
12.21218797
12.06656145
11.91425288
11.73396514
11.56136836
11.43535995
11.33558492
11.25611718
11.19645873
11.16484636
11.15758942
11.1346655
11.08239113
11.02522682
10.95611006
10.87776566
10.8161482
10.78727392
10.77453411
10.77640277
10.80105218
10.85375194
10.91231735
10.93773231
10.9413584
10.93283857
10.90542383
10.86680833
10.84147696
10.83628142
10.84139892
10.85357947
10.87839307
10.91846008
10.96484051
10.99771477
11.01061145
11.01445287
11.00797462
10.99086903
10.96331039
10.93676801
10.92509484
10.91635154
10.9116324
10.91767989
10.92310171
10.91015279
10.88726123
10.85608162
10.81329866
10.75238152
10.67279942
10.58147774
10.46727654
10.32373335
10.13831073
9.881580511
9.530466099
9.061914952
8.465454699
13.49887256
13.25139628
13.02885298
12.8242174
12.65360323
12.51415088
12.34379119
12.16410639
11.97824152
11.77895809
11.59209611
11.45378138
11.34796619
11.26446494
11.20218153
11.16625333
11.15394868
11.13106346
11.07255331
11.00718255
10.93545927
10.85493403
10.78475735
10.75030713
10.73830322
10.74096444
10.760664
10.80369447
10.8609582
10.89868218
10.90916644
10.91238577
10.90179679
10.86947364
10.8334126
10.81825216
10.81755551
10.82475961
10.84362197
10.88343474
10.94117733
10.98251296
10.99966011
11.00749991
11.00663585
10.99529617
10.97565504
10.9626757
10.95705364
10.9512043
10.94716827
10.94209141
10.93281775
10.92213356
10.90194327
10.87246876
10.83265864
10.77751096
10.70759903
10.62711601
10.52594819
10.39681692
10.22830043
9.989000887
9.639653965
9.147423693
8.494691371
13.83075129
13.5473585
13.30253835
13.07252446
12.86248394
12.67768386
12.47034493
12.2637395
12.0553716
11.84103647
11.64309345
11.4900645
11.36917106
11.27388218
11.20817065
11.17086739
11.15373271
11.12566886
11.06274615
10.99365449
10.91963936
10.83621834
10.76070099
10.71813652
10.70066766
10.70065474
10.71851382
10.75690152
10.80607431
10.84731678
10.86411652
10.87311798
10.87441121
10.8610701
10.84076902
10.83476147
10.83670995
10.84275405
10.8575893
10.88495689
10.92388736
10.96122337
10.9786344
10.98696272
10.98835982
10.98064993
10.97068514
10.96966976
10.96990289
10.97021529
10.9702345
10.96795323
10.96387099
10.95312228
10.92814855
10.8950707
10.85164183
10.79553352
10.73050593
10.65916863
10.5704909
10.45798535
10.30940283
10.09557444
9.762146917
9.256545807
8.539325025
14.28209285
13.96061722
13.68109618
13.40798392
13.13753524
12.8849797
12.63868062
12.3956612
12.16344789
11.92952802
11.71242461
11.5416696
11.40552303
11.29873147
11.22416667
11.18006485
11.15708755
11.12324928
11.05974197
10.99205552
10.92253023
10.84862552
10.77761347
10.72793033
10.69960178
10.68704111
10.69278272
10.71702217
10.76375785
10.80846083
10.82438976
10.83384691
10.8413519
10.83642618
10.82675883
10.83138054
10.83946996
10.8515096
10.86875429
10.89419453
10.92814903
10.95611772
10.96623564
10.97136315
10.97046879
10.96260762
10.95754931
10.95998775
10.96440039
10.96931197
10.97383909
10.97728239
10.98038812
10.977928
10.95723114
10.92417215
10.88096761
10.82284414
10.75655255
10.68817639
10.60747274
10.50966175
10.37936296
10.19289698
9.887488038
9.381537712
8.603620151
14.05288497
13.72909079
13.39694523
13.09044835
12.81313119
12.54060387
12.287966
12.0428124
11.81286284
11.62198233
11.46927921
11.34872689
11.26149599
11.20543102
11.16743339
11.11916776
11.05277349
10.98910903
10.92514804
10.85949583
10.79884638
10.75456673
10.72457792
10.70683419
10.70488063
10.71835736
10.7495257
10.77879171
10.78404383
10.7872889
10.78995532
10.7880781
10.79146346
10.80555941
10.82418866
10.84735478
10.87575184
10.91092688
10.9515352
10.97621632
10.98065169
10.97977244
10.97055079
10.9547503
10.94817862
10.95119462
10.95645837
10.96347532
10.97296041
10.98554549
10.99836335
11.00451288
10.99097952
10.96176862
10.92095647
10.86301898
10.79231665
10.72404168
10.64648763
10.55396276
10.43655404
10.27499182
10.0133713
9.524677556
8.691693223
13.69941428
13.33231642
13.00953761
12.70144025
12.41834032
12.15116168
11.90723989
11.699447
11.52865066
11.39530041
11.30002525
11.23564305
11.17755949
11.10203795
11.02208268
10.94963858
10.88625741
10.82979687
10.78229085
10.75044726
10.72802584
10.71520626
10.71741157
10.7341472
10.76463715
10.78562077
10.78439979
10.77660729
10.76475587
10.75451914
10.75997894
10.77589125
10.79778091
10.82662837
10.86309741
10.90665811
10.9516299
10.97682161
10.98272516
10.98290387
10.9714799
10.94920848
10.93498275
10.9365033
10.94062998
10.94883688
10.96352656
10.98560933
11.00961932
11.02130647
11.00942141
10.98397385
10.94716951
10.89247835
10.82110889
10.75277775
10.68426532
10.60012361
10.4945912
10.34993846
10.1332216
9.681057662
8.796093465
12.8876699
12.58117199
12.30259805
12.05785016
11.84791537
11.66865047
11.5228087
11.41240836
11.32661841
11.23489875
11.13730714
11.04545845
10.96022937
10.88246171
10.81231941
10.75884249
10.72871802
10.70805935
10.69931689
10.71239896
10.7432875
10.78231795
10.80117955
10.79972516
10.7885553
10.76355709
10.73402132
10.72818776
10.74374801
10.76572457
10.79627532
10.83788652
10.89141609
10.94967844
10.98754096
10.99967447
11.00373646
10.99288721
10.96156545
10.92795494
10.92032662
10.92617285
10.93752197
10.95733744
10.98697779
11.022012
11.04362784
11.0358815
11.01389543
10.98238179
10.93404043
10.86551283
10.78764929
10.71500534
10.63794845
10.54175216
10.41480752
10.23233033
9.841759872
8.928871631
12.44056698
12.18709804
11.9674742
11.77884233
11.6252476
11.50211248
11.38552906
11.26412583
11.14941601
11.04550822
10.95278696
10.86917242
10.79497046
10.74171684
10.71502866
10.69932471
10.69522679
10.70747127
10.73472505
10.76565313
10.77585276
10.77482924
10.7640768
10.74003284
10.71523984
10.7040368
10.7125496
10.73333643
10.76179927
10.80341304
10.86409792
10.93884358
10.98230536
10.99356925
10.99783223
10.98805379
10.96315808
10.935497
10.92140568
10.92396966
10.93107309
10.9461947
10.97357304
11.01147649
11.03946324
11.03588728
11.01390177
10.98378093
10.93832995
10.87428905
10.79917638
10.73080166
10.66539937
10.5833573
10.47718182
10.32898664
10.01240693
9.099163986
12.18368241
11.99584951
11.84290557
11.69494058
11.54452414
11.39513902
11.24960597
11.11946557
11.00900373
10.91501586
10.83507769
10.76723026
10.71290536
10.68575244
10.67511286
10.68130541
10.71677142
10.76406483
10.78346943
10.78480786
10.7792816
10.75756817
10.71981474
10.68580282
10.67988716
10.69611887
10.72157566
10.76280832
10.82749569
10.90604208
10.97222369
11.00184941
11.01209682
11.01217742
10.99524658
10.9621448
10.92852277
10.91341465
10.91379392
10.92148448
10.94574396
10.9875754
11.0303646
11.05026351
11.03874272
11.01270506
10.97261924
10.91375769
10.83985593
10.76708363
10.70392388
10.6292496
10.53451778
10.40903688
10.1852502
9.48423983
)
;

boundaryField
{
    inlet
    {
        type            fixedValue;
        value           nonuniform 0();
    }
    outlet
    {
        type            zeroGradient;
    }
    bottom
    {
        type            slip;
    }
    top
    {
        type            slip;
    }
    obstacle
    {
        type            zeroGradient;
    }
    defaultFaces
    {
        type            empty;
    }
    procBoundary14to7
    {
        type            processor;
        value           nonuniform List<scalar> 
17
(
11.53604924
11.56562527
11.56393182
11.53285833
11.48471965
11.46833651
11.4981688
11.57998228
11.63182619
11.65633608
11.63314183
11.57099032
11.52543529
11.52919319
11.56595549
11.64604536
11.74246162
)
;
    }
    procBoundary14to8
    {
        type            processor;
        value           nonuniform List<scalar> 
90
(
11.44952933
11.45352027
11.45352027
11.41390479
11.38227328
11.36183617
11.33678248
11.33678248
11.31422195
11.2976886
11.28695854
11.25238363
11.25238363
11.24595692
11.24554239
11.24546895
11.2159905
11.2159905
11.21696754
11.21035536
11.19243528
11.19243528
11.18207482
11.15910654
11.12180568
11.11647002
11.11647002
11.07078667
11.01849231
11.01702851
11.01702851
10.96731456
10.92967934
10.903159
10.89567599
10.89567599
10.88175186
10.88434142
10.87595429
10.87595429
10.88304666
10.89000728
10.87768983
10.87768983
10.8629428
10.8323774
10.79702994
10.79702994
10.75807108
10.72434194
10.67597425
10.67597425
10.65018771
10.64213042
10.59172025
10.59172025
10.60968683
10.56405108
10.56405108
10.60332689
10.64370109
10.60348733
10.60348733
10.62072402
10.60459769
10.55723418
10.55723418
10.49954726
10.44543641
10.44543641
10.35591297
10.29896691
10.29896691
10.19431086
10.07918001
10.0282135
10.0282135
9.907200404
9.838423984
9.838423984
9.702244948
9.603809575
9.603809575
9.448363383
9.284798613
9.108006127
9.108006127
8.973854197
8.638827496
8.638827496
)
;
    }
    procBoundary14to9
    {
        type            processor;
        value           nonuniform List<scalar> 
21
(
7.906613919
7.832573687
7.764903042
7.687610699
7.605274686
7.507735621
7.407669891
7.303469647
7.2000673
7.091588627
6.977227272
6.848680961
6.696987369
6.51615574
6.316064096
6.048227533
5.724925522
5.350633583
4.720583549
3.874472414
2.733680916
)
;
    }
    procBoundary14to13
    {
        type            processor;
        value           nonuniform List<scalar> 
22
(
11.8187088
11.87955873
11.92753629
11.93566741
11.90767505
11.86884387
11.85896031
11.89231612
11.96459388
12.03170347
12.04710208
12.03681807
12.07986757
12.23520757
12.40879209
12.53446411
12.81694994
13.13194493
13.33870102
13.79157473
14.14344099
14.65058393
)
;
    }
    procBoundary14to20
    {
        type            processor;
        value           nonuniform List<scalar> 
16
(
14.7911194
14.38792977
14.38792977
14.5031677
14.10487023