/*--------------------------------*- C++ -*----------------------------------*\
  =========                 |
  \\      /  F ield         | OpenFOAM: The Open Source CFD Toolbox
   \\    /   O peration     | Website:  https://openfoam.org
    \\  /    A nd           | Version:  7
     \\/     M anipulation  |
\*---------------------------------------------------------------------------*/
FoamFile
{
    version     2.0;
    format      ascii;
    class       volVectorField;
    location    "1.7";
    object      U;
}
// * * * * * * * * * * * * * * * * * * * * * * * * * * * * * * * * * * * * * //

dimensions      [0 1 -1 0 0 0 0];

internalField   nonuniform List<vector> 5((2.987041131 -0.01664265887 0) (2.989270257 -0.02774594194 0) (2.997115317 -0.01688360169 0) (2.994809852 -0.004416695914 0) (3.008284394 0.07815784265 0));

boundaryField
{
    inlet
    {
        type            fixedValue;
        value           nonuniform 0();
    }
    outlet
    {
        type            inletOutlet;
        inletValue      nonuniform 0();
        value           nonuniform 0();
    }
    bottom
    {
        type            slip;
    }
    top
    {
        type            slip;
    }
    obstacle
    {
        type            slip;
    }
    defaultFaces
    {
        type            empty;
    }
    procBoundary4to3
    {
        type            processor;
        value           nonuniform List<vector> 2((2.994609525 -0.007671669766 0) (2.995971833 -0.03547756828 0));
    }
    procBoundary4to5
    {
        type            processor;
        value           nonuniform List<vector> 3((2.984194133 -0.008983685704 0) (2.992313612 -0.007248445519 0) (3.003558035 0.01035364324 0));
    }
    procBoundary4to9
    {
        type            processor;
        value           nonuniform List<vector> 2((2.993026558 -0.03663920153 0) (2.980055431 -0.04206610763 0));
    }
    procBoundary4to10
    {
        type            processor;
        value           uniform (3.001489766 0.03398137659 0);
    }
    procBoundary4to11
    {
        type            processor;
        value           nonuniform List<vector> 2((3.002426979 0.01541051111 0) (2.997118886 0.02748903545 0));
    }
    procBoundary4to15
    {
        type            processor;
        value           uniform (3.010259578 0.1128268572 0);
    }
}


// ************************************************************************* //
