/*--------------------------------*- C++ -*----------------------------------*\
  =========                 |
  \\      /  F ield         | OpenFOAM: The Open Source CFD Toolbox
   \\    /   O peration     | Website:  https://openfoam.org
    \\  /    A nd           | Version:  7
     \\/     M anipulation  |
\*---------------------------------------------------------------------------*/
FoamFile
{
    version     2.0;
    format      ascii;
    class       volVectorField;
    location    "2.4";
    object      U;
}
// * * * * * * * * * * * * * * * * * * * * * * * * * * * * * * * * * * * * * //

dimensions      [0 1 -1 0 0 0 0];

internalField   nonuniform List<vector> 
555
(
(3 -2.163023968e-14 0)
(3 -1.922468516e-14 0)
(3 -1.869422435e-14 0)
(3 -1.931995045e-14 0)
(3 -1.801521762e-14 0)
(3 -1.437946777e-14 0)
(3 -1.493090358e-14 0)
(3 -1.373608284e-14 0)
(3 -1.048844736e-14 0)
(3 -6.910678223e-15 0)
(3 -4.266327997e-15 0)
(3 -2.268247949e-14 0)
(3 -2.188084315e-14 0)
(3 -2.126131792e-14 0)
(3 -2.013863116e-14 0)
(3 -1.974838858e-14 0)
(3 -1.949210095e-14 0)
(3 -1.610448475e-14 0)
(3 -1.231764569e-14 0)
(3 -7.460171032e-15 0)
(3 -7.64406363e-15 0)
(3 -5.4623777e-15 0)
(3 -3.536200471e-15 0)
(3 -1.594421176e-15 0)
(3 -5.778751969e-16 0)
(3 1.581197093e-15 0)
(3 2.763243927e-15 0)
(3 -1.950004817e-15 0)
(3 -3.957262311e-15 0)
(3 -4.528642927e-15 0)
(3 -4.457527097e-15 0)
(3 -5.14907742e-15 0)
(3 -6.579023271e-15 0)
(3 -4.17054164e-15 0)
(3 1.920450027e-16 0)
(3 1.121994939e-14 0)
(3 3.529580866e-14 0)
(3 6.746596567e-14 0)
(3 1.259578656e-13 0)
(3 1.849942721e-13 0)
(3 2.358359784e-13 0)
(3 2.242279724e-13 0)
(3 3.54530372e-13 0)
(3 3.384656117e-13 0)
(3 -5.220397846e-11 0)
(3 -8.433831762e-15 0)
(3 -8.881900841e-15 0)
(3 -8.542095732e-15 0)
(3 -9.068013751e-15 0)
(3 -1.001717238e-14 0)
(3 -9.175750917e-15 0)
(3 -1.021993798e-14 0)
(3 -1.093359151e-14 0)
(3 -1.087597365e-14 0)
(3 -1.049621386e-14 0)
(3 -9.922796296e-15 0)
(3 -7.579153123e-15 0)
(3 -3.539679138e-15 0)
(3 -4.371175489e-16 0)
(3 1.831479869e-15 0)
(3 3.122297272e-15 0)
(3 6.093119683e-15 0)
(3 8.783939745e-15 0)
(3 1.434532472e-14 0)
(3 2.345638354e-14 0)
(3 4.780003999e-14 0)
(3 7.502801899e-14 0)
(3 1.359813872e-13 0)
(3 1.993452715e-13 0)
(3 2.758330427e-13 0)
(3 3.808936667e-13 0)
(3 3.81943177e-13 0)
(3 3.60073256e-13 0)
(3 3.777926876e-13 0)
(3 2.645667651e-13 0)
(3 1.017387295e-12 0)
(3 -4.244356222e-11 0)
(3 -8.377571983e-10 0)
(3 9.404684282e-16 0)
(3 -9.751059479e-16 0)
(3 -2.256625355e-15 0)
(3 -2.493675602e-15 0)
(3 -2.343580381e-15 0)
(3 -2.368717331e-15 0)
(3 -2.320698388e-15 0)
(3 -3.31339178e-15 0)
(3 -3.088197795e-15 0)
(3 -2.788780027e-15 0)
(3 -4.760427581e-15 0)
(3 -4.339781948e-15 0)
(3 -2.200069617e-15 0)
(3 2.647873844e-15 0)
(3 1.418950104e-14 0)
(3 3.127060954e-14 0)
(3 5.141859299e-14 0)
(3 9.048052105e-14 0)
(3 1.52464946e-13 0)
(3 2.155785977e-13 0)
(3 2.979642643e-13 0)
(3 2.850084294e-13 0)
(3 6.079702698e-13 0)
(3 5.919019598e-13 0)
(3 5.676196034e-13 0)
(3 7.795985886e-13 0)
(3 9.541353882e-13 0)
(3 -3.468964143e-12 0)
(3 -3.376075411e-11 0)
(3 -5.775352018e-10 0)
(2.999999998 -3.421059383e-09 0)
(2.999999905 -1.806872115e-07 0)
(3.000000021 -1.623039769e-08 0)
(3 1.772546548e-15 0)
(3 1.964503089e-15 0)
(3 1.564858527e-15 0)
(3 3.575493342e-15 0)
(3 1.915892158e-15 0)
(3 1.079212055e-15 0)
(3 1.182644397e-15 0)
(3 4.833066282e-15 0)
(3 8.032073015e-15 0)
(3 1.363105887e-14 0)
(3 2.231419809e-14 0)
(3 3.457400504e-14 0)
(3 5.36125517e-14 0)
(3 7.862968711e-14 0)
(3 1.13890984e-13 0)
(3 1.405665103e-13 0)
(3 1.956238925e-13 0)
(3 3.703460391e-13 0)
(3 4.266261688e-13 0)
(3 4.283273119e-13 0)
(3 4.646195921e-13 0)
(3 2.19886774e-13 0)
(3 5.97088235e-12 0)
(3 -5.297121263e-11 0)
(3 3.06439896e-11 0)
(2.999999999 -1.291061864e-09 0)
(2.999999996 -5.839469869e-09 0)
(2.99999997 -5.237780976e-08 0)
(2.999999847 -2.424456419e-07 0)
(2.999999235 -1.333355754e-06 0)
(2.999997139 -4.778543064e-06 0)
(2.999979938 -3.925417441e-05 0)
(2.999993527 -5.759082233e-06 0)
(3 1.464216492e-15 0)
(3 1.900860299e-15 0)
(3 2.954044796e-15 0)
(3 5.49209709e-15 0)
(3 7.291657705e-15 0)
(3 9.741672623e-15 0)
(3 1.843320347e-14 0)
(3 2.938554434e-14 0)
(3 4.720217019e-14 0)
(3 7.912454689e-14 0)
(3 1.139789126e-13 0)
(3 1.603686909e-13 0)
(3 2.289905412e-13 0)
(3 2.204920122e-13 0)
(3 2.574966187e-13 0)
(3 3.133612788e-13 0)
(3 3.081014208e-13 0)
(3 1.582270752e-12 0)
(3 -1.30872393e-11 0)
(3 3.274364838e-11 0)
(3 -3.395494991e-10 0)
(2.999999999 -1.062279919e-09 0)
(2.999999991 -1.456401886e-08 0)
(2.999999957 -6.61092432e-08 0)
(2.999999744 -4.42612915e-07 0)
(2.999998969 -1.655696978e-06 0)
(2.999995357 -8.377055065e-06 0)
(2.999985284 -2.516663558e-05 0)
(2.999948273 -9.657162331e-05 0)
(2.999859209 -0.000253199443 0)
(2.999621219 -0.0007433341982 0)
(2.999059898 -0.001817883488 0)
(2.998478138 -0.00298784987 0)
(3 5.254668407e-15 0)
(3 1.059380599e-14 0)
(3 2.114829311e-14 0)
(3 3.749703813e-14 0)
(3 5.683636183e-14 0)
(3 1.168807505e-13 0)
(3 1.61060687e-13 0)
(3 1.833532504e-13 0)
(3 2.240348479e-13 0)
(3 2.381025923e-13 0)
(3 2.583528285e-13 0)
(3 2.592427335e-13 0)
(3 4.315168562e-13 0)
(3 -9.343207627e-13 0)
(3 9.911773409e-12 0)
(3 -5.104822617e-11 0)
(3 -2.475229801e-10 0)
(2.999999998 -3.352622793e-09 0)
(2.999999987 -1.931290359e-08 0)
(2.99999992 -1.299119599e-07 0)
(2.999999625 -6.070817648e-07 0)
(2.999998317 -2.858711684e-06 0)
(2.999993685 -1.070399098e-05 0)
(2.999977319 -4.018317583e-05 0)
(2.999933436 -0.0001193565098 0)
(2.999804133 -0.0003637058078 0)
(2.999529984 -0.000877001098 0)
(2.998831557 -0.002290980026 0)
(2.997718285 -0.004529779149 0)
(2.995232851 -0.009724764507 0)
(2.992656724 -0.01556410619 0)
(2.985506422 -0.03215902059 0)
(2.98244435 -0.03865319246 0)
(3 6.114235089e-14 0)
(3 9.201540099e-14 0)
(3 1.177069661e-13 0)
(3 1.420090924e-13 0)
(3 1.774571055e-13 0)
(3 2.643902592e-13 0)
(3 3.37254228e-13 0)
(3 3.014087935e-13 0)
(3 5.454115108e-14 0)
(3 2.040990642e-12 0)
(3 -6.094468058e-12 0)
(3 -6.637189703e-11 0)
(2.999999999 -7.249015808e-10 0)
(2.999999996 -5.758143263e-09 0)
(2.999999976 -3.826105775e-08 0)
(2.99999987 -2.080365913e-07 0)
(2.999999374 -1.036832573e-06 0)
(2.999997453 -4.281479766e-06 0)
(2.999990426 -1.677906621e-05 0)
(2.999968586 -5.511266541e-05 0)
(2.999904655 -0.0001738169013 0)
(2.999742964 -0.0004725667882 0)
(2.999369503 -0.001202606093 0)
(2.998588685 -0.002686007461 0)
(2.997096371 -0.005877475753 0)
(2.994490548 -0.01133245895 0)
(2.990724825 -0.01948527976 0)
(2.984649806 -0.03244393974 0)
(2.978404647 -0.04737699767 0)
(2.965869014 -0.07816898298 0)
(2.96015162 -0.09266007727 0)
(2.948376323 -0.121241563 0)
(2.941004235 -0.137548251 0)
(3 2.230322379e-13 0)
(3 1.894758303e-13 0)
(3 1.863474419e-13 0)
(3 1.031826527e-14 0)
(3 1.591131115e-12 0)
(3 -9.441136174e-12 0)
(3 1.134343777e-12 0)
(3 -2.12881505e-10 0)
(2.999999999 -1.772604502e-09 0)
(2.999999992 -1.21826856e-08 0)
(2.999999952 -7.627776005e-08 0)
(2.999999769 -3.756495936e-07 0)
(2.999998974 -1.702121128e-06 0)
(2.999995892 -7.013503746e-06 0)
(2.999985742 -2.472284807e-05 0)
(2.999953631 -8.156432953e-05 0)
(2.999865542 -0.0002441234728 0)
(2.999647291 -0.000652870134 0)
(2.999161205 -0.001590720365 0)
(2.998156189 -0.003630269956 0)
(2.9964712 -0.007036092604 0)
(2.993235325 -0.01372015319 0)
(2.989107668 -0.02321289774 0)
(2.981460364 -0.040280683 0)
(2.975396452 -0.05332762976 0)
(2.964317559 -0.07983522627 0)
(2.956321946 -0.1031564142 0)
(2.939338845 -0.1440075555 0)
(2.936037474 -0.1513661432 0)
(2.921654541 -0.1852477914 0)
(2.920688348 -0.1991618018 0)
(2.908160195 -0.2327601608 0)
(2.902668437 -0.2356494414 0)
(3 3.469838782e-12 0)
(3 -1.2812335e-11 0)
(3 -6.957295775e-11 0)
(3 -6.128925701e-10 0)
(2.999999997 -4.747873726e-09 0)
(2.999999982 -2.836005207e-08 0)
(2.999999903 -1.543762951e-07 0)
(2.99999955 -7.344702117e-07 0)
(2.999998178 -3.022567926e-06 0)
(2.999993083 -1.183454596e-05 0)
(2.999976988 -3.973351856e-05 0)
(2.99993028 -0.0001246186209 0)
(2.999805516 -0.0003556671196 0)
(2.999520805 -0.0008848424839 0)
(2.998890755 -0.002133253208 0)
(2.997596142 -0.004682764849 0)
(2.995540416 -0.008907267487 0)
(2.991909947 -0.01650049333 0)
(2.986467348 -0.02754540339 0)
(2.979120947 -0.04503084985 0)
(2.971546824 -0.06331104982 0)
(2.9594765 -0.0909997781 0)
(2.954608125 -0.1046866638 0)
(2.941254374 -0.1362842779 0)
(2.92700202 -0.171111892 0)
(2.919718006 -0.1937169287 0)
(2.923937953 -0.1863866554 0)
(2.913302127 -0.2059389461 0)
(2.906686968 -0.2251434635 0)
(2.903717904 -0.2379229246 0)
(2.904854762 -0.2355290521 0)
(2.899747027 -0.240958382 0)
(2.896118381 -0.2437946563 0)
(2.99999999 -1.457619461e-08 0)
(2.999999951 -7.786530509e-08 0)
(2.999999781 -3.469119244e-07 0)
(2.999999061 -1.537167878e-06 0)
(2.999996464 -5.897245407e-06 0)
(2.999987968 -2.033588378e-05 0)
(2.999961267 -6.714744778e-05 0)
(2.999890882 -0.0001931332362 0)
(2.999711522 -0.0005230988017 0)
(2.999304456 -0.001278464841 0)
(2.99846935 -0.002917100905 0)
(2.99690724 -0.006028483775 0)
(2.994256935 -0.01136805009 0)
(2.989711963 -0.02160171393 0)
(2.984333565 -0.0324504205 0)
(2.976402561 -0.04975712745 0)
(2.96632912 -0.07587746784 0)
(2.956492329 -0.09827116115 0)
(2.942034857 -0.1287198425 0)
(2.933228866 -0.1537816453 0)
(2.931819118 -0.168165113 0)
(2.913010098 -0.210040797 0)
(2.90485323 -0.2335156543 0)
(2.906454177 -0.2315511563 0)
(2.900686219 -0.2446819487 0)
(2.892180136 -0.2657051072 0)
(2.88994193 -0.2676680489 0)
(2.888924848 -0.2693350834 0)
(2.887000154 -0.2735796668 0)
(2.886670173 -0.2754580147 0)
(2.885118729 -0.2729207801 0)
(2.883855227 -0.266116948 0)
(2.887033353 -0.2633518901 0)
(2.999992586 -1.233303111e-05 0)
(2.999977175 -3.804182292e-05 0)
(2.999932155 -0.0001169385728 0)
(2.999817397 -0.0003162006275 0)
(2.999556497 -0.0007925119232 0)
(2.998972993 -0.001915180096 0)
(2.99786517 -0.004007898641 0)
(2.995951075 -0.007964072645 0)
(2.992652046 -0.01452343265 0)
(2.987447771 -0.02519295731 0)
(2.980895005 -0.04090795409 0)
(2.972778372 -0.05822883214 0)
(2.962456415 -0.08193765304 0)
(2.95364223 -0.1053825377 0)
(2.941052668 -0.1351379953 0)
(2.92825072 -0.1716077911 0)
(2.926955131 -0.1744384667 0)
(2.925260464 -0.1823359254 0)
(2.908698541 -0.2191397312 0)
(2.905803578 -0.2328987761 0)
(2.908116158 -0.2261655745 0)
(2.902686472 -0.2344153103 0)
(2.898808898 -0.2430157143 0)
(2.898425384 -0.2456889768 0)
(2.896133762 -0.2514253526 0)
(2.895060945 -0.2531308413 0)
(2.893275069 -0.2549025396 0)
(2.891981621 -0.2565588191 0)
(2.890822023 -0.2588610222 0)
(2.889803931 -0.2612989324 0)
(2.888906315 -0.2626754956 0)
(2.889388846 -0.2619353821 0)
(2.890403997 -0.2626287185 0)
(2.999305707 -0.001268725012 0)
(2.998508094 -0.002815858423 0)
(2.997050228 -0.005598426363 0)
(2.994442814 -0.0109581601 0)
(2.990425182 -0.01995069949 0)
(2.985525962 -0.02989341746 0)
(2.977005963 -0.04991528899 0)
(2.968556355 -0.07252005671 0)
(2.958735885 -0.09291371015 0)
(2.944497407 -0.1271773227 0)
(2.939724238 -0.1461563506 0)
(2.927992319 -0.1765892756 0)
(2.912671776 -0.2188830508 0)
(2.911228916 -0.2215451347 0)
(2.911148232 -0.2308187539 0)
(2.897476275 -0.2592902345 0)
(2.894672317 -0.2694030211 0)
(2.894699251 -0.2693280596 0)
(2.89045384 -0.2757608402 0)
(2.889559326 -0.2816734259 0)
(2.887259859 -0.2792825438 0)
(2.886941069 -0.2744613641 0)
(2.888114945 -0.2715708983 0)
(2.890595267 -0.269427306 0)
(2.891125239 -0.2666195148 0)
(2.890576094 -0.2639712388 0)
(2.890255797 -0.2625377319 0)
(2.891035229 -0.2611545982 0)
(2.891404048 -0.2604484463 0)
(2.892162726 -0.259361187 0)
(2.892931086 -0.258465581 0)
(2.893848366 -0.2574512234 0)
(2.894463484 -0.2584966101 0)
(2.988971641 -0.02487695176 0)
(2.983509879 -0.03927397132 0)
(2.976567103 -0.05629209186 0)
(2.967820633 -0.08105359895 0)
(2.96085481 -0.1025421107 0)
(2.947605767 -0.1350605291 0)
(2.9382704 -0.1637597322 0)
(2.939285118 -0.1670261985 0)
(2.924968559 -0.1975529218 0)
(2.916348554 -0.2303799707 0)
(2.915139732 -0.2251864395 0)
(2.915367079 -0.2257296345 0)
(2.907141018 -0.2405646246 0)
(2.905970507 -0.2452212867 0)
(2.903923277 -0.2509334234 0)
(2.901239153 -0.2548135791 0)
(2.899034826 -0.257204307 0)
(2.898175357 -0.258803905 0)
(2.897104235 -0.2601799515 0)
(2.896060725 -0.2628600198 0)
(2.894590384 -0.2641826758 0)
(2.894297073 -0.2650686671 0)
(2.894946469 -0.2666804499 0)
(2.895811368 -0.2670434372 0)
(2.894835214 -0.2650236295 0)
(2.894794083 -0.2625726206 0)
(2.894206012 -0.2613669203 0)
(2.894674248 -0.2600701806 0)
(2.895949226 -0.2583049297 0)
(2.896597897 -0.2565292787 0)
(2.897451939 -0.2537458412 0)
(2.897654564 -0.2520243652 0)
(2.897875595 -0.2518816956 0)
(2.956824484 -0.1363261424 0)
(2.957837954 -0.1523224093 0)
(2.943396721 -0.1929167355 0)
(2.93479394 -0.22077421 0)
(2.936470242 -0.2201956988 0)
(2.920044851 -0.2453727452 0)
(2.909526633 -0.272066572 0)
(2.906331023 -0.2716569106 0)
(2.905580342 -0.2739931232 0)
(2.900519021 -0.2828239972 0)
(2.896338833 -0.2831746383 0)
(2.894561523 -0.2807302326 0)
(2.894224389 -0.2785002471 0)
(2.894219664 -0.2768780547 0)
(2.894991995 -0.2756177711 0)
(2.893076152 -0.2708968495 0)
(2.893513094 -0.2675043719 0)
(2.895112526 -0.2652855623 0)
(2.896137356 -0.2639883803 0)
(2.897105797 -0.2630624632 0)
(2.898032452 -0.261239434 0)
(2.898302626 -0.2594257688 0)
(2.898811408 -0.259385602 0)
(2.899332593 -0.2596237139 0)
(2.90001277 -0.2585929532 0)
(2.901385842 -0.2558122407 0)
(2.90221741 -0.2543346171 0)
(2.902235586 -0.2544224887 0)
(2.902407182 -0.2529213735 0)
(2.902144617 -0.2501174862 0)
(2.901111983 -0.2488717985 0)
(2.900239676 -0.2483554515 0)
(2.899666629 -0.2487857946 0)
(2.938622709 -0.2084468667 0)
(2.940437695 -0.2188454399 0)
(2.927502959 -0.2358045656 0)
(2.915615153 -0.2511808223 0)
(2.90981835 -0.2541598753 0)
(2.903121207 -0.2589089752 0)
(2.900271531 -0.2638183696 0)
(2.899014359 -0.2663925734 0)
(2.898023073 -0.2664353461 0)
(2.897072385 -0.2663010233 0)
(2.895557798 -0.267645702 0)
(2.893849642 -0.2689402092 0)
(2.893002234 -0.2707734004 0)
(2.89290964 -0.2716010197 0)
(2.892717077 -0.268781831 0)
(2.892491399 -0.2650843017 0)
(2.892176048 -0.2626198267 0)
(2.892888114 -0.2605649012 0)
(2.893522465 -0.2599650849 0)
(2.893640962 -0.2586996827 0)
(2.894190454 -0.2546324496 0)
(2.893504405 -0.2513215653 0)
(2.893049805 -0.2513266089 0)
(2.892874922 -0.2520441283 0)
(2.89397607 -0.2517031466 0)
(2.894797736 -0.25071724 0)
(2.895250295 -0.2505703321 0)
(2.895361723 -0.2512548264 0)
(2.895023559 -0.2516669156 0)
(2.894469456 -0.2510010499 0)
(2.89429444 -0.2508715314 0)
(2.893995534 -0.2509309746 0)
(2.893241177 -0.2510573776 0)
(2.862666233 -0.3105244862 0)
(2.859634421 -0.3042934887 0)
(2.857964921 -0.2901096337 0)
(2.858216533 -0.2859714185 0)
(2.861678594 -0.2828397375 0)
(2.867930772 -0.2790396723 0)
(2.870355719 -0.275812757 0)
(2.872147308 -0.2740294269 0)
(2.874877867 -0.2705647343 0)
(2.878084659 -0.2661596688 0)
(2.879060358 -0.2637088625 0)
(2.880076608 -0.2620202214 0)
(2.881443405 -0.2605299466 0)
(2.881759762 -0.2583386018 0)
(2.882527839 -0.2537648162 0)
(2.882745518 -0.2506599951 0)
(2.883380642 -0.2504614358 0)
(2.884250882 -0.2505192361 0)
(2.884679406 -0.2491476039 0)
(2.884484461 -0.2472044024 0)
(2.883595228 -0.2454240724 0)
(2.882915174 -0.2439199331 0)
(2.88311887 -0.2438163822 0)
(2.883013264 -0.2442302929 0)
(2.882749708 -0.2446062203 0)
(2.882818956 -0.2443464955 0)
(2.883052579 -0.2444534318 0)
(2.883645457 -0.2452467591 0)
(2.883874009 -0.2468851829 0)
(2.88320703 -0.2488426747 0)
(2.883325556 -0.2502733615 0)
(2.883090184 -0.2513082584 0)
(2.88315375 -0.2519153937 0)
(2.874433073 -0.2550910706 0)
(2.874576704 -0.2538091014 0)
(2.874894582 -0.2518364023 0)
(2.875615342 -0.2509111867 0)
(2.876118768 -0.2507271098 0)
(2.876097907 -0.2506635773 0)
(2.875303951 -0.2501237933 0)
(2.874498738 -0.2487798214 0)
(2.874714102 -0.2478796889 0)
(2.875278403 -0.2482635174 0)
(2.875560367 -0.2488764104 0)
(2.875557241 -0.2491756556 0)
(2.875263763 -0.2489346984 0)
(2.875957885 -0.249184456 0)
(2.876479961 -0.2498797313 0)
)
;

boundaryField
{
    inlet
    {
        type            fixedValue;
        value           nonuniform 0();
    }
    outlet
    {
        type            inletOutlet;
        inletValue      nonuniform 0();
        value           nonuniform 0();
    }
    bottom
    {
        type            slip;
    }
    top
    {
        type            slip;
    }
    obstacle
    {
        type            slip;
    }
    defaultFaces
    {
        type            empty;
    }
    procBoundary14to7
    {
        type            processor;
        value           nonuniform List<vector> 2((3 -2.360785899e-14 0) (3 -2.252133068e-14 0));
    }
    procBoundary14to8
    {
        type            processor;
        value           nonuniform List<vector> 
35
(
(3 -2.080564969e-14 0)
(3 -2.137129274e-14 0)
(3 -2.150193462e-14 0)
(3 -2.205961585e-14 0)
(3 -2.142755085e-14 0)
(3 -1.750656865e-14 0)
(3 -1.393097855e-14 0)
(3 -1.309771634e-14 0)
(3 -9.4818419e-15 0)
(3 -7.533365002e-15 0)
(3 -6.489586454e-15 0)
(3 -3.432027957e-15 0)
(3 -3.432027957e-15 0)
(3 -4.597529737e-15 0)
(3 -4.482801881e-15 0)
(3 -5.184939354e-15 0)
(3 -6.040601379e-15 0)
(3 -6.314904459e-15 0)
(3 -9.217955657e-15 0)
(3 -1.15960546e-14 0)
(3 -1.186398716e-14 0)
(3 -1.032106969e-14 0)
(3 -8.416782849e-15 0)
(3 -6.613360377e-15 0)
(3 -6.033966886e-15 0)
(3 -5.009170388e-15 0)
(3 -4.833837259e-15 0)
(3 -3.777087552e-15 0)
(3 1.162716222e-15 0)
(3 1.232837619e-14 0)
(3 3.893542086e-14 0)
(3 4.901812173e-14 0)
(3 8.867931025e-14 0)
(3 8.671750706e-14 0)
(3 7.637274102e-13 0)
)
;
    }
    procBoundary14to9
    {
        type            processor;
        value           nonuniform List<vector> 
17
(
(2.99999999 -2.521691668e-08 0)
(2.999998401 -4.132119476e-06 0)
(2.999929936 -0.0001638900138 0)
(2.998165591 -0.004139752691 0)
(2.985081509 -0.03109234991 0)
(2.943038766 -0.130308586 0)
(2.915144602 -0.2151543796 0)
(2.896546593 -0.2724180133 0)
(2.89483055 -0.2539052014 0)
(2.888202997 -0.2602944829 0)
(2.891099567 -0.2597909088 0)
(2.897252656 -0.254618747 0)
(2.898383888 -0.2514750693 0)
(2.900185569 -0.2479993117 0)
(2.894492986 -0.2482788185 0)
(2.892807909 -0.2290134069 0)
(2.960915147 0.04054311819 0)
)
;
    }
    procBoundary14to13
    {
        type            processor;
        value           nonuniform List<vector> 
16
(
(3 -9.824419716e-15 0)
(3 -9.824419716e-15 0)
(3 2.243185528e-15 0)
(3 4.121944934e-15 0)
(3 1.188139657e-15 0)
(3 1.81239206e-15 0)
(3 4.007458731e-14 0)
(3 2.136979879e-13 0)
(3 1.492731722e-14 0)
(2.999999998 -2.374851372e-09 0)
(2.999997843 -3.520206842e-06 0)
(2.999693645 -0.0005550202522 0)
(2.993395075 -0.01418434207 0)
(2.966828401 -0.1013855654 0)
(2.948755511 -0.1838254589 0)
(2.866058957 -0.3089443339 0)
)
;
    }
    procBoundary14to20
    {
        type            processor;
        value           nonuniform List<vector> 
19
(
(2.856087706 -0.2482431292 0)
(2.854497334 -0.2578170826 0)
(2.854210658 -0.2595472306 0)
(2.857730828 -0.2591191325 0)
(2.862379158 -0.2645819415 0)
(2.861947096 -0.26412608 0)
(2.860591377 -0.2625944659 0)
(2.860187206 -0.2634189971 0)
(2.862036677 -0.2621732236 0)
(2.864079873 -0.2603228346 0)
(2.865369116 -0.2603423923 0)
(2.866659661 -0.2608007724 0)
(2.867518283 -0.2602209308 0)
(2.868715259 -0.2578974994 0)
(2.86971888 -0.256110533 0)
(2.870967889 -0.2559707486 0)
(2.87295383 -0.2560240004 0)
(2.874168608 -0.2554400008 0)
(2.874168608 -0.2554400008 0)
)
;
    }
}


// ************************************************************************* //
