/*--------------------------------*- C++ -*----------------------------------*\
  =========                 |
  \\      /  F ield         | OpenFOAM: The Open Source CFD Toolbox
   \\    /   O peration     | Website:  https://openfoam.org
    \\  /    A nd           | Version:  7
     \\/     M anipulation  |
\*---------------------------------------------------------------------------*/
FoamFile
{
    version     2.0;
    format      ascii;
    class       volScalarField;
    location    "4";
    object      rho;
}
// * * * * * * * * * * * * * * * * * * * * * * * * * * * * * * * * * * * * * //

dimensions      [1 -3 0 0 0 0 0];

internalField   nonuniform List<scalar> 
2222
(
2.184478889
2.161155322
2.147239903
2.137003184
2.125615169
2.116124173
2.102391006
2.083905376
2.066364418
2.050066787
2.03385873
2.020130125
2.005906536
1.990434972
1.976016969
1.965246594
1.943390236
2.45813089
2.479615693
2.447789651
2.423710935
2.418770603
2.418904104
2.423871308
2.436215308
2.410663897
2.385227401
2.371771457
2.354252622
2.346881336
2.330976204
2.306217568
2.278338045
2.26303757
2.260684789
2.249987422
2.241045865
2.221930345
2.202327252
2.184425774
2.162207667
2.148160046
2.138128833
2.127106377
2.117590973
2.103803814
2.08513309
2.067449409
2.051483581
2.035695427
2.020951881
2.005900653
1.990418775
1.97614704
1.965348512
1.943568149
2.473507255
2.450549676
2.426403412
2.422214148
2.424007847
2.424863611
2.435603293
2.415620984
2.388685405
2.375422091
2.356072098
2.3473729
2.331875598
2.308218555
2.281030743
2.263508882
2.261905867
2.250696385
2.24065554
2.222162017
2.202585133
2.185007355
2.163700137
2.149273425
2.139633895
2.128820683
2.119309722
2.105551955
2.086633417
2.068878472
2.053141877
2.036950674
2.021486095
2.006069153
1.990664328
1.976481891
1.965814052
1.943997215
2.470640081
2.453330252
2.430714036
2.428575004
2.431505165
2.426733491
2.435037164
2.41682257
2.391874966
2.379140612
2.358897095
2.348127143
2.332856544
2.308621764
2.28102718
2.263274967
2.262344419
2.251432325
2.240570528
2.222675124
2.203108263
2.185892088
2.16517802
2.15056505
2.141443157
2.130695866
2.120912302
2.107206728
2.088208937
2.070459065
2.054550936
2.037801348
2.021897411
2.006312709
1.991033027
1.977255322
1.966773831
1.94447187
2.470806837
2.45916063
2.438888629
2.437338702
2.437379411
2.428714501
2.435348887
2.41807394
2.393854774
2.381690688
2.362661698
2.349771481
2.335375065
2.309148321
2.281052298
2.263169588
2.262689527
2.25276371
2.240772314
2.223768084
2.204309501
2.187093093
2.166811454
2.152067992
2.14345345
2.132613702
2.122208322
2.108459326
2.089770695
2.071890477
2.055636831
2.038631688
2.022461148
2.006792652
1.99184243
1.978819676
1.967286599
1.944620958
2.473952801
2.469670835
2.450794299
2.442125518
2.440671775
2.430846503
2.43631776
2.419953014
2.395331788
2.3830586
2.365422802
2.35215442
2.336601296
2.309281435
2.281221375
2.263288689
2.263486039
2.25549586
2.24237989
2.225682592
2.205454632
2.188102404
2.168391514
2.15355194
2.145297589
2.134455188
2.123314127
2.109518766
2.091203354
2.07312712
2.056570301
2.039363619
2.023044314
2.007460866
1.993766788
1.980154349
1.967253915
1.94463393
2.475252983
2.475260525
2.45716642
2.443864303
2.442389709
2.434195901
2.440254307
2.424606765
2.397253215
2.384193883
2.366925648
2.353275035
2.336661935
2.309289894
2.281735748
2.263681528
2.266071021
2.260592705
2.245174787
2.227093547
2.205941311
2.188493816
2.169723346
2.154827074
2.146715197
2.135915546
2.124199002
2.110546994
2.092653533
2.07429971
2.057522313
2.040189383
2.023902612
2.009079819
1.996679299
1.980343152
1.967040661
1.944670769
2.474037081
2.477192627
2.45947212
2.445390099
2.443559678
2.436990242
2.443557909
2.43052569
2.400261805
2.385418166
2.367964149
2.353396324
2.336479869
2.309163104
2.282689755
2.265901886
2.270793091
2.264715704
2.245873152
2.227179441
2.206180483
2.188707144
2.170789114
2.155909506
2.147767186
2.137062758
2.125008925
2.111657649
2.094157173
2.075460923
2.058428875
2.041191802
2.025588693
2.012585946
1.998061015
1.980285403
1.966869475
1.944890354
2.467707619
2.476989266
2.460985095
2.44646274
2.444214333
2.437868552
2.443485127
2.432712534
2.4045335
2.387755864
2.369203944
2.353471699
2.336112858
2.309131882
2.28534146
2.270855285
2.272513388
2.266144097
2.246086586
2.227117732
2.206432592
2.189026056
2.171776372
2.156912524
2.148661196
2.138052103
2.125971925
2.113048212
2.095724857
2.07671821
2.059518406
2.042826191
2.028890133
2.015172453
1.998334923
1.98023895
1.966873256
1.945630096
2.463161167
2.474770261
2.461548675
2.446929084
2.443229286
2.437834273
2.442355891
2.433735593
2.408864679
2.39106351
2.370847677
2.353805278
2.335904864
2.309548631
2.287699357
2.272304236
2.272457551
2.266549343
2.246184743
2.227047407
2.20670902
2.189457982
2.172817437
2.157954952
2.149646741
2.139199843
2.127277713
2.114597458
2.097114608
2.077930559
2.060816393
2.04536136
2.031436024
2.015471428
1.998464038
1.980406606
1.967028221
1.947350612
2.462418204
2.474829707
2.463441194
2.449674934
2.441415123
2.436101942
2.441683279
2.434672995
2.411057975
2.394022117
2.373034362
2.354488848
2.335984751
2.311189816
2.287822278
2.272309097
2.271796577
2.26642945
2.246446084
2.227063903
2.20707894
2.190385851
2.174136572
2.159149085
2.150899991
2.140617082
2.12866826
2.115830639
2.098256257
2.079074994
2.062309127
2.04728311
2.031977508
2.01553116
1.998673804
1.98075961
1.968147344
1.949317668
2.460032967
2.475757285
2.466484368
2.455063746
2.442882232
2.436483587
2.441633391
2.435925356
2.412189297
2.395938186
2.375739373
2.355832864
2.336720316
2.312099954
2.287731216
2.270837287
2.271302358
2.266557329
2.246912043
2.227372954
2.208611604
2.192412844
2.175628499
2.160528425
2.15249702
2.142187658
2.129760361
2.11663715
2.099210687
2.080117218
2.063563511
2.048021205
2.032190841
2.015561803
1.999017394
1.982123217
1.971620553
1.949774582
2.451979638
2.476119348
2.472841555
2.466267909
2.447867891
2.437807868
2.441751126
2.437641436
2.413549231
2.397539882
2.378688286
2.358305437
2.338564219
2.31218395
2.287690571
2.269918837
2.271397616
2.26713629
2.247971342
2.229508244
2.211443727
2.193728049
2.176837091
2.162113138
2.154088326
2.143477822
2.130454699
2.11726283
2.100239321
2.081181016
2.064454009
2.048471802
2.032419205
2.015783156
1.999756841
1.986001284
1.973667822
1.949696356
2.434637866
2.475640188
2.477439467
2.474363223
2.457647452
2.441985919
2.442891081
2.441328197
2.416275242
2.39957408
2.38090671
2.360650523
2.340353154
2.312191004
2.287881226
2.270015528
2.271942883
2.270176399
2.251855265
2.231607122
2.211365263
2.193618254
2.177853126
2.163821399
2.155479522
2.144498285
2.130963426
2.117842684
2.101347927
2.082228113
2.06521059
2.048969661
2.032762455
2.016195285
2.002447914
1.988330188
1.973770144
1.949546053
2.47332991
2.479107932
2.476338772
2.462039587
2.449317797
2.447231244
2.448162874
2.42167565
2.402273801
2.382079676
2.361799458
2.341003078
2.312157139
2.288316847
2.270384113
2.27517781
2.274321533
2.253720301
2.231247635
2.210771228
2.193418361
2.17885496
2.165545714
2.156749578
2.145444723
2.131537393
2.11851069
2.102483313
2.083353443
2.066057016
2.049615187
2.033231412
2.017157884
2.005061735
1.988600364
1.973623741
1.949545347
2.46710047
2.479177327
2.475314858
2.463617747
2.452659926
2.449417618
2.452443506
2.426696187
2.404335295
2.382835739
2.362501062
2.341139397
2.312136108
2.289127206
2.272318838
2.278381153
2.274366679
2.25349932
2.230472815
2.210162099
2.193368631
2.179751898
2.167119191
2.157956673
2.146417148
2.132279382
2.119236349
2.103499368
2.084533948
2.067078269
2.050477436
2.034002572
2.019356538
2.005418237
1.988633162
1.97355656
1.949623091
2.462063445
2.477509559
2.474860773
2.465596121
2.453946871
2.449641722
2.454187944
2.429049055
2.405465366
2.383722262
2.363383737
2.341167708
2.31233571
2.291361404
2.276932952
2.278428583
2.273328023
2.253056804
2.229900831
2.209836133
2.193484723
2.180658173
2.168559231
2.159241366
2.147657381
2.133403231
2.120057169
2.104440134
2.085777721
2.068302829
2.05169348
2.03565279
2.020114155
2.005552279
1.988837677
1.973704367
1.949790196
2.459593309
2.477987708
2.476565309
2.469582953
2.455825375
2.449720311
2.454650991
2.430546046
2.406473987
2.385581483
2.365239189
2.341087809
2.312719429
2.292931895
2.278223971
2.278163803
2.272381549
2.252961878
2.229680541
2.209761557
2.193922179
2.181868834
2.17000491
2.160660192
2.1491513
2.134814532
2.12098315
2.105402238
2.087013598
2.069578346
2.05324109
2.037270192
2.020482125
2.005744596
1.989175551
1.973929746
1.950133546
2.45702181
2.479998894
2.483094429
2.478239408
2.460409659
2.45045986
2.454907568
2.432097042
2.408163556
2.389170714
2.367205919
2.340811716
2.312777214
2.293259528
2.27851628
2.278093995
2.272022497
2.253098916
2.229716191
2.210161123
2.196022387
2.184063265
2.171584955
2.162021337
2.150411895
2.136063924
2.121944831
2.106502158
2.08825496
2.070688837
2.054436242
2.037980232
2.020875414
2.00603592
1.989587081
1.974250746
1.950611838
2.45060053
2.482161376
2.486897233
2.483741341
2.467336772
2.452657682
2.455364016
2.43407694
2.411189684
2.391715479
2.367257798
2.340583432
2.312657959
2.293558401
2.278744075
2.278150854
2.271941279
2.253571755
2.230338438
2.212785762
2.198955961
2.186281163
2.17305248
2.162903581
2.151128063
2.136816082
2.122854809
2.107750714
2.089509372
2.071605084
2.055094905
2.038488751
2.021338316
2.006421619
1.990313653
1.974878652
1.95097463
2.436190448
2.482443556
2.488287531
2.485872184
2.470463898
2.455488633
2.456213412
2.437863431
2.415126325
2.392526206
2.367203537
2.340566318
2.312964812
2.294135701
2.278912246
2.278397093
2.272702888
2.256118401
2.233324648
2.214331579
2.199128714
2.186764805
2.173996531
2.163454132
2.151625154
2.137339364
2.123639351
2.109026348
2.090768257
2.072426948
2.055569765
2.038999549
2.021878695
2.007232386
1.991391796
1.976108087
1.951281385
2.416656262
2.480265582
2.490056046
2.48673346
2.471927305
2.458445876
2.458606595
2.44615583
2.419251173
2.393085853
2.367250312
2.341379185
2.314618565
2.294974158
2.279254778
2.279791144
2.276772608
2.25922006
2.233836475
2.214022505
2.199077546
2.187128035
2.174533077
2.163842814
2.152071973
2.137784825
2.1242732
2.110136702
2.091941083
2.073221284
2.056022507
2.039558962
2.022595054
2.00791956
1.991434059
1.976048297
1.951709083
2.401022045
2.473582025
2.490372042
2.488209852
2.473782065
2.461412298
2.461755486
2.454616726
2.422538082
2.39372604
2.367578902
2.343815812
2.314705429
2.296030891
2.280006623
2.283548561
2.278046937
2.258757102
2.233412944
2.213675979
2.199246074
2.187595213
2.174986702
2.164268947
2.15261597
2.138185071
2.12490576
2.111018633
2.092936025
2.074039734
2.056565759
2.040337692
2.023687192
2.008190451
1.991390863
1.975883204
1.952441579
2.38698728
2.464400253
2.491161079
2.491822413
2.476899672
2.464128749
2.461625709
2.45837199
2.425341124
2.394865232
2.370336592
2.344514249
2.314051633
2.297165881
2.284403335
2.28437628
2.276944189
2.257776275
2.233023781
2.213499272
2.199604228
2.18814832
2.175485658
2.164712172
2.153386642
2.138867224
2.125564298
2.111732093
2.093729137
2.074931571
2.057448412
2.041842678
2.024729562
2.008408368
1.991445664
1.975822502
1.952634801
2.366221895
2.4567335
2.493137865
2.497296387
2.482333583
2.466873522
2.460811601
2.460461077
2.42881736
2.399265843
2.374838708
2.343927143
2.313515233
2.297626445
2.287980797
2.28388403
2.275713345
2.257274751
2.232976277
2.213507419
2.200184769
2.188951497
2.176288665
2.16546172
2.154253583
2.139724077
2.126321201
2.112375621
2.094438677
2.076039453
2.059365516
2.043586712
2.025159192
2.008723223
1.991716959
1.975945008
1.952643489
2.332729179
2.450979793
2.494897199
2.499505468
2.486178215
2.469402767
2.460422013
2.46170368
2.432775284
2.404160036
2.375041479
2.343182291
2.313281835
2.297910991
2.288089645
2.283065001
2.275150813
2.2571083
2.233226189
2.213732409
2.201398182
2.190996584
2.178476185
2.16672961
2.154976715
2.140531302
2.127032656
2.113019053
2.095272271
2.07758135
2.061036308
2.043764952
2.025461959
2.009166137
1.992426066
1.97620948
1.952463503
2.445466334
2.495766968
2.500743308
2.487458884
2.47137255
2.460731648
2.462868858
2.435681754
2.405096255
2.374761546
2.342576055
2.313277143
2.29836386
2.287637169
2.282682212
2.274954126
2.257283609
2.234131642
2.214778227
2.204254849
2.194660849
2.180883996
2.167114472
2.155078608
2.140846939
2.127605685
2.113868447
2.096772126
2.079419769
2.061212599
2.04371445
2.025746713
2.009812763
1.992976694
1.976281592
1.952343852
2.436665136
2.492131496
2.50060615
2.487885139
2.473078177
2.461722608
2.464781599
2.438376948
2.405483771
2.374214021
2.341940327
2.313474542
2.299095127
2.287431599
2.282703205
2.275219922
2.259391568
2.236570112
2.216350811
2.206756034
2.196351479
2.180987114
2.166832968
2.155051742
2.141057793
2.128167155
2.115586096
2.099422379
2.08071717
2.061309572
2.043696347
2.026063931
2.010494642
1.993061034
1.976244328
1.952412979
2.417612012
2.477241974
2.497849402
2.4874023
2.474926867
2.463739071
2.46930569
2.442540222
2.406023204
2.373632607
2.341333032
2.314321285
2.300472716
2.287808963
2.283141201
2.277681977
2.261638995
2.236802102
2.216793856
2.207460129
2.196693626
2.180730629
2.166421775
2.155058663
2.141327915
2.129146728
2.118059605
2.100718359
2.080855194
2.061375009
2.043803767
2.026474452
2.010783707
1.992884098
1.976397945
1.952666174
2.383696685
2.462254773
2.49802904
2.489201657
2.477642379
2.468567599
2.476813324
2.448844836
2.407142317
2.373185958
2.34087274
2.316480353
2.302126909
2.288550725
2.285377657
2.280220808
2.260842537
2.236660795
2.217214887
2.207682684
2.19669759
2.180397441
2.16616753
2.1551952
2.142024243
2.13083507
2.11890361
2.100838037
2.080932714
2.061502151
2.044036987
2.027295103
2.010900697
1.99290624
1.976807798
1.953091135
2.356218092
2.458795699
2.500527786
2.492584532
2.483281491
2.473934382
2.479745972
2.453812828
2.409320658
2.373151753
2.341794504
2.317128635
2.302684745
2.290513568
2.288779143
2.279625821
2.25966683
2.2365511
2.217932489
2.207591831
2.196279965
2.180220775
2.166146999
2.155798837
2.143156374
2.131032539
2.119000978
2.100925107
2.081007035
2.061732836
2.044852871
2.027789801
2.010928621
1.99317432
1.977296067
1.953830156
2.34866306
2.460886135
2.503913548
2.497647175
2.487015999
2.474693064
2.480017163
2.455639525
2.412684427
2.37547007
2.344532956
2.316710387
2.303000297
2.295479654
2.289305151
2.278358631
2.259038374
2.236647294
2.219165508
2.207600429
2.195842611
2.180204131
2.166545634
2.156496031
2.14335753
2.131043153
2.119046111
2.101116366
2.081152525
2.062348762
2.04617933
2.027784628
2.011014773
1.993669381
1.977547289
1.95417808
2.349697245
2.464279172
2.505590298
2.49878386
2.487537161
2.474738676
2.479950823
2.456561973
2.415612949
2.379540445
2.344717295
2.316227272
2.303758011
2.298017026
2.289313327
2.277702076
2.258809546
2.237065549
2.221003172
2.207838084
2.195600914
2.180859089
2.168177052
2.156450361
2.143391749
2.131110457
2.119153779
2.101358251
2.081446359
2.063892492
2.046390626
2.027714966
2.011209656
1.99426699
1.977715229
1.954415225
2.348081697
2.459888978
2.50417548
2.498441732
2.486980899
2.474955997
2.480303413
2.457822668
2.417734774
2.381079419
2.344104427
2.316045013
2.305187805
2.298906525
2.289507873
2.27752493
2.259346531
2.238764214
2.22328831
2.20857282
2.196771125
2.183619515
2.168820933
2.156219158
2.14356351
2.13131533
2.119346981
2.101731913
2.082317602
2.065304324
2.046443234
2.027733495
2.011518578
1.994675455
1.978069598
1.954712654
2.333221034
2.430593135
2.489616871
2.495397724
2.485392769
2.475697659
2.48159786
2.461187061
2.421017073
2.38190188
2.343755105
2.316196134
2.306623519
2.299756939
2.290143648
2.277918179
2.261653197
2.239979142
2.225171943
2.210409286
2.19907894
2.184415594
2.168803458
2.156131316
2.143951108
2.131868725
2.119936709
2.102964389
2.084480008
2.065838971
2.046481173
2.027889283
2.011966183
1.995020268
1.978530395
1.955065458
2.267978475
2.377092111
2.469933049
2.491433364
2.485062253
2.476678906
2.48548981
2.468846209
2.426783397
2.383564876
2.343808171
2.316890858
2.308028809
2.300666888
2.291153467
2.280109544
2.261775132
2.240196807
2.226274238
2.211190149
2.198889978
2.184027555
2.168823341
2.156272267
2.144814991
2.133524149
2.122059049
2.106103353
2.086608689
2.066070068
2.04659534
2.028248496
2.012484675
1.995383799
1.979046961
1.955465612
2.204433727
2.36155221
2.464661263
2.490896562
2.485650416
2.479632168
2.491349997
2.473113335
2.429995081
2.386767849
2.344660326
2.318353255
2.309825726
2.301779245
2.293558175
2.280803685
2.261344576
2.240425365
2.227017078
2.211468114
2.198188406
2.183498021
2.16900182
2.156748978
2.146718474
2.134544
2.123168715
2.107809792
2.087330252
2.066261724
2.04685058
2.028935693
2.012935713
1.995738455
1.979644663
1.956003397
2.193809772
2.36074431
2.466552457
2.492126694
2.489161016
2.486747515
2.49405186
2.473661162
2.430627727
2.388941546
2.346073588
2.320482336
2.312080777
2.304665305
2.296922986
2.280525172
2.261090725
2.240862194
2.227853997
2.211858147
2.197560937
2.183378804
2.169421632
2.158029639
2.147872193
2.134751874
2.123075549
2.10806261
2.087704965
2.066473742
2.047334916
2.030052149
2.013308973
1.996065515
1.98058021
1.956987517
2.192593784
2.371813132
2.472671953
2.49491749
2.494633675
2.48947191
2.494181693
2.473929747
2.431019999
2.389500415
2.347407942
2.322552807
2.314371384
2.308544941
2.298114715
2.2802307
2.261115602
2.241732608
2.229318185
2.212319634
2.197401598
2.183447564
2.170267952
2.159595424
2.148152067
2.134966654
2.123122036
2.108178817
2.088027476
2.066787475
2.048454889
2.031053125
2.013590273
1.996512031
1.98203382
1.958274245
2.205537779
2.384474224
2.47398352
2.496122478
2.495036377
2.489599124
2.493825086
2.473580568
2.431448112
2.389972199
2.348885324
2.324499557
2.316311362
2.309694614
2.298553035
2.280247318
2.261567303
2.244046949
2.230186985
2.212588016
2.197463607
2.183743287
2.17217976
2.160409652
2.148371936
2.135290872
2.123249947
2.108221715
2.088290721
2.06748529
2.049822399
2.031491254
2.013845431
1.997345188
1.982936967
1.958767406
2.381653739
2.45742428
2.488769631
2.494417538
2.48906976
2.492844088
2.474179448
2.432185609
2.390786787
2.351700933
2.327020793
2.318060947
2.310153359
2.298206824
2.280553487
2.263494283
2.245945147
2.230023368
2.212845009
2.197788841
2.185110504
2.174617851
2.160775004
2.148626065
2.135735597
2.123526106
2.108383379
2.088625146
2.068704201
2.050308697
2.031609475
2.014230139
1.998258361
1.983188826
1.95897049
2.341269229
2.402903285
2.465642079
2.490970349
2.485586054
2.492225535
2.475752267
2.435789166
2.395196687
2.35649984
2.330057305
2.319496067
2.310102103
2.297947421
2.281425256
2.265953963
2.245940108
2.229710823
2.213209494
2.199073027
2.188338111
2.175166338
2.161064846
2.148944619
2.136400573
2.124494906
2.10900555
2.089591009
2.069963562
2.050325651
2.031618069
2.014801083
1.998749143
1.983281232
1.959035343
2.271980777
2.37481409
2.450513244
2.484292585
2.481699246
2.491832974
2.479738092
2.443965111
2.401661452
2.358419602
2.332109686
2.320527404
2.310524387
2.298172929
2.283790246
2.266127467
2.245428816
2.229658512
2.214056484
2.201603435
2.188718107
2.175002219
2.161395424
2.149386707
2.138080555
2.126565346
2.111081167
2.091958783
2.07080907
2.050048377
2.031582946
2.015472577
1.999049808
1.983310701
1.959075112
2.258674423
2.373788068
2.449017166
2.479853033
2.48099977
2.492086961
2.484129545
2.446652611
2.40240194
2.358531285
2.333202865
2.321442211
2.311405429
2.299253998
2.285659392
2.265632182
2.24529734
2.22979601
2.215848923
2.201994671
2.18806851
2.174797567
2.161747253
2.150644975
2.140413583
2.126837979
2.111787935
2.093388539
2.071224306
2.049610831
2.031613353
2.016256938
1.999319462
1.983330309
1.959256775
2.260077851
2.380522828
2.453021049
2.478245192
2.481021413
2.493475066
2.486717506
2.447486119
2.402468642
2.358488386
2.334101543
2.322487995
2.313540141
2.30359635
2.285779886
2.265133555
2.245437448
2.230643386
2.217949474
2.201694456
2.187193281
2.174754072
2.162383414
2.153323725
2.14054576
2.126784522
2.111697953
2.09344424
2.071452245
2.049398897
2.032144729
2.017204168
1.999460373
1.983397361
1.959505161
2.285925599
2.404452142
2.458340251
2.476642498
2.485562582
2.496646324
2.48908302
2.44850543
2.402964842
2.358947669
2.33515484
2.324131792
2.319500667
2.306069911
2.285332243
2.265139274
2.246013351
2.233104668
2.219010513
2.201444515
2.186774673
2.174854715
2.164310733
2.153791285
2.140118105
2.126792264
2.111745814
2.093424819
2.071661801
2.049888643
2.033624017
2.01781914
1.999467559
1.983593505
1.959926941
2.309253554
2.412866028
2.454807376
2.471706694
2.488692792
2.499685363
2.492463563
2.450492458
2.40398289
2.359717508
2.337041657
2.328620495
2.32328849
2.306516162
2.285144514
2.265394978
2.248481839
2.235439533
2.219474904
2.201438274
2.186650936
2.175603333
2.166708608
2.153377308
2.139568316
2.126950128
2.111891622
2.093435321
2.07207161
2.051430883
2.035043167
2.01786063
1.999466083
1.984139342
1.960961417
2.309800097
2.405131331
2.421067277
2.456980028
2.487791736
2.499198824
2.495208525
2.454950667
2.406233348
2.361700399
2.341692814
2.332845939
2.32412917
2.307085492
2.28536818
2.266478703
2.252521649
2.236255065
2.21976279
2.201529832
2.186769176
2.178421184
2.166754585
2.152531259
2.139321608
2.127277428
2.112229157
2.09359926
2.073010897
2.053367935
2.034999953
2.017616783
1.999624871
1.985449308
1.963041225
2.307015818
2.353291974
2.377252092
2.437476631
2.48482334
2.497462153
2.495001002
2.460755487
2.410982435
2.367195255
2.34573961
2.334117251
2.324513067
2.307941868
2.285992708
2.269727719
2.253866216
2.23662692
2.220101757
2.201800133
2.188286939
2.180322177
2.166299371
2.152055493
2.139332063
2.128039955
2.11338065
2.094427859
2.075075366
2.054307903
2.034592352
2.017405399
2.000253136
1.987108564
1.964273641
2.259951643
2.317428399
2.373963722
2.430057038
2.480346057
2.494501111
2.493501601
2.462072778
2.415586459
2.370676363
2.347100053
2.335074983
2.324692363
2.309152808
2.287963528
2.271835989
2.254024936
2.236755422
2.220586076
2.20292371
2.191245529
2.180196358
2.165712925
2.151934713
2.139722757
2.130195552
2.115634464
2.096644284
2.077212869
2.054730923
2.034303371
2.017351574
2.00154082
1.988044874
1.964448363
2.239929302
2.315781676
2.378139479
2.433133645
2.476807212
2.491296358
2.490622297
2.462683522
2.417356618
2.371731629
2.348159586
2.336031327
2.325399603
2.311072224
2.29240532
2.272012636
2.253467852
2.23704452
2.221560426
2.205883462
2.191668043
2.179637934
2.165466652
2.152101592
2.14160826
2.131624025
2.116314262
2.097663769
2.077649096
2.054955939
2.034203862
2.017725123
2.002985294
1.988289133
1.964525547
2.254712733
2.330449513
2.396369289
2.442859859
2.474574614
2.489024089
2.488591213
2.463479501
2.418479309
2.372594743
2.349201786
2.336914045
2.326612092
2.316300236
2.295008331
2.271429802
2.253287527
2.237594259
2.2242556
2.207892204
2.191359929
2.179150708
2.165447838
2.153138594
2.143226043
2.131478737
2.116416399
2.097640476
2.077657621
2.055122056
2.034215998
2.019006007
2.003625548
1.988327742
1.964567673
2.303870061
2.372920951
2.420801311
2.448559254
2.470768152
2.487997216
2.487319903
2.46474163
2.419888693
2.373506334
2.350435541
2.337767879
2.331040949
2.321221159
2.295581021
2.271158965
2.253587357
2.239622094
2.227309003
2.208176635
2.190983953
2.178922782
2.165739933
2.1555116
2.143170123
2.13095793
2.116427883
2.097555559
2.077446723
2.0553476
2.034781879
2.020722601
2.003660205
1.988300605
1.964668602
2.323522191
2.387606851
2.424049223
2.439640201
2.459652316
2.487459347
2.486869749
2.468385414
2.422633137
2.374636864
2.352620406
2.340445734
2.336422342
2.322151202
2.295536381
2.271455975
2.254549557
2.243601942
2.228111312
2.208276121
2.19081177
2.178833527
2.167255941
2.156277763
2.142712891
2.130674741
2.116519162
2.097632467
2.077389104
2.055823999
2.036810168
2.021101235
2.003541372
1.988306729
1.964855545
2.390256117
2.411732752
2.400846241
2.442598185
2.485935411
2.486728679
2.4734645
2.426560217
2.376767649
2.357822446
2.346745149
2.337683634
2.322229498
2.29544275
2.2720298
2.258426881
2.245687392
2.228229822
2.208352624
2.190741782
2.179134416
2.169722727
2.15618495
2.142462428
2.130672885
2.116724449
2.097862597
2.0775123
2.057415838
2.038297854
2.02093554
2.003410664
1.988397248
1.965115701
2.378636851
2.36887156
2.381073177
2.434818056
2.48181049
2.484341883
2.474576643
2.42976656
2.381634922
2.363021381
2.349344469
2.337965926
2.321184893
2.295761332
2.273603925
2.262349647
2.246100954
2.228070724
2.208476319
2.190747547
2.181234133
2.170204577
2.155837183
2.142504219
2.130892916
2.117185196
2.0984491
2.078374201
2.05971039
2.038303641
2.020609543
2.003381729
1.9885604
1.965543216
2.343803971
2.357889027
2.382828955
2.435720133
2.478390235
2.480401303
2.473875452
2.431650634
2.385500846
2.365136582
2.350217609
2.337446979
2.320597716
2.296164449
2.277688726
2.26337488
2.246225085
2.228092296
2.20864821
2.191513614
2.183113721
2.169907529
2.155776581
2.14278223
2.131802021
2.119074312
2.100318457
2.080336131
2.060280232
2.038208233
2.020483125
2.003458981
1.988887264
1.966843656
2.343580034
2.36146148
2.389543051
2.442574694
2.477925935
2.478067451
2.471389393
2.432820984
2.38640573
2.366602383
2.350931744
2.336534747
2.320730311
2.298619061
2.28097938
2.263758903
2.246084911
2.228292733
2.209093864
2.19428393
2.182919155
2.169249982
2.155952189
2.14349102
2.133846661
2.119928207
2.101018045
2.080485418
2.060400943
2.038265449
2.020532786
2.003794479
1.990140176
1.969877571
2.370859951
2.385250593
2.413101451
2.450983786
2.476826393
2.476035827
2.469803299
2.434708592
2.386440802
2.367654193
2.350970709
2.336412334
2.322019085
2.304835901
2.281613708
2.263342433
2.246337663
2.228640744
2.211658696
2.19527647
2.182012602
2.169055986
2.15634048
2.145223916
2.133985224
2.119555776
2.100825191
2.080207348
2.060418935
2.038453167
2.02089875
2.005577828
1.993448932
1.971221135
2.417522209
2.4199034
2.430748532
2.450924967
2.468646478
2.471710165
2.468738333
2.436613858
2.3860912
2.368364258
2.351332395
2.33652691
2.328104071
2.307167643
2.281603413
2.263375178
2.246980764
2.230999905
2.215190101
2.194912092
2.181283684
2.169119906
2.157180122
2.146131814
2.133563837
2.118840037
2.100412245
2.080001752
2.060524784
2.038808738
2.022722643
2.008719568
1.994881516
1.971325231
2.424596295
2.427383121
2.43174233
2.430093163
2.446210566
2.463298299
2.4670536
2.436548235
2.385473956
2.369811867
2.35313087
2.340370882
2.331960212
2.307152412
2.281061094
2.263944423
2.249846082
2.234864003
2.215822061
2.194335433
2.181000053
2.169375029
2.159121138
2.146193381
2.133111624
2.118555444
2.100282091
2.080018085
2.060711151
2.04007168
2.025515444
2.009304375
1.994903727
1.971415759
2.412340312
2.429880212
2.414567134
2.397686734
2.431344368
2.458417878
2.464124521
2.435599335
2.385507062
2.372606377
2.358995625
2.345268526
2.331809537
2.306072233
2.28080359
2.266275292
2.254075306
2.235506492
2.215855112
2.194048134
2.180907448
2.170297214
2.160541003
2.146048026
2.132926607
2.118538045
2.10035186
2.080186757
2.061130119
2.042552432
2.382786548
2.414529184
2.384685857
2.392683024
)
;

boundaryField
{
    inlet
    {
        type            calculated;
        value           nonuniform 0();
    }
    outlet
    {
        type            calculated;
        value           nonuniform List<scalar> 
61
(
1.943581898
1.943990712
1.944499236
1.944681997
1.944682311
1.944697399
1.944871723
1.945511614
1.947106376
1.949246553
1.949837333
1.949785026
1.949605324
1.949590297
1.949662762
1.949812819
1.950120684
1.95060077
1.950972456
1.95127277
1.951621987
1.952386029
1.952644834
1.952681961
1.952501084
1.952364927
1.952419101
1.952668763
1.953071209
1.953818609
1.954210562
1.954451294
1.954745385
1.955092525
1.955483112
1.955993198
1.956902277
1.958264096
1.958823505
1.9590393
1.959120347
1.959132352
1.959304497
1.959539025
1.959919338
1.960803385
1.962885708
1.964302895
1.964504205
1.964588631
1.964617891
1.964709241
1.964887822
1.965140979
1.965523352
1.966579128
1.969642667
1.971257878
1.971380801
1.971452141
1.943435107
)
;
    }
    bottom
    {
        type            calculated;
        value           nonuniform 0();
    }
    top
    {
        type            calculated;
        value           nonuniform 0();
    }
    obstacle
    {
        type            calculated;
        value           nonuniform 0();
    }
    defaultFaces
    {
        type            empty;
    }
    procBoundary23to17
    {
        type            processor;
        value           nonuniform List<scalar> 
40
(
2.185507162
2.161740512
2.147414422
2.136836811
2.124909575
2.115563169
2.102097126
2.083915564
2.066082412
2.049565171
2.032662731
2.019321815
2.005961213
1.991061325
1.976139184
1.965289926
1.943373678
2.464410328
2.479891427
2.445546509
2.421413218
2.415247556
2.415862779
2.42091925
2.434220644
2.40616378
2.382551964
2.369372912
2.354315775
2.34667623
2.331396857
2.306480952
2.277247049
2.260994291
2.257883051
2.248845397
2.24098569
2.222113588
2.20256035
2.20256035
)
;
    }
    procBoundary23to22
    {
        type            processor;
        value           nonuniform List<scalar> 
65
(
2.356945363
2.450775201
2.450775201
2.445772797
2.442068767
2.439571711
2.434005032
2.418258242
2.392686184
2.368463745
2.346955856
2.320673106
2.283336309
2.237463717
2.415757555
2.415757555
2.402408128
2.390015999
2.37327141
2.345107543
2.302344998
2.251445687
2.208720889
2.179064586
2.150093485
2.108777808
2.044004033
2.29789211
2.29789211
2.275465212
2.25738211
2.230502417
2.174671657
2.104428878
2.078567655
2.06718996
2.054121487
2.026935866
1.967721641
1.958533546
1.967675526
1.983651424
2.202010534
2.202010534
2.195000822
2.151597927
2.122269176
2.130469065
2.158993268
2.176579755
2.174652037
2.158955215
2.158330872
2.147816116
2.119744762
2.071809709
2.031908032
2.323004867
2.323004867
2.30566939
2.308740784
2.310415224
2.285920749
2.257401031
2.233454419
)
;
    }
    procBoundary23to28
    {
        type            processor;