/*--------------------------------*- C++ -*----------------------------------*\
  =========                 |
  \\      /  F ield         | OpenFOAM: The Open Source CFD Toolbox
   \\    /   O peration     | Website:  https://openfoam.org
    \\  /    A nd           | Version:  7
     \\/     M anipulation  |
\*---------------------------------------------------------------------------*/
FoamFile
{
    version     2.0;
    format      ascii;
    class       volVectorField;
    location    "1.9";
    object      U;
}
// * * * * * * * * * * * * * * * * * * * * * * * * * * * * * * * * * * * * * //

dimensions      [0 1 -1 0 0 0 0];

internalField   nonuniform List<vector> 
2222
(
(2.129306463 -0.9396946607 0)
(2.128830359 -0.9393118569 0)
(2.127717616 -0.939913501 0)
(2.135219014 -0.9508088899 0)
(2.13372639 -0.9507223612 0)
(2.132595842 -0.9514070885 0)
(2.132262621 -0.9523644764 0)
(2.132613681 -0.9523840848 0)
(2.133187969 -0.9515364328 0)
(2.133850699 -0.9505071594 0)
(2.139081349 -0.9540243766 0)
(2.138833523 -0.9533443489 0)
(2.139014649 -0.9523821129 0)
(2.13928332 -0.9521521482 0)
(2.139840244 -0.9516905724 0)
(2.140453043 -0.9507948295 0)
(2.140732413 -0.9502599895 0)
(2.140733786 -0.950440557 0)
(2.140166831 -0.9512385848 0)
(2.139530621 -0.9518914408 0)
(2.141524976 -0.9509778917 0)
(2.141886414 -0.9507448164 0)
(2.142273329 -0.9506017376 0)
(2.142786744 -0.9508196022 0)
(2.143252386 -0.9511671982 0)
(2.143281872 -0.9515145233 0)
(2.142571797 -0.9519616497 0)
(2.141546052 -0.9524476943 0)
(2.141204299 -0.9527273487 0)
(2.141192518 -0.9527686788 0)
(2.141207817 -0.9527160364 0)
(2.141349601 -0.9524985557 0)
(2.141806644 -0.9521388181 0)
(2.866558361 0.268438315 0)
(2.867246711 0.2671380138 0)
(2.8676357 0.2654154267 0)
(2.868547426 0.26399835 0)
(2.869322012 0.2634976832 0)
(2.869591299 0.2634949751 0)
(2.869428459 0.2632465036 0)
(2.868935593 0.2620926142 0)
(2.868770599 0.2604533742 0)
(2.869102499 0.2594778122 0)
(2.869559113 0.2599217855 0)
(2.86959895 0.2604928975 0)
(2.868987834 0.2598802678 0)
(2.868652923 0.2595366879 0)
(2.868928159 0.2596827851 0)
(2.869449365 0.2599524207 0)
(2.870255136 0.2607729436 0)
(2.870952817 0.261831051 0)
(2.87138694 0.2621474119 0)
(2.87187327 0.2623299829 0)
(2.872339707 0.2627119982 0)
(2.872772742 0.2629971946 0)
(2.872947541 0.2630525715 0)
(2.873265255 0.2631141653 0)
(2.873722395 0.2630628756 0)
(2.874108248 0.263070782 0)
(2.874303884 0.2631188978 0)
(2.874375285 0.2631255311 0)
(2.874334345 0.2631066533 0)
(2.87422158 0.2631161782 0)
(2.874237517 0.26313894 0)
(2.874292769 0.2631324251 0)
(2.874507348 0.2630982485 0)
(2.874953141 0.2630397041 0)
(2.875236322 0.2630081981 0)
(2.875286566 0.2630100437 0)
(2.875325829 0.2630460113 0)
(2.875257286 0.2631632256 0)
(2.875245225 0.2632921668 0)
(2.875317338 0.2633239809 0)
(2.875444184 0.2633463967 0)
(2.875814156 0.263343548 0)
(2.876180954 0.263281415 0)
(2.87625955 0.2632615187 0)
(2.876326834 0.2632819908 0)
(2.876288764 0.2633506092 0)
(2.876209751 0.2634552968 0)
(2.876248303 0.2635035418 0)
(2.876293462 0.2635144657 0)
(2.876482563 0.263520544 0)
(2.876817857 0.2634626312 0)
(2.876976558 0.2633946286 0)
(2.877018734 0.2633867977 0)
(2.877044714 0.2634159055 0)
(2.876973029 0.2635021245 0)
(2.876936227 0.2635814833 0)
(2.876965961 0.2635973185 0)
(2.877036096 0.263600703 0)
(2.877268862 0.2635881514 0)
(2.877524937 0.2635294212 0)
(2.877574966 0.2634966629 0)
(2.877589589 0.26349791 0)
(2.877558843 0.2635225002 0)
(2.877474082 0.2635682881 0)
(2.877471707 0.2636188777 0)
(2.877488698 0.2636160685 0)
(2.877645769 0.2636046607 0)
(2.878728943 0.2643932623 0)
(2.879526406 0.2621587869 0)
(2.878669645 0.2597523381 0)
(2.877399116 0.2574077817 0)
(2.877225847 0.2559250494 0)
(2.877272776 0.2559128608 0)
(2.877389673 0.2560436217 0)
(2.877359646 0.2554110007 0)
(2.877388532 0.2544027052 0)
(2.877469535 0.2545014371 0)
(2.877578359 0.2550359305 0)
(2.877672971 0.2568707093 0)
(2.877464571 0.2586435443 0)
(2.877078871 0.2597332186 0)
(2.877090473 0.2604207708 0)
(2.877395904 0.2610353088 0)
(2.877752376 0.2621845479 0)
(2.877674364 0.2635563162 0)
(2.877452799 0.2638562947 0)
(2.877253079 0.2639808809 0)
(2.877024131 0.2641251685 0)
(2.876918844 0.2640945824 0)
(2.876752719 0.2638972472 0)
(2.876908006 0.2636703878 0)
(2.877529373 0.2634978305 0)
(2.87834566 0.2632527612 0)
(2.878572744 0.2630894023 0)
(2.878518206 0.2630813497 0)
(2.878392143 0.2631199802 0)
(2.878050055 0.2631756827 0)
(2.877734236 0.2632769977 0)
(2.877718971 0.2633509859 0)
(2.877814352 0.2634018013 0)
(2.878131116 0.2634435916 0)
(2.878471061 0.2634027685 0)
(2.878540785 0.2633650617 0)
(2.878516006 0.2633655989 0)
(2.878393851 0.2634476049 0)
(2.878165463 0.2636643129 0)
(2.87807778 0.2638216793 0)
(2.878104309 0.2638522927 0)
(2.878215697 0.263858984 0)
(2.878452435 0.263753092 0)
(2.87869423 0.2635996912 0)
(2.878754967 0.2635387256 0)
(2.878744275 0.2635239067 0)
(2.878647811 0.2635718126 0)
(2.87851192 0.2637293175 0)
(2.878530642 0.2638667322 0)
(2.878574715 0.2639050841 0)
(2.878699765 0.2638975097 0)
(2.878898142 0.2637442157 0)
(2.879026323 0.2635699368 0)
(2.879048066 0.2635278386 0)
(2.879049973 0.263543906 0)
(2.878982764 0.2636708552 0)
(2.878916564 0.2638252248 0)
(2.87892568 0.2638857013 0)
(2.878954999 0.263890593 0)
(2.879038526 0.2638148202 0)
(2.879181164 0.2636638186 0)
(2.879283304 0.2635433647 0)
(2.87928934 0.2635180665 0)
(2.87925801 0.2635281302 0)
(2.879214098 0.2636313898 0)
(2.879211085 0.2637446464 0)
(2.879299716 0.263796582 0)
(2.887707236 0.2767509795 0)
(2.888423003 0.2759204582 0)
(2.888939276 0.2716790577 0)
(2.887275989 0.2683305907 0)
(2.885452165 0.2658290858 0)
(2.886850146 0.2640137493 0)
(2.887536667 0.2637125889 0)
(2.888211209 0.2633117731 0)
(2.888901887 0.261918374 0)
(2.88959179 0.2612692304 0)
(2.889961911 0.2623242687 0)
(2.889211425 0.2628545231 0)
(2.888517306 0.2623818714 0)
(2.88834777 0.2622095961 0)
(2.888371898 0.2622054926 0)
(2.888429818 0.2623178524 0)
(2.888387448 0.2624275834 0)
(2.888298079 0.2622927716 0)
(2.887637311 0.2625588761 0)
(2.886697407 0.2625758228 0)
(2.886025996 0.2627758473 0)
(2.885267622 0.2629707887 0)
(2.884397882 0.2630680755 0)
(2.884080262 0.2630274715 0)
(2.88426563 0.2630493329 0)
(2.88461156 0.2632673612 0)
(2.884650821 0.2633778179 0)
(2.88466255 0.2634032299 0)
(2.884719956 0.2634087673 0)
(2.884654202 0.2635006858 0)
(2.884391483 0.2636829895 0)
(2.88424457 0.2638327092 0)
(2.884237824 0.2638917877 0)
(2.884312456 0.2640173223 0)
(2.884468327 0.2640761913 0)
(2.884540494 0.2639906965 0)
(2.884409695 0.2638978793 0)
(2.884249694 0.2638167492 0)
(2.883996826 0.2637364007 0)
(2.883758844 0.2637691888 0)
(2.883662203 0.2638625275 0)
(2.883636547 0.2639438699 0)
(2.883681598 0.2639884242 0)
(2.883769624 0.2639250453 0)
(2.883771245 0.2638633115 0)
(2.883728783 0.2638478645 0)
(2.883649721 0.2638384497 0)
(2.883506888 0.2638770555 0)
(2.883386428 0.2639883886 0)
(2.88327086 0.2641122665 0)
(2.88327258 0.2641743493 0)
(2.883321309 0.2641814678 0)
(2.883375612 0.2641338491 0)
(2.883411483 0.2640347872 0)
(2.883395062 0.2639623549 0)
(2.883357406 0.2639429671 0)
(2.883317026 0.2639516267 0)
(2.883222307 0.2639896568 0)
(2.883101915 0.2640348912 0)
(2.883092198 0.264046888 0)
(2.883131551 0.2640253076 0)
(2.883196434 0.2639492919 0)
(2.8832324 0.263878852 0)
(2.88319467 0.2638597401 0)
(2.883170235 0.2638733056 0)
(2.883083982 0.2638926349 0)
(2.883217686 0.2640499323 0)
(2.888417845 0.2792559807 0)
(2.890237992 0.2779148958 0)
(2.890754658 0.276627494 0)
(2.890745632 0.2754296349 0)
(2.890959229 0.2733766728 0)
(2.891708923 0.2712531201 0)
(2.892516124 0.2714316571 0)
(2.893075851 0.2717451598 0)
(2.894011464 0.2700340346 0)
(2.895438692 0.2680647243 0)
(2.896636939 0.2676682594 0)
(2.897186733 0.2659835959 0)
(2.896325226 0.2634161582 0)
(2.894949307 0.2626675248 0)
(2.894777525 0.2614648547 0)
(2.894934522 0.260843825 0)
(2.8950312 0.2610601793 0)
(2.894977961 0.2609627421 0)
(2.893863133 0.2599667014 0)
(2.89346753 0.2598529231 0)
(2.892693627 0.26022152 0)
(2.891861379 0.2610630626 0)
(2.891393452 0.261727446 0)
(2.890591058 0.2628899786 0)
(2.890317222 0.2638322692 0)
(2.890137615 0.2644119199 0)
(2.889802702 0.2644932896 0)
(2.889552931 0.2646550529 0)
(2.889384846 0.2646886833 0)
(2.88935553 0.264602992 0)
(2.889261326 0.2647299938 0)
(2.889129399 0.2649318046 0)
(2.888893589 0.2649282245 0)
(2.888705441 0.2648673003 0)
(2.888576401 0.2647549334 0)
(2.888548521 0.2646644833 0)
(2.888592732 0.2645761598 0)
(2.888605209 0.2645295219 0)
(2.888580678 0.2645053064 0)
(2.888498597 0.264480037 0)
(2.888386884 0.2644878406 0)
(2.888261073 0.2645609645 0)
(2.888111983 0.2646689167 0)
(2.888027972 0.2646563771 0)
(2.888016374 0.2646130726 0)
(2.888023122 0.2645927605 0)
(2.888053781 0.2645876985 0)
(2.888012545 0.2645878712 0)
(2.887937682 0.2645884889 0)
(2.887826976 0.2646155504 0)
(2.887646417 0.2646726976 0)
(2.887549345 0.2647058015 0)
(2.887511231 0.2646964133 0)
(2.88748414 0.2646225848 0)
(2.887505382 0.2644949246 0)
(2.887499086 0.2644086987 0)
(2.887458087 0.2643916325 0)
(2.887407508 0.2643721111 0)
(2.887290541 0.2643512876 0)
(2.887165762 0.2643509737 0)
(2.887126049 0.2643599626 0)
(2.887091253 0.2643726577 0)
(2.887070892 0.2643925667 0)
(2.887050619 0.2644025883 0)
(2.887030219 0.2643963604 0)
(2.886977321 0.2643574265 0)
(2.886983536 0.2644251898 0)
(2.893716904 0.2670990204 0)
(2.892801109 0.2682479096 0)
(2.892142797 0.270922306 0)
(2.890719073 0.2739771876 0)
(2.888775328 0.2747039305 0)
(2.888583932 0.2755392885 0)
(2.8891486 0.2796138482 0)
(2.888604273 0.2802804809 0)
(2.88828212 0.2772022889 0)
(2.8884726 0.2743162034 0)
(2.888563959 0.2731681093 0)
(2.889032593 0.2728585925 0)
(2.889831388 0.2713572423 0)
(2.891025599 0.2682755669 0)
(2.891138612 0.2651896329 0)
(2.891132925 0.2646810551 0)
(2.890935976 0.2652721851 0)
(2.891617334 0.2642694601 0)
(2.89220701 0.2624334601 0)
(2.892264543 0.2613892105 0)
(2.893182767 0.2617215401 0)
(2.893353944 0.2620687805 0)
(2.893426323 0.26261357 0)
(2.893280584 0.2630345294 0)
(2.893136179 0.263196758 0)
(2.892832129 0.2631160155 0)
(2.89243865 0.2631186394 0)
(2.891979223 0.2634702444 0)
(2.891603304 0.2635606691 0)
(2.891416275 0.2633410966 0)
(2.891296671 0.2636400949 0)
(2.891043324 0.2641456364 0)
(2.890841248 0.2642893604 0)
(2.890552291 0.264357697 0)
(2.890281417 0.2643256057 0)
(2.89006522 0.2643303863 0)
(2.889970226 0.2643721712 0)
(2.890012739 0.264470256 0)
(2.890157894 0.2646088478 0)
(2.890101899 0.2647209778 0)
(2.89003157 0.2648049067 0)
(2.889899146 0.2649138272 0)
(2.889696271 0.2650227184 0)
(2.889563128 0.2650471857 0)
(2.889538032 0.2650359563 0)
(2.889513928 0.2649913101 0)
(2.889556225 0.2649108365 0)
(2.889600806 0.2648428625 0)
(2.889549487 0.2648115143 0)
(2.889509939 0.2647925117 0)
(2.889400438 0.2647701249 0)
(2.889202299 0.2647318986 0)
(2.889067295 0.2646840883 0)
(2.889000705 0.2646594915 0)
(2.888976143 0.2646157812 0)
(2.889038744 0.2645417907 0)
(2.889045042 0.2645099306 0)
(2.889025748 0.2645035002 0)
(2.888957573 0.2645177565 0)
(2.888831173 0.2645892338 0)
(2.888709474 0.2646644019 0)
(2.888689451 0.2646755597 0)
(2.888684871 0.2646581574 0)
(2.888684024 0.2646338952 0)
(2.888700315 0.2646065992 0)
(2.888703336 0.2646029494 0)
(2.888696341 0.2646414345 0)
(2.889897557 0.2769796282 0)
(2.88994675 0.2761077937 0)
(2.88431796 0.2853403861 0)
(2.884069519 0.2944230905 0)
(2.880905757 0.2911108454 0)
(2.881845091 0.285187634 0)
(2.883066579 0.2852912526 0)
(2.884466551 0.2850992299 0)
(2.883083918 0.2812714429 0)
(2.882348235 0.2755217598 0)
(2.88342751 0.2736389294 0)
(2.884464002 0.2737326013 0)
(2.885754648 0.2725421527 0)
(2.886391105 0.2710306808 0)
(2.886682193 0.2701221624 0)
(2.887313063 0.2694864037 0)
(2.888148789 0.2701363467 0)
(2.888530875 0.2694881083 0)
(2.888754071 0.26830902 0)
(2.888537925 0.2676304886 0)
(2.890686539 0.2659101992 0)
(2.891944962 0.2642079408 0)
(2.892402387 0.2641891341 0)
(2.892297096 0.2645596267 0)
(2.891670855 0.2639830646 0)
(2.8909143 0.2629016182 0)
(2.890681756 0.2627293622 0)
(2.890685013 0.2628341133 0)
(2.89065107 0.2627822513 0)
(2.890519724 0.2624167687 0)
(2.890547962 0.2624200328 0)
(2.890837802 0.2627742512 0)
(2.89090151 0.2630201981 0)
(2.890759643 0.2634482356 0)
(2.890238601 0.263884074 0)
(2.889773752 0.2642381162 0)
(2.88966519 0.2644064529 0)
(2.889646997 0.2645982895 0)
(2.889860864 0.26472558 0)
(2.890087731 0.2649090805 0)
(2.889972658 0.2650392798 0)
(2.889865677 0.2650608786 0)
(2.889571435 0.2650469836 0)
(2.889275042 0.2650608617 0)
(2.889194902 0.2650844688 0)
(2.889081052 0.2650794451 0)
(2.889060571 0.2649493996 0)
(2.889163466 0.2647120795 0)
(2.889121136 0.2645767599 0)
(2.889067103 0.2645487697 0)
(2.888994888 0.2645328178 0)
(2.888876608 0.2646031868 0)
(2.888783939 0.2647088344 0)
(2.888745903 0.2647175183 0)
(2.88875411 0.2646977009 0)
(2.888808328 0.2646765233 0)
(2.88889454 0.2646729578 0)
(2.888927966 0.2646754201 0)
(2.888920457 0.2646846755 0)
(2.888870998 0.2647180329 0)
(2.888746841 0.2647829166 0)
(2.888643206 0.2648325996 0)
(2.88862344 0.2648306316 0)
(2.888624933 0.2648080021 0)
(2.888691972 0.264765382 0)
(2.888777347 0.2647379045 0)
(2.888763315 0.2647350685 0)
(2.928389252 0.1682687952 0)
(2.919413378 0.1881685417 0)
(2.904964099 0.2261818716 0)
(2.90284863 0.2396059911 0)
(2.904561649 0.2297634394 0)
(2.903037638 0.2341275197 0)
(2.89429207 0.24966375 0)
(2.893846883 0.2583183004 0)
(2.892213195 0.2611768046 0)
(2.889272633 0.2616298318 0)
(2.887368451 0.2637339861 0)
(2.886380312 0.2673324871 0)
(2.886446455 0.2692469511 0)
(2.885635694 0.2708860437 0)
(2.88432819 0.2713722038 0)
(2.884133841 0.2725061535 0)
(2.88550911 0.2748052165 0)
(2.88573996 0.2751227437 0)
(2.883636285 0.2738074587 0)
(2.882369928 0.2725067546 0)
(2.882543129 0.2705612365 0)
(2.88463853 0.2686314683 0)
(2.886126019 0.2663750774 0)
(2.88649435 0.265717791 0)
(2.886955496 0.264294614 0)
(2.887328737 0.2615601147 0)
(2.887141778 0.2605364702 0)
(2.887442835 0.2612183712 0)
(2.888124657 0.2622169886 0)
(2.888082458 0.26243153 0)
(2.888218415 0.2622568378 0)
(2.888543267 0.2621272525 0)
(2.889268917 0.2623933847 0)
(2.889458427 0.2630305479 0)
(2.889081563 0.2634454248 0)
(2.888635046 0.2636158107 0)
(2.888564754 0.2636663625 0)
(2.888479103 0.2637084874 0)
(2.888372897 0.2637087998 0)
(2.888486695 0.2639416817 0)
(2.888656963 0.2641237705 0)
(2.888674426 0.2640553838 0)
(2.888372314 0.2639995279 0)
(2.888157854 0.264001843 0)
(2.888001591 0.2641152145 0)
(2.887940319 0.2642084014 0)
(2.887931399 0.2642526193 0)
(2.888073624 0.2642871733 0)
(2.888169726 0.2642895775 0)
(2.888136353 0.2642788229 0)
(2.888119391 0.2642808104 0)
(2.888098438 0.2643647315 0)
(2.888034454 0.2645539439 0)
(2.88790599 0.2646457565 0)
(2.887863779 0.2646293175 0)
(2.887884567 0.2646224806 0)
(2.887970152 0.2646324295 0)
(2.888097878 0.2646443363 0)
(2.888125684 0.2646112046 0)
(2.888089983 0.2645858957 0)
(2.888041074 0.2645697493 0)
(2.887965807 0.2646206127 0)
(2.887946437 0.2646752183 0)
(2.887953872 0.2646846863 0)
(2.887974254 0.2646789038 0)
(2.888036687 0.264652311 0)
(2.888044985 0.2646303474 0)
(2.969304998 0.06743674918 0)
(2.959308882 0.08993233972 0)
(2.953153467 0.1038479365 0)
(2.935863386 0.1452836136 0)
(2.927270911 0.1750446919 0)
(2.919498855 0.1919335661 0)
(2.90285371 0.2256252825 0)
(2.899489941 0.2418176116 0)
(2.902823719 0.2448717904 0)
(2.891536972 0.2617402955 0)
(2.884381814 0.2800603221 0)
(2.884064361 0.2828513744 0)
(2.882570102 0.2830501621 0)
(2.88152323 0.2872791051 0)
(2.880618387 0.2859918336 0)
(2.878915773 0.2801169185 0)
(2.881492135 0.2753167115 0)
(2.883659849 0.2760087294 0)
(2.883140977 0.2755718003 0)
(2.880571689 0.2738755509 0)
(2.879821134 0.2704599587 0)
(2.88153604 0.2684627497 0)
(2.882291126 0.2684703267 0)
(2.882984272 0.2688891857 0)
(2.883706641 0.2683871262 0)
(2.884272784 0.2670735495 0)
(2.884710121 0.2663199457 0)
(2.885486869 0.2663690733 0)
(2.885372197 0.2674662434 0)
(2.885634908 0.2669405623 0)
(2.886532632 0.2656488165 0)
(2.886823011 0.2646395977 0)
(2.887079796 0.2643729103 0)
(2.887133215 0.2641587321 0)
(2.887006213 0.263921384 0)
(2.886877583 0.2632354322 0)
(2.88697018 0.2628477767 0)
(2.886997697 0.2628988095 0)
(2.886902171 0.2630034184 0)
(2.886766541 0.2627278305 0)
(2.886909874 0.2625510958 0)
(2.887090401 0.2626858843 0)
(2.887071874 0.2629076325 0)
(2.886936977 0.2631196239 0)
(2.886928193 0.2633374609 0)
(2.886753274 0.2636915374 0)
(2.886615753 0.2642668724 0)
(2.886699761 0.2647686705 0)
(2.886757956 0.2648754945 0)
(2.886722534 0.2648198158 0)
(2.886671349 0.2647508292 0)
(2.886668903 0.2646672512 0)
(2.886662801 0.2646419791 0)
(2.886612181 0.2646703549 0)
(2.88659043 0.2647105444 0)
(2.886589481 0.2647677841 0)
(2.886642394 0.2648426938 0)
(2.886728627 0.2648358594 0)
(2.88679262 0.2646898766 0)
(2.886797371 0.2645243236 0)
(2.886760446 0.2644441839 0)
(2.886752749 0.2644243484 0)
(2.886795996 0.2644743778 0)
(2.886832201 0.2645464938 0)
(2.886872053 0.2646116955 0)
(2.886886361 0.2646267664 0)
(2.886866192 0.2645907946 0)
(2.996989847 0.005701506361 0)
(2.994320147 0.0113867465 0)
(2.989679718 0.02169975352 0)
(2.984473885 0.03221987668 0)
(2.976956303 0.05023003012 0)
(2.966295325 0.07483936432 0)
(2.959058893 0.08914687934 0)
(2.944999857 0.1220970171 0)
(2.931540915 0.1657205721 0)
(2.926767638 0.1701196485 0)
(2.928027228 0.1754271224 0)
(2.909634703 0.2116326083 0)
(2.902997331 0.2296616921 0)
(2.899916231 0.2396443038 0)
(2.898853783 0.2430471165 0)
(2.898600298 0.2412457951 0)
(2.895876471 0.2457096003 0)
(2.891862912 0.2549278077 0)
(2.891423611 0.2636534031 0)
(2.888963072 0.2642050647 0)
(2.886931407 0.2637487615 0)
(2.885461939 0.2646409851 0)
(2.884304287 0.2675260336 0)
(2.883178214 0.2722978023 0)
(2.882113438 0.2740176366 0)
(2.88252407 0.2718886127 0)
(2.883694994 0.2712658678 0)
(2.883603549 0.2715341395 0)
(2.883221633 0.2714752412 0)
(2.883241921 0.2699643963 0)
(2.8832473 0.2679320669 0)
(2.883384684 0.2658708285 0)
(2.884001909 0.2647316457 0)
(2.884629083 0.2632415337 0)
(2.884666848 0.2623469347 0)
(2.88490345 0.261368163 0)
(2.885239805 0.2607899226 0)
(2.885842239 0.2613288939 0)
(2.886077956 0.2623369931 0)
(2.885921063 0.2627144416 0)
(2.885607738 0.2626083239 0)
(2.885897443 0.2626436148 0)
(2.886036848 0.2627270389 0)
(2.886241245 0.2629735791 0)
(2.886456394 0.2631948316 0)
(2.886357892 0.2634031259 0)
(2.886279174 0.263494178 0)
(2.886099481 0.2636302163 0)
(2.885964158 0.2636951499 0)
(2.885684051 0.2637032173 0)
(2.885493399 0.2636468394 0)
(2.88556929 0.2635662189 0)
(2.885823462 0.2636903405 0)
(2.885929848 0.264036906 0)
(2.885890196 0.2641350914 0)
(2.885864153 0.2641391975 0)
(2.885783091 0.2641365269 0)
(2.885682017 0.2642093039 0)
(2.885673018 0.264268283 0)
(2.885694244 0.2642713892 0)
(2.885767951 0.2642860419 0)
(2.885857557 0.2643137058 0)
(2.885883596 0.2643517146 0)
(2.885882643 0.2643885026 0)
(2.885860094 0.2644406811 0)
(2.885830211 0.2644622366 0)
(2.885781804 0.264401744 0)
(2.999933995 0.0001187402123 0)
(2.999824872 0.00031859449 0)
(2.999566596 0.0007964028606 0)
(2.998962559 0.002005124319 0)
(2.997864204 0.004127432363 0)
(2.995891529 0.008134769211 0)
(2.992409513 0.01571161909 0)
(2.987385306 0.02556690354 0)
(2.980524855 0.04144336342 0)
(2.973504404 0.05939897788 0)
(2.963173214 0.08251085559 0)
(2.946006222 0.1233730074 0)
(2.939850641 0.1384801034 0)
(2.940297305 0.147310134 0)
(2.915795016 0.197700747 0)
(2.908876156 0.226777468 0)
(2.909480728 0.2222354869 0)
(2.895318159 0.2455013559 0)
(2.891462309 0.2647108102 0)
(2.894663789 0.2665286896 0)
(2.888900339 0.2736971474 0)
(2.885099015 0.2777514536 0)
(2.882195784 0.2812989534 0)
(2.882107634 0.2841595146 0)
(2.880733476 0.2817329324 0)
(2.880976947 0.2762938827 0)
(2.882245401 0.272294395 0)
(2.882282088 0.2703121411 0)
(2.88285445 0.2705253888 0)
(2.882579362 0.2691201198 0)
(2.882462881 0.2676971185 0)
(2.882303349 0.266893528 0)
(2.882687904 0.2661484606 0)
(2.883049616 0.2664289512 0)
(2.88348138 0.2665333274 0)
(2.884059198 0.2661999795 0)
(2.884667849 0.2658024694 0)
(2.885704598 0.265838769 0)
(2.885837841 0.2666027963 0)
(2.885444722 0.2663166539 0)
(2.885145009 0.2649854255 0)
(2.885135535 0.2642193571 0)
(2.885302811 0.2640514958 0)
(2.885616633 0.2639968218 0)
(2.885987918 0.2638870109 0)
(2.886039632 0.2632706563 0)
(2.886023848 0.2629085005 0)
(2.885903588 0.2628808836 0)
(2.885577117 0.2629546665 0)
(2.885325028 0.2629507979 0)
(2.885284798 0.2629150265 0)
(2.885414139 0.2629712389 0)
(2.885747651 0.2632891367 0)
(2.885935611 0.2636922949 0)
(2.885840468 0.2638616525 0)
(2.885698284 0.2639681059 0)
(2.885370166 0.2641841254 0)
(2.885128926 0.2643643775 0)
(2.885086383 0.264381314 0)
(2.885078662 0.2643842658 0)
(2.885278338 0.2644110863 0)
(2.885485647 0.2644938354 0)
(2.885412358 0.2645192692 0)
(2.885354263 0.2645231199 0)
(2.885264893 0.2644960119 0)
(2.88517963 0.2644163668 0)
(2.885182792 0.2643590379 0)
(2.999999812 3.006615385e-07 0)
(2.999999167 1.394549357e-06 0)
(2.999996765 5.459381496e-06 0)
(2.999988613 1.924604757e-05 0)
(2.999962237 6.640498621e-05 0)
(2.999893993 0.0001894507189 0)
(2.999721853 0.0005049825259 0)
(2.99930059 0.001307967549 0)
(2.998527489 0.002806387113 0)
(2.997011053 0.006095912606 0)
(2.994414263 0.01107763616 0)
(2.990578016 0.01866169275 0)
(2.984083595 0.03508995875 0)
(2.977703729 0.0501952116 0)
(2.967803299 0.07047810255 0)
(2.959296044 0.09259876779 0)
(2.951117527 0.1131277515 0)
(2.931030751 0.1604136539 0)
(2.925750449 0.1763812429 0)
(2.927048113 0.1793106659 0)
(2.91230782 0.2134725496 0)
(2.908596151 0.2186932197 0)
(2.906641856 0.2247069404 0)
(2.900724289 0.2420675673 0)
(2.899476852 0.2432885143 0)
(2.89907935 0.2456386024 0)
(2.89348209 0.2523916558 0)
(2.891080158 0.2588655854 0)
(2.890865331 0.2600291125 0)
(2.888710135 0.2618494207 0)
(2.887591276 0.2634635833 0)
(2.88582502 0.26541371 0)
(2.88446768 0.2681167473 0)
(2.883656496 0.2726264961 0)
(2.883336011 0.2720847447 0)
(2.883230164 0.2713087218 0)
(2.883415701 0.2696362203 0)
(2.883872503 0.2691207089 0)
(2.884154553 0.2688127765 0)
(2.884091202 0.2678093013 0)
(2.883505547 0.2660185177 0)
(2.883415951 0.2640729408 0)
(2.883912557 0.2633438816 0)
(2.884665124 0.2628268006 0)
(2.885279469 0.262018395 0)
(2.885474633 0.2617663368 0)
(2.88570947 0.2615292791 0)
(2.885905576 0.2618876979 0)
(2.885598646 0.2626356178 0)
(2.885196375 0.263123496 0)
(2.885402616 0.2632309773 0)
(2.885529656 0.2632846425 0)
(2.885852512 0.2634093464 0)
(2.886072522 0.2636007831 0)
(2.885932944 0.2636292541 0)
(2.885815817 0.2636023489 0)
(2.885530916 0.263579837 0)
(2.885306395 0.2635992327 0)
(2.885195924 0.2636025758 0)
(2.885067429 0.2636398215 0)
(2.885169827 0.2637947317 0)
(2.885425718 0.2639848332 0)
(2.885450395 0.2640660032 0)
(2.885401004 0.2640918693 0)
(2.885264863 0.2640538447 0)
(2.88512273 0.264041464 0)
(2.885105646 0.264155028 0)
(3 6.765034158e-11 0)
(3 5.537857396e-10 0)
(2.999999997 4.226294283e-09 0)
(2.999999983 2.612219701e-08 0)
(2.999999912 1.388385894e-07 0)
(2.999999584 6.876443622e-07 0)
(2.999998307 2.777021012e-06 0)
(2.999993623 1.077688445e-05 0)
(2.999978434 3.835943591e-05 0)
(2.999938156 0.0001078399087 0)
(2.999821096 0.0003240451436 0)
(2.99954165 0.0008530483167 0)
(2.998994457 0.001935357153 0)
(2.997919308 0.004168467235 0)
(2.995975309 0.007862992165 0)
(2.992275843 0.01612185859 0)
(2.987835394 0.02572699503 0)
(2.981304208 0.03905241133 0)
(2.971902527 0.06312682966 0)
(2.965120371 0.08038084695 0)
(2.950217227 0.1126904161 0)
(2.940126078 0.138081932 0)
(2.934931991 0.1538438365 0)
(2.916557641 0.1987684907 0)
(2.913031796 0.2118788229 0)
(2.914180159 0.2174008234 0)
(2.897435098 0.249257245 0)
(2.894473584 0.2642379221 0)
(2.895259228 0.2620103415 0)
(2.890180635 0.269450527 0)
(2.887479072 0.2784726916 0)
(2.885367641 0.2769432079 0)
(2.88435592 0.277862864 0)
(2.883885991 0.2780275279 0)
(2.884033691 0.2771283397 0)
(2.882901591 0.2729099231 0)
(2.88274246 0.2678922335 0)
(2.883322721 0.2671876186 0)
(2.883880383 0.2673286824 0)
(2.883521949 0.2666621433 0)
(2.883412008 0.2661313999 0)
(2.883283559 0.2649985261 0)
(2.883616376 0.26481852 0)
(2.88420242 0.265713504 0)
(2.8845504 0.2663466573 0)
(2.884931144 0.2659536291 0)
(2.88554887 0.2653476609 0)
(2.885937747 0.2657092345 0)
(2.885481427 0.2659398344 0)
(2.885263717 0.265082396 0)
(2.885276751 0.2645340142 0)
(2.885468062 0.2643199529 0)
(2.885688517 0.2641678461 0)
(2.885825241 0.2639930946 0)
(2.885788319 0.2637236345 0)
(2.885623341 0.2632706577 0)
(2.885478867 0.2630523392 0)
(2.885378299 0.263087005 0)
(2.885315059 0.2631603209 0)
(2.885343923 0.2632535628 0)
(2.885541347 0.2634426557 0)
(2.885715092 0.2636554579 0)
(2.885739999 0.2638083288 0)
(2.88561794 0.2640825534 0)
(2.885410333 0.2641906475 0)
(2.88532232 0.2641572641 0)
(2.885250185 0.2641545663 0)
(3 -1.213872401e-14 0)
(3 5.027613428e-14 0)
(3 -5.947169436e-13 0)
(3 1.872632346e-12 0)
(3 2.296804833e-11 0)
(3 1.941604996e-10 0)
(2.999999999 1.81166088e-09 0)
(2.999999993 1.121570521e-08 0)
(2.99999996 6.321851858e-08 0)
(2.999999797 3.330087371e-07 0)
(2.999999142 1.395744117e-06 0)
(2.999996557 5.837167526e-06 0)
(2.999987957 2.079354524e-05 0)
(2.999962692 6.592479716e-05 0)
(2.999888738 0.0001991442872 0)
(2.999711513 0.0005197801148 0)
(2.999310247 0.001326356489 0)
(2.998491982 0.002886126107 0)
(2.996929123 0.006140849825 0)
(2.994502613 0.01140117397 0)
(2.990659661 0.01871177072 0)
(2.983848 0.03438757176 0)
(2.977456098 0.04867218549 0)
(2.968233303 0.06915146614 0)
(2.957229153 0.09915825807 0)
(2.950818361 0.1142825985 0)
(2.935304145 0.1487899652 0)
(2.928434826 0.1700490737 0)
(2.926933382 0.1779197466 0)
(2.911574657 0.2132752815 0)
(2.907595204 0.2261414608 0)
(2.911109381 0.2177332542 0)
(2.90401548 0.2311500647 0)
(2.90005506 0.2427687254 0)
(2.90144621 0.2460165612 0)
(2.896837726 0.2518432223 0)
(2.89277414 0.2552809835 0)
(2.891475646 0.2569015783 0)
(2.890327257 0.2591959447 0)
(2.888673499 0.2630425605 0)
(2.88726497 0.2656398524 0)
(2.885443815 0.2661850791 0)
(2.885028281 0.2688579111 0)
(2.884339323 0.2707494972 0)
(2.884171209 0.2706972116 0)
(2.883634054 0.2696022247 0)
(2.883770742 0.2683434783 0)
(2.884315957 0.2678882012 0)
(2.884478045 0.2669255859 0)
(2.884282665 0.2656633811 0)
(2.884031048 0.2641627346 0)
(2.884525174 0.2634105109 0)
(2.884998936 0.2625506393 0)
(2.885166898 0.2625227744 0)
(2.885398185 0.2626294553 0)
(2.88549527 0.2624352821 0)
(2.885480358 0.2624711926 0)
(2.885571574 0.2629398161 0)
(2.885708282 0.2634600729 0)
(2.885791685 0.263639677 0)
(2.885976803 0.2636025305 0)
(2.886115828 0.263670827 0)
(2.886037833 0.2638735289 0)
(2.885783177 0.2640266938 0)
(2.885670239 0.2640005135 0)
(2.885513275 0.2638446907 0)
(2.885488246 0.2636383104 0)
(3 -1.238817322e-14 0)
(3 -1.730355189e-14 0)
(3 -1.798268726e-14 0)
(3 -1.396162984e-14 0)
(3 -8.716201427e-15 0)
(3 -1.179627782e-14 0)
(3 -1.075447517e-13 0)
(3 1.432343673e-12 0)
(3 4.141973051e-12 0)
(3 7.387687257e-11 0)
(3 6.864319119e-10 0)
(2.999999997 4.548149481e-09 0)
(2.999999981 2.973884161e-08 0)
(2.999999905 1.505614528e-07 0)
(2.999999553 7.228096783e-07 0)
(2.99999812 3.155387057e-06 0)
(2.999993408 1.129393863e-05 0)
(2.999977579 3.944737965e-05 0)
(2.99993282 0.0001181548456 0)
(2.999816482 0.0003376048092 0)
(2.99953645 0.0008567805912 0)
(2.998941394 0.001974303164 0)
(2.997752304 0.004499833904 0)
(2.995842811 0.00823126182 0)
(2.992323199 0.01602405652 0)
(2.987843397 0.02612767767 0)
(2.981551565 0.03846917503 0)
(2.970757118 0.06501760353 0)
(2.964236272 0.08148964043 0)
(2.952046602 0.107519051 0)
(2.940281658 0.1377516291 0)
(2.935847234 0.15567293 0)
(2.918319133 0.1971062476 0)
(2.911680121 0.2133426684 0)
(2.916648651 0.2159147131 0)
(2.901078199 0.2438371414 0)
(2.896360787 0.2617483887 0)
(2.896202095 0.2596126368 0)
(2.890996259 0.2672209482 0)
(2.889018061 0.2781109699 0)
(2.886556643 0.2774695629 0)
(2.885897989 0.2750731673 0)
(2.885539814 0.2752359887 0)
(2.884964117 0.2743539815 0)
(2.884796883 0.2722714349 0)
(2.883957086 0.2677948582 0)
(2.883989102 0.265685669 0)
(2.883868645 0.2659784286 0)
(2.883882383 0.2656930155 0)
(2.884089734 0.2651339531 0)
(2.884143219 0.2645726146 0)
(2.884355801 0.2640801827 0)
(2.884779011 0.2643772201 0)
(2.885139803 0.2654903742 0)
(2.885190891 0.2658966752 0)
(2.885495502 0.2656810825 0)
(2.88540352 0.2654174803 0)
(2.885639148 0.2652273283 0)
(2.88571807 0.2651928027 0)
(2.885906553 0.2649533608 0)
(2.886042122 0.2644166927 0)
(2.8859389 0.2640894668 0)
(2.885805777 0.2640294431 0)
(2.88571103 0.2640076401 0)
(2.885490114 0.2637692037 0)
(2.885361562 0.2633004113 0)
(2.885570933 0.2631551693 0)
(3 -5.042653496e-15 0)
(3 -4.455521332e-15 0)
(3 -4.964185455e-15 0)
(3 -3.869580544e-15 0)
(3 -4.663573066e-15 0)
(3 -1.114049783e-14 0)
(3 -1.285499056e-14 0)
(3 -1.251968151e-14 0)
(3 -1.245013103e-14 0)
(3 -2.354373724e-14 0)
(3 6.086664202e-14 0)
(3 6.08191763e-14 0)
(3 7.791269168e-13 0)
(3 2.754863422e-11 0)
(3 2.436134028e-10 0)
(2.999999999 2.043155506e-09 0)
(2.999999992 1.29151344e-08 0)
(2.999999955 7.016682411e-08 0)
(2.999999773 3.709647139e-07 0)
(2.99999905 1.551882223e-06 0)
(2.999996229 6.361730938e-06 0)
(2.999986468 2.325903438e-05 0)
(2.999959193 7.200921288e-05 0)
(2.999879954 0.0002215214211 0)
(2.999695514 0.0005592212457 0)
(2.999287911 0.00136801743 0)
(2.998394443 0.003094520668 0)
(2.99685014 0.006138128781 0)
(2.994262259 0.01194242971 0)
(2.990095955 0.02036590361 0)
(2.984124063 0.0336918259 0)
(2.977330836 0.04953723497 0)
(2.967779408 0.07065969866 0)
(2.957945898 0.09562149469 0)
(2.950017713 0.1160038993 0)
(2.935242534 0.1516188711 0)
(2.928678939 0.1719175005 0)
(2.93014295 0.1717701273 0)
(2.914091967 0.2020301964 0)
(2.908490424 0.2302592262 0)
(2.908455301 0.2238155604 0)
(2.908356636 0.2256041199 0)
(2.900581892 0.2411176926 0)
(2.899713559 0.2452541033 0)
(2.897878423 0.2495569946 0)