/*--------------------------------*- C++ -*----------------------------------*\
  =========                 |
  \\      /  F ield         | OpenFOAM: The Open Source CFD Toolbox
   \\    /   O peration     | Website:  https://openfoam.org
    \\  /    A nd           | Version:  7
     \\/     M anipulation  |
\*---------------------------------------------------------------------------*/
FoamFile
{
    version     2.0;
    format      ascii;
    class       volScalarField;
    location    "1.4";
    object      p;
}
// * * * * * * * * * * * * * * * * * * * * * * * * * * * * * * * * * * * * * //

dimensions      [1 -1 -2 0 0 0 0];

internalField   nonuniform List<scalar> 
22
(
1.017764604
1.047122432
1.020512794
1.019300279
1.018971723
1.046275421
1.020393418
1.016404791
1.016369826
1.037688305
1.017651055
1.01061308
1.012578341
1.019016234
1.014220921
1.016461513
1.0176762
1.014645884
1.015431505
1.019697565
1.016982391
1.015559854
)
;

boundaryField
{
    inlet
    {
        type            fixedValue;
        value           nonuniform 0();
    }
    outlet
    {
        type            zeroGradient;
    }
    bottom
    {
        type            slip;
    }
    top
    {
        type            slip;
    }
    obstacle
    {
        type            zeroGradient;
    }
    defaultFaces
    {
        type            empty;
    }
    procBoundary22to16
    {
        type            processor;
        value           nonuniform List<scalar> 5(1.014132667 1.05052119 1.020277235 1.019418447 1.019418447);
    }
    procBoundary22to17
    {
        type            processor;
        value           uniform 0.9760075701;
    }
    procBoundary22to21
    {
        type            processor;
        value           nonuniform List<scalar> 7(1.014049808 0.9605676117 0.9259484055 1.025060004 1.025060004 1.000838212 0.968550041);
    }
    procBoundary22to23
    {
        type            processor;
        value           nonuniform List<scalar> 5(0.9760658709 0.9757728492 0.97589429 0.9798307093 0.9806461042);
    }
    procBoundary22to28
    {
        type            processor;
        value           nonuniform List<scalar> 3(1.012034644 1.022161801 1.021498256);
    }
    procBoundary22to29
    {
        type            processor;
        value           uniform 0.9819150078;
    }
}


// ************************************************************************* //
