/*--------------------------------*- C++ -*----------------------------------*\
  =========                 |
  \\      /  F ield         | OpenFOAM: The Open Source CFD Toolbox
   \\    /   O peration     | Website:  https://openfoam.org
    \\  /    A nd           | Version:  7
     \\/     M anipulation  |
\*---------------------------------------------------------------------------*/
FoamFile
{
    version     2.0;
    format      ascii;
    class       volScalarField;
    location    "2.7";
    object      rho;
}
// * * * * * * * * * * * * * * * * * * * * * * * * * * * * * * * * * * * * * //

dimensions      [1 -3 0 0 0 0 0];

internalField   nonuniform List<scalar> 
555
(
1.388976537
1.38928792
1.389756509
1.389291637
1.389073911
1.030598426
1.106305397
1.216946775
1.314320129
1.369408338
1.371004299
1.37853541
1.379523051
1.381454055
1.384509876
1.386695915
1.387678518
1.388980322
1.390199067
1.390480318
1.390378004
1.167630995
1.283654156
1.318851578
1.350923313
1.384651223
1.383343064
1.384124913
1.385448275
1.387874706
1.388399836
1.388530454
1.388042558
1.387774811
1.388380312
1.388871528
1.389395121
1.290288121
1.367316067
1.376559149
1.376495744
1.381057695
1.381597903
1.383314053
1.385867396
1.387237389
1.387562167
1.388390011
1.388685437
1.388108873
1.387823561
1.387874773
1.388372234
1.368290437
1.382149077
1.388945754
1.388434619
1.38633915
1.384212008
1.38268999
1.383042356
1.383922186
1.385406306
1.387435931
1.389047311
1.389041584
1.388542017
1.388205668
1.388491295
1.378934501
1.380747306
1.384798629
1.38765217
1.386893225
1.385865945
1.383981619
1.383117506
1.383371663
1.384722544
1.386868239
1.388605587
1.389026521
1.389164909
1.389083769
1.388994145
1.377713304
1.37686143
1.378800374
1.382699653
1.385241218
1.385733364
1.385494122
1.385081052
1.385182771
1.386064255
1.387379071
1.388333158
1.388705104
1.388751318
1.388580778
1.388522142
1.382608583
1.380569629
1.381145469
1.383332941
1.384283113
1.384792298
1.385577179
1.386168849
1.386954916
1.387999683
1.388425221
1.388535079
1.388433935
1.38806308
1.387543318
1.387546527
1.38590125
1.385759197
1.385899387
1.386121953
1.385562863
1.385141106
1.385338073
1.386058581
1.387057002
1.388359298
1.388616914
1.388534095
1.388242043
1.387682971
1.386921672
1.386735652
1.385492992
1.386410172
1.386869479
1.38675661
1.386046384
1.384871106
1.384678413
1.385333456
1.386508555
1.387928869
1.388530924
1.388494868
1.388221029
1.387568849
1.386669509
1.386140678
1.383067075
1.384679261
1.385590524
1.38573375
1.3852043
1.384037524
1.383824116
1.384473445
1.385757624
1.387140993
1.387716114
1.387729883
1.387529588
1.387040899
1.386344417
1.385694165
1.381298471
1.381753462
1.382520451
1.382900518
1.382962213
1.38262472
1.38275993
1.383597707
1.385111468
1.38608222
1.386424278
1.386383563
1.386067636
1.385669199
1.385283531
1.384754611
1.380919438
1.380748376
1.380866339
1.381100432
1.381303824
1.38140912
1.38152776
1.381894165
1.383035996
1.383792423
1.38385057
1.383639113
1.383236309
1.382904345
1.383023441
1.382977607
1.38061565
1.380004
1.379792688
1.379851985
1.380099869
1.380318071
1.380446085
1.380710428
1.381537252
1.381988557
1.381892229
1.38154188
1.381204559
1.380937223
1.38108772
1.38104336
1.380067547
1.379297957
1.378897631
1.378704052
1.378608597
1.378591928
1.378750209
1.379386003
1.380202455
1.380485361
1.380421964
1.380176418
1.379827311
1.379634788
1.379940706
1.380166122
1.378767554
1.378192487
1.378055267
1.378079585
1.37803475
1.3779233
1.378009836
1.378422223
1.379055483
1.379521844
1.37965564
1.379545814
1.379260697
1.379057274
1.378450516
1.378012511
1.37696985
1.375642337
1.37473021
1.374125169
1.373763585
1.374092876
1.375366175
1.3761469
1.37630069
1.376633905
1.377851508
1.379723794
1.380855519
1.381555759
1.381013188
1.380505623
1.37837355
1.376858842
1.375097238
1.373076564
1.371254363
1.370721342
1.37153931
1.372263082
1.372233354
1.372075608
1.372802249
1.375669549
1.380365533
1.383883382
1.384598015
1.384345746
1.380013953
1.378215793
1.375745893
1.373305485
1.371603168
1.371386196
1.371729712
1.372195155
1.371884133
1.371325526
1.371539571
1.373274045
1.3768369
1.382406684
1.385888694
1.386664346
1.380966292
1.380073531
1.379297746
1.377898708
1.37543875
1.373875253
1.373699398
1.373566337
1.373189656
1.37297683
1.373164389
1.37432418
1.37587962
1.379318052
1.382424708
1.385257726
1.382197572
1.382616218
1.382134594
1.381212753
1.380362803
1.379018124
1.377706757
1.376657351
1.375889431
1.375593609
1.375865826
1.376290916
1.377121399
1.378423649
1.379422924
1.382003696
1.381879558
1.383054037
1.383906481
1.384425683
1.384844559
1.384020827
1.38306236
1.382740491
1.382124771
1.381152364
1.379521605
1.378349663
1.378590887
1.378420791
1.37892085
1.380022509
1.380986173
1.381811692
1.384530966
1.386589198
1.386603411
1.385877377
1.385260139
1.385933644
1.38701044
1.386830569
1.385631817
1.382885399
1.379179728
1.377693656
1.378320214
1.37896621
1.380970766
1.381349815
1.382810597
1.384894235
1.38657237
1.386335126
1.386659634
1.387725362
1.388832562
1.388715077
1.388158232
1.387404826
1.385078039
1.381071468
1.379304879
1.379824057
1.381801335
1.381928217
1.382271379
1.382987364
1.383921408
1.384809311
1.38594028
1.387914994
1.389695513
1.390144383
1.389799008
1.388979701
1.38836888
1.386486012
1.38464481
1.38245033
1.382404309
1.381974004
1.381552612
1.381418593
1.381903756
1.383295432
1.384855858
1.386952157
1.388693816
1.389884927
1.390389301
1.390764086
1.390913626
1.390502106
1.390493241
1.388890942
1.385687995
1.383236115
1.382308812
1.382167663
1.382512646
1.383533867
1.385162901
1.386991393
1.38811822
1.389067419
1.38994982
1.390951623
1.39257747
1.393589999
1.394345097
1.394392168
1.391268619
1.38913378
1.386672525
1.384474296
1.384033594
1.38492873
1.386661064
1.388092364
1.388562603
1.38908194
1.390061931
1.391244137
1.39221242
1.395658924
1.397553785
1.397923813
1.395116806
1.394566691
1.393605854
1.39164007
1.389177144
1.388598775
1.389417059
1.389994307
1.390037209
1.390435796
1.391149045
1.392089975
1.392805428
1.39519235
1.397876694
1.399929316
1.398408145
1.398126274
1.398229981
1.398363358
1.398142129
1.397155434
1.394759306
1.392676972
1.392045575
1.392301438
1.392744522
1.393278695
1.393926221
1.394068835
1.39591386
1.397766844
1.399888432
1.399493708
1.400538076
1.401552036
1.402475015
1.402667912
1.402394919
1.401617893
1.399106621
1.396453876
1.395523794
1.395537243
1.395963979
1.396390238
1.396321139
1.396909893
1.39805806
1.399508781
1.401337013
1.401553439
1.402518444
1.404162575
1.405406797
1.405522396
1.404711071
1.404423991
1.403236616
1.402099119
1.400642161
1.399454059
1.399157455
1.398967294
1.398572459
1.398935342
1.399690925
1.403322552
1.403641636
1.404484221
1.405262786
1.406206148
1.406861314
1.407025248
1.40699382
1.407907634
1.408382968
1.407917909
1.406360547
1.404737947
1.403271498
1.400590269
1.399678339
1.399939236
1.40539759
1.405598891
1.405931398
1.405947392
1.40634116
1.406820906
1.407487124
1.408692519
1.410647056
1.412012145
1.412404692
1.412390775
1.412050836
1.410438823
1.405957338
1.402124992
1.400882244
1.407925681
1.407414118
1.407286457
1.406964264
1.406772319
1.406990406
1.407706807
1.409176819
1.411880774
1.413424937
1.41405307
1.414822029
1.415131402
1.414470457
1.411542213
1.408302922
1.404197127
)
;

boundaryField
{
    inlet
    {
        type            calculated;
        value           nonuniform 0();
    }
    outlet
    {
        type            calculated;
        value           nonuniform List<scalar> 
35
(
1.380605342
1.384405728
1.386747181
1.385042043
1.381691949
1.379885354
1.378924985
1.379766928
1.382635635
1.38929224
1.394483181
1.397980962
1.39984082
1.399662658
1.39933647
1.399596685
1.399882053
1.400850804
1.404550582
1.389062059
1.390379105
1.3894014
1.38837202
1.388488808
1.388993279
1.388521715
1.387548177
1.386736443
1.386142011
1.385694542
1.384753572
1.382972783
1.381042709
1.380163502
1.378026565
)
;
    }
    bottom
    {
        type            calculated;
        value           nonuniform 0();
    }
    top
    {
        type            calculated;
        value           nonuniform 0();
    }
    obstacle
    {
        type            calculated;
        value           nonuniform 0();
    }
    defaultFaces
    {
        type            empty;
    }
    procBoundary11to5
    {
        type            processor;
        value           nonuniform List<scalar> 
17
(
1.388874427
1.388169383
1.385426128
1.383591656
1.386589787
0.9915732292
1.004102812
1.063001441
1.152544737
1.258760625
1.311173479
1.358352753
1.364529206
1.372893173
1.38293286
1.386571223
1.386571223
)
;
    }
    procBoundary11to10
    {
        type            processor;
        value           nonuniform List<scalar> 
34
(
0.9919195072
1.055251057
1.213755729
1.356433603
1.379732419
1.377224719
1.383420572
1.385090749
1.384079846
1.382092439
1.381659288
1.381622836
1.381014909
1.380402125
1.379268603
1.378371085
1.379392054
1.380528477
1.381562946
1.382182974
1.381429369
1.380924681
1.381271086
1.382347878
1.383678628
1.38824342
1.392672315
1.395487188
1.395487188
1.398390886
1.39939434
1.401463321
1.403389434
1.405456327
)
;
    }
    procBoundary11to16
    {
        type            processor;
        value           uniform 1.408799241;
    }
    procBoundary11to17
    {
        type            processor;
        value           nonuniform List<scalar> 
17
(
1.412781586
1.411533866
1.409870436
1.408217718
1.407574929
1.407566455
1.408175829
1.409946786
1.412118196
1.413324854
1.414967487
1.415597155
1.415373279
1.415364615
1.414487268
1.414012252
1.411583525
)
;
    }
}


// ************************************************************************* //
