/*--------------------------------*- C++ -*----------------------------------*\
  =========                 |
  \\      /  F ield         | OpenFOAM: The Open Source CFD Toolbox
   \\    /   O peration     | Website:  https://openfoam.org
    \\  /    A nd           | Version:  7
     \\/     M anipulation  |
\*---------------------------------------------------------------------------*/
FoamFile
{
    version     2.0;
    format      ascii;
    class       volScalarField;
    location    "2.7";
    object      T;
}
// * * * * * * * * * * * * * * * * * * * * * * * * * * * * * * * * * * * * * //

dimensions      [0 0 0 1 0 0 0];

internalField   nonuniform List<scalar> 
555
(
1.006248728
1.006146957
1.006202465
1.00611444
1.006157445
0.8888573703
0.9157389734
0.952824102
0.9839561557
1.000933003
1.001054811
1.002908665
1.003231577
1.004159116
1.005408168
1.006176625
1.006291144
1.006520264
1.006753436
1.006794659
1.006806454
0.9373593842
0.9746260858
0.9853727628
0.9951225307
1.005533925
1.005108802
1.005237846
1.005514089
1.006249367
1.006795889
1.006998
1.006812733
1.006553991
1.006586469
1.006626973
1.006749731
0.976566313
1.000544023
1.003695544
1.003733269
1.005094744
1.005168091
1.005499696
1.00604319
1.006391412
1.006672179
1.007148079
1.007245332
1.006985124
1.00671938
1.006643793
1.006742137
1.001389677
1.005264519
1.007525369
1.007480771
1.006987144
1.006386748
1.00574131
1.005531482
1.00575501
1.006231949
1.007011585
1.007499391
1.007461727
1.007229315
1.007017725
1.007043943
1.00459563
1.005124256
1.006417875
1.00747178
1.007332016
1.007075086
1.00644468
1.005863634
1.005863874
1.006203738
1.006924369
1.007544463
1.007588745
1.007580582
1.007475499
1.007375711
1.004619447
1.004283539
1.004880848
1.006177351
1.007065742
1.007199273
1.007058982
1.006749399
1.006649416
1.006808915
1.00721923
1.00759565
1.007684723
1.007667694
1.007517767
1.007436142
1.00630925
1.00556031
1.005751261
1.00650026
1.006954463
1.007088218
1.007256932
1.007305518
1.007386341
1.007574389
1.007769673
1.007848178
1.00783884
1.007724525
1.007493121
1.007439577
1.00751318
1.007460997
1.007568938
1.007734401
1.00768742
1.007532594
1.007537
1.007636087
1.007758724
1.007947099
1.008115446
1.008153073
1.008107526
1.007955331
1.007694956
1.007612698
1.008034257
1.008251993
1.008473683
1.008521964
1.008443935
1.008187166
1.008034963
1.008125673
1.008253708
1.008418625
1.008595622
1.008675165
1.008642681
1.008512818
1.008269715
1.008151575
1.008241821
1.008677307
1.008971937
1.009221189
1.009191284
1.009017719
1.008926307
1.009017797
1.009154056
1.009277322
1.009351104
1.009372157
1.009355074
1.009312302
1.009189865
1.009134371
1.009158349
1.009319354
1.009619786
1.009922691
1.010163253
1.010159675
1.01019533
1.010322775
1.010492841
1.010486285
1.010461744
1.010377805
1.010295351
1.010307415
1.010322043
1.010383014
1.011000709
1.011021987
1.011159036
1.011385612
1.011587623
1.011669931
1.011658461
1.011660779
1.011736115
1.011701385
1.011594621
1.011384981
1.011276949
1.011300904
1.011441239
1.011677885
1.012849977
1.012755576
1.012751139
1.012812782
1.012919076
1.013006378
1.01303793
1.013092909
1.01317856
1.013139831
1.012982401
1.012751231
1.012659846
1.012636358
1.012724346
1.012876253
1.01414678
1.013904932
1.013748299
1.01364099
1.013603113
1.013621022
1.013729964
1.013999652
1.014211434
1.014222513
1.014147646
1.014014107
1.013882383
1.013786888
1.013847646
1.013847057
1.014518413
1.014253113
1.014129299
1.014086466
1.014065557
1.014063033
1.014147416
1.014381119
1.014686282
1.014881574
1.014922026
1.014871287
1.014715893
1.014528981
1.014255738
1.013896757
1.014178639
1.013651387
1.01327609
1.013063724
1.012968022
1.013116409
1.013573543
1.01391754
1.014142549
1.014351344
1.01477048
1.015324148
1.015546179
1.015598181
1.015307608
1.014908204
1.014320462
1.013705526
1.013092375
1.012463757
1.0119877
1.011879062
1.012242574
1.012609659
1.012792763
1.012877824
1.013164968
1.014018029
1.015245313
1.016037673
1.016042579
1.015772806
1.014274008
1.01359414
1.012844975
1.012124912
1.011662867
1.011666958
1.011865928
1.012138068
1.012255759
1.012278988
1.012435275
1.012966927
1.013931176
1.015297215
1.016016528
1.015935815
1.013679581
1.013283313
1.013106829
1.012778428
1.012125835
1.011792596
1.011821998
1.011916476
1.012050253
1.012207384
1.012353947
1.012688971
1.013071362
1.013905037
1.014573224
1.014957533
1.01295878
1.012824203
1.012693834
1.012493104
1.012404031
1.012205874
1.012044019
1.012008129
1.012056421
1.012148409
1.012284445
1.012385511
1.012511306
1.012734917
1.012775285
1.013060363
1.011798159
1.011894557
1.012048682
1.012257458
1.012539338
1.012516319
1.012565186
1.012801631
1.01290547
1.012758903
1.012301745
1.011842633
1.011687729
1.011488986
1.011434722
1.011262424
1.010412538
1.010556401
1.011284572
1.011993562
1.012138881
1.012113075
1.012206821
1.012697256
1.013198104
1.013250628
1.012936706
1.012101201
1.010907418
1.010115623
1.009960679
1.009586444
1.009131399
1.00918493
1.009644193
1.010367281
1.011020147
1.011183823
1.011454024
1.011942374
1.012404578
1.012523201
1.01246851
1.012285292
1.011569021
1.01006437
1.009050841
1.008481561
1.007896953
1.007898335
1.008010575
1.008297235
1.00874366
1.009249606
1.009753738
1.010510546
1.011254002
1.011516618
1.011504764
1.011229043
1.010905195
1.010186576
1.009264579
1.007881972
1.006528335
1.006340643
1.00623553
1.006243779
1.006480068
1.007064835
1.007815231
1.00871949
1.009434908
1.009840842
1.010006946
1.010056219
1.009917496
1.009579892
1.009225715
1.008060547
1.005956934
1.005163413
1.004823767
1.004810268
1.005015338
1.005502883
1.006256477
1.00696968
1.007371654
1.007724252
1.008037672
1.008294608
1.008593394
1.008528537
1.00837903
1.007713015
1.005764404
1.00509311
1.004329002
1.003752224
1.003706861
1.004121357
1.004699924
1.005126781
1.005268996
1.005498796
1.005838642
1.006161314
1.006365942
1.007038569
1.007172843
1.0066824
1.004651773
1.004459117
1.004162609
1.003564463
1.002883992
1.002737778
1.002926198
1.003074476
1.003128411
1.003300196
1.003529753
1.003772518
1.003909216
1.004518125
1.00497127
1.00498996
1.003002895
1.002852494
1.002840895
1.002794868
1.002636221
1.002300095
1.00155929
1.000895436
1.000689469
1.000804855
1.000987641
1.001162973
1.001361235
1.0013809
1.001859497
1.002264976
1.002523173
1.000300295
1.000462381
1.000672956
1.000874773
1.000904638
1.00074409
1.000417296
0.9995979504
0.9987986444
0.9985078045
0.9985188868
0.9986969388
0.9989196899
0.9989468244
0.9990968583
0.9993841188
0.9996886326
0.9974604081
0.9974290863
0.9976291581
0.9980876403
0.9984480882
0.9984644523
0.9981421713
0.9979468225
0.9975313801
0.9971692063
0.9967548127
0.996442501
0.9964655707
0.9964851556
0.9964472189
0.9966415812
0.9969716258
0.994638187
0.994671873
0.994891147
0.9951765555
0.9955153689
0.9957041652
0.9957035218
0.9956067194
0.9957975472
0.9959423004
0.9958547766
0.9954564892
0.9951069678
0.9948098721
0.9941661071
0.9940838725
0.9945311589
0.9920597884
0.9921621341
0.9923484007
0.9924862685
0.992727753
0.9929165993
0.993092614
0.993392646
0.9939534709
0.9944017637
0.9945995795
0.9946978989
0.9947321307
0.9945286446
0.9936044221
0.9927827078
0.9926413247
0.9901607342
0.9900976103
0.9901861206
0.9903038322
0.9904580096
0.9906696664
0.9909634947
0.9914346892
0.9922955963
0.9928678546
0.993162632
0.9935683929
0.9938582204
0.9939178307
0.9935298036
0.9929800949
0.9919995803
)
;

boundaryField
{
    inlet
    {
        type            fixedValue;
        value           nonuniform 0();
    }
    outlet
    {
        type            inletOutlet;
        inletValue      uniform 1;
        value           nonuniform List<scalar> 
35
(
1.014834899
1.015728796
1.015875129
1.015115585
1.013288936
1.011362939
1.009616627
1.008523316
1.007746893
1.007769368
1.007647246
1.006641246
1.005053494
1.002684886
0.9998117318
0.9970387555
0.9945717839
0.992663603
0.9917499436
1.00616603
1.006805657
1.006745181
1.006742292
1.007045747
1.007376339
1.007436452
1.007438379
1.007612123
1.008150605
1.009134097
1.010383772
1.011681414
1.012876731
1.013848982
1.013886417
)
;
    }
    bottom
    {
        type            slip;
    }
    top
    {
        type            slip;
    }
    obstacle
    {
        type            zeroGradient;
    }
    defaultFaces
    {
        type            empty;
    }
    procBoundary11to5
    {
        type            processor;
        value           nonuniform List<scalar> 
17
(
1.005577257
1.00528833
1.004483336
1.00409461
1.005011301
0.8742303256
0.8789018412
0.9005930076
0.9316817342
0.9657607326
0.9817831762
0.9957970096
0.9981664567
1.001188632
1.004531678
1.005603955
1.005603955
)
;
    }
    procBoundary11to10
    {
        type            processor;
        value           nonuniform List<scalar> 
34
(
0.8745332089
0.8981194808
0.9523112388
0.9981068187
1.004883893
1.004629487
1.006720475
1.007515651
1.007682727
1.007980501
1.009252698
1.011056924
1.012891
1.014256814
1.01481068
1.014740939
1.014877755
1.014760781
1.014239881
1.013353303
1.011981548
1.010562582
1.009287459
1.00809597
1.006982744
1.006757332
1.006202644
1.004785282
1.004785282
1.003066569
1.000383625
0.9976252611
0.9947402479
0.9920710795
)
;
    }
    procBoundary11to16
    {
        type            processor;
        value           uniform 0.9903370199;
    }
    procBoundary11to17
    {
        type            processor;
        value           nonuniform List<scalar> 
17
(
0.9895674034
0.9893636213
0.9890744368
0.9888083336
0.9888212276
0.9890502625
0.9894520736
0.9901247827
0.9909371621
0.9914780404
0.9920962997
0.9925439745
0.9927335061
0.9929249316
0.9928662477
0.9929785327
0.9927402179
)
;
    }
}


// ************************************************************************* //
