/*--------------------------------*- C++ -*----------------------------------*\
  =========                 |
  \\      /  F ield         | OpenFOAM: The Open Source CFD Toolbox
   \\    /   O peration     | Website:  https://openfoam.org
    \\  /    A nd           | Version:  7
     \\/     M anipulation  |
\*---------------------------------------------------------------------------*/
FoamFile
{
    version     2.0;
    format      ascii;
    class       volScalarField;
    location    "4.3";
    object      rho;
}
// * * * * * * * * * * * * * * * * * * * * * * * * * * * * * * * * * * * * * //

dimensions      [1 -3 0 0 0 0 0];

internalField   nonuniform List<scalar> 
555
(
1.411315201
1.4112082
1.402431829
1.407426154
1.409460568
1.410744372
1.411217392
1.41051103
1.41053208
1.411306185
1.411417978
1.41134533
1.411623115
1.411819345
1.412081733
1.412247912
1.41197658
1.411830016
1.411453271
1.403951517
1.408412042
1.410238538
1.41127882
1.412124876
1.412036494
1.412809956
1.413818977
1.414676675
1.415458074
1.414974577
1.413886543
1.41376293
1.413914864
1.413750519
1.413097921
1.412347834
1.405197029
1.409090516
1.410483562
1.411651092
1.412253287
1.412655404
1.413687211
1.414826413
1.41607754
1.41774008
1.417450926
1.416049818
1.415016099
1.414709098
1.415166313
1.415740694
1.415812868
1.408436753
1.411839127
1.411990975
1.412395268
1.412758604
1.413056362
1.414029475
1.415320533
1.416644761
1.418419035
1.418237332
1.417191276
1.41577014
1.41525051
1.416271274
1.41809011
1.419538062
1.411305515
1.415353928
1.414780784
1.414602384
1.414526457
1.413543322
1.41401566
1.415347947
1.416370408
1.417654335
1.417691378
1.417131853
1.416211983
1.415791117
1.417328898
1.419650853
1.421643213
1.411044533
1.411642558
1.416206226
1.416177054
1.415823727
1.415257598
1.41378891
1.413635391
1.414742269
1.415243995
1.415941018
1.416385603
1.416704954
1.416745637
1.416887578
1.418661302
1.420542804
1.421089598
1.409142432
1.410124587
1.414822352
1.415076624
1.414563969
1.413822439
1.412646138
1.41273579
1.413786917
1.414199125
1.41466286
1.415377552
1.416318635
1.417162684
1.417784381
1.418968105
1.419693022
1.419249714
1.40734423
1.407849002
1.412212949
1.412514183
1.411841415
1.410963409
1.410602714
1.411443357
1.412850978
1.414017364
1.41500138
1.415852405
1.416463354
1.417378807
1.417914012
1.418020513
1.417439341
1.416278685
1.406540675
1.406393219
1.409733026
1.409916824
1.409313261
1.408666515
1.409083958
1.41028525
1.412247662
1.414251398
1.415659838
1.416093399
1.41623492
1.416615159
1.41667724
1.41610004
1.414688788
1.412287729
1.405020882
1.405003033
1.408624341
1.409494441
1.40918407
1.408749929
1.408215591
1.409057841
1.410942633
1.413178972
1.413989852
1.413685235
1.413634222
1.413839454
1.413911721
1.413484154
1.412127775
1.401595541
1.402275662
1.406276654
1.407344864
1.40671965
1.405588987
1.404539804
1.405610256
1.407613973
1.409988587
1.410121644
1.409193916
1.40903055
1.409442342
1.410244457
1.410670379
1.410145373
1.396092662
1.397382178
1.401174252
1.401796327
1.40081482
1.399396814
1.398269402
1.399739361
1.402106633
1.404390995
1.404466609
1.403335029
1.403124069
1.403856255
1.405603234
1.40700662
1.407470664
1.389539637
1.388626307
1.390150799
1.393600183
1.393878562
1.392669108
1.391328296
1.390499487
1.392246659
1.39484218
1.396926502
1.396895502
1.395977408
1.395956489
1.397141191
1.399504206
1.401577971
1.402914045
1.381308041
1.3798901
1.381228242
1.384291145
1.384503903
1.383185993
1.381964885
1.381535394
1.38344907
1.386308028
1.388471547
1.388359771
1.387731838
1.387913225
1.389334286
1.391831523
1.394251214
1.396128501
1.372534471
1.370534384
1.371776663
1.374385664
1.374512189
1.373087584
1.37211795
1.372085332
1.373987113
1.376923006
1.379317112
1.37954737
1.379225773
1.379567086
1.380925462
1.382859391
1.385908586
1.387964673
1.363374138
1.361155369
1.362466308
1.364808381
1.365051838
1.363581653
1.362667971
1.362960422
1.364767659
1.367607571
1.370116597
1.37066407
1.370567405
1.370944627
1.371820129
1.373547878
1.374115581
1.375436018
1.354744317
1.352368809
1.353856422
1.356208682
1.356799313
1.355493556
1.354054372
1.354387347
1.356312985
1.359247447
1.361516693
1.362003622
1.361806965
1.361917257
1.362285471
1.363240038
1.36342119
1.363673356
1.346103784
1.343747618
1.345427688
1.348054282
1.348413007
1.347151478
1.34558249
1.345793207
1.348247158
1.351332189
1.353225337
1.353076707
1.35247132
1.352518619
1.352894315
1.352863469
1.352643109
1.352281668
1.336877546
1.334515744
1.33644678
1.339099512
1.339379727
1.337944902
1.336213132
1.336274695
1.339117755
1.342274269
1.34379094
1.343260426
1.342498353
1.342818198
1.343404229
1.343122641
1.342524612
1.34108177
1.32887648
1.327773924
1.325399939
1.327278352
1.32974824
1.330035703
1.328429907
1.326487246
1.326531858
1.329367255
1.332504542
1.333757141
1.333052675
1.332358955
1.332761603
1.33357886
1.333602266
1.333053222
1.331881292
1.320708894
1.319075576
1.316523141
1.317812963
1.31991066
1.319939912
1.317623312
1.315639994
1.316063614
1.319114741
1.322219333
1.322706805
1.321923378
1.321742421
1.322546518
1.323418837
1.323988713
1.323789912
1.323180781
1.312280819
1.309551128
1.306091741
1.307514517
1.309720533
1.309220063
1.306587113
1.304919683
1.305531719
1.308437993
1.311226512
1.311399219
1.310789487
1.310752809
1.311884464
1.313150405
1.314037631
1.314327579
1.314072576
1.302858074
1.299608631
1.296289897
1.298215236
1.300163781
1.2992949
1.296430367
1.294782046
1.295506778
1.298313003
1.300601142
1.30044314
1.300070303
1.300235982
1.30111052
1.303045852
1.304338357
1.304947633
1.293838941
1.290137771
1.286827773
1.289142071
1.291097436
1.289974971
1.286822049
1.285125384
1.286203484
1.289127022
1.291069446
1.290562953
1.290125523
1.290357485
1.291101323
1.292820518
1.294827442
1.295714737
1.285034622
1.280902394
1.277549714
1.280189773
1.282133601
1.280733363
1.277308018
1.275976987
1.277587744
1.280667194
1.282392862
1.281647757
1.281109949
1.28141562
1.282239946
1.283658587
1.284972416
1.285714927
1.276014046
1.276434608
1.271524004
1.268475796
1.271505739
1.273053202
1.271549866
1.268366079
1.267728981
1.269860403
1.273068864
1.274534461
1.273787489
1.273411316
1.273637247
1.274730133
1.275977732
1.276352371
1.276302819
1.269064591
1.26799308
1.262601023
1.260733286
1.263803867
1.26496647
1.263578132
1.260874434
1.260771087
1.263437987
1.266757648
1.268203636
1.267717062
1.267483627
1.267507995
1.268650937
1.269728756
1.269741206
1.269122459
1.262438691
1.260223495
1.25556161
1.25487518
1.257710918
1.258869056
1.257084577
1.254979108
1.255529291
1.258516288
1.261970726
1.26352948
1.263434899
1.263242183
1.263251997
1.264061653
1.264890475
1.264754976
1.264434099
1.258078433
1.254181
1.250366171
1.251110231
1.254088905
1.254661212
1.252550424
1.251123222
1.251907865
1.255043896
1.258547958
1.26013256
1.260489222
1.260262081
1.26067749
1.261641531
1.262442382
1.26235635
1.262138119
1.255642207
1.251690246
1.247486139
1.248784351
1.252432999
1.252984268
1.250516869
1.248924022
1.249476911
1.252887143
1.256572325
1.258209253
1.258480304
1.258560002
1.259579001
1.260829913
1.261545286
1.26151857
1.26129131
1.253599166
1.250159023
1.246417387
1.24815145
1.252464134
1.252906502
1.249478011
1.247984695
1.248876321
1.253457179
1.257191529
1.258324688
1.25800813
)
;

boundaryField
{
    inlet
    {
        type            calculated;
        value           nonuniform 0();
    }
    outlet
    {
        type            calculated;
        value           nonuniform 0();
    }
    bottom
    {
        type            calculated;
        value           nonuniform 0();
    }
    top
    {
        type            calculated;
        value           nonuniform 0();
    }
    obstacle
    {
        type            calculated;
        value           nonuniform 0();
    }
    defaultFaces
    {
        type            empty;
    }
    procBoundary16to10
    {
        type            processor;
        value           nonuniform List<scalar> 
18
(
1.409918617
1.410358955
1.400879669
1.406402457
1.407526165
1.408277463
1.408598654
1.40728266
1.406468957
1.406963512
1.407130574
1.407851051
1.409294513
1.409935579
1.410373551
1.410754763
1.411057004
1.411057004
)
;
    }
    procBoundary16to11
    {
        type            processor;
        value           uniform 1.410571278;
    }
    procBoundary16to15
    {
        type            processor;
        value           nonuniform List<scalar> 
35
(
1.40229161
1.404123415
1.407486304
1.410562816
1.411678812
1.411678812
1.41567514
1.412512774
1.411359216
1.411036416
1.408526146
1.403839212
1.397351333
1.397351333
1.38957396
1.382809944
1.375052353
1.366505141
1.356275079
1.345679312
1.336911758
1.336911758
1.323616225
1.318297903
1.311153797
1.303453034
1.294560658
1.284329266
1.284329266
1.269793046
1.263549124
1.25921285
1.255379559
1.252742029
1.249060176
)
;
    }
    procBoundary16to17
    {
        type            processor;
        value           nonuniform List<scalar> 
32
(
1.41103216
1.411840328
1.415630351
1.419989819
1.422272988
1.421662407
1.418813803
1.415371261
1.410948506
1.409634886
1.409634886
1.409044789
1.407170843
1.40332595
1.397040369
1.38940171
1.377370725
1.364202874
1.351585268
1.33932031
1.329253339
1.321154178
1.313420893
1.305284907
1.305284907
1.296222882
1.286568823
1.276698875
1.268984931
1.263689976
1.26068321
1.259705356
)
;
    }
    procBoundary16to22
    {
        type            processor;
        value           nonuniform List<scalar> 
20
(
1.257988935
1.259212584
1.26093383
1.26190308
1.262089595
1.261786735
1.252500569
1.249478055
1.246270129
1.248118382
1.252638183
1.25292363
1.24988729
1.248399926
1.249577432
1.25463339
1.257853637
1.258601905
1.257988935
1.25794331
)
;
    }
}


// ************************************************************************* //
