/*--------------------------------*- C++ -*----------------------------------*\
  =========                 |
  \\      /  F ield         | OpenFOAM: The Open Source CFD Toolbox
   \\    /   O peration     | Website:  https://openfoam.org
    \\  /    A nd           | Version:  7
     \\/     M anipulation  |
\*---------------------------------------------------------------------------*/
FoamFile
{
    version     2.0;
    format      ascii;
    class       volScalarField;
    location    "2";
    object      T;
}
// * * * * * * * * * * * * * * * * * * * * * * * * * * * * * * * * * * * * * //

dimensions      [0 0 0 1 0 0 0];

internalField   nonuniform List<scalar> 10(1.028977781 1.03221869 1.02543162 1.028111453 1.022831483 1.012713957 1.000035359 1.002691241 1.00713271 1.016102294);

boundaryField
{
    inlet
    {
        type            fixedValue;
        value           nonuniform 0();
    }
    outlet
    {
        type            inletOutlet;
        inletValue      uniform 1;
        value           nonuniform List<scalar> 8(1.012714174 1.000035308 1.002691164 1.007132676 1.016102244 1.028968216 1.025430547 1.02283134);
    }
    bottom
    {
        type            slip;
    }
    top
    {
        type            slip;
    }
    obstacle
    {
        type            zeroGradient;
    }
    defaultFaces
    {
        type            empty;
    }
    procBoundary35to28
    {
        type            processor;
        value           nonuniform List<scalar> 4(1.033036589 1.024773151 1.006305101 1.006305101);
    }
    procBoundary35to29
    {
        type            processor;
        value           nonuniform List<scalar> 3(1.0312067 1.03540635 1.03540635);
    }
    procBoundary35to34
    {
        type            processor;
        value           nonuniform List<scalar> 4(0.9936465688 1.00168111 1.01292785 1.020093337);
    }
}


// ************************************************************************* //
