/*--------------------------------*- C++ -*----------------------------------*\
  =========                 |
  \\      /  F ield         | OpenFOAM: The Open Source CFD Toolbox
   \\    /   O peration     | Website:  https://openfoam.org
    \\  /    A nd           | Version:  7
     \\/     M anipulation  |
\*---------------------------------------------------------------------------*/
FoamFile
{
    version     2.0;
    format      ascii;
    class       volScalarField;
    location    "0.6";
    object      p;
}
// * * * * * * * * * * * * * * * * * * * * * * * * * * * * * * * * * * * * * //

dimensions      [1 -1 -2 0 0 0 0];

internalField   nonuniform List<scalar> 
22
(
1.178106579
1.190460647
1.163686948
1.154308209
1.15027896
1.09766936
1.112789944
1.083359325
1.011136266
1.053318783
0.9783214499
0.9409406695
0.9620542588
0.89816704
0.9007548415
0.91290609
0.8939357279
0.902905552
0.8869645777
0.902796948
0.9385283238
0.9192179144
)
;

boundaryField
{
    inlet
    {
        type            fixedValue;
        value           nonuniform 0();
    }
    outlet
    {
        type            zeroGradient;
    }
    bottom
    {
        type            slip;
    }
    top
    {
        type            slip;
    }
    obstacle
    {
        type            zeroGradient;
    }
    defaultFaces
    {
        type            empty;
    }
    procBoundary5to4
    {
        type            processor;
        value           nonuniform List<scalar> 6(1.110387556 1.120541664 1.122651397 1.11382252 1.047915618 0.9445663666);
    }
    procBoundary5to10
    {
        type            processor;
        value           nonuniform List<scalar> 2(0.8792057266 0.8856947945);
    }
    procBoundary5to11
    {
        type            processor;
        value           nonuniform List<scalar> 4(0.9435628383 0.9618551287 0.9435628383 0.9752836228);
    }
}


// ************************************************************************* //
