/*--------------------------------*- C++ -*----------------------------------*\
  =========                 |
  \\      /  F ield         | OpenFOAM: The Open Source CFD Toolbox
   \\    /   O peration     | Website:  https://openfoam.org
    \\  /    A nd           | Version:  7
     \\/     M anipulation  |
\*---------------------------------------------------------------------------*/
FoamFile
{
    version     2.0;
    format      ascii;
    class       volVectorField;
    location    "4";
    object      U;
}
// * * * * * * * * * * * * * * * * * * * * * * * * * * * * * * * * * * * * * //

dimensions      [0 1 -1 0 0 0 0];

internalField   nonuniform List<vector> 
22
(
(2.994028709 0.02163780006 0)
(2.99026588 0.008537044263 0)
(2.998717654 0.01825399367 0)
(2.993346326 0.001829903191 0)
(2.991390452 -0.0007077491878 0)
(2.996825035 -0.005118193488 0)
(2.996432854 -0.002382887152 0)
(2.996291584 0.0004558702032 0)
(2.999434797 0.000858174964 0)
(3.000780216 0.003736925241 0)
(2.999653179 0.002377584271 0)
(3.003377403 0.001754708431 0)
(3.002807719 0.002551508291 0)
(2.999858304 0.000751058352 0)
(3.012560358 -0.01235962514 0)
(3.008316167 -0.0009568573374 0)
(3.004663322 0.0001859660217 0)
(2.99983939 -0.002059362038 0)
(3.010863597 -0.01374442457 0)
(3.006833712 0.0001396918111 0)
(3.001978771 -2.339361398e-05 0)
(2.995198193 0.001486327937 0)
)
;

boundaryField
{
    inlet
    {
        type            fixedValue;
        value           nonuniform 0();
    }
    outlet
    {
        type            inletOutlet;
        inletValue      uniform (3 0 0);
        value           nonuniform List<vector> 7((2.999653179 0.002377584271 0) (2.999858304 0.000751058352 0) (2.99983939 -0.002059362038 0) (2.995198193 0.001486327937 0) (2.99026588 0.008537044263 0) (2.991390452 -0.0007077491878 0) (2.996291584 0.0004558702032 0));
    }
    bottom
    {
        type            slip;
    }
    top
    {
        type            slip;
    }
    obstacle
    {
        type            slip;
    }
    defaultFaces
    {
        type            empty;
    }
    procBoundary11to5
    {
        type            processor;
        value           nonuniform List<vector> 4((3.002668458 0.05277661556 0) (2.995969241 0.02869182081 0) (3.002032045 0.04366624279 0) (3.002032045 0.04366624279 0));
    }
    procBoundary11to10
    {
        type            processor;
        value           nonuniform List<vector> 6((2.998469214 0.04332477012 0) (2.999673145 -0.0187656548 0) (3.003428426 -0.01180365462 0) (3.00844304 -0.01081734536 0) (3.00844304 -0.01081734536 0) (3.017267057 0.0009411389012 0));
    }
    procBoundary11to16
    {
        type            processor;
        value           uniform (3.012430119 -0.002706895795 0);
    }
    procBoundary11to17
    {
        type            processor;
        value           nonuniform List<vector> 4((2.996676136 -0.008682307547 0) (2.992860318 0.001296241306 0) (2.988524663 0.00135764232 0) (2.980631879 0.0002780403792 0));
    }
}


// ************************************************************************* //
