/*--------------------------------*- C++ -*----------------------------------*\
  =========                 |
  \\      /  F ield         | OpenFOAM: The Open Source CFD Toolbox
   \\    /   O peration     | Website:  https://openfoam.org
    \\  /    A nd           | Version:  7
     \\/     M anipulation  |
\*---------------------------------------------------------------------------*/
FoamFile
{
    version     2.0;
    format      ascii;
    class       volVectorField;
    location    "0.9";
    object      U;
}
// * * * * * * * * * * * * * * * * * * * * * * * * * * * * * * * * * * * * * //

dimensions      [0 1 -1 0 0 0 0];

internalField   nonuniform List<vector> 
138
(
(3 -2.391710015e-15 0)
(3 -2.413803781e-15 0)
(3 -1.72365207e-15 0)
(3 -4.664283277e-16 0)
(3 4.060613373e-16 0)
(3 1.316810587e-16 0)
(3 -2.659027387e-15 0)
(3 -4.271741897e-15 0)
(3 -2.740841475e-15 0)
(3 -1.637228181e-15 0)
(3 1.010808254e-15 0)
(3 1.270953189e-15 0)
(3 1.80273803e-15 0)
(3 1.807871368e-15 0)
(3 4.558303445e-15 0)
(3 5.280375785e-15 0)
(3 4.21536333e-15 0)
(3 3.973109807e-15 0)
(3 1.667744941e-15 0)
(3 1.838901596e-15 0)
(3 1.986007549e-15 0)
(3 2.224464122e-15 0)
(3 1.596233186e-15 0)
(3 1.659497742e-16 0)
(3 6.506628478e-16 0)
(3 1.54908572e-15 0)
(3 1.004612858e-15 0)
(3 3.350297167e-16 0)
(3 -1.277200488e-15 0)
(3 5.482024007e-16 0)
(3 6.270155585e-16 0)
(3 1.56104178e-15 0)
(3 2.235800575e-15 0)
(3 5.717267866e-15 0)
(3 8.89986507e-15 0)
(3 9.374314187e-15 0)
(3 9.366173301e-15 0)
(3 7.828816471e-15 0)
(3 4.824558858e-15 0)
(3 2.975296461e-15 0)
(3 4.479748008e-15 0)
(3 5.289122444e-15 0)
(3 3.161354473e-15 0)
(3 9.952353347e-16 0)
(3 -2.485742107e-15 0)
(3 -1.695111138e-15 0)
(3 -5.054244398e-16 0)
(3 -7.691454819e-16 0)
(3 -5.704363569e-16 0)
(3 7.803677707e-16 0)
(3 4.855970637e-16 0)
(3 2.093227843e-15 0)
(3 5.218655946e-15 0)
(3 4.386243971e-15 0)
(3 1.065008983e-15 0)
(3 -1.35322446e-15 0)
(3 -1.712683638e-15 0)
(3 -7.733461955e-16 0)
(3 3.059391627e-16 0)
(3 1.815570488e-16 0)
(3 2.314992752e-16 0)
(3 -3.525004195e-16 0)
(3 2.405276545e-17 0)
(3 -2.02558262e-15 0)
(3 5.398760391e-16 0)
(3 3.162893471e-15 0)
(3 4.223235786e-15 0)
(3 1.908496393e-15 0)
(3 4.77659238e-16 0)
(3 -5.857242344e-16 0)
(3 -2.170713255e-15 0)
(3 -2.737814119e-15 0)
(3 -2.304419329e-15 0)
(3 -2.283447635e-15 0)
(3 -4.703262765e-15 0)
(3 -5.154433411e-15 0)
(3 -5.341773513e-15 0)
(3 -5.563126196e-15 0)
(3 -4.316453001e-15 0)
(3 -1.374375231e-16 0)
(3 1.13294398e-15 0)
(3 3.647135579e-15 0)
(3 3.483303772e-15 0)
(3 1.161452743e-15 0)
(3 6.632980603e-16 0)
(3 -6.701070663e-17 0)
(3 -2.608199887e-15 0)
(3 -2.177270542e-15 0)
(3 -1.143753295e-15 0)
(3 -1.541309783e-15 0)
(3 -2.508996392e-15 0)
(3 -5.836602614e-15 0)
(3 -5.087383094e-15 0)
(3 -6.779475918e-15 0)
(3 -8.117921914e-15 0)
(3 -7.393061349e-15 0)
(3 8.132069039e-16 0)
(3 2.67579018e-15 0)
(3 1.171765556e-15 0)
(3 1.077011957e-15 0)
(3 7.513055318e-16 0)
(3 -1.397032518e-16 0)
(3 1.02894527e-15 0)
(3 3.273947179e-16 0)
(3 1.70886478e-15 0)
(3 3.753755451e-15 0)
(3 3.579074485e-15 0)
(3 3.338158734e-15 0)
(3 2.576816544e-15 0)
(3 7.175894497e-16 0)
(3 2.01208022e-16 0)
(3 -1.113304485e-15 0)
(3 -1.368991388e-15 0)
(3 1.387262496e-15 0)
(3 1.299784291e-15 0)
(3 -2.252582547e-15 0)
(3 -2.124686459e-15 0)
(3 -1.454283863e-16 0)
(3 3.297836255e-15 0)
(3 4.855363426e-15 0)
(3 7.479930213e-15 0)
(3 8.258517733e-15 0)
(3 9.588454952e-15 0)
(3 9.261914135e-15 0)
(3 9.15093962e-15 0)
(3 8.834261525e-15 0)
(3 6.520497676e-15 0)
(3 6.23320585e-15 0)
(3 5.990427702e-15 0)
(3 6.092684068e-15 0)
(3 3.065912891e-16 0)
(3 -4.885574632e-16 0)
(3 -6.561377204e-16 0)
(3 -9.595401051e-16 0)
(3 -1.277603547e-15 0)
(3 1.405055073e-15 0)
(3 4.470936952e-15 0)
(3 7.6391603e-15 0)
)
;

boundaryField
{
    inlet
    {
        type            fixedValue;
        value           uniform (3 0 0);
    }
    outlet
    {
        type            inletOutlet;
        inletValue      nonuniform 0();
        value           nonuniform 0();
    }
    bottom
    {
        type            slip;
    }
    top
    {
        type            slip;
    }
    obstacle
    {
        type            slip;
    }
    defaultFaces
    {
        type            empty;
    }
    procBoundary18to12
    {
        type            processor;
        value           nonuniform List<vector> 
18
(
(3 -4.896060092e-15 0)
(3 -3.539842913e-15 0)
(3 -4.026232209e-16 0)
(3 4.933680562e-17 0)
(3 2.079169291e-15 0)
(3 4.407340468e-16 0)
(3 -1.60850183e-15 0)
(3 -3.005245864e-15 0)
(3 -2.958319385e-15 0)
(3 -1.619884614e-16 0)
(3 1.687542066e-15 0)
(3 1.42812646e-15 0)
(3 2.48158075e-15 0)
(3 3.087253324e-15 0)
(3 2.186888335e-15 0)
(3 1.087338105e-15 0)
(3 -7.659023485e-16 0)
(3 -7.659023485e-16 0)
)
;
    }
    procBoundary18to19
    {
        type            processor;
        value           nonuniform List<vector> 8((3 3.292540996e-15 0) (3 -4.126089444e-15 0) (3 -6.453752714e-15 0) (3 -3.555053342e-15 0) (3 -3.840948186e-15 0) (3 -4.173570896e-15 0) (3 -2.298251014e-15 0) (3 4.345218652e-15 0));
    }
    procBoundary18to24
    {
        type            processor;
        value           nonuniform List<vector> 
18
(
(3 6.568118018e-15 0)
(3 2.685676999e-15 0)
(3 3.101985229e-15 0)
(3 4.044888954e-15 0)
(3 4.72288043e-15 0)
(3 5.236950447e-15 0)
(3 6.959112979e-15 0)
(3 6.989598963e-15 0)
(3 6.566481231e-15 0)
(3 -6.724418819e-16 0)
(3 -1.928259279e-15 0)
(3 1.093088717e-15 0)
(3 1.709099317e-15 0)
(3 1.612701803e-15 0)
(3 2.481923322e-15 0)
(3 2.821742223e-15 0)
(3 6.568118018e-15 0)
(3 2.725201021e-15 0)
)
;
    }
}


// ************************************************************************* //
