/*--------------------------------*- C++ -*----------------------------------*\
  =========                 |
  \\      /  F ield         | OpenFOAM: The Open Source CFD Toolbox
   \\    /   O peration     | Website:  https://openfoam.org
    \\  /    A nd           | Version:  7
     \\/     M anipulation  |
\*---------------------------------------------------------------------------*/
FoamFile
{
    version     2.0;
    format      ascii;
    class       volScalarField;
    location    "1.8";
    object      T;
}
// * * * * * * * * * * * * * * * * * * * * * * * * * * * * * * * * * * * * * //

dimensions      [0 0 0 1 0 0 0];

internalField   nonuniform List<scalar> 
2222
(
1.376424384
1.365676671
1.353854403
1.341301969
1.328851548
1.316930753
1.306207248
1.297043879
1.288993829
1.281434999
1.273841605
1.265673776
1.256609421
1.246930299
1.237042761
1.227117616
1.217911198
1.209827413
1.202740052
1.196138352
1.189658404
1.183048799
1.175866983
1.168016263
1.159772407
1.151445095
1.143502543
1.136394074
1.13021187
1.124603377
1.119968217
1.111356665
1.380128543
1.369289149
1.357507123
1.344919508
1.332316902
1.320472035
1.309812835
1.300697408
1.292645908
1.285054718
1.277411865
1.26924543
1.260181517
1.250268298
1.240163315
1.230192477
1.220958218
1.212879099
1.20578451
1.199192838
1.192674905
1.18603598
1.178950327
1.171143094
1.162891105
1.154492747
1.146463648
1.139321576
1.133099662
1.127365389
1.122733795
1.114105207
1.377319951
1.366432146
1.354963867
1.342455394
1.3297138
1.318094688
1.307528461
1.298372704
1.290288745
1.282668419
1.275031541
1.266933224
1.25794752
1.247812722
1.237340159
1.227602383
1.21833902
1.210315998
1.203360771
1.196938668
1.190491637
1.183741308
1.176803905
1.169083229
1.160839864
1.152510963
1.144438159
1.137255922
1.1309752
1.124985374
1.120295634
1.111925929
1.378353243
1.367073972
1.355390186
1.342644443
1.32979024
1.318134134
1.308387387
1.299320753
1.291222214
1.283541252
1.275854893
1.267676013
1.258484205
1.248146692
1.237370139
1.227715772
1.218776277
1.210733772
1.203788548
1.197426209
1.191017095
1.183942253
1.176819135
1.169626737
1.161426447
1.153075328
1.144974557
1.137687516
1.131191974
1.125056564
1.120212173
1.112169304
1.381877764
1.370013658
1.356819747
1.343850346
1.331055493
1.31911139
1.310053002
1.302680428
1.294927674
1.28715536
1.279261904
1.270572611
1.260028982
1.249360898
1.238448411
1.227901903
1.220371909
1.213107366
1.20632783
1.199910709
1.192691151
1.184985468
1.177579707
1.170641932
1.163935944
1.155926889
1.147745611
1.139833252
1.132090049
1.125767903
1.120831346
1.112566966
1.378680152
1.367862359
1.355978097
1.345022963
1.334166222
1.322846805
1.310888307
1.30070828
1.292483335
1.284705721
1.276604884
1.2681409
1.260744441
1.252285274
1.241772026
1.230523705
1.219306036
1.210506652
1.203431775
1.196977835
1.191747906
1.187252405
1.180689956
1.172118213
1.162531578
1.153791816
1.145427275
1.137839555
1.133278899
1.128368511
1.123570659
1.11412542
1.379645595
1.368098629
1.356642549
1.344231613
1.331255533
1.320019141
1.311036602
1.301938218
1.293720351
1.285863899
1.277571955
1.269082342
1.260273555
1.249938968
1.23913566
1.228577078
1.219580251
1.211372763
1.20421288
1.197661348
1.192293082
1.185452783
1.178224131
1.171162689
1.163116702
1.154500862
1.145981397
1.138746259
1.132487365
1.126288443
1.121242292
1.112829697
1.3822725
1.369997994
1.357582092
1.344876515
1.332505248
1.320843318
1.311856602
1.304892896
1.297088639
1.289114486
1.28074293
1.271303806
1.260937127
1.250768938
1.240379945
1.229590805
1.22016563
1.213593579
1.206932062
1.200408453
1.19311821
1.186040611
1.179048599
1.171391742
1.164725232
1.156933078
1.148715217
1.140932191
1.133151611
1.126948096
1.122001672
1.113210907
1.380717589
1.369912253
1.358164792
1.346055877
1.334526696
1.323168439
1.312352801
1.302700868
1.294367808
1.286274764
1.278080718
1.269413441
1.261109084
1.25302367
1.243461183
1.232501167
1.221480344
1.212373711
1.204917762
1.198138826
1.192365008
1.187889059
1.181594895
1.173430521
1.163658764
1.154720978
1.146425468
1.139171892
1.13444838
1.129386992
1.124580929
1.115329819
1.382207108
1.371383581
1.360005668
1.347892639
1.335369171
1.323696832
1.312898718
1.303292457
1.295025798
1.287052415
1.278815865
1.270418409
1.261071288
1.250503502
1.240521944
1.231437891
1.222479128
1.213703185
1.206221528
1.199384883
1.19340671
1.186666679
1.179026017
1.171613676
1.163837166
1.155373611
1.147145776
1.140140909
1.133738235
1.127510177
1.122465793
1.113581642
1.384387337
1.373138434
1.361244177
1.348971799
1.336826795
1.325356089
1.31487284
1.305488398
1.296620346
1.287955187
1.279540541
1.271039405
1.261658222
1.251423278
1.240982363
1.232397965
1.224899238
1.217098904
1.209832746
1.202941983
1.195220955
1.187270722
1.179792667
1.171702452
1.16449983
1.157410335
1.149887832
1.142284596
1.134538225
1.128361035
1.12334976
1.114374092
1.385694881
1.374004011
1.361896667
1.349710051
1.338042325
1.326954868
1.316471612
1.306657561
1.297420816
1.288737932
1.280701596
1.272501304
1.263086492
1.252622598
1.242210949
1.232361381
1.222865507
1.214603679
1.207396922
1.200825509
1.194171349
1.187250278
1.180745943
1.173045255
1.163689815
1.154732351
1.147263106
1.140230464
1.135702371
1.130936401
1.1260462
1.11686192
1.386482225
1.374811684
1.362784653
1.350580441
1.338607832
1.32740815
1.317212105
1.307567439
1.29842882
1.290130478
1.281839096
1.272831814
1.263510113
1.253855923
1.243761145
1.233529742
1.223989513
1.215510199
1.208188416
1.201444057
1.194742634
1.188033398
1.180455306
1.17240184
1.16400114
1.155208499
1.147409955
1.141217289
1.134992148
1.129155316
1.124091255
1.11486764
1.387157914
1.375461266
1.363068059
1.350667783
1.338827832
1.327744817
1.317615698
1.308336452
1.299530277
1.290929347
1.282162993
1.273154559
1.264108199
1.254735805
1.244587438
1.234428917
1.225631043
1.217509251
1.210161895
1.203301178
1.196620908
1.189505929
1.181461098
1.172986538
1.164823008
1.156463745
1.148437797
1.142195766
1.135966053
1.130131666
1.12506452
1.115825273
1.386846221
1.375924564
1.36358264
1.351166951
1.33909804
1.32750997
1.317029653
1.308110989
1.300276932
1.292117108
1.283338878
1.27398259
1.264001894
1.254326641
1.244825105
1.234866384
1.226807092
1.220290155
1.213331345
1.206433142
1.199506172
1.191702038
1.182971225
1.1743289
1.165914645
1.157772162
1.149633572
1.142450653
1.137766751
1.132630227
1.12778018
1.118521159
1.385410967
1.374117611
1.362543508
1.350520572
1.338672048
1.327447242
1.317342612
1.308200815
1.299395519
1.290852357
1.282441946
1.273714236
1.264434639
1.254425379
1.244482094
1.235237137
1.226390612
1.218050351
1.210658039
1.203513101
1.19660132
1.189851896
1.182721969
1.174790409
1.166254568
1.158257757
1.150958587
1.143343128
1.136237511
1.130420032
1.125656557
1.116678913
1.38401144
1.372763717
1.361943269
1.350582606
1.338916866
1.327769839
1.317368434
1.307793713
1.299036165
1.290799312
1.282581321
1.274092196
1.264645506
1.254116477
1.243967272
1.235335947
1.226899743
1.218871738
1.211290808
1.203927029
1.196777692
1.189940829
1.183082102
1.175287908
1.166898556
1.158514674
1.150346308
1.143021605
1.136475304
1.130871163
1.12620073
1.117483147
1.38422717
1.373013434
1.361295113
1.349292996
1.337558733
1.327187195
1.31772819
1.30854773
1.299728081
1.29107737
1.282227548
1.273133919
1.26402889
1.254255602
1.244017453
1.235558202
1.228657906
1.221200033
1.212689967
1.204515796
1.197045616
1.190003856
1.183331098
1.175987535
1.167683094
1.159157126
1.151135847
1.14393804
1.137715171
1.132058914
1.127152114
1.118654571
1.383647096
1.371992241
1.360028989
1.348522648
1.337399829
1.326500728
1.31645324
1.307518535
1.29906064
1.290695052
1.282269897
1.273355905
1.263898394
1.254191568
1.244277625
1.234903564
1.226002074
1.218457161
1.211999984
1.205177442
1.198015219
1.19050054
1.182816754
1.176397462
1.169165927
1.161059146
1.153320972
1.146350451
1.140119339
1.133407824
1.127860695
1.119397585
1.382926072
1.371474385
1.359750363
1.347929111
1.336448994
1.325655894
1.315947878
1.307168526
1.298836393
1.290623968
1.28208857
1.272697448
1.262660533
1.25347665
1.244846391
1.235187548
1.226095202
1.218079732
1.211928955
1.206707793
1.199951634
1.191544906
1.183093169
1.17456083
1.166075573
1.158168752
1.150728347
1.143839197
1.137578993
1.132147672
1.128022929
1.119391283
1.381927651
1.370549801
1.358854176
1.347136777
1.335930588
1.325528806
1.315936363
1.306957872
1.29833419
1.289816274
1.281204805
1.272262964
1.262786428
1.252906235
1.243323365
1.234177277
1.225516867
1.21830086
1.211372194
1.203996862
1.197131781
1.190220326
1.182378512
1.173974604
1.166101697
1.158586853
1.151349924
1.14435386
1.13788175
1.132129652
1.12816236
1.119666289
1.38073495
1.369510835
1.358006131
1.34645036
1.335279761
1.324831733
1.315241948
1.306423028
1.298032775
1.289512982
1.280588752
1.271527855
1.262101957
1.252039129
1.242256435
1.233499026
1.225678632
1.218316534
1.211294093
1.204195518
1.19702801
1.189789011
1.181913055
1.17356906
1.166425352
1.160029024
1.153264289
1.145676648
1.138626922
1.132179975
1.127810857
1.12064407
1.379299131
1.367893218
1.356433503
1.345243061
1.334461892
1.324203038
1.314632558
1.305780671
1.297251632
1.288600163
1.279453288
1.270098347
1.261147771
1.252093257
1.242620057
1.233659544
1.225449432
1.217569478
1.210646522
1.204647228
1.197808411
1.190071625
1.182050125
1.173696381
1.164805281
1.156741991
1.150233422
1.144641593
1.138983281
1.132781165
1.127674515
1.118264068
1.377647065
1.367281303
1.35608589
1.344635408
1.333863063
1.323914625
1.314394369
1.30514152
1.296121271
1.287493645
1.279111802
1.270122136
1.260574856
1.251431811
1.242404732
1.233392302
1.225050269
1.217638533
1.210333275
1.202722963
1.19543649
1.188283729
1.180968542
1.173140802
1.164730441
1.156453709
1.149333526
1.144540572
1.140348012
1.134633986
1.12804611
1.11786192
1.376668789
1.365978858
1.355026
1.344000262
1.333408335
1.323240934
1.313427661
1.304200122
1.295628187
1.287128877
1.27842958
1.26934715
1.259599211
1.250262676
1.242185667
1.234090762
1.225776112
1.217726873
1.209848179
1.202122871
1.194511049
1.187338152
1.180693878
1.173369189
1.165109448
1.156971748
1.149919931
1.143691302
1.137640823
1.131806832
1.126509029
1.117384565
1.37434382
1.364079487
1.354187817
1.343971482
1.333369736
1.322941755
1.31312019
1.303948557
1.295025304
1.285978995
1.276808492
1.268153757
1.259656137
1.250441452
1.241046237
1.232265027
1.224311914
1.21684641
1.209503072
1.202226814
1.19499383
1.187335792
1.179410984
1.172612739
1.166345367
1.159031426
1.15138218
1.143736632
1.137446044
1.131583018
1.126333981
1.117117363
1.37286992
1.362816669
1.352526699
1.341957555
1.331346442
1.321268909
1.311885294
1.302714837
1.293449926
1.284604892
1.276271646
1.267637978
1.258810082
1.249808441
1.240516213
1.23181012
1.223919728
1.216619004
1.209610282
1.202504999
1.195243207
1.187199244
1.178902489
1.171210592
1.163512208
1.156257815
1.149467489
1.143206755
1.137146116
1.131059463
1.126075636
1.116892959
1.370828584
1.360728281
1.350736137
1.340344857
1.329735914
1.319625407
1.310487118
1.301925266
1.293184448
1.284087753
1.275081057
1.266035767
1.257167341
1.249252628
1.241151518
1.232393511
1.223778761
1.215700372
1.209101635
1.203213809
1.196122265
1.187988204
1.179329315
1.17064622
1.16316399
1.156305551
1.149719526
1.143529257
1.137517644
1.131466351
1.126275749
1.116631762
1.369061452
1.359130835
1.349296672
1.339275549
1.328995199
1.318849036
1.309274247
1.300445217
1.291987661
1.283018622
1.273621105
1.264761786
1.256443137
1.24738963
1.23833915
1.230355755
1.223112114
1.215975369
1.208517584
1.200741041
1.193168272
1.185864233
1.178391152
1.169840872
1.162335128
1.156807862
1.151060089
1.145165631
1.139308458
1.133136371
1.12710095
1.116564735
1.366482937
1.356398849
1.346894645
1.337616563
1.328027905
1.318152024
1.308364595
1.298846677
1.290103666
1.282206278
1.273869138
1.264785628
1.25545716
1.24602049
1.237023234
1.229353783
1.222431946
1.215463554
1.208146823
1.200633047
1.19295286
1.185112318
1.177346698
1.169698408
1.161896042
1.154149034
1.147384963
1.141447838
1.135976513
1.130380825
1.125256147
1.115757128
1.365195113
1.35509477
1.345272016
1.33603821
1.327188882
1.31789709
1.308044219
1.298547369
1.289609334
1.280710045
1.271917784
1.262876735
1.253497042
1.244884843
1.236879975
1.228735664
1.221433771
1.215173375
1.208537988
1.201054895
1.193225534
1.185312004
1.177469434
1.169758255
1.16181818
1.154162178
1.147138042
1.140730102
1.135001176
1.129491272
1.124704624
1.115588655
1.363203743
1.353273173
1.343365135
1.333755113
1.32427029
1.314720677
1.305265889
1.296303669
1.287557297
1.278641662
1.270032894
1.261637008
1.252981821
1.244301959
1.236022989
1.228147586
1.220587893
1.213079995
1.205624522
1.19838743
1.191243706
1.183917568
1.176181234
1.168793285
1.162404717
1.155140607
1.14753961
1.140944446
1.13529523
1.129683225
1.124266641
1.114528295
1.360544656
1.351474598
1.341824211
1.331825039
1.321992444
1.312459795
1.303217095
1.294153322
1.285488562
1.277417695
1.269088524
1.260297741
1.251549724
1.242864249
1.234481839
1.226836819
1.219463762
1.212056263
1.204862714
1.197856751
1.190465539
1.182605634
1.175130281
1.167932427
1.159872511
1.152715152
1.146521505
1.140470266
1.134417218
1.128298701
1.123050404
1.113966037
1.358753539
1.349017435
1.339273976
1.32951189
1.319750395
1.310274136
1.301412234
1.292938134
1.284316725
1.275384931
1.266443336
1.257711129
1.249581769
1.241925058
1.23426131
1.226537678
1.219014822
1.211502276
1.203841125
1.19640285
1.189503096
1.182500106
1.175048786
1.1672744
1.15938516
1.15210309
1.145661449
1.139775521
1.1339481
1.128075383
1.122748945
1.113141536
1.356879183
1.346865035
1.337019057
1.327272888
1.317878723
1.308822142
1.299777117
1.290834117
1.282083607
1.273457003
1.265077566
1.256812599
1.248458134
1.240258635
1.232455377
1.224735705
1.217191193
1.210246354
1.203376615
1.196161542
1.188766261
1.181233852
1.173275667
1.165611437
1.159229069
1.152668363
1.145867803
1.139378758
1.133341164
1.127182515
1.121523844
1.111982174
1.355018613
1.345020708
1.335160496
1.325509358
1.31616601
1.306965563
1.297862214
1.288940451
1.280235748
1.271594883
1.262982108
1.254426255
1.245938855
1.237821093
1.230510463
1.223750608
1.21687208
1.209656077
1.202349304
1.194816397
1.18696095
1.179620264
1.172628744
1.165258746
1.157644781
1.150649828
1.144175552
1.13782315
1.132242864
1.126684119
1.121461582
1.111822265
1.353580547
1.343254176
1.33338685
1.323527522
1.313948972
1.305019553
1.296431801
1.28779005
1.278963266
1.270011555
1.261198571
1.252677105
1.244556703
1.236974336
1.229680235
1.222403418
1.215127287
1.207650703
1.200472844
1.193841139
1.186751832
1.179011252
1.171204999
1.163553372
1.156042522
1.149374855
1.143434712
1.137692341
1.131928792
1.125887872
1.120483834
1.110604951
1.353192379
1.342735117
1.332350692
1.322122066
1.312433393
1.303174278
1.294098615
1.28516636
1.27641894
1.26775808
1.259182867
1.250812123
1.242752453
1.235005177
1.227328084
1.219859096
1.213290511
1.206910689
1.199897322
1.19236637
1.184755245
1.176847449
1.169086596
1.162209799
1.155719672
1.149401351
1.143272256
1.137157827
1.130948987
1.124668313
1.119578327
1.110551951
1.351812034
1.341236925
1.331000251
1.321222123
1.311524686
1.301700842
1.292005369
1.282654167
1.27365625
1.264899016
1.256425718
1.248313298
1.240588901
1.233203295
1.226039704
1.219039171
1.211912947
1.204763288
1.197512467
1.189975405
1.182772116
1.17584836
1.168607182
1.161159022
1.154093887
1.147526516
1.141708751
1.136530269
1.130986735
1.124882344
1.119239728
1.109410756
1.351889664
1.341470249
1.331338415
1.321158264
1.310853892
1.300589968
1.29086837
1.281855627
1.273083417
1.264296976
1.255717075
1.247404359
1.23926419
1.231506441
1.224241798
1.217081525
1.209654011
1.202233327
1.195602835
1.189244647
1.182125205
1.174406447
1.166711228
1.159242534
1.152601207
1.146740124
1.141025743
1.13514446
1.129386102
1.123302049
1.117532748
1.108227909
1.351612555
1.341050792
1.330674295
1.320362456
1.310224756
1.300277454
1.290376962
1.280546628
1.270943464
1.261626572
1.252793152
1.244505571
1.236636227
1.229119041
1.221857839
1.214921194
1.208309548
1.201578602
1.194366427
1.18698847
1.179556606
1.172257151
1.165518444
1.158820464
1.152144698
1.145724334
1.139490654
1.133285429
1.127755422
1.1224803
1.117318479
1.107689636
1.351022974
1.340414942
1.330232021
1.320157466
1.309916888
1.299347447
1.288531834
1.27803505
1.268290954
1.25926214
1.250735506
1.242591974
1.235070092
1.228172163
1.221314433
1.214070073
1.206675746
1.199280062
1.191602455
1.184115717
1.17771152
1.171369774
1.164227821
1.15705168
1.150207769
1.144143841
1.138657487
1.133019273
1.127321017
1.121210869
1.115651347
1.106025539
1.350506754
1.340328462
1.330185093
1.319800539
1.309096899
1.298347939
1.288008648
1.278144606
1.26872879
1.25957152
1.250727039
1.242346717
1.234362511
1.226700921
1.219225863
1.211735093
1.204139827
1.196651977
1.189697729
1.182958359
1.175690705
1.1685619
1.162251999
1.156236674
1.150010936
1.143722219
1.137454734
1.131395579
1.125413243
1.11906176
1.113975447
1.105469383
1.349844341
1.339833732
1.32963804
1.319181781
1.308700879
1.298338515
1.287922481
1.27756226
1.267555567
1.258094073
1.249280738
1.240838912
1.232515561
1.224503187
1.217001005
1.210204191
1.20330922
1.195793218
1.187895758
1.180190344
1.172910202
1.166401586
1.160395644
1.15429618
1.148074561
1.141713838
1.135436272
1.129746767
1.124358997
1.118496038
1.113269327
1.104032201
1.348245736
1.338529161
1.328677285
1.318558653
1.308238119
1.297673441
1.28678512
1.276214644
1.266592169
1.257576236
1.248598462
1.239758266
1.23173815
1.224513005
1.217287908
1.209417283
1.201174887
1.192862829
1.184824989
1.177648781
1.171308334
1.165151092
1.158926334
1.152847989
1.146844566
1.140861908
1.134878554
1.128743238
1.122636008
1.116325178
1.110843418
1.102392581
1.346365818
1.337267671
1.327784464
1.317810469
1.307522125
1.297043093
1.286536461
1.276327475
1.266571075
1.257139597
1.24816463
1.23993157
1.231887964
1.223820794
1.215546461
1.207006002
1.198831362
1.191557528
1.184529526
1.177360942
1.170334953
1.163713933
1.157408381
1.151254856
1.145106021
1.138956249
1.132715089
1.126372551
1.120352306
1.114828942
1.110060737
1.101293745
1.344325761
1.335536936
1.326305803
1.316630016
1.30665214
1.296404861
1.285983473
1.275667569
1.265768966
1.25651739
1.247852413
1.239212076
1.230418762
1.221911287
1.21403627
1.206852279
1.199404213
1.191447916
1.183249004
1.175193477
1.167698075
1.161103638
1.155294247
1.149655609
1.143736348
1.137602702
1.131431743
1.125515251
1.119762565
1.113646197
1.108177314
1.099078476
1.341292851
1.332934753
1.324112265
1.314719647
1.304941755
1.294931384
1.284771577
1.274745402
1.265217016
1.256023979
1.246801092
1.238094972
1.230309075
1.222585211
1.214721019
1.206428179
1.197893188
1.189400637
1.181333742
1.174357627
1.167599066
1.160926007
1.154403653
1.147902542
1.141512461
1.135265364
1.129114063
1.123157868
1.117256863
1.111257537
1.106325548
1.098195024
1.337092309
1.329567428
1.321385381
1.312503202
1.303247488
1.293662017
1.28373173
1.27382263
1.264179863
1.254789634
1.246445004
1.238630204
1.230260242
1.221537982
1.213064034
1.204635277
1.196971458
1.189556444
1.181850781
1.173961643
1.166159537
1.158714735
1.151736855
1.145218212
1.139153925
1.133544482
1.127921803
1.122077865
1.116252573
1.110602381
1.105552446
1.096839371
1.33350226
1.326175251
1.318327547
1.309775131
1.300780666
1.291514248
1.281997882
1.272428815
1.263358953
1.254906109
1.246434033
1.237521636
1.22877967
1.221040451
1.213383468
1.205393638
1.197207893
1.188487229
1.179895829
1.171805408
1.164790887
1.158296933
1.151715288
1.145439565
1.139295033
1.132926896
1.126461161
1.120112044
1.114015386
1.108126756
1.103128623
1.095087761
1.329910712
1.322402518
1.314716359
1.306536659
1.29805734
1.289348233
1.28021881
1.271004378
1.262133673
1.253277194
1.244546337
1.236656341
1.229217151
1.221180479
1.212525706
1.203838478
1.195268881
1.187275838
1.179824037
1.172331218
1.164856063
1.157287624
1.150223968
1.143670493
1.137247896
1.130699222
1.124346481
1.118562836
1.112955778
1.107117329
1.102243692
1.094101564
1.324455347
1.317272178
1.310004543
1.302416696
1.294644042
1.286481762
1.277772646
1.268782981
1.260019736
1.252223201
1.244870649
1.237028984
1.228522435
1.219989062
1.211944198
1.203998994
1.195921235
1.18755534
1.178773637
1.170453827
1.162801358
1.155932472
1.149946747
1.14374176
1.137283909
1.130916162
1.124711784
1.11822842
1.111571288
1.105063734
1.099712143
1.091473441
1.320389859
1.312607541
1.305434914
1.29810961
1.290515519
1.282638843
1.274309363
1.265917426
1.258191321
1.250776233
1.24303325
1.234915284
1.226894301
1.21931607
1.211426379
1.202845275
1.194016612
1.18552017
1.177847335
1.17057741
1.163414697
1.15660119
1.149743901
1.142870216
1.136204209
1.129652429
1.123054694
1.116294715
1.109793335
1.103928355
1.098960316
1.09091641
1.314316229
1.307060391
1.300041431
1.293025876
1.285897751
1.278509947
1.270837592
1.263207773
1.25560382
1.248131065
1.241184219
1.234232357
1.226609843
1.218521277
1.210376925
1.202232904
1.19420541
1.186294511
1.177987647
1.169624846
1.161982923
1.154907111
1.148148397
1.141889929
1.136079121
1.129838069
1.123211131
1.116691145
1.110281942
1.103453437
1.09753445
1.088672389
1.310458798
1.302488649
1.294895865
1.287702398
1.280821467
1.274003804
1.266773691
1.259307454
1.252574633
1.246551138
1.24018772
1.233029327
1.225432375
1.217659584
1.209673021
1.201250067
1.192495509
1.1840121
1.176086142
1.169085708
1.162293176
1.155348969
1.148871082
1.14250795
1.135803632
1.128831614
1.121915586
1.115301207
1.108670981
1.101899204
1.096488991
1.088181104
1.304054994
1.297384058
1.289839624
1.282416933
1.275573215
1.268952432
1.262264684
1.256057548
1.249918041
1.24343332
1.23679597
1.229849385
1.222652668
1.215150538
1.207598956
1.200148101
1.192342813
1.18450751
1.176895807
1.169208692
1.161516886
1.15412422
1.147419218
1.140762821
1.134044835
1.127922541
1.121901752
1.115593049
1.109069004
1.102562935
1.096781512
1.087229979
1.298607243
1.292876535
1.285147548
1.277323199
1.270440841
1.264166188
1.257890622
1.251407545
1.245372808
1.239989213
1.234532949
1.228364293
1.221657091
1.214848855
1.207785292
1.199812885
1.191177039
1.182474674
1.174360489
1.166905265
1.16029363
1.154093295
1.147764837
1.141240356
1.134834964
1.128129936
1.120934416
1.113852257
1.107133645
1.100541286
1.095124671
1.086289976
1.290787552
1.287411924
1.280680624
1.272670234
1.265418962
1.259105617
1.2531083
1.247602669
1.242494847
1.236954769
1.231041692
1.225024643
1.218703649
1.212077675
1.20478688
1.197047454
1.18969814
1.182212858
1.174631651
1.167578587
1.160836621
1.153759674
1.146658684
1.139765297
1.132787651
1.125906242
1.119637181
1.113299417
1.107086271
1.100590815
1.095524661
1.08698557
1.284769055
1.283022877
1.277416748
1.269019661
1.261032707
1.254380564
1.24867243
1.243277153
1.237742382
1.232549065
1.227177833
1.221705221
1.216168884
1.21021999
1.203517019
1.196400877
1.188469586
1.180404194
1.172559242
1.165356952
1.158607596
1.152251285
1.146320473
1.140104774
1.133297697
1.126558746
1.119218103
1.111756395
1.105213864
1.09866426
1.093574336
1.085210716
1.272986969
1.275196388
1.271757361
1.264507123
1.256704101
1.250379103
1.24450939
1.238539108
1.234022155
1.229861675
1.22493933
1.219536377
1.21339492
1.206957164
1.200104522
1.192653047
1.184647539
1.177865968
1.171543153
1.16527788
1.159146809
1.153171276
1.146374003
1.139496052
1.132166448
1.124788428
1.116993448
1.110004927
1.10389914
1.097982644
1.092889298
1.084775826
1.240667093
1.270462584
1.268230221
1.261574258
1.253034661
1.24601152
1.240001337
1.234745894
1.229496576
1.224256572
1.219435049
1.214674482
1.209248202
1.20342636
1.196989509
1.190390598
1.183417258
1.176565832
1.169532344
1.163289637
1.156946797
1.15129482
1.145730864
1.139819179
1.132955348
1.125742541
1.117962714
1.110605011
1.103398722
1.097075792
1.090498818
1.082708371
1.175191992
1.260722969
1.261493875
1.257929782
1.250647065
1.243279895
1.236356372
1.229669888
1.22359561
1.219076805
1.215373052
1.211362545
1.206651926
1.201487629
1.195290331
1.187871856
1.179814673
1.172342623
1.1663758
1.161662541
1.156489372
1.151404122
1.145520499
1.139178774
1.132276264
1.125050164
1.117316166
1.10972276
1.102170211
1.09484351
1.089487543
1.083551556
1.089233956
1.230319628
1.256923688
1.254269911
1.248032566
1.240742978
1.233370445
1.226467209
1.220553898
1.215582943
1.210495156
1.205861862
1.201191293
1.196274112
1.190500429
1.183965361
1.177110656
1.17053038
1.164840131
1.15948764
1.153812854
1.148713193
1.143561865
1.13837033
1.132404601
1.125625178
1.118229282
1.110614176
1.102900676
1.095988469
1.090221492
1.092097394
0.9975596474
1.170177329
1.247758008
1.248325742
1.244202431
1.237758237
1.23066586
1.222617808
1.215134841
1.209384719
1.20473944
1.200397061
1.196213511
1.192396367
1.187673327
1.181508429
1.174942228
1.168725531
1.163214457
1.158068109
1.152477707
1.146501661
1.14039433
1.134980813
1.129049607
1.122968026
1.115558439
1.109764353
1.103678879
1.098247462
1.100677253
1.150475076
0.9366329958
1.088400912
1.218788456
1.243112951
1.242554569
1.237975827
1.230505476
1.221024628
1.212693521
1.20671349
1.201343406
1.195615527
1.190508033
1.185644462
1.181446779
1.178084612
1.173933733
1.168644277
1.163232203
1.157144307
1.151156454
1.144726825
1.138750053
1.13266164
1.126279422
1.120709215
1.116511767
1.110535914
1.112533159
1.132982859
1.171831721
1.234281969
0.9108291331
0.9946107482
1.171844971
1.2303256
1.235854732
1.232685875
1.226009293
1.219147004
1.212906915
1.206626495
1.199640198
1.192753657
1.185833489
1.179761053
1.175590895
1.171218267
1.167110484
1.16292115
1.159211302
1.15431283
1.149630482
1.143493186
1.137846768
1.131354508
1.127281746
1.121545805
1.122652752
1.139296737
1.180062711
1.234729412
1.274366965
1.282302173
0.9002573859
0.9303211775
1.090217706
1.214652214
1.228422187
1.226059819
1.220266338
1.212942701
1.207459666
1.20220119
1.197760658
1.191580788
1.183696922
1.176184979
1.171871955
1.167353573
1.163607536
1.159293026
1.155215506
1.15005595
1.14533057
1.139610653
1.136559785
1.131827137
1.132593114
1.148810295
1.189029476
1.240844417
1.281769324
1.294334834
1.299394009
1.295518543
0.8935037982
0.9017056582
0.9959032511
1.169608189
1.22383204
1.223496811
1.219401654
1.211180182
1.20303536
1.196720992
1.191561906
1.18505275
1.179447074
1.174239375
1.170329905
1.166045019
1.16233891
1.157387908
1.152170069
1.146505082
1.143613758
1.138830233
1.140299678
1.158245053
1.196674915
1.245877436
1.286222099
1.295914888
1.303489573
1.3001437
1.301039941
1.297966652
0.8874148649
0.8893073616
0.9277655224
1.086884443
1.207682279
1.221224182
1.219096877
1.212060779
1.203177506
1.194075893
1.186733691
1.180097014
1.174086659
1.168819048
1.164597405
1.160338422
1.156655118
1.152260274
1.148877745
1.144845789
1.147038688
1.166052726
1.209003347
1.267899517
1.309497731
1.321915603
1.325646338
1.319162033
1.311296329
1.303733851
1.302070286
1.29853432
0.8822789848
0.8827662917
0.8932986915
1.001688201
1.168371176
1.210042871
1.209135177
1.20559479
1.199066181
1.193182233
1.187017667
1.179779339
1.171663327
1.164858408
)
;

boundaryField
{
    inlet
    {
        type            fixedValue;
        value           nonuniform 0();
    }
    outlet
    {
        type            inletOutlet;
        inletValue      uniform 1;
        value           nonuniform List<scalar> 
69
(
1.111379165
1.114128244
1.111950287
1.112205078
1.112628106
1.114099586
1.112871244
1.113231655
1.115331229
1.11360092
1.114390134
1.116871957
1.114879382
1.115836401
1.118529383
1.116694673
1.117505225
1.118686873
1.119440325
1.119406896
1.119683635
1.120681153
1.118274694
1.117870675
1.117396455
1.117119569
1.116895781
1.116624396
1.116547566
1.115759011
1.115582129
1.114508447
1.113973832
1.113131822
1.111986985
1.111812227
1.110586555
1.110552279
1.109391916
1.10823944
1.10766658
1.106000276
1.105473944
1.104014095
1.102417008
1.101283671
1.099064314
1.098211687
1.096832728
1.095105595
1.09409448
1.091474311
1.090929156
1.088669917
1.088200604
1.087216903
1.08631009
1.086989129
1.085238666
1.084820484
1.082738048
1.083577369
1.092117725
1.150481364
1.23427005
1.282418575
1.29547225
1.297891571
1.29850815
)
;
    }
    bottom
    {
        type            slip;
    }
    top
    {
        type            slip;
    }
    obstacle
    {
        type            zeroGradient;
    }
    defaultFaces
    {
        type            empty;
    }
    procBoundary5to4
    {
        type            processor;
        value           nonuniform List<scalar> 
69
(
1.386485653
1.390417623
1.387782456
1.388742387
1.392213839
1.389138092
1.390712061
1.393808243
1.391330935
1.392895053
1.395149237
1.396960575
1.397535091
1.397830322
1.396705458
1.396566969
1.39557474
1.395053511
1.394721207
1.394014542
1.393043004
1.39157302
1.390310896
1.388059252
1.387274991
1.385191452
1.383144537
1.381376294
1.379446992
1.377043638
1.375140875
1.372950666
1.369981309
1.368332325
1.36718977
1.365419734
1.364608064
1.364099099
1.362808529
1.362780918
1.362514806
1.362080004
1.361085025
1.359931684
1.358050287
1.355506579
1.352979353
1.349668033
1.344738964
1.341114812
1.33783127
1.332138042
1.328957412
1.321284384
1.316309119
1.307473214
1.30053571
1.285999104
1.250324409
1.182314648
1.093321345
1.002917384
0.9455694959
0.9224762491
0.9123528828
0.9050079302
0.8991996291
0.8935495512
0.8876326225
)
;
    }
    procBoundary5to10
    {
        type            processor;
        value           uniform 0.8833067024;
    }
    procBoundary5to11
    {
        type            processor;
        value           nonuniform List<scalar> 
33
(
1.160843919
1.157272375
1.152998111
1.149906223
1.15391971
1.179064922
1.222796531
1.274622086
1.315379437
1.329362267
1.334791927
1.331408598
1.328119039
1.326177042
1.319097404
1.30987271
1.305624576
1.300347139
0.8773505409
0.8771831158
0.8794624928
0.9286446937
1.088355404
1.191859529
1.20939388
1.207385939
1.200662968
1.192881626
1.180877066