/*--------------------------------*- C++ -*----------------------------------*\
  =========                 |
  \\      /  F ield         | OpenFOAM: The Open Source CFD Toolbox
   \\    /   O peration     | Website:  https://openfoam.org
    \\  /    A nd           | Version:  7
     \\/     M anipulation  |
\*---------------------------------------------------------------------------*/
FoamFile
{
    version     2.0;
    format      ascii;
    class       volScalarField;
    location    "2";
    object      T;
}
// * * * * * * * * * * * * * * * * * * * * * * * * * * * * * * * * * * * * * //

dimensions      [0 0 0 1 0 0 0];

internalField   nonuniform List<scalar> 
2222
(
1.119997847
1.119480846
1.120418726
1.122859386
1.122671343
1.121819366
1.121456806
1.121000922
1.121427073
1.123285798
1.126314371
1.128985946
1.128160644
1.127098603
1.127621016
1.130031479
1.130220866
1.129312441
1.127772613
1.127563395
1.128195301
1.129104959
1.129303882
1.129725535
0.6286927302
0.62916869
0.9295436113
1.104641432
1.10560501
1.109630246
1.123869482
1.118812216
1.11815745
1.11649097
1.116744849
1.117627166
1.118833106
1.120634678
1.120325722
1.118818981
1.117883924
1.117649068
1.118713221
1.121915545
1.126145079
1.126715311
1.124443371
1.122585256
1.123167892
1.125514754
1.126322654
1.12582495
1.125158575
1.125362634
1.126025765
1.126529358
1.126520772
1.12680942
0.6287167771
0.6303205392
0.7400954376
1.036263741
1.110758977
1.102146792
1.119043876
1.120037458
1.115778481
1.114600359
1.114822287
1.116632101
1.116880706
1.117502366
1.1174961
1.115944911
1.115234618
1.11573879
1.117675426
1.121565629
1.123446498
1.122868019
1.1205633
1.118786619
1.119377155
1.121820768
1.123111939
1.122913534
1.122976029
1.123611893
1.124000879
1.123807032
1.123438883
1.123574071
0.6291330494
0.6308568458
0.6323187911
0.9275081138
1.104566975
1.095720796
1.110227516
1.118819065
1.112934452
1.113670655
1.113687503
1.115429948
1.11468289
1.114067235
1.114044755
1.113279231
1.113458008
1.115347634
1.117999304
1.119454422
1.119388131
1.118794292
1.116510694
1.115545006
1.116655878
1.119595038
1.121237387
1.121176094
1.121639983
1.122121015
1.121818972
1.121079931
1.120487552
1.120578128
0.6307553803
0.6313919967
0.6329855977
0.7535431916
1.06101908
1.099932569
1.099588262
1.11652955
1.110057297
1.112838353
1.11210313
1.113003036
1.112265329
1.110402568
1.110519586
1.111040839
1.112585963
1.116056178
1.117243316
1.116144397
1.115662836
1.114411087
1.112949391
1.112984328
1.114992703
1.118929115
1.120316373
1.120168727
1.120312283
1.119993623
1.119236279
1.118427287
1.117944651
1.118245604
0.6342202812
0.6345584514
0.6359132933
0.6364349602
0.9318105616
1.096970112
1.090563742
1.11249508
1.107728817
1.111316109
1.110183771
1.109813746
1.109422688
1.10736819
1.107563099
1.109756442
1.112971155
1.115152721
1.115106965
1.113226479
1.111700671
1.111009345
1.110288218
1.111346223
1.115179204
1.118486313
1.118518238
1.117842217
1.117435752
1.117023188
1.116397829
1.115781129
1.115727296
1.11643142
0.6363255781
0.637401222
0.6384071898
0.6393484791
0.7569916915
1.071979396
1.083546976
1.105221368
1.108260442
1.108346746
1.108301914
1.106215495
1.106377196
1.105102825
1.105876662
1.109813715
1.111940632
1.112071399
1.112032737
1.111276744
1.109795265
1.108954796
1.10869196
1.111430387
1.115204305
1.116022789
1.115388741
1.114704442
1.114210847
1.113892618
1.113597971
1.113317037
1.113711259
1.114960233
0.638509055
0.6395288355
0.6412691216
0.641531811
0.9403278
1.086925468
1.09205281
1.108650767
1.10370452
1.105544785
1.102981021
1.103569868
1.103970154
1.105285512
1.108712997
1.108845622
1.108420749
1.108095246
1.107949616
1.107965712
1.107742271
1.108622337
1.110613012
1.11255652
1.113207553
1.11242523
1.111549261
1.111244834
1.111295275
1.111415107
1.111472373
1.112213876
1.113719576
0.6388803972
0.6396634603
0.6414103653
0.6428378679
0.7576087387
1.066947156
1.074474045
1.106224552
1.09694512
1.101883374
1.100071638
1.101100618
1.104254359
1.105059437
1.105678065
1.105509559
1.104626348
1.104256577
1.105234473
1.106515656
1.108166198
1.108170227
1.107717162
1.109891771
1.11080433
1.110066861
1.109154661
1.109209273
1.10975532
1.110290092
1.110597597
1.111287035
1.111961853
1.112570884
0.6394443265
0.6400722473
0.641565198
0.6437618455
0.6447698432
0.9440828397
1.064941583
1.101786761
1.092372838
1.098466531
1.098373703
1.099574123
1.103931803
1.103826526
1.102692843
1.102347951
1.101421251
1.101557509
1.103732161
1.106955188
1.108019142
1.106213322
1.105706499
1.109267479
1.109460788
1.108199048
1.107477229
1.108036738
1.109324087
1.11015718
1.109942516
1.10958459
1.109432012
1.10991842
0.6412297932
0.6418910634
0.6428789389
0.6443533768
0.6455826449
0.7606552883
1.05031828
1.091281987
1.093000906
1.096007739
1.098654747
1.098573021
1.101675229
1.101934761
1.100441489
1.100579455
1.100159128
1.100212239
1.103367014
1.106485611
1.105663947
1.104230942
1.105223287
1.107812746
1.107641973
1.106555102
1.106581282
1.107911537
1.109124862
1.109243188
1.108203284
1.107208913
1.106955575
1.107676547
0.6448153075
0.6454948249
0.6462813049
0.6475918886
0.6487055441
0.6486769693
0.9633825214
1.057981129
1.094840915
1.090285791
1.097695264
1.096162381
1.097888085
1.099355389
1.098265614
1.098444287
1.09929736
1.100097803
1.102744352
1.103809739
1.102538643
1.101934203
1.103375608
1.105479623
1.106021347
1.105552365
1.106352349
1.107565811
1.107894512
1.10713163
1.105686925
1.104907888
1.105008596
1.106087834
0.6467263137
0.6475810007
0.6484602504
0.6497025466
0.6509924163
0.6509353639
0.7720606171
1.019496335
1.092843531
1.083000004
1.095120809
1.092894089
1.093213322
1.096095517
1.096045187
1.096362841
1.098376829
1.100296918
1.100573456
1.100508033
1.098921513
1.09841704
1.100399761
1.103242737
1.105348889
1.105115126
1.105256981
1.105669228
1.105403506
1.104290712
1.102791859
1.102499718
1.103236037
1.104990121
0.6474153718
0.648399073
0.6492969103
0.6504245697
0.6518110717
0.6529361193
0.6559210865
0.9653666516
1.084353523
1.077492316
1.091511177
1.091083635
1.089356487
1.092867148
1.09412
1.094938178
1.097942029
1.099300734
1.098514522
1.097076788
1.094840347
1.094749493
1.097501037
1.102313611
1.104350577
1.103211107
1.102286121
1.102606017
1.102266205
1.100923762
1.099891647
1.099991456
1.101477
1.10415096
0.647724522
0.6487425993
0.6495443213
0.6506703215
0.6519895518
0.6536279231
0.653853814
0.8025334816
1.031406158
1.080716182
1.084741951
1.091036852
1.086960751
1.090165965
1.093004613
1.093954968
1.095861104
1.096687466
1.096320053
1.094455702
1.091524892
1.091588244
1.095409984
1.101117928
1.10128777
1.099824271
1.098945657
1.099310596
1.09899835
1.097990742
1.09740481
1.09804684
1.100197534
1.103361561
0.6495659525
0.650142649
0.6512809249
0.6526874872
0.6538060248
0.6546224928
0.6641009153
0.9592520465
1.079451291
1.072821465
1.089304991
1.087267164
1.088594467
1.092591541
1.092062302
1.092493096
1.093381924
1.093316513
1.091802762
1.088795486
1.089275925
1.0937359
1.098077986
1.097590053
1.09653351
1.09590589
1.096616666
1.09654079
1.09590999
1.095845893
1.097219727
1.099704072
1.101780227
0.6527863334
0.6529256943
0.6538595599
0.6548523481
0.6556591086
0.6565967918
0.6569839121
0.8310894391
1.063479718
1.062917716
1.087162073
1.088970374
1.086634674
1.090581069
1.09006356
1.089450615
1.089653632
1.09014955
1.089827233
1.087395243
1.087810618
1.091377762
1.09468574
1.094240847
1.093185366
1.093513138
1.094790109
1.095205617
1.095173133
1.095716396
1.096958115
1.097857515
1.098829142
0.6556380259
0.6562384288
0.6569991824
0.6579425711
0.6588082766
0.6591312957
0.659042346
0.6891543293
0.9870170913
1.066281388
1.08654042
1.089856149
1.08457965
1.087819661
1.089236559
1.086982627
1.086691075
1.087920467
1.089088845
1.087474798
1.086807747
1.089695962
1.092005828
1.090887261
1.090879299
1.091933116
1.093786853
1.095161955
1.095563499
1.095361322
1.095134337
1.095224003
1.095773515
0.6568715311
0.6576672746
0.6583557707
0.659365245
0.6603584623
0.6610841419
0.6617921879
0.6613716339
0.8669585393
1.062629293
1.076201949
1.088214786
1.084155012
1.085447433
1.087978938
1.086052633
1.084893351
1.087003654
1.089065629
1.087479802
1.087101511
1.089784843
1.090066385
1.088972088
1.089220649
1.091155153
1.094118254
1.095275608
1.094752962
1.093729267
1.092953013
1.093032355
1.09364878
0.6573749109
0.6582057034
0.6587679796
0.6598362915
0.6609304568
0.6617042333
0.6624907179
0.6631511323
0.7253031275
1.034432703
1.056740959
1.085827708
1.085878157
1.083177306
1.086048056
1.085140866
1.084310985
1.086701451
1.087678245
1.086034374
1.08724473
1.091055646
1.090181439
1.088024421
1.08853987
1.091602374
1.093714635
1.093577594
1.092577714
1.091634172
1.09107074
1.0913526
1.091985336
0.65802585
0.6588214956
0.6592226846
0.6601650594
0.6612919557
0.6621653297
0.6627008502
0.6639942184
0.6646076586
0.9014640388
1.041791226
1.081958626
1.086554531
1.080976278
1.084229132
1.085081694
1.085042636
1.085768563
1.084962913
1.08386024
1.085404179
1.089006463
1.088742071
1.08747325
1.088723568
1.090822232
1.09169513
1.091348757
1.090286769
1.089409026
1.089091227
1.089959821
1.090989697
0.6600103018
0.6606462046
0.661128746
0.6617259481
0.6624022306
0.6632615762
0.663628379
0.6643994314
0.6653652615
0.7573422048
1.036316343
1.06715069
1.084608929
1.078836362
1.081113294
1.085020122
1.085803862
1.084782021
1.082075272
1.080177236
1.083045287
1.087044933
1.088450902
1.08748793
1.087885382
1.08911284
1.089259579
1.088940004
1.087778485
1.087298016
1.087506752
1.089069075
1.090865202
0.6636019798
0.6641580877
0.6645684086
0.6651704613
0.6657766969
0.6664291169
0.6666036794
0.6668211501
0.6668766782
0.6716161109
0.9629673666
1.046123925
1.082290095
1.078719883
1.078978017
1.084034295
1.08515291
1.083779491
1.079517643
1.077299868
1.081302448
1.086768655
1.088019254
1.086214365
1.086289436
1.087528778
1.087548703
1.086795188
1.085977644
1.08581842
1.086846878
1.089445232
1.090802024
0.6660782021
0.6665219495
0.6671298844
0.6678702061
0.668587638
0.6690055339
0.6693324304
0.6699989552
0.669448414
0.8014669058
1.025410438
1.075841608
1.081393393
1.076717508
1.081702409
1.083348085
1.082134284
1.077498317
1.075445771
1.079749882
1.085915679
1.085497541
1.084057295
1.084586181
1.085822414
1.085689918
1.085365548
1.084970271
1.085521719
1.087267806
1.089215894
1.089251722
0.6667423603
0.6673165244
0.667914955
0.668687313
0.6693328675
0.6699914369
0.6703802462
0.6710828932
0.6714359623
0.6917482701
0.9897867152
1.053939923
1.081503494
1.074839736
1.078376193
1.080436995
1.080880873
1.077831997
1.073986004
1.077919001
1.08351354
1.082710791
1.081832257
1.082678251
1.083805628
1.084229692
1.084409938
1.084890005
1.085915596
1.086904254
1.087366006
1.087179163
1.086257734
0.6671635803
0.6677115409
0.6684590423
0.6692535843
0.6697217359
0.6702960978
0.670887163
0.6714855654
0.6725338336
0.6726252135
0.8614003294
1.028184224
1.079483568
1.075395474
1.07471048
1.076332538
1.080444674
1.078195219
1.073019119
1.076646013
1.080902279
1.079723701
1.079446003
1.080870503
1.082210479
1.083211587
1.084425249
1.084955931
1.085327936
1.085621983
1.085403188
1.084965775
1.084343466
0.6690173277
0.6693165144
0.6694555793
0.6701918662
0.6709547965
0.6712629264
0.6714269403
0.6720380623
0.6729290158
0.673697637
0.7216967797
1.004875942
1.07231321
1.076272762
1.071608916
1.073482139
1.079579105
1.077478117
1.071793764
1.076321396
1.078333932
1.077074928
1.077542447
1.079394439
1.081350489
1.083302601
1.083840284
1.083604196
1.083710255
1.084176992
1.083937169
1.083372015
1.082786015
0.6721143557
0.6727673046
0.6730263619
0.67316309
0.6735991822
0.6739250995
0.6741270492
0.6741249
0.6743074081
0.6749385421
0.6753347291
0.9092756823
1.038531394
1.074823451
1.068921531
1.071701431
1.077795201
1.075374885
1.070260581
1.07667088
1.077335869
1.075351719
1.07612383
1.078498522
1.081373695
1.082467235
1.081848809
1.081611809
1.081694404
1.082432239
1.082392831
1.081874803
1.081713223
0.6743023522
0.6746425574
0.675178694
0.6757777436
0.6760895655
0.676301366
0.6764387396
0.676847465
0.6772615339
0.6773417882
0.6766549228
0.7612452282
0.9963184965
1.072163924
1.069664361
1.072205328
1.07326539
1.070388225
1.068198837
1.0763546
1.076831107
1.074081624
1.075237595
1.078609232
1.080741499
1.080464432
1.079455618
1.079159914
1.079515422
1.080620376
1.080894513
1.080778842
1.081047472
0.6753203347
0.6756891749
0.6760940621
0.6766782441
0.6772321038
0.6775384578
0.6776093629
0.6779095493
0.6785456288
0.679101206
0.6789957665
0.6835473336
0.9465940117
1.058227796
1.070194379
1.07141245
1.067834918
1.06606794
1.066459773
1.076126575
1.075799843
1.072786127
1.074779268
1.078198943
1.078831388
1.078290489
1.07704545
1.076783859
1.077378405
1.079090275
1.079958654
1.080146501
1.079653693
0.6757394111
0.676619679
0.6769606274
0.6772349269
0.6777173246
0.6781485191
0.6784479119
0.6785778202
0.6789296612
0.6796683847
0.6804724869
0.6801346415
0.8180137682
1.012979448
1.069212703
1.069028099
1.064813061
1.064005226
1.066254132
1.076820799
1.074997063
1.0717696
1.073682748
1.076562969
1.076557603
1.075885426
1.07470044
1.074752376
1.075899724
1.078526402
1.079250043
1.078717666
1.07720712
0.6780357148
0.6782688569
0.6789156876
0.6790770377
0.6790656218
0.6790689094
0.6796554411
0.6797858595
0.6801086415
0.6809689525
0.6815991199
0.700518679
0.9644652922
1.06447476
1.063561934
1.064367262
1.06426059
1.066627823
1.077591615
1.073674762
1.069697001
1.071731896
1.074198026
1.07410162
1.073532891
1.073022312
1.073496163
1.075461324
1.077491226
1.077463589
1.076701457
1.075050323
0.6813613195
0.6813383367
0.6811794452
0.6817593098
0.6819702038
0.6817942084
0.6813792544
0.6819031258
0.6822933446
0.6819440432
0.6826451515
0.682947813
0.8637072607
1.0303622
1.060913741
1.06804126
1.065042297
1.065961454
1.076905897
1.070334979
1.06674063
1.06958399
1.071582035
1.071958285
1.071998886
1.072298875
1.07312018
1.074771157
1.076051827
1.07595921
1.075199535
1.073561496
0.6828841234
0.6832681691
0.6835930196
0.6837529631
0.6838969664
0.6839599897
0.6840060601
0.6841273503
0.6845044336
0.6845892535
0.6836776323
0.6839714496
0.73394048
0.974286015
1.060948443
1.068608433
1.06373541
1.064236416
1.075691768
1.066903555
1.064349561
1.067766722
1.069745518
1.070892858
1.071752572
1.072006512
1.072509017
1.074076583
1.075254317
1.075165159
1.074175551
1.072956962
0.684100608
0.6841306234
0.6844940917
0.6849476965
0.6851140907
0.6850639963
0.6850840079
0.6854209502
0.6856320931
0.6860245074
0.6860114731
0.6852664156
0.686485837
0.9035287544
1.046756733
1.065404688
1.058065887
1.059539824
1.074616893
1.063404821
1.063138681
1.06706585
1.069627042
1.071184351
1.071338942
1.071753136
1.072338524
1.073948476
1.074875801
1.074678266
1.073883217
1.073185031
0.6854200442
0.6856985853
0.6854683236
0.6855680294
0.6859465051
0.6861912471
0.6860137527
0.6860272024
0.6863972193
0.6867747052
0.6873119669
0.6873259741
0.6869297751
0.7801582407
0.9977888537
1.059022938
1.045414601
1.052796063
1.074855375
1.061606151
1.063174516
1.067844135
1.070205764
1.071422226
1.071233062
1.071388679
1.071889289
1.073692259
1.074923579
1.075039874
1.074623333
1.074536596
0.6878058716
0.6878968649
0.687924382
0.6880714747
0.6881665406
0.6880317388
0.6879918406
0.6880469117
0.688068455
0.688079878
0.6881072872
0.6885653591
0.6885998024
0.6968422665
0.9248999906
1.041980554
1.038554829
1.050857044
1.07791309
1.062199373
1.06539696
1.070512135
1.072354615
1.072934355
1.072636282
1.072309012
1.072338673
1.073832153
1.075396374
1.076124883
1.075726691
1.075537076
0.6896965297
0.6896973509
0.6895022531
0.6896308722
0.68987828
0.6899073079
0.689636314
0.6896849816
0.6898680385
0.6899459774
0.6896805446
0.6894823886
0.689713292
0.6897739497
0.8209260912
1.026107347
1.039796767
1.057325779
1.084314831
1.064505263
1.06970656
1.073759192
1.074853832
1.074832831
1.074376976
1.07361724
1.073355353
1.07469398
1.076609923
1.07769704
1.077233719
1.076584607
0.6908111755
0.6908725072
0.6906452304
0.6906273839
0.6908223605
0.6908775865
0.6907244377
0.6906397031
0.6907453699
0.6908113743
0.6908004587
0.6906270099
0.6906740516
0.6907378805
0.7148937672
0.9931328458
1.047646899
1.069422189
1.091214714
1.068301767
1.075596234
1.077210786
1.076798118
1.075869722
1.074795432
1.074237782
1.074522563
1.076416619
1.078276319
1.078822611
1.078368804
1.077170709
0.6915269115
0.6915195326
0.6912823854
0.6911910255
0.6913763252
0.6914672153
0.6912810199
0.6911520734
0.6912301409
0.6912814431
0.6912420456
0.6910847266
0.6910955981
0.6911756932
0.6915372665
0.8748294622
1.048004771
1.079356535
1.09574364
1.070109997
1.07758684
1.077227964
1.076619512
1.075865024
1.07506916
1.075181092
1.075884771
1.077652515
1.079211385
1.078977586
1.078337883
1.077243153
0.6950343859
0.6948423235
0.6945157738
0.6945148305
0.6945604331
0.6944230878
0.6941517978
0.6941030491
0.6941244043
0.6941090122
0.6939270801
0.6937991684
0.6938151591
0.69376744
0.7204998096
0.8754728427
1.020997653
1.045549118
1.056490577
1.078803627
1.077677094
1.073403766
1.074345669
1.074923947
1.074611454
1.074882565
1.075476873
1.076035179
1.076209117
1.076347921
1.076044096
0.7046090165
0.7044775208
0.70384031
0.703204146
0.703027049
0.7029498576
0.7025503155
0.7020113104
0.7018339908
0.7018818151
0.7017212874
0.7012466054
0.7009682047
0.7008195971
0.6996418795
0.706048687
0.7815654427
0.8985971541
1.002282812
1.048293229
1.058622752
1.062349274
1.070866037
1.071180705
1.069676538
1.069424206
1.069418438
1.069871699
1.070894722
1.072420909
1.073453176
0.715969812
0.7160009997
0.7150407099
0.7132955621
0.7131180751
0.7132280505
0.7127264111
0.711367877
0.7109220097
0.7110677939
0.7109284119
0.7099659646
0.7091166647
0.7091739555
0.709351923
0.70866294
0.709453397
0.7257941181
0.8132577347
0.9137905206
0.9930306611
1.028793214
1.055593262
1.058752836
1.061543191
1.063365392
1.06208506
1.061932632
1.06398907
1.067129383
1.068374045
0.7256064986
0.7253122742
0.7249235452
0.723602461
0.7221551448
0.7216302901
0.7214095671
0.7206361182
0.7193952736
0.7187059733
0.7185483249
0.7181620058
0.717153203
0.7164690729
0.7160160313
0.7156224893
0.7145932654
0.7136363302
0.7159457825
0.7381408451
0.8243874128
0.9246590573
1.010946565
1.033632982
1.047103216
1.052953284
1.051399487
1.052299852
1.056747408
1.059392081
1.059357805
0.7356401059
0.735409668
0.7354452031
0.7342939163
0.7315505612
0.730661044
0.7308264904
0.7303547719
0.7284118448
0.726796404
0.7268550271
0.7267559513
0.7256163669
0.7238178071
0.723774358
0.7239415886
0.723368915
0.7223054097
0.7215561006
0.7219626248
0.7250908203
0.7592904467
0.8383912023
0.938082181
1.009147385
1.036929649
1.036356485
1.044253837
1.052454384
1.052332591
1.051548604
0.7469146188
0.7447337091
0.7442839252
0.7437439824
0.7418287117
0.7395745546
0.7388819572
0.7385930924
0.7374938126
0.7355217656
0.7343618825
0.7340903485
0.7335534326
0.7320864501
0.7309503323
0.7306161481
0.7303616389
0.7293740438
0.7277509439
0.7266469095
0.725836486
0.7261242712
0.7301979349
0.7759952698
0.861877957
0.9496697364
0.9990781619
1.033754167
1.042716791
1.037938098
1.041714321
0.7587460781
0.7543948205
0.7535660298
0.7536530413
0.7524910258
0.7490147184
0.7471147204
0.7472527196
0.7468107437
0.7445805397
0.7420032248
0.7419142508
0.7418430619
0.740605046
0.7383568146
0.7376809471
0.7378128664
0.7374654301
0.736109499
0.7345987644
0.7344153215
0.7339675105
0.732084623
0.732482176
0.74047332
0.7891268968
0.8818936991
0.9632491169
1.000161327
1.015636173
1.037473158
0.7693487047
0.7656121848
0.762606923
0.7621192768
0.761554471
0.7592493176
0.7560492968
0.7549483815
0.7546607891
0.753463716
0.7508467367
0.7492751303
0.7490132319
0.7483198211
0.7466976122
0.7451108841
0.744289161
0.7438880916
0.7429929894
0.7412322363
0.7398518134
0.7395306135
0.7383917827
0.7363274418
0.7365997401
0.7377032031
0.7509754064
0.7972789621
0.8876767801
0.9772183312
1.02334646
0.7799020061
0.7773803543
0.7721492464
0.7705819576
0.7707063137
0.7695791012
0.7657110246
0.7626779755
0.7627276524
0.7624079025
0.7601157794
0.7567535201
0.7563875642
0.7562062263
0.7550962002
0.7532379014
0.7509952153
0.7504553602
0.7504614687
0.7493722856
0.7470738507
0.7467269065
0.746466364
0.7447704555
0.7433081147
0.7422837492
0.7420805227
0.7430821183
0.7586282013
0.8200023664
0.9025260117
0.7888563997
0.7875303676
0.7833711425
0.7793112042
0.778634587
0.7780944506
0.7756847647
0.7717336356
0.7700916078
0.7698386845
0.7686899652
0.7655691715
0.7635705095
0.7632520211
0.7623267163
0.7609333027
0.7591122677
0.7570891043
0.7565561184
0.7559847613
0.7540456685
0.7522800136
0.7518232973
0.750597113
0.7489389557
0.7484028682
0.7473360119
0.7459414078
0.7462394362
0.7483618018
0.7666636806
0.7975058966
0.7972407573
0.7949990323
0.7893508588
0.7863486901
0.7864003424
0.7854828499
0.7818058565
0.777558004
0.7772104628
0.7770240728
0.7748902484
0.7710249515
0.7702993331
0.7697420733
0.7685875249
0.767198451
0.7645656906
0.7626903019
0.7626114435
0.7617187495
0.7593110117
0.758662941
0.7581141216
0.7564405772
0.755464027
0.7546549405
0.7527578881
0.7518302019
0.7509348827
0.7506625887
0.8066072273
0.8058293827
0.8046352456
0.8006542969
0.7954037388
0.794032341
0.7935272459
0.7913491703
0.7869258756
0.7843310811
0.7840729832
0.7830549234
0.7797071611
0.7773800415
0.7765882108
0.775438709
0.7741978792
0.7723204246
0.7695921618
0.7688717342
0.7683008142
0.7660935759
0.7643466942
0.7638034001
0.7623589204
0.7609008099
0.7602256093
0.7586547126
0.7572818788
0.7568554208
0.755528615
0.8175920829
0.8141133369
0.8136065692
0.8116541628
0.8063304327
0.8017234178
0.8012345324
0.8003945031
0.7972288799
0.7921405494
0.7909193318
0.790728786
0.7888159425
0.7852488412
0.7834426308
0.7821447441
0.7812134381
0.7800454026
0.777145049
0.7749754101
0.7746837992
0.7733863894
0.7709122217
0.7703514814
0.7695024278
0.7678831231
0.7668934331
0.7655995327
0.7635548241
0.7630497497
0.762376884
0.8299345954
0.8234741586
0.8219339164
0.8207739647
0.8171888073
0.8113694448
0.8087597476
0.8081342112
0.8062738024
0.801849218
0.7980750594
0.7975829164
0.7965972161
0.7935435421
0.7908902547
0.7889728704
0.7876679596
0.7867520257
0.7847112569
0.7815977534
0.7808899248
0.7800966256
0.777403005
0.7760212823
0.7752709494
0.7736619157
0.7724517771
0.7713379886
0.7689577471
0.7679646051
0.76780783
0.8421061373
0.8350586617
0.8300435789
0.8291340798
0.8273450036
0.8226000353
0.8168739749
0.8154097831
0.8146079064
0.8119878602
0.8065722977
0.8041949366
0.8038371824
0.8019918648
0.7990382287
0.7964123343
0.7940291722
0.79319674
0.792133066
0.7890241981
0.787012
0.7864760363
0.7844875307
0.7821668563
0.781538482
0.780165762
0.7787303297
0.7779515073
0.7761111378
0.7740460286
0.7736130114
0.8520875391
0.8470934524
0.8398720106
0.8370305293
0.8358021456
0.8327139428
0.8269896706
0.8228846702
0.8219277911
0.8204201422
0.8164131026
0.8116711223
0.8106384283
0.8094643681
0.8068361221
0.8041727932
0.8012065902
0.7995167103
0.7987208726
0.7964634488
0.7933070189
0.7925622033
0.7913169994
0.7884630571
0.7873528632
0.7861872695
0.7841873451
0.7831925469
0.781912233
0.7794180845
0.7785574951
0.8610296355
0.8583539237
0.8519772523
0.8453330368
0.8435462155
0.8419042237
0.8379639001
0.831759774
0.828769717
0.8279706635
0.8259526111
0.8208718866
0.8173307393
0.8164077128
0.814626864
0.8122449162
0.8091671202
0.8057748924
0.8049315863
0.8038245383
0.8005218742
0.7987111573
0.7978203761
0.7952470609
0.7933804104
0.7924288693
0.7903601082
0.7889371351
0.7881902766
0.7861265908
0.784505314
0.8693358974
0.8675381197
0.8632240941
0.8557614658
0.8512839863
0.849890394
0.8473366882
0.8420965066
0.8365360952
0.8348682909
0.8337014296
0.8303569923
0.825288729
0.8231537715
0.8216334346
0.8196015635
0.8171049964
0.8132296952
0.8110396316
0.8103360276
0.8079498254
0.8050536306
0.8039860082
0.801959605
0.7994100547
0.798398977
0.7966529899
0.7943217772
0.7934728599
0.7919434784
0.7895001526
0.8780518644
0.8757918095
0.873390506
0.8678287659
0.860175579
0.8572179985
0.8557142526
0.8524752364
0.8463272076
0.8415863762
0.8406245592
0.8390573978
0.8347817987
0.8303976676
0.8282495358
0.8265670518
0.8248434881
0.8217034212
0.8173286627
0.8163134119
0.8151700346
0.812162817
0.8103309814
0.8086377978
0.8055913225
0.8043466191
0.8031987822
0.8004256608
0.7989617127
0.7980785678
0.7957672925
0.8891340738
0.8837634587
0.8819265771
0.8783590081
0.871217916
0.8649938256
0.8631321159
0.8610328638
0.8565267797
0.8501436776
0.8473156479
0.8462932909
0.8435436081
0.8388089119
0.835280664
0.8331542586
0.8316635305
0.8294936993
0.825104414
0.8223056429
0.8215461732
0.8192408216
0.8167192699
0.8151168481
0.8122069999
0.8101304535
0.8091876932
0.8069013857
0.8044269401
0.8035772956
0.8017647912
0.9025490925
0.8929556716
0.8896181453
0.8875451835
0.8829050826
0.8749101984
0.8701726591
0.8685905077
0.8659949668
0.8605887537
0.8545118926
0.8528392373
0.8514174243
0.8479810078
0.8434077653
0.8397453204
0.83796055
0.8366661287
0.8336944529
0.8288415559
0.8274576353
0.8261080535
0.8235148973
0.8216708881
0.8191280242
0.8159757937
0.8149860311
0.8135288586
0.8104309319
0.8091343951
0.8079563434
0.9144819848
0.9049392929
0.8975848556
0.8954366518
0.8924726609
0.8860516999
0.8785181204
0.875680701
0.8738877861
0.8701739495
0.8637216464
0.85946151
0.8582675067
0.8560410123
0.8519909214
0.8474307016
0.8443066354
0.8430467336
0.8411825509
0.836744186
0.8334775882
0.8323579116
0.8301323378
0.8279828731
0.8258745117
0.8223695203
0.8206401926
0.8195669003
0.8167906272
0.8145994473
0.8136318962
0.9244344692
0.9180214234
0.9079172835
0.9027983029
0.9007011478
0.8967796633
0.8892510809
0.882865072
0.8809012892
0.8787477623
0.8741108562
0.8673269439
0.864523703
0.8631893697
0.8605118932
0.8562295887
0.8513039306
0.8489407192
0.8478575294
0.8451547856
0.8403724694
0.8383245158
0.8365299359
0.8342975719
0.8325389351
0.8294284652
0.8262575403
0.8252339286
0.8233517092
0.8204389746
0.8192497139
0.9332174079
0.9290720602
0.9204519635
0.9113435618
0.908174526
0.9055825075
0.900117266
0.892017739
0.8876679762
0.8859825197
0.8830107595
0.8770897306
0.8714240036
0.8696031513
0.8677681133
0.8644288131
0.8595660133
0.8552663999
0.8539183573
0.8523282689
0.8482627773
0.8446809583
0.8426958476
0.8403206771
0.8385889753
0.8363271149
0.8325734709
0.8307776981
0.8293334157
0.8263714238
0.8246603028
0.9406949823
0.9378197462
0.9324702547
0.92274976
0.9155302218
0.9131297256
0.9098918383
0.9033199702
0.8954603328
0.8924229706
0.8906141656
0.8869614803
0.8804001346
0.875801691
0.8741491044
0.8720160673
0.8683723475
0.8628613319
0.8595004429
0.8585013265
0.856185894
0.8520724885
0.8490712536
0.8462182257
0.844255519
0.8428252026
0.8397169408
0.8364615456
0.8349388126
0.83250357
0.830191714
0.9500619833
0.9459697306
0.9425388271
0.9352920884
0.9252202553
0.9203358129
0.9179379108
0.9135083094
0.9056542447
0.8993272766
0.8973068284
0.8950100256
0.8900644175
0.8834427362
0.8802625208
0.8786073234
0.8760156193
0.871461785
0.8659730933
0.8640764755
0.8627010125
0.8594606643
0.8559715825
0.8527069035
0.849779606
0.848488235
0.8464125395
0.8427294997
0.8405055444
0.8384386668
0.8357219893
0.9619928117
0.9531294226
0.9500607888
0.9457955753
0.9373285153
0.928221459
0.9248063698
0.9220736572
0.9167126352
0.9083866362
0.9035617096
0.9018287201
0.8989705905
0.8931077199
0.8868418077
0.8844268336
0.8827289071
0.8798320079
0.8743356709
0.8695076489
0.8682608449
0.8663541
0.8632706456
0.8598636655
0.8556149378
0.8536379784
0.8525166688
0.8497047422
0.8463823186
0.8441141353
0.8413392061
0.9757398743
0.9637725568
0.9575806584
0.9546701194
0.9490876163
0.9392260461
0.9320235771
0.9294207076
0.9259678792
0.9190934636
0.9111148381
0.9080438996
0.9062028073
0.9022886778
0.8955234516
0.8904766678
0.8886424843
0.8866858396
0.882810398
0.8767237266
0.8736263452
0.8722149574
0.8698206916
0.8667624694
0.862531898
0.8588692845
0.8578615522
0.8561022052
0.8526949249
0.8498710861
0.8470519743
0.9857916996
0.9765591933
0.9654538278
0.9611908618
0.9578111961
0.9509694984
0.9409735268
0.9357427279
0.9333244489
0.9291466529
0.9213407692
0.9144077558
0.9122860791
0.9100765513
0.9053216787
0.8982291536
0.894150419
0.8925310219
0.890267496
0.8855444196
0.8796727291
0.8774089216
0.8757549428
0.8734613162
0.8700414614
0.864847423
0.8626543524
0.8617421626
0.8593546184
0.8561167481
0.8530128956
0.9935229751
0.9883026273
0.9776543907
0.9684891173
0.9653911788
0.9613582738
0.952860167
0.9435253738
0.9399973781
)
;

boundaryField
{
    inlet
    {
        type            fixedValue;
        value           nonuniform 0();
    }
    outlet
    {
        type            inletOutlet;
        inletValue      nonuniform 0();
        value           nonuniform 0();
    }
    bottom
    {
        type            slip;
    }
    top
    {
        type            slip;
    }
    obstacle
    {
        type            zeroGradient;
    }
    defaultFaces
    {
        type            empty;
    }
    procBoundary28to21
    {
        type            processor;
        value           nonuniform List<scalar> 
19
(
0.6272610545
0.6276650574
0.6278712366
0.6291299284
0.6326937928
0.6350157454
0.6371126533
0.6371126533
0.6374864838
0.6381654584
0.6403261037
0.6438782102
0.6455157198
0.6460504528
0.6464320922
0.6487016891
0.6487016891
0.6518869715
0.6547091458
)
;
    }
    procBoundary28to22
    {
        type            processor;
        value           nonuniform List<scalar> 
35
(
1.123988145
1.12220328
1.122744563
1.124341397
1.125444432
1.126192198
1.126678588
1.126262846
1.125892087
1.126669071
1.127859834
1.129540205
1.130766977
1.131194365
1.131578526
1.133677789
1.133668513
1.132348245
1.130355948
1.130121373
1.130764026
1.131612509
1.131893048
1.132262688
0.6267594327
0.7060317396
1.020793013
1.115358899
1.104213905
1.117818695
1.126575108
1.119675768
1.120995616
1.12049772
1.12049772
)
;
    }
    procBoundary28to23
    {
        type            processor;
        value           uniform 1.130143623;
    }
    procBoundary28to27
    {
        type            processor;
        value           nonuniform List<scalar> 
55
(
0.655883981
0.6562724549
0.656778172
0.6592208777