/*--------------------------------*- C++ -*----------------------------------*\
  =========                 |
  \\      /  F ield         | OpenFOAM: The Open Source CFD Toolbox
   \\    /   O peration     | Website:  https://openfoam.org
    \\  /    A nd           | Version:  7
     \\/     M anipulation  |
\*---------------------------------------------------------------------------*/
FoamFile
{
    version     2.0;
    format      ascii;
    class       volScalarField;
    location    "2.6";
    object      T;
}
// * * * * * * * * * * * * * * * * * * * * * * * * * * * * * * * * * * * * * //

dimensions      [0 0 0 1 0 0 0];

internalField   nonuniform List<scalar> 
22
(
1.0392757
1.041647917
1.04305075
1.043823095
1.036660775
1.037516792
1.038692228
1.038796969
1.033177705
1.032987483
1.033114538
1.028256631
1.028350787
1.02914816
1.024747116
1.025470707
1.028085198
1.02523869
1.024846188
1.024641251
1.013428157
1.014969674
)
;

boundaryField
{
    inlet
    {
        type            fixedValue;
        value           nonuniform 0();
    }
    outlet
    {
        type            inletOutlet;
        inletValue      uniform 1;
        value           nonuniform List<scalar> 6(1.024653226 1.04400079 1.038698702 1.032741721 1.029001095 1.028249532);
    }
    bottom
    {
        type            slip;
    }
    top
    {
        type            slip;
    }
    obstacle
    {
        type            zeroGradient;
    }
    defaultFaces
    {
        type            empty;
    }
    procBoundary29to22
    {
        type            processor;
        value           uniform 1.048066002;
    }
    procBoundary29to23
    {
        type            processor;
        value           nonuniform List<scalar> 4(1.044268145 1.046352162 1.048139798 1.049233735);
    }
    procBoundary29to28
    {
        type            processor;
        value           nonuniform List<scalar> 7(1.045643864 1.033498113 1.033498113 1.030308369 1.027863424 1.02256616 1.002197903);
    }
    procBoundary29to35
    {
        type            processor;
        value           nonuniform List<scalar> 4(1.016835366 0.9875101356 1.016835366 0.9989729832);
    }
}


// ************************************************************************* //
