/*--------------------------------*- C++ -*----------------------------------*\
  =========                 |
  \\      /  F ield         | OpenFOAM: The Open Source CFD Toolbox
   \\    /   O peration     | Website:  https://openfoam.org
    \\  /    A nd           | Version:  7
     \\/     M anipulation  |
\*---------------------------------------------------------------------------*/
FoamFile
{
    version     2.0;
    format      ascii;
    class       volVectorField;
    location    "1.3";
    object      U;
}
// * * * * * * * * * * * * * * * * * * * * * * * * * * * * * * * * * * * * * //

dimensions      [0 1 -1 0 0 0 0];

internalField   nonuniform List<vector> 
555
(
(3 -3.743874417e-15 0)
(3 -1.291087872e-15 0)
(3 -1.862593374e-15 0)
(3 -1.079593843e-15 0)
(3 4.355134278e-15 0)
(3 5.968959847e-15 0)
(3 7.27515606e-15 0)
(3 2.417702e-15 0)
(3 3.212647798e-16 0)
(3 -3.213383e-17 0)
(3 -3.078867813e-13 0)
(3 -1.746831184e-11 0)
(2.999999999 -1.122591737e-09 0)
(2.999999968 -3.573587334e-08 0)
(2.99999917 -9.02093625e-07 0)
(2.999985537 -1.585203546e-05 0)
(3 -1.628477859e-15 0)
(3 1.535424514e-17 0)
(3 6.566728408e-16 0)
(3 -1.700771896e-16 0)
(3 6.490911681e-15 0)
(3 8.934819622e-15 0)
(3 1.47930559e-14 0)
(3 4.056520012e-15 0)
(3 7.258204218e-16 0)
(3 -4.094149233e-13 0)
(3 -3.955241108e-11 0)
(2.999999999 -1.829587835e-09 0)
(2.999999974 -6.568592553e-08 0)
(2.999999373 -1.630677417e-06 0)
(2.999989245 -2.794380038e-05 0)
(2.99987742 -0.000320078959 0)
(3 -3.347698525e-15 0)
(3 3.906412173e-15 0)
(3 5.228349103e-15 0)
(3 6.569350964e-15 0)
(3 9.838256503e-15 0)
(3 1.508149255e-14 0)
(3 2.03391078e-14 0)
(3 3.535664217e-15 0)
(3 -6.269945848e-13 0)
(3 -2.943633594e-11 0)
(2.999999999 -2.214289996e-09 0)
(2.999999976 -6.130874515e-08 0)
(2.999999366 -1.603613136e-06 0)
(2.999988932 -2.864013124e-05 0)
(2.99987847 -0.0003083573538 0)
(2.998876657 -0.002947290158 0)
(3 -4.949234492e-15 0)
(3 7.822739621e-15 0)
(3 1.101082786e-14 0)
(3 1.049717346e-14 0)
(3 1.896051741e-14 0)
(3 1.878856887e-14 0)
(3 3.227959139e-15 0)
(3 -4.350305415e-13 0)
(3 -3.895154847e-11 0)
(2.999999999 -1.807826145e-09 0)
(2.999999975 -6.183919647e-08 0)
(2.999999351 -1.682331605e-06 0)
(2.999990012 -2.515100841e-05 0)
(2.999865911 -0.000346467903 0)
(2.998952877 -0.002678899813 0)
(2.994387851 -0.01391928325 0)
(3 3.496365129e-16 0)
(3 1.027865969e-14 0)
(3 1.46049962e-14 0)
(3 1.948141904e-14 0)
(3 2.161687554e-14 0)
(3 1.220714508e-14 0)
(3 -6.687528919e-13 0)
(3 -2.714861139e-11 0)
(2.999999999 -2.113471019e-09 0)
(2.999999978 -5.540054055e-08 0)
(2.999999385 -1.542138919e-06 0)
(2.999989242 -2.781099478e-05 0)
(2.999880641 -0.0003039463858 0)
(2.998846712 -0.002890569738 0)
(2.994648819 -0.01396028916 0)
(2.977420368 -0.05430149973 0)
(3 3.943332795e-15 0)
(3 8.051324544e-15 0)
(3 1.464696112e-14 0)
(3 2.244562984e-14 0)
(3 1.596317501e-14 0)
(3 -3.78747673e-13 0)
(3 -3.453411882e-11 0)
(2.999999999 -1.600444008e-09 0)
(2.999999977 -5.614849067e-08 0)
(2.999999393 -1.571165543e-06 0)
(2.999990656 -2.345395865e-05 0)
(2.99986055 -0.0003587530745 0)
(2.999056208 -0.002448643765 0)
(2.993300125 -0.01586117251 0)
(2.982063029 -0.05024056243 0)
(2.953100987 -0.1209780962 0)
(3 4.109316004e-15 0)
(3 8.0563717e-15 0)
(3 1.634667208e-14 0)
(3 1.666965585e-14 0)
(3 -5.235436276e-13 0)
(3 -2.210275437e-11 0)
(2.999999999 -1.810551009e-09 0)
(2.999999981 -4.895234013e-08 0)
(2.999999423 -1.445825104e-06 0)
(2.999989679 -2.68738326e-05 0)
(2.999885715 -0.0002922098033 0)
(2.998795103 -0.003001540149 0)
(2.995034491 -0.01330371076 0)
(2.975669957 -0.05836648406 0)
(2.965742156 -0.1032220002 0)
(2.9215811 -0.2081244108 0)
(3 -4.196652415e-15 0)
(3 8.326116493e-15 0)
(3 5.70498272e-15 0)
(3 -2.933423504e-13 0)
(3 -2.805973099e-11 0)
(2.999999999 -1.332820744e-09 0)
(2.99999998 -5.06282784e-08 0)
(2.999999438 -1.462187266e-06 0)
(2.999990905 -2.301275483e-05 0)
(2.999861019 -0.0003615954804 0)
(2.999074061 -0.002413585495 0)
(2.992984262 -0.01660691287 0)
(2.983425425 -0.04827615982 0)
(2.950841094 -0.1308753588 0)
(2.938644567 -0.1563883011 0)
(2.913644488 -0.2099526628 0)
(3 -7.972267822e-15 0)
(3 -3.133746176e-15 0)
(3 -4.243741446e-13 0)
(3 -1.847173606e-11 0)
(2.999999999 -1.496708145e-09 0)
(2.999999982 -4.649420481e-08 0)
(2.999999459 -1.369823109e-06 0)
(2.999989831 -2.682104111e-05 0)
(2.999884893 -0.0002955644273 0)
(2.998772214 -0.00307543533 0)
(2.994994307 -0.01343544274 0)
(2.975270391 -0.0596032052 0)
(2.967453137 -0.1040322699 0)
(2.922135691 -0.2123295863 0)
(2.912786273 -0.2097871448 0)
(2.906990797 -0.224514588 0)
(3 -8.048796761e-15 0)
(3 -2.185985226e-13 0)
(3 -2.360882774e-11 0)
(3 -1.174024092e-09 0)
(2.999999981 -4.831937646e-08 0)
(2.999999454 -1.432212162e-06 0)
(2.999990781 -2.35697254e-05 0)
(2.999860927 -0.0003633790686 0)
(2.999047624 -0.002469708729 0)
(2.992800799 -0.01691520036 0)
(2.983376993 -0.0489833969 0)
(2.951250343 -0.1332203703 0)
(2.941299581 -0.1549919101 0)
(2.911231113 -0.2123210843 0)
(2.904991806 -0.2349509191 0)
(2.903942293 -0.2318241632 0)
(3 -3.18128215e-13 0)
(3 -1.711096054e-11 0)
(2.999999999 -1.273622154e-09 0)
(2.999999982 -4.817856801e-08 0)
(2.999999487 -1.30413941e-06 0)
(2.999989414 -2.798319416e-05 0)
(2.999884841 -0.0002951096123 0)
(2.998744021 -0.003133956126 0)
(2.994916365 -0.0134526753 0)
(2.97479544 -0.06028208507 0)
(2.968913948 -0.1046705349 0)
(2.923631935 -0.2162959183 0)
(2.910019629 -0.2127544417 0)
(2.90448123 -0.2261085869 0)
(2.904200562 -0.230125877 0)
(2.90474541 -0.2316903677 0)
(3 -2.083006091e-11 0)
(3 -1.157969603e-09 0)
(2.999999982 -4.711663543e-08 0)
(2.999999445 -1.459124962e-06 0)
(2.999990706 -2.390531703e-05 0)
(2.99986033 -0.0003619574195 0)
(2.99902924 -0.002517622552 0)
(2.992806551 -0.01665463145 0)
(2.983133296 -0.04968086713 0)
(2.95199121 -0.1340210444 0)
(2.943545394 -0.1555365982 0)
(2.912622432 -0.2103542367 0)
(2.903312109 -0.2351652486 0)
(2.90163788 -0.2326536307 0)
(2.903158447 -0.2317398771 0)
(2.906394053 -0.2283222213 0)
(3 -1.164850846e-09 0)
(2.99999998 -5.291857015e-08 0)
(2.999999509 -1.256693037e-06 0)
(2.999988837 -2.942265676e-05 0)
(2.999887386 -0.0002907691188 0)
(2.998722357 -0.003174770932 0)
(2.994949181 -0.01345381151 0)
(2.974742987 -0.06026595121 0)
(2.97045827 -0.1044817342 0)
(2.926296799 -0.2193717679 0)
(2.906018813 -0.2224518401 0)
(2.902208744 -0.2284484333 0)
(2.902103061 -0.2311266231 0)
(2.902481005 -0.2325302577 0)
(2.905504635 -0.228476576 0)
(2.911340301 -0.2179458629 0)
(2.999999982 -4.736156843e-08 0)
(2.999999425 -1.502888723e-06 0)
(2.999990675 -2.421608803e-05 0)
(2.999859738 -0.0003595208809 0)
(2.999024423 -0.002575507353 0)
(2.992930975 -0.01634357778 0)
(2.982546727 -0.05113975839 0)
(2.952408601 -0.1357798719 0)
(2.945793497 -0.1599982788 0)
(2.916060502 -0.2069248468 0)
(2.90385007 -0.2347389464 0)
(2.899850575 -0.2340172372 0)
(2.900758684 -0.2330433926 0)
(2.903990413 -0.2290523855 0)
(2.910578056 -0.2182785078 0)
(2.918340791 -0.2032877527 0)
(2.999999527 -1.213041414e-06 0)
(2.999988489 -2.994626766e-05 0)
(2.999889776 -0.0002866275389 0)
(2.998717928 -0.003172779818 0)
(2.994956379 -0.01357365699 0)
(2.97476405 -0.06054668855 0)
(2.968194236 -0.1052407461 0)
(2.931587583 -0.2171053779 0)
(2.904028718 -0.2378042504 0)
(2.899900284 -0.2322979023 0)
(2.900693999 -0.233316261 0)
(2.90094531 -0.2338922703 0)
(2.903501557 -0.2290939577 0)
(2.909325956 -0.2182865873 0)
(2.917512435 -0.2033281463 0)
(2.926888004 -0.1844838091 0)
(2.999990871 -2.358989018e-05 0)
(2.999861653 -0.0003486561867 0)
(2.999031853 -0.002576172129 0)
(2.993084065 -0.01614285519 0)
(2.981589203 -0.05079000178 0)
(2.950273047 -0.1385966085 0)
(2.943791839 -0.1700737327 0)
(2.920363425 -0.2104906315 0)
(2.902359496 -0.2303948284 0)
(2.900116453 -0.2355613323 0)
(2.900183355 -0.2348779961 0)
(2.902363128 -0.2303322083 0)
(2.908190339 -0.2194345256 0)
(2.916101123 -0.2044874744 0)
(2.926875213 -0.1827893147 0)
(2.935202513 -0.1659600804 0)
(2.999891374 -0.0002824124334 0)
(2.998767615 -0.003025719088 0)
(2.994841693 -0.01394477087 0)
(2.975759974 -0.05857069769 0)
(2.960692512 -0.1095361756 0)
(2.937778635 -0.2027986591 0)
(2.908425675 -0.2470593462 0)
(2.893801664 -0.2355803878 0)
(2.898675166 -0.2355967717 0)
(2.899559637 -0.2356700584 0)
(2.902604798 -0.2305990037 0)
(2.90777887 -0.2203527574 0)
(2.916293589 -0.2030142011 0)
(2.925736201 -0.1848112486 0)
(2.934280549 -0.1668330783 0)
(2.944905737 -0.1430036103 0)
(2.999074292 -0.002467166346 0)
(2.993184981 -0.01657790062 0)
(2.981418041 -0.04800685458 0)
(2.94838126 -0.1422340977 0)
(2.940892754 -0.1743117602 0)
(2.923421516 -0.2162012511 0)
(2.898674704 -0.2347918561 0)
(2.897312341 -0.236397491 0)
(2.898600662 -0.2362560319 0)
(2.901878187 -0.231682364 0)
(2.907339095 -0.2214240432 0)
(2.915824632 -0.2043701888 0)
(2.924524328 -0.1866192754 0)
(2.935158345 -0.1648531291 0)
(2.944357686 -0.1444357068 0)
(2.953258837 -0.1212825034 0)
(2.994579248 -0.01505146153 0)
(2.977996247 -0.05467170115 0)
(2.951244033 -0.1194213422 0)
(2.943321191 -0.1877381289 0)
(2.914454356 -0.2478996354 0)
(2.893106238 -0.2384534031 0)
(2.895025797 -0.2370087274 0)
(2.896561919 -0.236451078 0)
(2.900627416 -0.2322402069 0)
(2.907187431 -0.2214425843 0)
(2.915307908 -0.2058467041 0)
(2.924923575 -0.1858968253 0)
(2.935428476 -0.1639174252 0)
(2.943872029 -0.1458654455 0)
(2.953963713 -0.1209335481 0)
(2.960628988 -0.1023396354 0)
(2.982129071 -0.04602953684 0)
(2.946799038 -0.143561417 0)
(2.934096871 -0.1816537854 0)
(2.926205116 -0.2223715695 0)
(2.903651139 -0.2343015454 0)
(2.893976763 -0.2378871736 0)
(2.894989086 -0.2368853455 0)
(2.898683191 -0.2322862825 0)
(2.905914336 -0.2215159323 0)
(2.914385504 -0.2072727982 0)
(2.925146158 -0.1855632136 0)
(2.935521318 -0.1636186988 0)
(2.943563076 -0.1475071248 0)
(2.954491549 -0.121371763 0)
(2.962716907 -0.09874027133 0)
(2.970080785 -0.07777729214 0)
(2.945852792 -0.1270115547 0)
(2.940417182 -0.1819116743 0)
(2.917040254 -0.2488941224 0)
(2.899345655 -0.2437095823 0)
(2.893717833 -0.2400382446 0)
(2.894391563 -0.2386842034 0)
(2.897502598 -0.2333936469 0)
(2.904508127 -0.2220614563 0)
(2.913486131 -0.2068355084 0)
(2.924862783 -0.1855478359 0)
(2.934852 -0.1653715273 0)
(2.944666729 -0.1444117726 0)
(2.954184278 -0.1235510908 0)
(2.963866059 -0.09655268656 0)
(2.972003705 -0.07434916532 0)
(2.976742805 -0.05877345368 0)
(2.925453968 -0.1927668637 0)
(2.92738742 -0.2215763159 0)
(2.907056597 -0.2391604571 0)
(2.895128063 -0.2410126615 0)
(2.893716989 -0.239554438 0)
(2.896212333 -0.2340083066 0)
(2.902761762 -0.2230184315 0)
(2.91265303 -0.2059995694 0)
(2.923141459 -0.1878300381 0)
(2.934400935 -0.1653863449 0)
(2.946148874 -0.1410509502 0)
(2.953762895 -0.1241904631 0)
(2.965622908 -0.09433967269 0)
(2.972217282 -0.07464625834 0)
(2.980018589 -0.05225463284 0)
(2.986212045 -0.03140809561 0)
(2.913884697 -0.2486876341 0)
(2.905961969 -0.2500650185 0)
(2.894432718 -0.2427554598 0)
(2.893875301 -0.2416510974 0)
(2.89580919 -0.2358696616 0)
(2.901618368 -0.2242693903 0)
(2.911229867 -0.2071137022 0)
(2.921827828 -0.1884205203 0)
(2.934596183 -0.1641687084 0)
(2.945679445 -0.1411562696 0)
(2.955722789 -0.1199551428 0)
(2.964569331 -0.09813400807 0)
(2.974104553 -0.07022119962 0)
(2.981506879 -0.05002479518 0)
(2.986917133 -0.03097255998 0)
(2.995189288 -0.002525744821 0)
(2.907484334 -0.2423331382 0)
(2.897284029 -0.2456206384 0)
(2.895318742 -0.243180858 0)
(2.895235442 -0.2375188207 0)
(2.900498935 -0.2254539377 0)
(2.909645899 -0.2085872173 0)
(2.920961176 -0.1884954807 0)
(2.933552727 -0.1647173159 0)
(2.9455724 -0.1406291768 0)
(2.955940861 -0.1187578262 0)
(2.965682601 -0.09626973451 0)
(2.975062514 -0.06997707247 0)
(2.98336663 -0.04507840108 0)
(2.989643103 -0.02652217725 0)
(2.996685244 -0.0004403371929 0)
(3.00338579 0.02524679384 0)
(2.896952399 -0.2456519629 0)
(2.89553815 -0.2444429414 0)
(2.895794116 -0.2388661501 0)
(2.900161344 -0.22655288 0)
(2.908467919 -0.2097697854 0)
(2.920075917 -0.1880269098 0)
(2.93259991 -0.1655197215 0)
(2.944538939 -0.1417939927 0)
(2.957085864 -0.1153112266 0)
(2.965599472 -0.09672046537 0)
(2.977268443 -0.06559445682 0)
(2.984940201 -0.04291117556 0)
(2.992382329 -0.01939227314 0)
(2.998660174 0.00253516461 0)
(3.00382366 0.02555363797 0)
(3.012072796 0.05369348994 0)
(2.896503334 -0.2462487446 0)
(2.896386651 -0.2402301761 0)
(2.89957813 -0.2280603763 0)
(2.907291679 -0.2103130244 0)
(2.919009658 -0.1881454786 0)
(2.930279125 -0.1679060995 0)
(2.944488227 -0.1405883204 0)
(2.956641012 -0.1155604691 0)
(2.968416753 -0.08875342919 0)
(2.977424483 -0.06699768166 0)
(2.986885957 -0.03715055315 0)
(2.995001226 -0.0150241289 0)
(2.998898409 0.001191349382 0)
(3.006813838 0.03190491615 0)
(3.012556955 0.05356428977 0)
(3.020122264 0.07550341769 0)
(2.896954094 -0.2418837258 0)
(2.900065773 -0.2291554896 0)
(2.907371815 -0.2098192028 0)
(2.916684624 -0.1906344764 0)
(2.930325945 -0.1648440075 0)
(2.943100437 -0.1414165385 0)
(2.957462131 -0.1113560052 0)
(2.969292976 -0.08627090882 0)
(2.977599451 -0.06696906731 0)
(2.988652606 -0.0348392622 0)
(2.99594104 -0.01143948164 0)
(3.00352923 0.009831480954 0)
(3.009462664 0.03596257762 0)
(3.016375924 0.06571631004 0)
(3.022544048 0.08529063715 0)
(3.028041965 0.09783846548 0)
(2.90071844 -0.2308362796 0)
(2.90673076 -0.2125535831 0)
(2.916261367 -0.1902774969 0)
(2.929407791 -0.1638719809 0)
(2.942589295 -0.1391110638 0)
(2.955697692 -0.1134561543 0)
(2.968939605 -0.08437016492 0)
(2.97916116 -0.06341549689 0)
(2.990376564 -0.03255970656 0)
(2.999359529 -0.001852712073 0)
(3.005917554 0.0167900028 0)
(3.012662073 0.04077625563 0)
(3.016876799 0.0660620252 0)
(3.023527199 0.09148141416 0)
(3.028531395 0.1009894198 0)
(3.036936257 0.1289350035 0)
(2.907537875 -0.2146646146 0)
(2.917312595 -0.189208827 0)
(2.929143478 -0.1633327037 0)
(2.940752761 -0.1408694062 0)
(2.955196498 -0.1118091771 0)
(2.968830369 -0.08243313175 0)
(2.981527733 -0.05286786297 0)
(2.991743234 -0.02975701722 0)
(3.001048738 0.002085585643 0)
(3.008850385 0.02870877725 0)
(3.012926503 0.04013873478 0)
(3.021999201 0.07665461957 0)
(3.026020113 0.09929630297 0)
(3.032670675 0.1167257071 0)
(3.038532028 0.1321824185 0)
(3.043820787 0.1561687937 0)
(2.918518487 -0.1901582163 0)
(2.927874388 -0.1677051679 0)
(2.941433713 -0.1380875187 0)
(2.95500774 -0.1102151505 0)
(2.969795791 -0.07687554152 0)
(2.982727438 -0.04606721741 0)
(2.990898696 -0.02968294122 0)
(3.002712979 0.004780394815 0)
(3.010127346 0.03349540082 0)
(3.016753612 0.05040634173 0)
(3.022088493 0.07304856291 0)
(3.029894781 0.1110272131 0)
(3.033929007 0.1292830442 0)
(3.039770292 0.1402387245 0)
(3.048117645 0.1697756196 0)
(3.052285691 0.1875933711 0)
(2.929149801 -0.1667727037 0)
(2.9428957 -0.1352785904 0)
(2.955870832 -0.1055392172 0)
(2.969247073 -0.07607618778 0)
(2.982262075 -0.04443972627 0)
(2.992738144 -0.01980076237 0)
(3.002995193 0.006100031326 0)
(3.014600012 0.04606137499 0)
(3.02036639 0.0677269717 0)
(3.026636771 0.08457356029 0)
(3.033241974 0.1156067614 0)
(3.037174264 0.1421961723 0)
(3.040448274 0.1462583164 0)
(3.048419297 0.1715750377 0)
(3.054259834 0.1983091691 0)
(3.059250145 0.2139609996 0)
(2.943192738 -0.134307371 0)
(2.955670052 -0.1053459202 0)
(2.968456918 -0.07459382172 0)
(2.982120003 -0.0424916568 0)
(2.995505143 -0.006970047796 0)
(3.003816554 0.01322799536 0)
(3.015142318 0.04735136719 0)
(3.023612782 0.07919384303 0)
(3.027083265 0.08922500959 0)
(3.034071901 0.1178838333 0)
(3.040485805 0.1514432401 0)
(3.04514223 0.1720402943 0)
(3.051158532 0.1816761555 0)
(3.056625736 0.2054915035 0)
(3.061736232 0.2263691174 0)
(3.066365705 0.2286426043 0)
(2.955410489 -0.1046785026 0)
(2.969941006 -0.06881268305 0)
(2.983232971 -0.03460445106 0)
(2.997807395 0.001875443066 0)
(3.006057236 0.02526542909 0)
(3.017396657 0.05885230707 0)
(3.025595259 0.08646386981 0)
(3.033604098 0.1122709498 0)
(3.036517606 0.1248032417 0)
(3.042095571 0.1541021364 0)
(3.047971407 0.181845928 0)
(3.051017224 0.1909599207 0)
(3.058817222 0.2182130064 0)
(3.065020586 0.2465666543 0)
(3.070621618 0.2614635694 0)
(3.079094899 0.2807769616 0)
(2.97074658 -0.06391357358 0)
(2.985441012 -0.02444369559 0)
(2.995680216 8.112410874e-05 0)
(3.009310974 0.03566319484 0)
(3.016406257 0.05899997828 0)
(3.026259858 0.09247181055 0)
(3.034957453 0.1187949194 0)
(3.041930688 0.144861114 0)
(3.046015876 0.1701626779 0)
(3.05163593 0.1974222218 0)
(3.057990721 0.2134329264 0)
(3.061018118 0.2243896609 0)
(3.063510518 0.2455897887 0)
(3.069785895 0.2656292882 0)
(3.075384433 0.2733030412 0)
(3.078768697 0.289231666 0)
(2.985010872 -0.02413843585 0)
(2.998170828 0.01285913006 0)
(3.010687886 0.04569427516 0)
(3.022438745 0.07784328798 0)
(3.032530423 0.1134749433 0)
(3.039314372 0.1352023986 0)
(3.045766522 0.1507868885 0)
(3.050094594 0.178957376 0)
(3.051665666 0.2005697812 0)
(3.057535082 0.228516563 0)
(3.064478221 0.2474841418 0)
)
;

boundaryField
{
    inlet
    {
        type            fixedValue;
        value           nonuniform 0();
    }
    outlet
    {
        type            inletOutlet;
        inletValue      nonuniform 0();
        value           nonuniform 0();
    }
    bottom
    {
        type            slip;
    }
    top
    {
        type            slip;
    }
    obstacle
    {
        type            slip;
    }
    defaultFaces
    {
        type            empty;
    }
    procBoundary4to3
    {
        type            processor;
        value           nonuniform List<vector> 
30
(
(3 -4.964439243e-15 0)
(3 -3.246838079e-15 0)
(3 -6.749099518e-15 0)
(3 -8.602604555e-15 0)
(3 -1.022867949e-14 0)
(3 -3.078811052e-15 0)
(3 -5.402767913e-15 0)
(3 -1.578400662e-14 0)
(3 -2.073702159e-14 0)
(3 -1.347340173e-14 0)
(3 -1.320753597e-14 0)
(3 -1.893383144e-13 0)
(3 -1.860924629e-11 0)
(3 -1.254268881e-09 0)
(2.999999979 -5.633645684e-08 0)
(2.999999432 -1.455930503e-06 0)
(2.999988943 -2.81687184e-05 0)
(2.999863375 -0.0003447499357 0)
(2.998879371 -0.002783967894 0)
(2.993289017 -0.01739303827 0)
(2.98000562 -0.05107665262 0)
(2.946528826 -0.1377267993 0)
(2.935025765 -0.1804334079 0)
(2.923641583 -0.2177360743 0)
(2.905676087 -0.2528222353 0)
(2.898951375 -0.2485269493 0)
(2.896774063 -0.2474346565 0)
(2.897648 -0.2440074474 0)
(2.901455751 -0.2330414383 0)
(2.907796124 -0.2174638511 0)
)
;
    }
    procBoundary4to5
    {
        type            processor;
        value           nonuniform List<vector> 
34
(
(2.999817879 -0.0001940477729 0)
(2.99890469 -0.00292611409 0)
(2.994713745 -0.01346436407 0)
(2.977998137 -0.05749991027 0)
(2.958919489 -0.1079299769 0)
(2.930952004 -0.1699480947 0)
(2.913659092 -0.2124151877 0)
(2.907385931 -0.2355610923 0)
(2.90683772 -0.2285776388 0)
(2.905940486 -0.2304449644 0)
(2.907871924 -0.2274814858 0)
(2.91243314 -0.2180423591 0)
(2.919443093 -0.2019592117 0)
(2.927827201 -0.1830143542 0)
(2.936068341 -0.1635029423 0)
(2.944614982 -0.1429699097 0)
(2.952391223 -0.1235356466 0)
(2.961630962 -0.09974759082 0)
(2.969567624 -0.07739451167 0)
(2.977318573 -0.05445440917 0)
(2.985636881 -0.02896373475 0)
(2.992563653 -0.007013869062 0)
(3.001623745 0.01988033296 0)
(3.009528092 0.04273091006 0)
(3.016845615 0.06225859398 0)
(3.025736994 0.0892774039 0)
(3.034007479 0.1190762167 0)
(3.041826085 0.1482911169 0)
(3.049632829 0.1753942091 0)
(3.058113142 0.1931208838 0)
(3.067893253 0.2274364842 0)
(3.072093338 0.2480594184 0)
(3.081309924 0.2984763683 0)
(3.082695538 0.3063461794 0)
)
;
    }
    procBoundary4to9
    {
        type            processor;
        value           nonuniform List<vector> 5((2.917840942 -0.1947855992 0) (2.929958588 -0.1654422669 0) (2.940900103 -0.1383720352 0) (2.955676823 -0.1006377109 0) (2.970093644 -0.06214568055 0));
    }
    procBoundary4to10
    {
        type            processor;
        value           nonuniform List<vector> 
17
(
(3.070475078 0.2750554078 0)
(3.07395046 0.2980660087 0)
(3.080979344 0.3077214676 0)
(3.088558933 0.3285038972 0)
(3.087359354 0.3252009222 0)
(3.001132083 0.0211545645 0)
(3.013454437 0.05856460657 0)
(3.021322296 0.07701734546 0)
(3.035037259 0.1202016599 0)
(3.041274413 0.1490713382 0)
(3.048496578 0.1747640789 0)
(3.058024927 0.2001359822 0)
(3.061005175 0.2264323812 0)
(3.063511517 0.2427866121 0)
(3.065215786 0.2449129478 0)
(3.070475078 0.2750554078 0)
(3.068277395 0.2699833571 0)
)
;
    }
}


// ************************************************************************* //
