/*--------------------------------*- C++ -*----------------------------------*\
  =========                 |
  \\      /  F ield         | OpenFOAM: The Open Source CFD Toolbox
   \\    /   O peration     | Website:  https://openfoam.org
    \\  /    A nd           | Version:  7
     \\/     M anipulation  |
\*---------------------------------------------------------------------------*/
FoamFile
{
    version     2.0;
    format      ascii;
    class       volScalarField;
    location    "3.1";
    object      rho;
}
// * * * * * * * * * * * * * * * * * * * * * * * * * * * * * * * * * * * * * //

dimensions      [1 -3 0 0 0 0 0];

internalField   nonuniform List<scalar> 
22
(
1.40000504
1.40000504
1.400005675
1.40004135
1.400005042
1.400024673
1.400561773
1.400005342
1.400363851
1.405326984
1.433969753
1.400029013
1.404033929
1.430809023
1.488167421
1.40088213
1.426212873
1.499018814
1.539664319
1.413867507
1.493562988
1.567004971
)
;

boundaryField
{
    inlet
    {
        type            calculated;
        value           nonuniform 0();
    }
    outlet
    {
        type            calculated;
        value           nonuniform 0();
    }
    bottom
    {
        type            calculated;
        value           nonuniform List<scalar> 4(1.40000504 1.40000504 1.400005675 1.40004135);
    }
    top
    {
        type            calculated;
        value           nonuniform 0();
    }
    obstacle
    {
        type            calculated;
        value           nonuniform 0();
    }
    defaultFaces
    {
        type            empty;
    }
    procBoundary3to2
    {
        type            processor;
        value           nonuniform List<scalar> 5(1.40000504 1.40000504 1.40000504 1.400005039 1.400005039);
    }
    procBoundary3to4
    {
        type            processor;
        value           nonuniform List<scalar> 6(1.400959358 1.407551873 1.407551873 1.490976709 1.53716216 1.539306494);
    }
    procBoundary3to8
    {
        type            processor;
        value           nonuniform List<scalar> 2(1.4000052 1.400090645);
    }
    procBoundary3to9
    {
        type            processor;
        value           nonuniform List<scalar> 5(1.562012148 1.490222618 1.577076755 1.562012148 1.572387377);
    }
}


// ************************************************************************* //
