/*--------------------------------*- C++ -*----------------------------------*\
  =========                 |
  \\      /  F ield         | OpenFOAM: The Open Source CFD Toolbox
   \\    /   O peration     | Website:  https://openfoam.org
    \\  /    A nd           | Version:  7
     \\/     M anipulation  |
\*---------------------------------------------------------------------------*/
FoamFile
{
    version     2.0;
    format      ascii;
    class       volVectorField;
    location    "2.1";
    object      U;
}
// * * * * * * * * * * * * * * * * * * * * * * * * * * * * * * * * * * * * * //

dimensions      [0 1 -1 0 0 0 0];

internalField   nonuniform List<vector> 
558
(
(2.920078581 0.2257008291 0)
(2.895182267 0.2436157862 0)
(2.888254504 0.2479864427 0)
(2.892128056 0.2479355423 0)
(2.894586798 0.2450617325 0)
(2.90000061 0.23664383 0)
(2.908945507 0.2198548358 0)
(2.920479278 0.1968404189 0)
(3 2.913249431e-15 0)
(3 3.224436707e-12 0)
(2.999999998 4.338766797e-09 0)
(2.999999926 1.931197676e-07 0)
(2.999995421 1.157752759e-05 0)
(2.999939796 0.0001560966736 0)
(2.999108351 0.002158333822 0)
(2.995451748 0.01216036287 0)
(2.97813557 0.05313594258 0)
(2.953948719 0.1183061 0)
(2.940711146 0.1956891191 0)
(2.906963826 0.2601420431 0)
(2.885068263 0.2470436544 0)
(2.890398254 0.2474354752 0)
(2.892311608 0.2474125081 0)
(2.895702212 0.2445926334 0)
(2.901735549 0.2345007034 0)
(2.909327189 0.2198566599 0)
(3 3.783766597e-16 0)
(3 2.983368797e-14 0)
(3 4.937554576e-11 0)
(2.999999998 4.530562698e-09 0)
(2.999999824 4.553825229e-07 0)
(2.999995977 1.050766652e-05 0)
(2.999911005 0.0002212967833 0)
(2.999259803 0.001962641403 0)
(2.994046312 0.01405785951 0)
(2.981599404 0.04806872342 0)
(2.949926988 0.1387183615 0)
(2.938092409 0.1807161318 0)
(2.918963579 0.2214318342 0)
(2.894006766 0.2429355135 0)
(2.891966143 0.2469818872 0)
(2.893620456 0.2469132529 0)
(2.896199232 0.2438372657 0)
(2.901987667 0.2336912419 0)
(3 -2.703866619e-15 0)
(3 -3.92226913e-15 0)
(3 3.389598177e-13 0)
(3 5.949989396e-11 0)
(2.999999995 1.238483645e-08 0)
(2.999999848 3.965400654e-07 0)
(2.999993536 1.675276736e-05 0)
(2.999928087 0.0001884117862 0)
(2.998968831 0.00253643846 0)
(2.995496204 0.0121384584 0)
(2.976563618 0.05684353188 0)
(2.960190606 0.110716104 0)
(2.934799573 0.2071459042 0)
(2.902079686 0.2586002888 0)
(2.886244033 0.2446887555 0)
(2.893281454 0.2460179184 0)
(2.894227232 0.246412756 0)
(2.896944684 0.2430314141 0)
(3 -5.856950851e-15 0)
(3 -5.097775844e-15 0)
(3 -3.253782843e-15 0)
(3 6.025670229e-13 0)
(3 1.660506969e-10 0)
(2.999999996 1.086660549e-08 0)
(2.999999743 6.787042094e-07 0)
(2.999994797 1.373712161e-05 0)
(2.999898739 0.0002560684959 0)
(2.999203176 0.002139863746 0)
(2.993804521 0.01443703816 0)
(2.982126974 0.04939294562 0)
(2.950811769 0.1363344184 0)
(2.938550247 0.1768076892 0)
(2.915555963 0.2161821783 0)
(2.896238616 0.2407658936 0)
(2.894240345 0.2465784775 0)
(2.894746657 0.2457318772 0)
(3 -9.180310507e-15 0)
(3 -4.735857403e-15 0)
(3 -5.394400105e-15 0)
(3 1.701375693e-15 0)
(3 1.360560473e-12 0)
(3 1.669246247e-10 0)
(2.999999993 1.887978455e-08 0)
(2.999999791 5.469348784e-07 0)
(2.999992499 1.974595828e-05 0)
(2.999920769 0.0002076779579 0)
(2.99889352 0.002735903273 0)
(2.995517043 0.01217202632 0)
(2.975787358 0.0586771455 0)
(2.96594475 0.1052748067 0)
(2.92821816 0.2183530865 0)
(2.898498604 0.2511918512 0)
(2.893037564 0.242527788 0)
(2.894559069 0.2436767184 0)
(3 -9.284634385e-15 0)
(3 -7.93510459e-15 0)
(3 -7.860785461e-15 0)
(3 -3.967591599e-15 0)
(3 9.951884115e-15 0)
(3 2.035098747e-12 0)
(3 2.764694508e-10 0)
(2.999999994 1.622551365e-08 0)
(2.999999691 8.139095482e-07 0)
(2.99999404 1.55753381e-05 0)
(2.999889216 0.0002824209465 0)
(2.999171322 0.002205190271 0)
(2.993556739 0.01492072122 0)
(2.982894482 0.04958797077 0)
(2.95178402 0.1346551142 0)
(2.938108064 0.1701274589 0)
(2.912964098 0.2134794519 0)
(2.897618729 0.2435018938 0)
(3 -6.699063751e-15 0)
(3 -9.530149671e-15 0)
(3 -1.413486122e-14 0)
(3 -9.353787554e-15 0)
(3 -4.816994639e-15 0)
(3 2.13726344e-14 0)
(3 2.942576922e-12 0)
(3 3.105974768e-10 0)
(2.999999991 2.361369835e-08 0)
(2.999999733 6.817153123e-07 0)
(2.999991822 2.153772173e-05 0)
(2.999912856 0.0002256364129 0)
(2.998851009 0.002841206514 0)
(2.995435081 0.01231199444 0)
(2.975254458 0.05969204406 0)
(2.968139886 0.1037628124 0)
(2.923133201 0.2240677925 0)
(2.898657222 0.2381602562 0)
(3 -3.651984272e-15 0)
(3 -1.014888108e-14 0)
(3 -1.561757437e-14 0)
(3 -1.365060746e-14 0)
(3 -1.082876892e-14 0)
(3 -3.2285535e-15 0)
(3 2.810964554e-14 0)
(3 5.214148471e-12 0)
(3 4.29374e-10 0)
(2.999999991 2.274847173e-08 0)
(2.999999641 9.409914972e-07 0)
(2.999993259 1.735915241e-05 0)
(2.999882071 0.0003025822456 0)
(2.999137994 0.002256679369 0)
(2.993261908 0.01557716849 0)
(2.983172157 0.04945461352 0)
(2.951165302 0.1352665163 0)
(2.937539328 0.1641927845 0)
(3 1.345644219e-15 0)
(3 -7.787868673e-15 0)
(3 -1.333036571e-14 0)
(3 -1.922144552e-14 0)
(3 -1.287455174e-14 0)
(3 -4.785773969e-15 0)
(3 -6.787460411e-16 0)
(3 9.273848346e-14 0)
(3 6.122496694e-12 0)
(3 5.534619191e-10 0)
(2.999999989 2.892064962e-08 0)
(2.999999665 8.448306086e-07 0)
(2.999991332 2.279024713e-05 0)
(2.999904564 0.0002443448205 0)
(2.998820394 0.002922155155 0)
(2.99522114 0.01274825037 0)
(2.974803251 0.06033103396 0)
(2.967749685 0.1050106566 0)
(3 7.283814724e-15 0)
(3 -3.127484536e-15 0)
(3 -1.419539824e-14 0)
(3 -1.558398722e-14 0)
(3 -1.160647517e-14 0)
(3 -7.443314831e-15 0)
(3 -3.494117316e-15 0)
(3 -2.193672133e-16 0)
(3 9.23614609e-14 0)
(3 1.074657523e-11 0)
(3 6.369680254e-10 0)
(2.999999988 3.053435471e-08 0)
(2.99999959 1.066118294e-06 0)
(2.999992474 1.917418747e-05 0)
(2.999876131 0.0003197574909 0)
(2.999097732 0.002335261834 0)
(2.993021285 0.01624264175 0)
(2.98294942 0.04983922255 0)
(3 6.994503875e-15 0)
(3 -3.846853066e-15 0)
(3 -1.369352819e-14 0)
(3 -1.258104741e-14 0)
(3 -7.176881837e-15 0)
(3 -6.620318057e-15 0)
(3 -5.28534389e-15 0)
(3 -7.180758608e-16 0)
(3 -3.127516621e-15 0)
(3 1.888970242e-13 0)
(3 1.023274183e-11 0)
(3 8.71485715e-10 0)
(2.999999987 3.441204795e-08 0)
(2.999999592 1.023394397e-06 0)
(2.999990933 2.379540877e-05 0)
(2.999896163 0.0002645715185 0)
(2.998802987 0.002985592064 0)
(2.995000739 0.01328556557 0)
(3 -4.417189114e-16 0)
(3 -1.368729648e-15 0)
(3 -4.640089043e-15 0)
(3 -1.036651812e-14 0)
(3 -8.111811517e-15 0)
(3 -6.079174106e-15 0)
(3 -3.975390342e-15 0)
(3 -3.214468838e-15 0)
(3 -6.047983614e-15 0)
(3 -1.033176617e-15 0)
(3 1.620488134e-13 0)
(3 1.701732282e-11 0)
(3 8.792862482e-10 0)
(2.999999985 3.817200406e-08 0)
(2.999999539 1.193851717e-06 0)
(2.999991814 2.075039763e-05 0)
(2.999870959 0.0003349195922 0)
(2.999070961 0.002400760415 0)
(3 3.430351322e-15 0)
(3 -3.111125899e-15 0)
(3 2.086881513e-15 0)
(3 -3.84733015e-15 0)
(3 -1.121066571e-14 0)
(3 -9.088953235e-15 0)
(3 -6.340278766e-15 0)
(3 -4.962484847e-15 0)
(3 -9.428521393e-15 0)
(3 -1.124669616e-14 0)
(3 -1.132513694e-14 0)
(3 2.862349914e-13 0)
(3 1.419135842e-11 0)
(3 1.21205159e-09 0)
(2.999999985 3.901347948e-08 0)
(2.999999523 1.197363235e-06 0)
(2.999990654 2.4471639e-05 0)
(2.999889436 0.0002812815561 0)
(3 2.889250042e-15 0)
(3 2.684703235e-15 0)
(3 4.979426849e-15 0)
(3 4.128432972e-15 0)
(3 -4.351154409e-15 0)
(3 -8.779963931e-15 0)
(3 -9.224108506e-15 0)
(3 -8.666734289e-15 0)
(3 -1.018968506e-14 0)
(3 -1.358260643e-14 0)
(3 -1.300834454e-14 0)
(3 -6.656031892e-15 0)
(3 2.086116439e-13 0)
(3 2.23538177e-11 0)
(3 1.104901677e-09 0)
(2.999999982 4.434269111e-08 0)
(2.999999492 1.320392894e-06 0)
(2.999991358 2.177536219e-05 0)
(3 2.190973844e-15 0)
(3 9.370885669e-15 0)
(3 9.736765631e-15 0)
(3 7.645232795e-15 0)
(3 2.277564644e-15 0)
(3 4.492627171e-16 0)
(3 -8.284305545e-15 0)
(3 -1.166516729e-14 0)
(3 -7.744084789e-15 0)
(3 -8.44955336e-15 0)
(3 -6.665752526e-15 0)
(3 -7.566467279e-17 0)
(3 1.219208027e-14 0)
(3 3.94597435e-13 0)
(3 1.711768771e-11 0)
(2.999999999 1.49858944e-09 0)
(2.999999983 4.268229942e-08 0)
(2.999999465 1.351920271e-06 0)
(3 -9.224588272e-16 0)
(3 4.262371842e-15 0)
(3 7.828203104e-15 0)
(3 9.640892357e-15 0)
(3 5.14399333e-15 0)
(3 1.092707109e-15 0)
(3 -3.653097168e-15 0)
(3 -9.050527028e-15 0)
(3 -7.020085979e-15 0)
(3 -2.827536e-15 0)
(3 3.907753436e-16 0)
(3 4.809486037e-15 0)
(3 4.542831711e-15 0)
(3 1.489584621e-14 0)
(3 2.68636752e-13 0)
(3 2.541328161e-11 0)
(3 1.25550541e-09 0)
(2.999999981 4.883482836e-08 0)
(3 -4.41805738e-15 0)
(3 8.16398091e-16 0)
(3 5.929271842e-15 0)
(3 8.00996838e-15 0)
(3 3.781016098e-15 0)
(3 3.958029507e-16 0)
(3 -1.462012761e-15 0)
(3 -9.013138887e-15 0)
(3 -8.576914386e-15 0)
(3 -1.347328145e-15 0)
(3 5.43362295e-15 0)
(3 1.227522462e-14 0)
(3 9.293924726e-15 0)
(3 1.248667618e-14 0)
(3 8.490318343e-15 0)
(3 3.829748284e-13 0)
(3 1.802888993e-11 0)
(2.999999999 1.641002897e-09 0)
(3 -3.647257759e-15 0)
(3 1.099848452e-15 0)
(3 3.035254099e-15 0)
(3 3.549583343e-15 0)
(3 3.814696988e-15 0)
(3 2.800465925e-15 0)
(3 3.365742982e-16 0)
(3 -6.094359389e-15 0)
(3 -4.452219718e-15 0)
(3 7.196491976e-16 0)
(3 9.296428769e-15 0)
(3 1.754878296e-14 0)
(3 2.055327571e-14 0)
(3 1.412585951e-14 0)
(3 2.544093989e-15 0)
(3 -2.603587804e-15 0)
(3 2.43049969e-13 0)
(3 2.577562332e-11 0)
(3 -9.070238907e-15 0)
(3 -4.518108454e-15 0)
(3 4.279877051e-16 0)
(3 -3.004711645e-18 0)
(3 5.324104948e-15 0)
(3 3.597922442e-15 0)
(3 -9.401849261e-18 0)
(3 -2.923386046e-15 0)
(3 -1.857388824e-16 0)
(3 5.222248792e-15 0)
(3 1.015767171e-14 0)
(3 1.055793411e-14 0)
(3 1.703431168e-14 0)
(3 1.315628296e-14 0)
(3 3.903792723e-15 0)
(3 -1.544198367e-15 0)
(3 2.300173573e-15 0)
(3 3.968178195e-13 0)
(3 -1.326843241e-14 0)
(3 -8.722831466e-15 0)
(3 -1.766394004e-15 0)
(3 1.016096917e-15 0)
(3 -7.027366419e-16 0)
(3 -1.726244303e-15 0)
(3 1.398703415e-15 0)
(3 5.775568324e-17 0)
(3 4.557522477e-15 0)
(3 7.58645443e-15 0)
(3 1.036542141e-14 0)
(3 1.083948834e-14 0)
(3 1.620195112e-14 0)
(3 1.653070737e-14 0)
(3 1.367999451e-14 0)
(3 5.380721784e-15 0)
(3 -4.390171606e-16 0)
(3 4.792717737e-15 0)
(3 -1.65772677e-14 0)
(3 -1.678101625e-14 0)
(3 -7.787097145e-15 0)
(3 -1.562985741e-16 0)
(3 -4.706992515e-15 0)
(3 -1.385770722e-15 0)
(3 4.509642875e-15 0)
(3 7.087963022e-15 0)
(3 6.921168119e-15 0)
(3 8.107894863e-15 0)
(3 8.949672912e-15 0)
(3 1.374521854e-14 0)
(3 1.542775905e-14 0)
(3 1.743074864e-14 0)
(3 1.531091992e-14 0)
(3 9.285046975e-15 0)
(3 2.736621082e-15 0)
(3 -2.903309701e-16 0)
(3 -4.022287201e-15 0)
(3 -1.696497948e-14 0)
(3 -1.691827241e-14 0)
(3 -7.451659533e-15 0)
(3 -2.755200571e-15 0)
(3 -4.033186255e-15 0)
(3 -2.934617419e-15 0)
(3 -1.450116583e-15 0)
(3 5.651581024e-15 0)
(3 1.228039865e-14 0)
(3 1.139941433e-14 0)
(3 1.03434282e-14 0)
(3 9.140335416e-15 0)
(3 9.410099737e-15 0)
(3 1.15188306e-14 0)
(3 1.196810877e-14 0)
(3 1.02023396e-14 0)
(3 9.39218543e-15 0)
(3 6.451754455e-15 0)
(3 5.784535389e-15 0)
(3 -1.499257615e-14 0)
(3 -1.477520368e-14 0)
(3 -1.087845497e-14 0)
(3 -6.576891245e-15 0)
(3 -2.258136129e-15 0)
(3 -5.620304102e-16 0)
(3 -1.589843502e-15 0)
(3 8.988662257e-15 0)
(3 1.341857946e-14 0)
(3 1.377588843e-14 0)
(3 1.318162077e-14 0)
(3 7.338524712e-15 0)
(3 3.056769357e-15 0)
(3 8.258965685e-15 0)
(3 1.319284673e-14 0)
(3 1.688670501e-14 0)
(3 1.902883538e-14 0)
(3 1.670363362e-14 0)
(3 2.081052184e-14 0)
(3 -1.469135829e-14 0)
(3 -1.489855555e-14 0)
(3 -1.49312079e-14 0)
(3 -1.160245696e-14 0)
(3 -3.670574761e-15 0)
(3 -1.525548216e-15 0)
(3 2.82901456e-15 0)
(3 1.257788192e-14 0)
(3 1.065195325e-14 0)
(3 1.125012461e-14 0)
(3 7.673819415e-15 0)
(3 1.576971052e-15 0)
(3 -2.263479426e-15 0)
(3 7.373882057e-15 0)
(3 1.475409287e-14 0)
(3 2.23545477e-14 0)
(3 2.601651733e-14 0)
(3 2.992067373e-14 0)
(3 3.001303499e-14 0)
(3 -1.119285591e-14 0)
(3 -1.013257656e-14 0)
(3 -1.536132655e-14 0)
(3 -1.579715458e-14 0)
(3 -8.273718315e-15 0)
(3 -1.920552177e-15 0)
(3 1.227331697e-14 0)
(3 1.784506445e-14 0)
(3 1.469234057e-14 0)
(3 7.665929449e-15 0)
(3 1.627539259e-15 0)
(3 -3.293288317e-15 0)
(3 -3.222259037e-15 0)
(3 1.164076493e-14 0)
(3 1.308691027e-14 0)
(3 2.192390127e-14 0)
(3 3.221703099e-14 0)
(3 4.106353795e-14 0)
(3 3.250156493e-14 0)
(3 -6.639711187e-15 0)
(3 -9.223704751e-15 0)
(3 -1.605606012e-14 0)
(3 -1.910266421e-14 0)
(3 -1.533933507e-14 0)
(3 -3.691214564e-15 0)
(3 1.442960122e-14 0)
(3 1.262528358e-14 0)
(3 1.126364318e-14 0)
(3 6.261781529e-15 0)
(3 -2.034749284e-15 0)
(3 -7.936406357e-15 0)
(3 -4.878039696e-15 0)
(3 1.149635017e-14 0)
(3 1.956207451e-14 0)
(3 2.857815007e-14 0)
(3 3.8090532e-14 0)
(3 3.817842228e-14 0)
(3 2.56500842e-14 0)
(3 -4.186747415e-15 0)
(3 -9.4443051e-15 0)
(3 -1.702233981e-14 0)
(3 -1.37445772e-14 0)
(3 -8.149971437e-15 0)
(3 -4.144825766e-15 0)
(3 6.85603371e-15 0)
(3 1.070236412e-14 0)
(3 9.134624413e-15 0)
(3 5.874980978e-15 0)
(3 -1.29731384e-15 0)
(3 -1.124781062e-14 0)
(3 -6.353499839e-15 0)
(3 4.766280881e-15 0)
(3 3.097730864e-14 0)
(3 3.321225887e-14 0)
(3 3.381709547e-14 0)
(3 3.541168281e-14 0)
(3 2.250366186e-14 0)
(3 -1.664921556e-15 0)
(3 -5.549709795e-15 0)
(3 -8.242397678e-15 0)
(3 -4.321998517e-15 0)
(3 -5.719260068e-15 0)
(3 -2.345891749e-15 0)
(3 2.656746106e-15 0)
(3 1.105800968e-14 0)
(3 6.295227935e-15 0)
(3 1.259247428e-15 0)
(3 -2.384476763e-15 0)
(3 -6.488603031e-15 0)
(3 -4.70679124e-15 0)
(3 3.013460235e-15 0)
(3 1.768698338e-14 0)
(3 1.985964833e-14 0)
(3 2.433252253e-14 0)
(3 2.403536539e-14 0)
(3 1.45596676e-14 0)
(3 -1.522356453e-15 0)
(3 -1.823850152e-15 0)
(3 1.739067693e-15 0)
(3 -1.324103891e-15 0)
(3 -1.499913012e-15 0)
(3 -2.844128248e-15 0)
(3 -1.128628631e-15 0)
(3 4.888343247e-15 0)
(3 -1.486018631e-15 0)
(3 -3.894725714e-15 0)
(3 -3.209237184e-15 0)
(3 -3.289836178e-15 0)
(3 -8.6993855e-16 0)
(3 -5.566421719e-16 0)
(3 -3.05022757e-16 0)
(3 7.641617047e-15 0)
(3 1.62411825e-14 0)
(3 1.787717749e-14 0)
(3 8.696870685e-15 0)
(3 -4.171541619e-16 0)
(3 -2.003072896e-16 0)
(3 5.508840709e-16 0)
(3 -1.150879964e-15 0)
(3 2.902058134e-15 0)
(3 -5.825388273e-17 0)
(3 5.308740085e-16 0)
(3 3.143847969e-15 0)
(3 -3.825591765e-16 0)
(3 -4.190988458e-16 0)
(3 4.455831593e-16 0)
(3 -3.915363047e-16 0)
(3 1.518186245e-15 0)
(3 -2.880809521e-16 0)
(3 2.115731012e-15 0)
(3 4.091901302e-15 0)
(3 6.30706823e-15 0)
(3 1.263528222e-14 0)
(3 3.801565068e-15 0)
)
;

boundaryField
{
    inlet
    {
        type            fixedValue;
        value           nonuniform 0();
    }
    outlet
    {
        type            inletOutlet;
        inletValue      nonuniform 0();
        value           nonuniform 0();
    }
    bottom
    {
        type            slip;
    }
    top
    {
        type            slip;
    }
    obstacle
    {
        type            slip;
    }
    defaultFaces
    {
        type            empty;
    }
    procBoundary33to26
    {
        type            processor;
        value           nonuniform List<vector> 
13
(
(3 -4.593097312e-16 0)
(3 -1.634773339e-15 0)
(3 -3.305718655e-15 0)
(3 -7.895187987e-15 0)
(3 -8.83289496e-15 0)
(3 -7.637020465e-15 0)
(3 -5.223944454e-15 0)
(3 -3.581520447e-15 0)
(3 4.880093854e-15 0)
(3 1.254446607e-14 0)
(3 1.490484522e-14 0)
(3 1.248391813e-14 0)
(3 8.028091621e-15 0)
)
;
    }
    procBoundary33to27
    {
        type            processor;
        value           nonuniform List<vector> 
19
(
(2.88667741 0.2490487926 0)
(2.88716103 0.2496317259 0)
(2.890907794 0.2488862015 0)
(2.893525829 0.2463838205 0)
(2.899275133 0.237667591 0)
(2.908231531 0.2206272033 0)
(2.918810333 0.1991205736 0)
(2.932392951 0.1693978229 0)
(3 3.495225001e-15 0)
(3 3.345938861e-10 0)
(2.999999927 1.868005743e-07 0)
(2.999997713 5.912854764e-06 0)
(2.9999314 0.0001682343761 0)
(2.99937746 0.001629921756 0)
(2.994435693 0.01344173776 0)
(2.982414027 0.04456865085 0)
(2.948658468 0.141385819 0)
(2.935555256 0.184313413 0)
(2.935555256 0.184313413 0)
)
;
    }
    procBoundary33to32
    {
        type            processor;
        value           nonuniform List<vector> 
17
(
(3 2.742224093e-15 0)
(3 -4.325954284e-16 0)
(3 -6.719236698e-15 0)
(3 -1.088079232e-14 0)
(3 -1.43205465e-14 0)
(3 -1.135378096e-14 0)
(3 -1.281355969e-14 0)
(3 -1.366731253e-14 0)
(3 -1.34275659e-14 0)
(3 -1.251766372e-14 0)
(3 -9.898550679e-15 0)
(3 -9.924606108e-15 0)
(3 -9.933006615e-15 0)
(3 -6.192429944e-15 0)
(3 -4.519123399e-16 0)
(3 1.100090485e-15 0)
(3 6.035505821e-16 0)
)
;
    }
    procBoundary33to34
    {
        type            processor;
        value           nonuniform List<vector> 
32
(
(2.932556457 0.1709034383 0)
(2.922166926 0.1938171337 0)
(2.910468679 0.2181349007 0)
(2.902733661 0.2326211784 0)
(2.897150452 0.2420853594 0)
(2.895423629 0.2447091495 0)
(2.894934393 0.2451807934 0)
(2.896093051 0.2394588213 0)
(2.910004382 0.2153488048 0)
(2.920113369 0.2253842685 0)
(2.94964667 0.1370900109 0)
(2.974428265 0.06113683497 0)
(2.992872394 0.01678464701 0)
(2.998798838 0.003012074918 0)
(2.999865728 0.0003491012958 0)
(2.999990357 2.520970287e-05 0)
(2.999999454 1.43373015e-06 0)
(2.999999983 4.518220827e-08 0)
(3 1.323985978e-09 0)
(3 1.878104294e-11 0)
(3 2.918193193e-13 0)
(3 2.918193193e-13 0)
(3 4.532747091e-13 0)
(3 1.593081242e-14 0)
(3 1.372936553e-14 0)
(3 1.552637786e-14 0)
(3 1.381103958e-14 0)
(3 5.920918055e-15 0)
(3 8.151098309e-15 0)
(3 4.946151525e-15 0)
(3 -2.153200389e-15 0)
(3 -3.434787004e-16 0)
)
;
    }
}


// ************************************************************************* //
