/*--------------------------------*- C++ -*----------------------------------*\
  =========                 |
  \\      /  F ield         | OpenFOAM: The Open Source CFD Toolbox
   \\    /   O peration     | Website:  https://openfoam.org
    \\  /    A nd           | Version:  7
     \\/     M anipulation  |
\*---------------------------------------------------------------------------*/
FoamFile
{
    version     2.0;
    format      ascii;
    class       volVectorField;
    location    "1.6";
    object      U;
}
// * * * * * * * * * * * * * * * * * * * * * * * * * * * * * * * * * * * * * //

dimensions      [0 1 -1 0 0 0 0];

internalField   nonuniform List<vector> 
2223
(
(3.034258597 -0.1154857455 0)
(3.034838725 -0.1253900611 0)
(3.038707754 -0.12548026 0)
(3.046636623 -0.1479917061 0)
(3.047015557 -0.1698770612 0)
(3.048938299 -0.171656889 0)
(3.054964978 -0.1806774603 0)
(3.05961431 -0.2075365148 0)
(3.059709641 -0.2153051773 0)
(3.063639341 -0.216702108 0)
(3.069463766 -0.2350250752 0)
(3.068938289 -0.2469742682 0)
(3.070587717 -0.2455080369 0)
(3.074900381 -0.2527991833 0)
(3.076506384 -0.2728284766 0)
(3.076613704 -0.2767357894 0)
(3.077871356 -0.277275727 0)
(3.083220657 -0.29646425 0)
(3.082327401 -0.3085444524 0)
(3.083574149 -0.3104131099 0)
(3.086942037 -0.3189384674 0)
(3.087448073 -0.3347538271 0)
(3.086589735 -0.3407491733 0)
(3.089126249 -0.3424670899 0)
(3.092158483 -0.3523450696 0)
(3.092317309 -0.3582674843 0)
(2.995192902 -0.0005473022454 0)
(3.002915314 -0.01431399237 0)
(3.009236004 -0.0446118093 0)
(3.011941558 -0.05576253758 0)
(3.01801752 -0.05949520535 0)
(3.0266719 -0.08606460666 0)
(3.028548407 -0.1068949352 0)
(3.032719999 -0.1100090174 0)
(3.04038275 -0.1237473576 0)
(3.042630948 -0.1494190958 0)
(3.043664194 -0.1541766483 0)
(3.047589204 -0.1556799067 0)
(3.053210066 -0.1792336487 0)
(3.053353327 -0.1924234964 0)
(3.056022646 -0.1921681562 0)
(3.062807026 -0.2076561873 0)
(3.065713947 -0.2306461612 0)
(3.067074682 -0.2350524789 0)
(3.072058952 -0.2404509518 0)
(3.075053473 -0.2597052066 0)
(3.074007181 -0.2665463996 0)
(3.075660529 -0.2655341144 0)
(3.078930181 -0.2752968347 0)
(3.078332075 -0.2905165594 0)
(3.078813046 -0.2911232379 0)
(3.080578388 -0.2934974082 0)
(3.08377917 -0.3106555783 0)
(3.083415761 -0.3212155665 0)
(3.085648947 -0.3232183864 0)
(3.08948872 -0.3309325806 0)
(3.091267553 -0.3501174909 0)
(2.987959387 0.01764962276 0)
(2.99426512 0.009004774033 0)
(3.002406635 -0.01804401661 0)
(3.005830322 -0.03944003517 0)
(3.011533259 -0.04504021299 0)
(3.02010728 -0.06208770469 0)
(3.02368 -0.08811706338 0)
(3.026569581 -0.09388339909 0)
(3.032571468 -0.09957489586 0)
(3.038853218 -0.1275482795 0)
(3.039084492 -0.1402577796 0)
(3.042723759 -0.1417542488 0)
(3.050226533 -0.1611055354 0)
(3.05104429 -0.181686206 0)
(3.053027867 -0.1839896951 0)
(3.058631989 -0.1903934137 0)
(3.061945288 -0.2120600088 0)
(3.062430192 -0.2175501429 0)
(3.064698344 -0.216433582 0)
(3.070089856 -0.234555998 0)
(3.070294481 -0.2507624283 0)
(3.072070657 -0.2529366908 0)
(3.075710459 -0.258814724 0)
(3.077638605 -0.2774841943 0)
(3.076803526 -0.2842739254 0)
(3.079126899 -0.284197502 0)
(3.081949776 -0.2952372739 0)
(3.080878357 -0.3065836047 0)
(3.081795066 -0.3084966604 0)
(3.084315105 -0.3093146131 0)
(3.085323373 -0.3213183828 0)
(2.98167236 0.03594642037 0)
(2.987279239 0.02670617217 0)
(2.993699841 0.01054434561 0)
(2.999870158 -0.01819689986 0)
(3.00450194 -0.02781994314 0)
(3.011011228 -0.03562515138 0)
(3.018221811 -0.06430356609 0)
(3.02039291 -0.07813823558 0)
(3.025713418 -0.08077942048 0)
(3.032913892 -0.101955468 0)
(3.034259115 -0.1223687679 0)
(3.037539225 -0.1245480073 0)
(3.042929629 -0.1339409127 0)
(3.046307155 -0.15864031 0)
(3.047577232 -0.1647281084 0)
(3.051555111 -0.1673173183 0)
(3.057563903 -0.1897779863 0)
(3.05779046 -0.2030907766 0)
(3.060355323 -0.2039771423 0)
(3.065635382 -0.2153347929 0)
(3.066788844 -0.2342417303 0)
(3.06786676 -0.2371471594 0)
(3.070759296 -0.2388343549 0)
(3.075299976 -0.257422699 0)
(3.074553824 -0.2698337925 0)
(3.076284793 -0.2711832522 0)
(3.079357306 -0.2779286792 0)
(3.08072721 -0.2951694335 0)
(3.079726613 -0.3012019634 0)
(3.082218825 -0.3031392616 0)
(3.085110947 -0.3121086197 0)
(2.975129614 0.05871736582 0)
(2.980618333 0.04263752027 0)
(2.98620152 0.03363014859 0)
(2.994299763 0.005042783094 0)
(2.998145563 -0.01232051931 0)
(3.003683299 -0.01665825574 0)
(3.011608737 -0.03917044913 0)
(3.015080598 -0.06171749508 0)
(3.019717414 -0.06602129178 0)
(3.026888301 -0.07959738206 0)
(3.030651844 -0.1054748445 0)
(3.032681738 -0.1111046426 0)
(3.03742791 -0.1156829613 0)
(3.043699139 -0.1413251461 0)
(3.044047216 -0.1530848944 0)
(3.04702062 -0.1536086873 0)
(3.053396909 -0.1705561949 0)
(3.054475851 -0.1898970295 0)
(3.056511791 -0.1924959235 0)
(3.060854694 -0.197689624 0)
(3.063552066 -0.2173184969 0)
(3.06351311 -0.2242778305 0)
(3.06625035 -0.2234621448 0)
(3.070155854 -0.2352555835 0)
(3.07035074 -0.251416632 0)
(3.07156516 -0.2539722705 0)
(3.073826756 -0.2553734297 0)
(3.077287852 -0.2723311321 0)
(3.07672153 -0.2837504942 0)
(3.078391612 -0.2854143891 0)
(3.081981662 -0.2927521511 0)
(2.967406508 0.08349088923 0)
(2.973775242 0.06047674406 0)
(2.979063053 0.05346341699 0)
(2.986818124 0.03161357773 0)
(2.992449685 0.00524627681 0)
(2.997368183 -0.001094420559 0)
(3.004029632 -0.01479517081 0)
(3.009539782 -0.04214061433 0)
(3.012991173 -0.049143398 0)
(3.018315083 -0.05531864107 0)
(3.025478431 -0.08303195461 0)
(3.027292918 -0.09511751531 0)
(3.031538769 -0.09706554757 0)
(3.03838278 -0.1177509123 0)
(3.039296983 -0.13513879 0)
(3.041777105 -0.1362038981 0)
(3.046755867 -0.146349736 0)
(3.049430575 -0.1689900306 0)
(3.050564167 -0.1736172448 0)
(3.052913794 -0.1752179532 0)
(3.059468792 -0.196812892 0)
(3.05994237 -0.2114377092 0)
(3.062639564 -0.2127715298 0)
(3.067387191 -0.2213172557 0)
(3.069257406 -0.240245914 0)
(3.069169909 -0.2456599187 0)
(3.071768087 -0.2461031424 0)
(3.075032435 -0.2575714738 0)
(3.07446289 -0.2700772401 0)
(3.075033673 -0.2727441432 0)
(3.077779236 -0.2757566072 0)
(2.95817784 0.1083931511 0)
(2.967223126 0.07955744785 0)
(2.972673879 0.06905170447 0)
(2.979237274 0.0553465019 0)
(2.986763859 0.02577730413 0)
(2.990629868 0.01570199452 0)
(2.99580372 0.007805764142 0)
(3.004226483 -0.02153264397 0)
(3.007182786 -0.03489043936 0)
(3.012019143 -0.03913047986 0)
(3.020383175 -0.0631613941 0)
(3.022477436 -0.07999628233 0)
(3.025841304 -0.08129625057 0)
(3.032885059 -0.09708105432 0)
(3.035868003 -0.1204874067 0)
(3.037791574 -0.1241717717 0)
(3.042036967 -0.1299203745 0)
(3.046875289 -0.1539790549 0)
(3.046907113 -0.1632000553 0)
(3.049431332 -0.1636620082 0)
(3.055111741 -0.1787234801 0)
(3.055828353 -0.1950664448 0)
(3.057751576 -0.1959654613 0)
(3.060990513 -0.1993931331 0)
(3.065718831 -0.2198270976 0)
(3.065617665 -0.2296106195 0)
(3.067475174 -0.230805989 0)
(3.072226874 -0.242844436 0)
(3.073303709 -0.2567857728 0)
(3.073192417 -0.2625320372 0)
(3.075095116 -0.2679970958 0)
(2.949351291 0.1291232746 0)
(2.959579718 0.1014517801 0)
(2.965391213 0.08620451528 0)
(2.971458848 0.07638542128 0)
(2.980794897 0.04751518309 0)
(2.984543336 0.03161331238 0)
(2.988972251 0.02601238175 0)
(2.997657181 0.0008190263069 0)
(3.000943179 -0.01729765701 0)
(3.004731169 -0.02031241792 0)
(3.013001109 -0.03993276819 0)
(3.016912977 -0.06263907507 0)
(3.020060638 -0.06575071933 0)
(3.02623994 -0.07593249734 0)
(3.031072431 -0.1010389579 0)
(3.032499812 -0.1072308401 0)
(3.035152204 -0.1085328005 0)
(3.041581635 -0.1310498355 0)
(3.042260325 -0.1461649731 0)
(3.044605399 -0.1468622077 0)
(3.049688335 -0.1584067792 0)
(3.052361176 -0.1794158316 0)
(3.053426576 -0.1835961747 0)
(3.056872986 -0.1861942554 0)
(3.061904684 -0.2033571223 0)
(3.061960053 -0.2141529996 0)
(3.062962459 -0.2147807175 0)
(3.067964182 -0.2253988192 0)
(3.07009712 -0.2385676062 0)
(3.069619739 -0.2426704951 0)
(3.07151973 -0.2507496148 0)
(2.940906762 0.1469077548 0)
(2.951225185 0.1230031165 0)
(2.958112352 0.1031475797 0)
(2.963918006 0.09452933398 0)
(2.973523921 0.07034567368 0)
(2.97841111 0.04944046621 0)
(2.982392058 0.0434362293 0)
(2.991059749 0.0219631115 0)
(2.995429269 -0.0009047642953 0)
(2.998401947 -0.004636085437 0)
(3.005519082 -0.01904983393 0)
(3.011520135 -0.04519088966 0)
(3.014427467 -0.05107866306 0)
(3.019727799 -0.05776071738 0)
(3.026934075 -0.0837282089 0)
(3.028097097 -0.09470637477 0)
(3.030946813 -0.09574020722 0)
(3.037743337 -0.1140329242 0)
(3.038673422 -0.1320691208 0)
(3.03999022 -0.1325520877 0)
(3.044010243 -0.1400073415 0)
(3.049136814 -0.1633974655 0)
(3.049760913 -0.1706781769 0)
(3.052571632 -0.1736800038 0)
(3.058408765 -0.1903387106 0)
(3.05927965 -0.2021980092 0)
(3.060049659 -0.2039090427 0)
(3.063924607 -0.2119042235 0)
(3.066910051 -0.2266068403 0)
(3.06706891 -0.228408756 0)
(3.067524185 -0.2326496902 0)
(2.933079499 0.1626201025 0)
(2.942051323 0.143915736 0)
(2.950353475 0.1214810256 0)
(2.956420734 0.1110727031 0)
(2.965880636 0.09119441307 0)
(2.972295294 0.0674250928 0)
(2.975876638 0.06058297798 0)
(2.98337122 0.04415762928 0)
(2.989711296 0.01767863944 0)
(2.9925899 0.010707123 0)
(2.998541568 6.480402815e-05 0)
(3.005824526 -0.02673361885 0)
(3.008263618 -0.03547041332 0)
(3.012143002 -0.0383264288 0)
(3.020512777 -0.06189503478 0)
(3.022518915 -0.07816667928 0)
(3.02537877 -0.07886215901 0)
(3.031592803 -0.0923597387 0)
(3.034654981 -0.1151280347 0)
(3.035683269 -0.1190706664 0)
(3.039510458 -0.1242215611 0)
(3.044506106 -0.1445300725 0)
(3.044626931 -0.1525631743 0)
(3.045705376 -0.1535983287 0)
(3.052154877 -0.1698543511 0)
(3.054500813 -0.1841384392 0)
(3.055490979 -0.1865839907 0)
(3.058985497 -0.1949978521 0)
(3.063407499 -0.2124899136 0)
(3.064637182 -0.218670377 0)
(3.065593439 -0.2196588634 0)
(2.925827203 0.1776596077 0)
(2.933693754 0.1617165541 0)
(2.942467802 0.1397527045 0)
(2.948622551 0.1275647738 0)
(2.957125076 0.1118247792 0)
(2.965598029 0.08653208355 0)
(2.969797578 0.07604227893 0)
(2.976672969 0.06282258551 0)
(2.98418812 0.0361639455 0)
(2.986771042 0.02670079408 0)
(2.990782817 0.02036062935 0)
(2.999688189 -0.006293560751 0)
(3.002506688 -0.02122222475 0)
(3.006301839 -0.02426662335 0)
(3.014882031 -0.04388764265 0)
(3.017736302 -0.0637622959 0)
(3.020112799 -0.0654885108 0)
(3.025814955 -0.0746718902 0)
(3.030935803 -0.09873942971 0)
(3.031707114 -0.1050791313 0)
(3.034567448 -0.109079113 0)
(3.041037111 -0.1296625104 0)
(3.041776514 -0.1415765372 0)
(3.04267832 -0.1438240101 0)
(3.048378638 -0.1578622024 0)
(3.050832268 -0.1730808897 0)
(3.052134007 -0.1740917485 0)
(3.054459863 -0.1782035052 0)
(3.059158575 -0.1951917827 0)
(3.06050219 -0.2047467267 0)
(3.062192432 -0.2043121974 0)
(2.9193089 0.1924648502 0)
(2.925898313 0.1783656808 0)
(2.934441679 0.1581839489 0)
(2.941208389 0.1429101451 0)
(2.948976032 0.1293246202 0)
(2.958303626 0.1055717443 0)
(2.963153841 0.09231556982 0)
(2.968928945 0.08253194671 0)
(2.978062971 0.05660949437 0)
(2.981457749 0.04116999608 0)
(2.985148424 0.03573597954 0)
(2.993473467 0.01375140545 0)
(2.99673726 -0.0051336908 0)
(2.999852789 -0.008006106274 0)
(3.006970754 -0.02207712537 0)
(3.012256652 -0.0461644988 0)
(3.014579079 -0.05180450098 0)
(3.020131319 -0.05888708648 0)
(3.026318426 -0.08093494946 0)
(3.026919991 -0.08906914805 0)
(3.028837681 -0.09185227314 0)
(3.035461039 -0.1102005953 0)
(3.037091726 -0.1238023066 0)
(3.037632145 -0.1250849622 0)
(3.041641769 -0.1363653187 0)
(3.045992855 -0.1565556425 0)
(3.047763495 -0.1616108019 0)
(3.050236003 -0.162911242 0)
(3.0554448 -0.1787072227 0)
(3.056797764 -0.1922333503 0)
(3.058719526 -0.1952931438 0)
(2.913687038 0.20642604 0)
(2.919554645 0.1927444215 0)
(2.926936244 0.1754831249 0)
(2.933860315 0.1587500691 0)
(2.940744561 0.1462672161 0)
(2.950211062 0.1250456283 0)
(2.956538769 0.1074315399 0)
(2.962266814 0.09822192986 0)
(2.971133268 0.07714387435 0)
(2.975739677 0.05780338736 0)
(2.979362852 0.05158634242 0)
(2.986882797 0.03431877981 0)
(2.991818146 0.01093636211 0)
(2.994343254 0.004978817143 0)
(3.000368616 -0.005085542015 0)
(3.006937862 -0.02876427326 0)
(3.008972651 -0.03691658976 0)
(3.013419414 -0.04242599848 0)
(3.021235935 -0.06348871347 0)
(3.023092679 -0.07614790863 0)
(3.025153101 -0.08007909409 0)
(3.031655931 -0.09668297506 0)
(3.033591655 -0.1119387655 0)
(3.034368965 -0.1133005715 0)
(3.037166538 -0.1201988367 0)
(3.042097186 -0.1405660841 0)
(3.043231309 -0.1497036275 0)
(3.046087307 -0.1502501186 0)
(3.050437919 -0.1605717908 0)
(3.053446267 -0.1786452573 0)
(3.054540493 -0.1850507628 0)
(2.908712696 0.219141136 0)
(2.914029569 0.2063403722 0)
(2.920261845 0.1915049888 0)
(2.927202113 0.1740954437 0)
(2.933593762 0.1608744672 0)
(2.941773552 0.1437562561 0)
(2.949272379 0.1240938094 0)
(2.955230005 0.113382551 0)
(2.963563739 0.09680295419 0)
(2.970278123 0.07438575544 0)
(2.974064041 0.06521403118 0)
(2.980168917 0.05346004211 0)
(2.986419074 0.03017180478 0)
(2.988926717 0.01952483622 0)
(2.994108137 0.01077019376 0)
(3.001307567 -0.01058224108 0)
(3.003594454 -0.02209864204 0)
(3.007393834 -0.02813396695 0)
(3.015192486 -0.04635726457 0)
(3.017984508 -0.05986894857 0)
(3.019543181 -0.06190402393 0)
(3.024584917 -0.074626366 0)
(3.02891694 -0.09547582093 0)
(3.030597904 -0.1013920154 0)
(3.033353263 -0.1046781384 0)
(3.038173214 -0.1224615397 0)
(3.039089954 -0.1363308948 0)
(3.041501161 -0.139601742 0)
(3.045308566 -0.1435947763 0)
(3.04809613 -0.1593214863 0)
(3.049079445 -0.1694396933 0)
(2.90433822 0.2296656206 0)
(2.909369463 0.2182512869 0)
(2.914654837 0.2056474919 0)
(2.920920792 0.1897825319 0)
(2.927092326 0.1750297961 0)
(2.933978487 0.1604818574 0)
(2.94195326 0.1409879113 0)
(2.948388471 0.1271220886 0)
(2.955652159 0.1146000747 0)
(2.963470856 0.09377782776 0)
(2.968292607 0.07971619941 0)
(2.974384145 0.06866139296 0)
(2.98122788 0.04852574609 0)
(2.984033628 0.03472452203 0)
(2.988071631 0.0262112066 0)
(2.995003661 0.008125170791 0)
(2.998252867 -0.006222648134 0)
(3.001629511 -0.01324832507 0)
(3.009167399 -0.03005013414 0)
(3.013213865 -0.04667105383 0)
(3.015643979 -0.05123711873 0)
(3.020348136 -0.06003004921 0)
(3.025120636 -0.07985873341 0)
(3.026294409 -0.08862167163 0)
(3.028864044 -0.08985454782 0)
(3.032613892 -0.1020060775 0)
(3.035849055 -0.1216876597 0)
(3.036958839 -0.1294286244 0)
(3.041330292 -0.1336102042 0)
(3.04565216 -0.1461988862 0)
(3.047191915 -0.1606477212 0)
(2.900341837 0.2378433796 0)
(2.905007038 0.2287174567 0)
(2.909918651 0.2177245035 0)
(2.915389726 0.2042595512 0)
(2.921348796 0.1889381037 0)
(2.927253116 0.1752681759 0)
(2.934253383 0.1586327342 0)
(2.941392088 0.1417537146 0)
(2.948450929 0.1289930859 0)
(2.956147461 0.112087119 0)
(2.962240634 0.09523753285 0)
(2.9681541 0.08366327971 0)
(2.974893206 0.06770128191 0)
(2.979039762 0.051399594 0)
(2.983060226 0.04013542008 0)
(2.989579086 0.02372013776 0)
(2.993337646 0.008697331671 0)
(2.995979592 0.002290233437 0)
(3.001823459 -0.01072139475 0)
(3.007402751 -0.03006382896 0)
(3.010579365 -0.03819883298 0)
(3.01498587 -0.04328960159 0)
(3.020384122 -0.06075442685 0)
(3.022384066 -0.07635209374 0)
(3.025019433 -0.08154519931 0)
(3.028745724 -0.0863704421 0)
(3.031270571 -0.1026854111 0)
(3.0322454 -0.1143920695 0)
(3.03573445 -0.1195313679 0)
(3.03945516 -0.1253225206 0)
(3.041464848 -0.1396819275 0)
(2.896785039 0.2435647538 0)
(2.900934763 0.2369819157 0)
(2.905628851 0.227864221 0)
(2.910508467 0.2168829246 0)
(2.916085444 0.2028055303 0)
(2.921662549 0.188499347 0)
(2.927428118 0.1744298831 0)
(2.934411683 0.1574779686 0)
(2.94137667 0.1428741664 0)
(2.948377049 0.1291863018 0)
(2.955429398 0.1121254194 0)
(2.961981006 0.09758910881 0)
(2.968844125 0.08332586395 0)
(2.973796926 0.06804750191 0)
(2.977773147 0.05615815917 0)
(2.983469947 0.04155944435 0)
(2.988183603 0.02450502805 0)
(2.991365031 0.01488348542 0)
(2.996320729 0.004737193249 0)
(3.002412602 -0.01417342201 0)
(3.005367241 -0.02628128377 0)
(3.009720961 -0.03070785568 0)
(3.014060523 -0.04061115612 0)
(3.018273102 -0.05967501175 0)
(3.020541827 -0.07008520743 0)
(3.025133469 -0.07491962715 0)
(3.028336891 -0.08629816506 0)
(3.030671958 -0.1031356394 0)
(3.031956316 -0.1121133077 0)
(3.036209197 -0.1181925552 0)
(3.038644801 -0.126337688 0)
(2.893876338 0.2472275332 0)
(2.897229084 0.2429244518 0)
(2.901529962 0.2360179857 0)
(2.906174705 0.2270267991 0)
(2.911178694 0.2155866525 0)
(2.916629983 0.2015856872 0)
(2.921774786 0.1883003882 0)
(2.927753705 0.1733456578 0)
(2.934713755 0.156975491 0)
(2.941313069 0.1435481432 0)
(2.94809079 0.1287916802 0)
(2.955128855 0.1130755409 0)
(2.962060964 0.09902269754 0)
(2.968117071 0.08380419308 0)
(2.972791408 0.07077277051 0)
(2.977973444 0.05799118729 0)
(2.983280769 0.04055596647 0)
(2.986721279 0.02755476798 0)
(2.990482263 0.02087960515 0)
(2.99516315 0.006838454964 0)
(3.000486797 -0.01211015716 0)
(3.004530136 -0.02179638143 0)
(3.009869581 -0.02769259684 0)
(3.013630384 -0.04194136987 0)
(3.01628024 -0.05632259974 0)
(3.020108181 -0.0630592943 0)
(3.023470718 -0.0675806692 0)
(3.02551159 -0.08241016105 0)
(3.027657298 -0.0964343985 0)
(3.031036644 -0.1046474286 0)
(3.034718467 -0.1111695419 0)
(2.891919345 0.2494204164 0)
(2.894187595 0.2467640855 0)
(2.897677498 0.2420720694 0)
(2.902013701 0.2350485736 0)
(2.906702788 0.2260353248 0)
(2.911900674 0.2140425951 0)
(2.916978619 0.2009544406 0)
(2.922055138 0.1878121583 0)
(2.928342415 0.172011276 0)
(2.934641949 0.1575328953 0)
(2.941042126 0.1438431074 0)
(2.948157397 0.1281763153 0)
(2.954945115 0.1145015775 0)
(2.961710913 0.09959347716 0)
(2.967542451 0.08442224304 0)
(2.972345468 0.07392727539 0)
(2.977420556 0.05930970722 0)
(2.982269159 0.04113865041 0)
(2.986147316 0.03092905983 0)
(2.989691556 0.02354790439 0)
(2.995099898 0.005644847052 0)
(2.99897737 -0.008752007661 0)
(3.004046077 -0.01461646352 0)
(3.007781139 -0.02308741908 0)
(3.013042785 -0.04200621314 0)
(3.015843111 -0.05384679362 0)
(3.020287992 -0.05993059401 0)
(3.022803144 -0.06800199174 0)
(3.024841578 -0.08231479839 0)
(3.026999639 -0.0928119166 0)
(3.030676559 -0.1001681906 0)
(2.891015459 0.2506533795 0)
(2.892117926 0.2490093841 0)
(2.894479246 0.2460333711 0)
(2.898047995 0.2411279035 0)
(2.902420629 0.2342086253 0)
(2.907323353 0.2248370652 0)
(2.912434267 0.213002908 0)
(2.917263945 0.2006983286 0)
(2.922719788 0.1864060722 0)
(2.928473714 0.1717664245 0)
(2.934418371 0.1581676061 0)
(2.941365581 0.1424901353 0)
(2.947841438 0.1292298686 0)
(2.954494566 0.1160036452 0)
(2.961733642 0.09846770689 0)
(2.967109614 0.08644203403 0)
(2.971326708 0.07716343168 0)
(2.977457225 0.05811517846 0)
(2.981400001 0.04281596256 0)
(2.985020158 0.03697459661 0)
(2.98858256 0.02515929963 0)
(2.994756319 0.00489430776 0)
(2.998577144 -0.005467413218 0)
(3.003187792 -0.01014505708 0)
(3.007083859 -0.02320249774 0)
(3.010756649 -0.03817810101 0)
(3.014872924 -0.04662667216 0)
(3.01922895 -0.05398809491 0)
(3.021467306 -0.06568975949 0)
(3.023825809 -0.07873331551 0)
(3.026671729 -0.08943742491 0)
(2.891193627 0.2512153444 0)
(2.891139971 0.2502974918 0)
(2.892212776 0.2485474985 0)
(2.894667132 0.2454083703 0)
(2.898381255 0.2404066924 0)
(2.902921125 0.2333451151 0)
(2.907917637 0.2237169054 0)
(2.912811615 0.2125121429 0)
(2.91787637 0.1995248247 0)
(2.923034246 0.1855314794 0)
(2.928267711 0.1724847555 0)
(2.934978041 0.1565184516 0)
(2.941259757 0.1423324067 0)
(2.946994026 0.1318816463 0)
(2.955085924 0.114426982 0)
(2.961389388 0.09831218376 0)
(2.965944375 0.09118801733 0)
(2.971208305 0.0773077946 0)
(2.97711089 0.05656415761 0)
(2.980602052 0.04689223273 0)
(2.983305443 0.04142710131 0)
(2.98905531 0.02299378723 0)
(2.99317595 0.007780232895 0)
(2.99774162 0.0007820402568 0)
(3.002459157 -0.008887255521 0)
(3.00674847 -0.02415418672 0)
(3.010310937 -0.03492205893 0)
(3.01501925 -0.04431586963 0)
(3.018389472 -0.05214702712 0)
(3.019196911 -0.06062273678 0)
(3.022485754 -0.07404924668 0)
(2.891805658 0.2515428975 0)
(2.891113687 0.2511768967 0)
(2.891133061 0.2501231058 0)
(2.892346101 0.2481565161 0)
(2.894941084 0.2448597264 0)
(2.898770011 0.2397636047 0)
(2.903415647 0.2324284592 0)
(2.908274438 0.2231092739 0)
(2.913312621 0.2116299003 0)
(2.91838663 0.198129975 0)
(2.922907154 0.1860397799 0)
(2.928794985 0.1713728959 0)
(2.935265022 0.1548647951 0)
(2.940491541 0.144977096 0)
(2.947285344 0.1316566101 0)
(2.955326398 0.1120053984 0)
(2.96057653 0.1018316686 0)
(2.96494126 0.09422456982 0)
(2.97192883 0.07401443807 0)
(2.975800275 0.05911522177 0)
(2.979393417 0.05259392525 0)
(2.98371579 0.03982314694 0)
(2.988335882 0.02270352454 0)
(2.992153682 0.01288694688 0)
(2.997481282 0.003150072574 0)
(3.001565294 -0.008129207816 0)
(3.004864398 -0.01899490915 0)
(3.009856915 -0.03155197997 0)
(3.014363033 -0.0427588074 0)
(3.016521043 -0.04788555408 0)
(3.017952651 -0.05701657795 0)
(2.892523822 0.2521107705 0)
(2.891739545 0.251517885 0)
(2.891257119 0.2508439005 0)
(2.891275231 0.2497256408 0)
(2.892502359 0.2477929848 0)
(2.895179135 0.2444502068 0)
(2.89914791 0.2390834041 0)
(2.903829209 0.231628518 0)
(2.908739028 0.2223360977 0)
(2.913987072 0.2100254758 0)
(2.918513587 0.1979285516 0)
(2.923210235 0.1857349351 0)
(2.929594639 0.1687639871 0)
(2.934803697 0.156233089 0)
(2.940048373 0.1467607834 0)
(2.948371421 0.128251233 0)
(2.954451645 0.1136130358 0)
(2.959672058 0.1062465255 0)
(2.96594558 0.09132135995 0)
(2.971060919 0.07368294149 0)
(2.974757197 0.06434430053 0)
(2.979410251 0.05346082567 0)
(2.983295056 0.03905288525 0)
(2.986989352 0.02707500162 0)
(2.9922378 0.01418090746 0)
(2.996955617 0.003015817559 0)
(2.999428613 -0.003319066916 0)
(3.004160244 -0.015738488 0)
(3.009281566 -0.03069872878 0)
(3.012907319 -0.03804523856 0)
(3.014434669 -0.0419685958 0)
(2.895082177 0.2528636586 0)
(2.892448355 0.2515795023 0)
(2.891878297 0.251268153 0)
(2.891218331 0.2507844971 0)
(2.891277417 0.2496741228 0)
(2.892637176 0.2475548951 0)
(2.895478324 0.2438962543 0)
(2.899563942 0.2382216529 0)
(2.904241183 0.2309013364 0)
(2.909412462 0.2209636316 0)
(2.914410878 0.2089596884 0)
(2.918589905 0.1982370877 0)
(2.924033641 0.1836593479 0)
(2.929588872 0.1681679768 0)
(2.934316716 0.1585342121 0)
(2.940949589 0.1444655666 0)
(2.948108103 0.1273007391 0)
(2.953775653 0.1174447674 0)
(2.960046336 0.1059462568 0)
(2.965659368 0.08984263788 0)
(2.9699628 0.0775344771 0)
(2.975228649 0.06448483158 0)
(2.979101989 0.05270575809 0)
(2.981026862 0.04419584489 0)
(2.986655616 0.02922440168 0)
(2.991684238 0.01395157105 0)
(2.995146165 0.007757943378 0)
(2.99818698 0.000535280052 0)
(3.004618786 -0.01678959464 0)
(3.008026142 -0.02808319929 0)
(3.011271151 -0.03100868263 0)
(2.896837508 0.2520638273 0)
(2.894044272 0.2521743237 0)
(2.892463942 0.2518570753 0)
(2.891792786 0.2514124904 0)
(2.891306403 0.2507508876 0)
(2.89138953 0.2494511843 0)
(2.892827147 0.2471106456 0)
(2.895819947 0.2431171512 0)
(2.899975847 0.237392911 0)
(2.904757441 0.2299945681 0)
(2.910050975 0.2195447017 0)
(2.914684069 0.2086873293 0)
(2.919117097 0.1972097492 0)
(2.924528321 0.1818997612 0)
(2.929300853 0.1695587085 0)
(2.934645177 0.1580293 0)
(2.941266524 0.1425130818 0)
(2.947453431 0.1298219543 0)
(2.954321182 0.117364858 0)
(2.959966491 0.1044936606 0)
(2.964080607 0.09357045547 0)
(2.970293118 0.07829778897 0)
(2.975045617 0.06341008892 0)
(2.977182237 0.05717811221 0)
(2.98075297 0.04617643614 0)
(2.98683813 0.02735325997 0)
(2.990194096 0.0175836984 0)
(2.993073105 0.01427850743 0)
(2.998695963 4.237141798e-05 0)
(3.003464683 -0.0163561241 0)
(3.006920687 -0.02307631794 0)
(2.897543006 0.2506794849 0)
(2.897371493 0.2540740535 0)
(2.894746407 0.2526326779 0)
(2.892533511 0.2515261649 0)
(2.891946305 0.2511718262 0)
(2.891287907 0.2506335977 0)
(2.891460313 0.2491855354 0)
(2.893059815 0.2465422682 0)
(2.896179794 0.2423366658 0)
(2.900381807 0.236690401 0)
(2.905336652 0.2289071211 0)
(2.910464879 0.2188041442 0)
(2.915021297 0.2083232114 0)
(2.9197409 0.1954961729 0)
(2.924505809 0.1819849804 0)
(2.929496539 0.169594826 0)
(2.935004093 0.1563659676 0)
(2.940676013 0.144057904 0)
(2.947961486 0.1299900744 0)
(2.954492696 0.1158044017 0)
(2.958616535 0.1074696984 0)
(2.964362141 0.09454028014 0)
(2.970480938 0.07632980405 0)
(2.973567688 0.06730774778 0)
(2.975643635 0.06182632668 0)
(2.981951564 0.04361056917 0)
(2.985502211 0.02841022784 0)
(2.988904535 0.02303949395 0)
(2.992627793 0.01577739407 0)
(2.998412179 -0.001435112395 0)
(3.001741288 -0.01200554172 0)
(2.897242251 0.2505965708 0)
(2.897865464 0.2518047202 0)
(2.896474858 0.2519517968 0)
(2.894080227 0.2519965572 0)
(2.892627331 0.2517289934 0)
(2.892023222 0.2511766233 0)
(2.891368634 0.2502538665 0)
(2.89158293 0.2486528721 0)
(2.893251721 0.2459712377 0)
(2.896442823 0.2418299342 0)
(2.90079757 0.2360797048 0)
(2.905878453 0.2279795726 0)
(2.910871939 0.2182377463 0)
(2.915464868 0.2072837551 0)
(2.919951071 0.1948359787 0)
(2.924800769 0.1816311491 0)
(2.92987389 0.1681450341 0)
(2.934546747 0.157250923 0)
(2.941007996 0.1444207165 0)
(2.948415402 0.1280794156 0)
(2.953432186 0.1182417369 0)
(2.958147114 0.109858067 0)
(2.965477264 0.09163341392 0)
(2.96931426 0.07783373484 0)
(2.972292032 0.07248903382 0)
(2.976147546 0.06105688725 0)
(2.981257387 0.04241180497 0)
(2.984117737 0.03290687347 0)
(2.988191401 0.02670410657 0)
(2.99284627 0.01396306031 0)
(2.996995081 0.0005878648832 0)
(2.889572276 0.2427919773 0)
(2.897049292 0.242746182 0)
(2.897657446 0.2507495934 0)
(2.897330985 0.253588823 0)
(2.894903732 0.2522338124 0)
(2.892702492 0.2512976364 0)
(2.8919979 0.2509024212 0)
(2.891368868 0.250092049 0)
(2.89167566 0.2484171786 0)
(2.893479373 0.2455887572 0)
(2.89681435 0.2413233231 0)
(2.90127443 0.2353485513 0)
(2.906348987 0.227201883 0)
(2.911345492 0.2172619012 0)
(2.915716499 0.206502849 0)
(2.920139426 0.1945191678 0)
(2.925248343 0.1801753821 0)
(2.929640327 0.1683008234 0)
(2.934432377 0.1582316455 0)
(2.941940009 0.1421681412 0)
(2.947824881 0.1285976098 0)
(2.952721026 0.1215237601 0)
(2.958933857 0.1084147066 0)
(2.964850437 0.0908164117 0)
(2.968431396 0.08158835718 0)
(2.972010077 0.07434557838 0)
(2.976292897 0.05886223507 0)
(2.979747865 0.04507520215 0)
(2.983699701 0.03595079863 0)
(2.98810278 0.02690281412 0)
(2.991553585 0.01566096183 0)
(2.926998692 0.1924442569 0)
(2.902242452 0.2285139055 0)
(2.897885872 0.2511657147 0)
(2.897997137 0.2514836946 0)
(2.896572435 0.2516703354 0)
(2.894152104 0.251784283 0)
(2.892714799 0.2514336589 0)
(2.892038684 0.2508125281 0)
(2.891400677 0.2498320127 0)
(2.89178143 0.2481382945 0)
(2.893708148 0.2452156604 0)
(2.897166097 0.2407865445 0)
(2.90169924 0.2346643343 0)
(2.906816086 0.2263542948 0)
(2.911741768 0.2162731496 0)
(2.91599591 0.2059332043 0)
(2.920644248 0.1932206768 0)
(2.925348036 0.1793109572 0)
(2.929438039 0.1693211081 0)
(2.93497616 0.1571765214 0)
(2.941956419 0.1410294242 0)
(2.94740392 0.1306951491 0)
(2.952833827 0.1220369729 0)
(2.959043274 0.1066242112 0)
(2.96381223 0.09314604208 0)
(2.968357756 0.08373788846 0)
(2.972006723 0.07347594382 0)
(2.975282772 0.05995967958 0)
(2.979205829 0.04744026067 0)
(2.98368116 0.03693401796 0)
(2.98669772 0.02956761993 0)
(2.950924556 0.1547876326 0)
(2.910060916 0.2463937788 0)
(2.88983996 0.2423066822 0)
(2.897976426 0.2427692873 0)
(2.898032597 0.2506321085 0)
(2.897437226 0.253409148 0)
(2.894673235 0.2518790592 0)
(2.892674624 0.2511166414 0)
(2.891985406 0.2507074986 0)
(2.891466022 0.2497455823 0)
(2.89194516 0.2478906892 0)
(2.894003754 0.2447577498 0)
(2.897579742 0.2401248683 0)
(2.902179568 0.2338430661 0)
(2.907319396 0.2252881797 0)
(2.912063317 0.2156147585 0)
(2.916360319 0.2051844765 0)
(2.921098101 0.1917523222 0)
(2.925322687 0.1794473607 0)
(2.929485197 0.1695396192 0)
(2.935446193 0.1555810348 0)
(2.94163872 0.1417360554 0)
(2.947414089 0.1319159601 0)
(2.952961094 0.1209877686 0)
(2.95861229 0.1069386515 0)
(2.963775632 0.09454674206 0)
(2.968273733 0.08455008945 0)
(2.970777816 0.07521921044 0)
(2.975092199 0.06114895931 0)
(2.979425222 0.04714171276 0)
(2.98282294 0.03921493094 0)
(2.96537703 0.09529212244 0)
(2.932859338 0.1771231636 0)
(2.926845053 0.1913121234 0)
(2.902621986 0.2286940336 0)
(2.898502106 0.2513839466 0)
(2.898406787 0.251550688 0)
(2.896406229 0.2514859328 0)
(2.894003096 0.2514862588 0)
(2.892779711 0.2510785095 0)
(2.892057237 0.2506515052 0)
(2.89150725 0.2495980903 0)
(2.892074697 0.2476176318 0)
(2.894283216 0.2442701402 0)
(2.897951636 0.2395106799 0)
(2.902692284 0.2329341405 0)
(2.90785669 0.2242369491 0)
(2.912435613 0.2150435377 0)
(2.916822184 0.2041168161 0)
(2.921436654 0.1907581436 0)
(2.925374895 0.1796292704 0)
(2.92964602 0.1688847867 0)
(2.935667138 0.1547964288 0)
(2.941699325 0.1421858437 0)
(2.947280192 0.1323417173 0)
(2.95241535 0.1215165764 0)
(2.958750705 0.1071924306 0)
(2.964010312 0.09422313829 0)
(2.967335969 0.08647736891 0)
(2.96989707 0.07721971426 0)
(2.9751622 0.06096291554 0)
(2.978597787 0.0487381948 0)
(2.986154957 0.0351137041 0)
(2.957309804 0.1004337607 0)
(2.950396884 0.1543922276 0)
(2.909626613 0.2456325275 0)
(2.890223173 0.2413017908 0)
(2.899138119 0.2430602884 0)
(2.898276306 0.2511265908 0)
(2.897234366 0.2532145443 0)
(2.894111558 0.2515706995 0)
(2.892724075 0.250968749 0)
(2.892031015 0.2505716613 0)
(2.891594198 0.2494229283 0)
(2.892307595 0.247167216 0)
(2.894656155 0.2435943862 0)
(2.89841535 0.2387519339 0)
(2.903276814 0.2319519343 0)
(2.908383673 0.2233963483 0)
(2.912842461 0.2144321714 0)
(2.917301054 0.2029694878 0)
(2.921613692 0.1902587012 0)
(2.925355506 0.1796128242 0)
(2.929746712 0.1683114167 0)
(2.935888458 0.1543169369 0)
(2.941790848 0.1419818784 0)
(2.946803605 0.1330818739 0)
(2.952298622 0.1218873204 0)
(2.958893033 0.106759749 0)
(2.963389944 0.09556824742 0)
(2.966440685 0.08885663244 0)
(2.970351319 0.07652581376 0)
(2.974694721 0.06104254575 0)
(2.9965535 0.008621439088 0)
(2.984531832 0.03722337984 0)
(2.965556263 0.09427471846 0)