/*--------------------------------*- C++ -*----------------------------------*\
  =========                 |
  \\      /  F ield         | OpenFOAM: The Open Source CFD Toolbox
   \\    /   O peration     | Website:  https://openfoam.org
    \\  /    A nd           | Version:  7
     \\/     M anipulation  |
\*---------------------------------------------------------------------------*/
FoamFile
{
    version     2.0;
    format      ascii;
    class       volVectorField;
    location    "3.3";
    object      U;
}
// * * * * * * * * * * * * * * * * * * * * * * * * * * * * * * * * * * * * * //

dimensions      [0 1 -1 0 0 0 0];

internalField   nonuniform List<vector> 
2222
(
(3.136306668 -0.829094411 0)
(3.137381981 -0.829732441 0)
(3.130592995 -0.7443183279 0)
(3.024732033 -0.1151945037 0)
(2.977715112 -0.02176781854 0)
(3.097262741 -0.8070686901 0)
(3.151315616 -0.8368582771 0)
(3.263628606 -0.8718571265 0)
(3.397899699 -0.8566010655 0)
(3.368937795 -0.8826181293 0)
(3.222350886 -0.8605918877 0)
(3.117326168 -0.8409998091 0)
(3.050921145 -0.8055896514 0)
(3.044223964 -0.802808574 0)
(3.057601205 -0.8073415608 0)
(3.072493105 -0.8166250853 0)
(3.084084492 -0.8207899825 0)
(3.098921242 -0.8220053073 0)
(3.110985373 -0.8223418178 0)
(3.118316499 -0.8254996702 0)
(3.12781423 -0.8298698737 0)
(3.133826458 -0.8287936084 0)
(3.134205514 -0.8284768926 0)
(3.133690902 -0.8293529343 0)
(3.134267263 -0.828647959 0)
(3.134411941 -0.827865442 0)
(3.133699444 -0.8281798461 0)
(3.134250471 -0.8289844977 0)
(3.135102352 -0.8288856683 0)
(3.134880781 -0.828909761 0)
(3.134616913 -0.8297910429 0)
(3.135827372 -0.8294063389 0)
(3.136123821 -0.8288341489 0)
(3.13571541 -0.8290956 0)
(3.136159684 -0.8295909411 0)
(3.137272652 -0.8297026794 0)
(3.134773266 -0.8159021418 0)
(3.085316822 -0.3377908284 0)
(2.989160726 -0.0004805216002 0)
(3.094790393 -0.808801257 0)
(3.15003547 -0.8470745766 0)
(3.267208876 -0.8741127619 0)
(3.399556178 -0.8551503976 0)
(3.371760899 -0.8801596932 0)
(3.223033881 -0.861734574 0)
(3.114097319 -0.8413936878 0)
(3.048193979 -0.8053573377 0)
(3.043466475 -0.8028624943 0)
(3.058790808 -0.8082882259 0)
(3.0743974 -0.8171551489 0)
(3.0854382 -0.8212506015 0)
(3.09907926 -0.8229243515 0)
(3.110845915 -0.8222737138 0)
(3.118375587 -0.8249165319 0)
(3.127189443 -0.829380627 0)
(3.134190665 -0.828851037 0)
(3.134682907 -0.8288363851 0)
(3.134004517 -0.8297425695 0)
(3.134302331 -0.8292442289 0)
(3.134441802 -0.8287306926 0)
(3.133645685 -0.8290582501 0)
(3.133857442 -0.8299731794 0)
(3.135121777 -0.8298495635 0)
(3.134912621 -0.8296857561 0)
(3.134427809 -0.8306329277 0)
(3.135514961 -0.8303965921 0)
(3.136083378 -0.8297748256 0)
(3.135664931 -0.8299868729 0)
(3.135888752 -0.8306173798 0)
(3.137087227 -0.8305483207 0)
(3.137811968 -0.8299724337 0)
(3.137416665 -0.595870926 0)
(2.980722279 -0.04604380778 0)
(3.090985239 -0.8177374037 0)
(3.149892885 -0.8513657923 0)
(3.27143485 -0.8748145287 0)
(3.402903293 -0.8565771622 0)
(3.374343092 -0.8783746311 0)
(3.223233026 -0.8630555534 0)
(3.110315728 -0.8415268587 0)
(3.045822255 -0.8059499399 0)
(3.040753363 -0.8041887831 0)
(3.059879211 -0.8093433425 0)
(3.076356054 -0.8172967649 0)
(3.0870543 -0.8211486052 0)
(3.099306555 -0.8236446736 0)
(3.11082439 -0.8224994902 0)
(3.119043878 -0.8252258045 0)
(3.126688333 -0.8300500676 0)
(3.134078099 -0.8293063535 0)
(3.134800543 -0.8297528527 0)
(3.134092078 -0.8305488487 0)
(3.134134837 -0.8304441031 0)
(3.134500263 -0.8296612786 0)
(3.133620485 -0.8299249004 0)
(3.133701369 -0.8309739057 0)
(3.135121719 -0.8306654603 0)
(3.134983699 -0.8303636271 0)
(3.134418508 -0.8313389224 0)
(3.135373523 -0.8312621667 0)
(3.136066316 -0.8305980109 0)
(3.135652408 -0.8307520549 0)
(3.135742934 -0.8315337522 0)
(3.137102859 -0.8312787036 0)
(3.137361009 -0.8306853813 0)
(3.131788121 -0.7504037142 0)
(3.040489862 -0.237548489 0)
(3.087126873 -0.8257374677 0)
(3.1497231 -0.8522621319 0)
(3.275648934 -0.8754446995 0)
(3.40666374 -0.8586567892 0)
(3.3782241 -0.8763121094 0)
(3.222013301 -0.8638301933 0)
(3.105614693 -0.8416372023 0)
(3.043007173 -0.8065757517 0)
(3.037418731 -0.8064157996 0)
(3.061301243 -0.8104025425 0)
(3.079756291 -0.8163860862 0)
(3.089279726 -0.8211147134 0)
(3.099514326 -0.8241863036 0)
(3.11063382 -0.8237074439 0)
(3.119485432 -0.825946392 0)
(3.125965043 -0.8312360034 0)
(3.133255719 -0.8303443313 0)
(3.135105067 -0.8305948444 0)
(3.13419776 -0.8312170169 0)
(3.134136214 -0.8313931534 0)
(3.134621831 -0.8304898444 0)
(3.133766476 -0.8306625663 0)
(3.133586132 -0.8318338079 0)
(3.135137816 -0.831429199 0)
(3.135192371 -0.830815615 0)
(3.134435066 -0.8312263675 0)
(3.135278634 -0.8318242298 0)
(3.136166279 -0.8312251723 0)
(3.135682841 -0.8309994959 0)
(3.13569539 -0.8320620312 0)
(3.13702785 -0.832068708 0)
(3.137362083 -0.8315145353 0)
(3.137135172 -0.8254769264 0)
(3.142586931 -0.4329962989 0)
(3.084161135 -0.8276175863 0)
(3.148982249 -0.8524879114 0)
(3.277763003 -0.8763151425 0)
(3.409696386 -0.8642778571 0)
(3.382308231 -0.8745808736 0)
(3.216855553 -0.8635271469 0)
(3.100069261 -0.8417229156 0)
(3.041758166 -0.8068120264 0)
(3.034706787 -0.808410668 0)
(3.062554342 -0.811186035 0)
(3.082587725 -0.8159092601 0)
(3.0918314 -0.821609874 0)
(3.099748201 -0.8252324111 0)
(3.111304969 -0.8256751412 0)
(3.119996386 -0.8267158405 0)
(3.12552681 -0.8323436401 0)
(3.132610583 -0.8316834353 0)
(3.135264707 -0.8312149215 0)
(3.134373538 -0.8316846697 0)
(3.134125726 -0.8321398372 0)
(3.134803536 -0.8309249274 0)
(3.13376363 -0.8305668636 0)
(3.133464426 -0.8318360544 0)
(3.135133719 -0.8316167946 0)
(3.135454617 -0.8304553849 0)
(3.134703856 -0.8306148238 0)
(3.13520475 -0.8314713675 0)
(3.136241263 -0.8311789923 0)
(3.13589552 -0.8305239738 0)
(3.135583144 -0.8316722576 0)
(3.137019881 -0.8320416929 0)
(3.137536087 -0.8317521448 0)
(3.136944456 -0.830738043 0)
(3.136333149 -0.5542899805 0)
(3.02195606 -0.1620133348 0)
(3.082851974 -0.8275075032 0)
(3.147682839 -0.8471660808 0)
(3.278184529 -0.878209602 0)
(3.412865459 -0.870061256 0)
(3.385218001 -0.8737465766 0)
(3.214129581 -0.8639409791 0)
(3.09537112 -0.8412105611 0)
(3.040704246 -0.8063847238 0)
(3.032536906 -0.8080425097 0)
(3.061575276 -0.8111689206 0)
(3.083349066 -0.8163577988 0)
(3.093230869 -0.8224384602 0)
(3.100141523 -0.8266753229 0)
(3.112103621 -0.8270342103 0)
(3.120608708 -0.8273904062 0)
(3.125070874 -0.8324050658 0)
(3.132019912 -0.8328555019 0)
(3.135416617 -0.8317675827 0)
(3.13448867 -0.8317485256 0)
(3.133993491 -0.832392395 0)
(3.134819606 -0.8306844473 0)
(3.13393247 -0.8302430372 0)
(3.133385421 -0.8314951997 0)
(3.135092779 -0.8314593327 0)
(3.135803105 -0.8307299054 0)
(3.135147572 -0.8310070725 0)
(3.135288095 -0.831723896 0)
(3.13644108 -0.8314391798 0)
(3.13641363 -0.8308483165 0)
(3.135834311 -0.8317908117 0)
(3.137003701 -0.8320500462 0)
(3.137655905 -0.8314609559 0)
(3.137155561 -0.831729184 0)
(3.133126354 -0.7905488764 0)
(3.075841445 -0.212591071 0)
(3.081663629 -0.8255243114 0)
(3.146864919 -0.8339197297 0)
(3.278310125 -0.8808316492 0)
(3.41397944 -0.8723420851 0)
(3.387616402 -0.8727167599 0)
(3.213419619 -0.8643945904 0)
(3.091022698 -0.8417795537 0)
(3.041217637 -0.805766408 0)
(3.031170114 -0.8058643031 0)
(3.058517438 -0.8115424659 0)
(3.0825966 -0.8180695786 0)
(3.094526843 -0.8234057311 0)
(3.100708209 -0.8275917806 0)
(3.112925518 -0.8280915803 0)
(3.121413171 -0.8278048077 0)
(3.12500226 -0.8306216627 0)
(3.131467197 -0.8330856122 0)
(3.135552335 -0.8316198124 0)
(3.134581355 -0.8310779453 0)
(3.1338061 -0.8320396328 0)
(3.134750739 -0.8310490328 0)
(3.134381656 -0.8306310773 0)
(3.133473157 -0.8318740526 0)
(3.134822093 -0.8320210854 0)
(3.135760237 -0.8315806155 0)
(3.135128557 -0.831817844 0)
(3.134965846 -0.8326024352 0)
(3.136331259 -0.8322514358 0)
(3.136469301 -0.8316792452 0)
(3.135855348 -0.8324671573 0)
(3.136782567 -0.8327511794 0)
(3.137719034 -0.8320470882 0)
(3.137545658 -0.832041775 0)
(3.136081298 -0.8277303436 0)
(3.110910659 -0.3495836567 0)
(3.081831692 -0.8191530927 0)
(3.144984773 -0.8288949578 0)
(3.27546637 -0.8836894323 0)
(3.415928451 -0.8736967632 0)
(3.391911082 -0.8704379074 0)
(3.214154447 -0.8645611265 0)
(3.089789357 -0.8424631596 0)
(3.042409405 -0.8057573102 0)
(3.030570673 -0.8055584604 0)
(3.054813507 -0.813368977 0)
(3.081757245 -0.8193123728 0)
(3.095207615 -0.8238174011 0)
(3.101576229 -0.8281732916 0)
(3.113715134 -0.8288183171 0)
(3.122030184 -0.8278340161 0)
(3.125633659 -0.8301102783 0)
(3.130994311 -0.8329586703 0)
(3.135423452 -0.8315901921 0)
(3.134864214 -0.831196412 0)
(3.13376507 -0.8324143002 0)
(3.134460221 -0.8322109346 0)
(3.134468911 -0.8314653425 0)
(3.133393842 -0.8325495858 0)
(3.134263141 -0.8330473907 0)
(3.135729638 -0.8327947467 0)
(3.135121538 -0.8328314261 0)
(3.134657034 -0.8338306234 0)
(3.136118015 -0.8335577741 0)
(3.136475867 -0.8328717611 0)
(3.135763877 -0.833498964 0)
(3.136401706 -0.8339545801 0)
(3.137451912 -0.8332731246 0)
(3.137445556 -0.8329011097 0)
(3.136699078 -0.8337703641 0)
(3.131449982 -0.6596333121 0)
(3.08088127 -0.8105096376 0)
(3.143543925 -0.828167341 0)
(3.273084712 -0.885495141 0)
(3.420008524 -0.8746538915 0)
(3.398537754 -0.8677114945 0)
(3.216658111 -0.8640034343 0)
(3.08879395 -0.8426673827 0)
(3.044744797 -0.8069972248 0)
(3.030200409 -0.8065389327 0)
(3.05226416 -0.8155466937 0)
(3.081093162 -0.8204493643 0)
(3.09569222 -0.8244426733 0)
(3.102648295 -0.8277734227 0)
(3.114350397 -0.8289558294 0)
(3.122842272 -0.8279576708 0)
(3.126257698 -0.8304074418 0)
(3.130396921 -0.8339012215 0)
(3.135076264 -0.8325445334 0)
(3.134850439 -0.8319899084 0)
(3.133455555 -0.8335884381 0)
(3.134559514 -0.8336953303 0)
(3.134748315 -0.8325772308 0)
(3.133482303 -0.8334237885 0)
(3.133996767 -0.8341969925 0)
(3.135705766 -0.8337286246 0)
(3.135249299 -0.8336039593 0)
(3.134613885 -0.8347474462 0)
(3.136101277 -0.834606902 0)
(3.136697545 -0.8338740784 0)
(3.13612352 -0.8344084417 0)
(3.13634195 -0.8350449174 0)
(3.137427294 -0.8345440976 0)
(3.137449127 -0.8340351844 0)
(3.137122272 -0.8349659511 0)
(3.133636428 -0.8042572163 0)
(3.078592316 -0.805485833 0)
(3.140298564 -0.8287200682 0)
(3.270172442 -0.8940096832 0)
(3.425940281 -0.8759986137 0)
(3.405508902 -0.8648154527 0)
(3.219872308 -0.8627920172 0)
(3.087368965 -0.8433194627 0)
(3.046801754 -0.8085324828 0)
(3.030090835 -0.8075929176 0)
(3.050589041 -0.8173134648 0)
(3.079503585 -0.8217030698 0)
(3.096527131 -0.8243882683 0)
(3.104561597 -0.8273507563 0)
(3.114546772 -0.8295098138 0)
(3.123240398 -0.8285701402 0)
(3.126680925 -0.8310635132 0)
(3.129730273 -0.8354393737 0)
(3.134799173 -0.8343443919 0)
(3.134807004 -0.833388152 0)
(3.133426538 -0.8348134458 0)
(3.134549376 -0.8350016203 0)
(3.135152856 -0.8337442078 0)
(3.133853101 -0.8340235 0)
(3.133802338 -0.8351972308 0)
(3.135685971 -0.8346369442 0)
(3.135620675 -0.8339870687 0)
(3.134777394 -0.8351891203 0)
(3.136231471 -0.8353962817 0)
(3.137100176 -0.8345443663 0)
(3.136430799 -0.8344736178 0)
(3.136341451 -0.8357001381 0)
(3.137589139 -0.8357384996 0)
(3.137826946 -0.8351389917 0)
(3.136961837 -0.8354350075 0)
(3.137459397 -0.8325490225 0)
(3.077024118 -0.805173911 0)
(3.13724119 -0.836107104 0)
(3.26946556 -0.9026014908 0)
(3.429790904 -0.8776880157 0)
(3.408254171 -0.862716088 0)
(3.221101796 -0.8609671283 0)
(3.085430351 -0.8444550483 0)
(3.047379691 -0.8112679123 0)
(3.030033368 -0.8084438372 0)
(3.049147015 -0.8166640491 0)
(3.077340971 -0.8209703359 0)
(3.096864947 -0.8241016307 0)
(3.10567305 -0.8280949419 0)
(3.114470143 -0.8312531829 0)
(3.123652243 -0.8309499088 0)
(3.127485405 -0.8319948841 0)
(3.129661707 -0.8368763069 0)
(3.134707195 -0.8357400101 0)
(3.13509073 -0.8345232304 0)
(3.133820856 -0.8355403275 0)
(3.134496975 -0.8360931426 0)
(3.135623616 -0.834420023 0)
(3.133829426 -0.8338058786 0)
(3.133303113 -0.835168587 0)
(3.135351571 -0.8346570047 0)
(3.135767561 -0.833698637 0)
(3.134826594 -0.8348337735 0)
(3.135855122 -0.8352912569 0)
(3.136980931 -0.8344616105 0)
(3.136348062 -0.8344014706 0)
(3.135908814 -0.835572212 0)
(3.1372244 -0.8359665982 0)
(3.137649337 -0.8353397541 0)
(3.137154041 -0.8362123214 0)
(3.137445148 -0.8368947916 0)
(3.076235168 -0.8067394467 0)
(3.136842762 -0.8460623374 0)
(3.270320933 -0.9059177411 0)
(3.432549588 -0.8814571971 0)
(3.407175192 -0.8619067295 0)
(3.219879615 -0.858800608 0)
(3.081310233 -0.8449879854 0)
(3.044164737 -0.815870369 0)
(3.03011332 -0.8086694454 0)
(3.049427891 -0.8144409704 0)
(3.074457371 -0.821025298 0)
(3.096394574 -0.8247203362 0)
(3.105849302 -0.8291743487 0)
(3.114489097 -0.8343643138 0)
(3.125083131 -0.8334191816 0)
(3.128106321 -0.8329725325 0)
(3.129727754 -0.8375061281 0)
(3.13400264 -0.8367761313 0)
(3.135558995 -0.8351163682 0)
(3.133920798 -0.8349860003 0)
(3.133789 -0.835917894 0)
(3.135493329 -0.8344307841 0)
(3.133929277 -0.8340407314 0)
(3.132897161 -0.8354791608 0)
(3.135011361 -0.8351873032 0)
(3.13586595 -0.8341881265 0)
(3.134892419 -0.8352351536 0)
(3.135566579 -0.8357470648 0)
(3.136938501 -0.8349131116 0)
(3.136439675 -0.8348159894 0)
(3.135806732 -0.8359222742 0)
(3.137031619 -0.8361298831 0)
(3.137628366 -0.8354496853 0)
(3.137035291 -0.8357732176 0)
(3.136924928 -0.8365517406 0)
(3.075730536 -0.8117615082 0)
(3.134587803 -0.8495070672 0)
(3.270261067 -0.9077129009 0)
(3.43382955 -0.8858419589 0)
(3.405538915 -0.8619648702 0)
(3.218044783 -0.8566505752 0)
(3.078779981 -0.8449551541 0)
(3.038810643 -0.8197581983 0)
(3.030774304 -0.808881131 0)
(3.050050152 -0.8140862 0)
(3.072957958 -0.8222068546 0)
(3.096020847 -0.8252130836 0)
(3.106126103 -0.8298205277 0)
(3.114336343 -0.8355521858 0)
(3.126070696 -0.8342686843 0)
(3.129752707 -0.8337603493 0)
(3.129877734 -0.8368658668 0)
(3.13297055 -0.8365922788 0)
(3.13558378 -0.8348305886 0)
(3.133876534 -0.8346892832 0)
(3.133321334 -0.8358600252 0)
(3.135340284 -0.8346051274 0)
(3.133997664 -0.8341022975 0)
(3.132838719 -0.8357553612 0)
(3.134928354 -0.8356266674 0)
(3.136008025 -0.8345191033 0)
(3.134994848 -0.8354230906 0)
(3.135507576 -0.8359903578 0)
(3.136984478 -0.8351606842 0)
(3.136577181 -0.834857885 0)
(3.135881442 -0.8359206796 0)
(3.137042457 -0.8361520899 0)
(3.137719868 -0.8353711444 0)
(3.137121119 -0.835521522 0)
(3.136983355 -0.8363580077 0)
(3.138381332 -0.8334846605 0)
(3.074205956 -0.817482969 0)
(3.131616068 -0.8492353392 0)
(3.267574185 -0.9076677367 0)
(3.443636922 -0.8974781537 0)
(3.40613459 -0.8625282472 0)
(3.216716918 -0.8540468054 0)
(3.073913956 -0.843440957 0)
(3.034207923 -0.8205756248 0)
(3.03335746 -0.8063568576 0)
(3.050529504 -0.8133835098 0)
(3.0711866 -0.8231977515 0)
(3.095008701 -0.8271685428 0)
(3.107486198 -0.830019156 0)
(3.114001239 -0.8345302068 0)
(3.126294717 -0.8333539515 0)
(3.131609288 -0.8322629806 0)
(3.130124165 -0.835482664 0)
(3.132777921 -0.8358164689 0)
(3.13570017 -0.8340613233 0)
(3.134073194 -0.8336617419 0)
(3.133243165 -0.8349846856 0)
(3.135089631 -0.8339862966 0)
(3.13449094 -0.8330024459 0)
(3.133206583 -0.834989726 0)
(3.13482831 -0.8361200569 0)
(3.136956709 -0.8348253841 0)
(3.13558061 -0.8348612436 0)
(3.135093563 -0.8360081903 0)
(3.137136909 -0.8355145384 0)
(3.137250672 -0.8343741616 0)
(3.136291967 -0.8351765172 0)
(3.137204608 -0.8356185731 0)
(3.138481474 -0.8344229736 0)
(3.137753289 -0.8340073363 0)
(3.137182523 -0.834575857 0)
(3.138039063 -0.8348587568 0)
(3.073426682 -0.8200580422 0)
(3.12610756 -0.8403672543 0)
(3.25930221 -0.9028795006 0)
(3.464371484 -0.9069616607 0)
(3.407344376 -0.8615430252 0)
(3.213948371 -0.8486371285 0)
(3.070851522 -0.8381083118 0)
(3.03148336 -0.8180459867 0)
(3.035062994 -0.8021950577 0)
(3.051098063 -0.8115554552 0)
(3.068448665 -0.8228614286 0)
(3.094355059 -0.8270768156 0)
(3.108293121 -0.8273129369 0)
(3.114377899 -0.8311751338 0)
(3.125815829 -0.830825628 0)
(3.132778476 -0.8293616661 0)
(3.131562165 -0.832479796 0)
(3.132645353 -0.8337651916 0)
(3.135872732 -0.832166413 0)
(3.134101002 -0.831557378 0)
(3.132685125 -0.8337926184 0)
(3.134998227 -0.8341973439 0)
(3.135371307 -0.8321933222 0)
(3.133233598 -0.8343877751 0)
(3.134236683 -0.8356466861 0)
(3.136452612 -0.8345821662 0)
(3.135216138 -0.8342706928 0)
(3.134401071 -0.835342764 0)
(3.136236558 -0.8350609563 0)
(3.136829695 -0.8339351287 0)
(3.135755017 -0.8347323295 0)
(3.136510862 -0.8354626615 0)
(3.138171704 -0.8346008583 0)
(3.137550753 -0.8338765534 0)
(3.137116963 -0.8343613659 0)
(3.137885777 -0.8342337493 0)
(3.074125685 -0.8201885917 0)
(3.124304545 -0.8215868272 0)
(3.248392531 -0.9018979619 0)
(3.475513375 -0.913407831 0)
(3.408077695 -0.8585650735 0)
(3.216553445 -0.8447451407 0)
(3.070659251 -0.8348238724 0)
(3.029813607 -0.815433165 0)
(3.03755992 -0.7995806452 0)
(3.051407942 -0.8103257237 0)
(3.065217445 -0.8236307993 0)
(3.092834726 -0.8264197621 0)
(3.108819529 -0.8240455852 0)
(3.114596745 -0.8283994151 0)
(3.125774566 -0.8293145746 0)
(3.134211446 -0.827865833 0)
(3.131934026 -0.8310054817 0)
(3.131647787 -0.8336414379 0)
(3.135736874 -0.8333074261 0)
(3.134077153 -0.8319187157 0)
(3.132126566 -0.8340518676 0)
(3.134427827 -0.8335053759 0)
(3.135660948 -0.8310473377 0)
(3.133338583 -0.8322170175 0)
(3.133915613 -0.8334593776 0)
(3.136303052 -0.8325962001 0)
(3.135515598 -0.8322195803 0)
(3.134635371 -0.8334972767 0)
(3.136164032 -0.8334528818 0)
(3.137363734 -0.8322896211 0)
(3.136123574 -0.8330951539 0)
(3.13619845 -0.8339764 0)
(3.137672673 -0.8334432622 0)
(3.1373265 -0.8329777608 0)
(3.136688457 -0.8336618755 0)
(3.137393957 -0.8337000394 0)
(3.077179521 -0.8191471994 0)
(3.122981004 -0.8117313159 0)
(3.244437109 -0.9033908683 0)
(3.480852909 -0.9042888744 0)
(3.413064733 -0.8521258269 0)
(3.217908798 -0.8418916767 0)
(3.067816213 -0.8335811154 0)
(3.026530124 -0.817592653 0)
(3.040990308 -0.8023927561 0)
(3.057577327 -0.8083485135 0)
(3.065694293 -0.8207554677 0)
(3.091519638 -0.8237998788 0)
(3.10951938 -0.8222820497 0)
(3.114632906 -0.8264833095 0)
(3.125180413 -0.8309577047 0)
(3.135428881 -0.8289497897 0)
(3.132083698 -0.8298043538 0)
(3.130281107 -0.8339973913 0)
(3.134559057 -0.8332199723 0)
(3.134367619 -0.8312446254 0)
(3.132013012 -0.8325023557 0)
(3.133861977 -0.8323347472 0)
(3.135933214 -0.8300879897 0)
(3.133894094 -0.8300858673 0)
(3.133915735 -0.8314345896 0)
(3.136394823 -0.8306643524 0)
(3.136162939 -0.8297880653 0)
(3.1350676 -0.8311778541 0)
(3.136322464 -0.8314686397 0)
(3.138002138 -0.8301092047 0)
(3.136783606 -0.8307774848 0)
(3.136433941 -0.8320097035 0)
(3.137733405 -0.831883724 0)
(3.13793704 -0.8313935442 0)
(3.136832577 -0.8323670586 0)
(3.13733063 -0.832495495 0)
(3.080688578 -0.8136473682 0)
(3.120125754 -0.8089165109 0)
(3.238390063 -0.9023655036 0)
(3.501785273 -0.9100208079 0)
(3.408642256 -0.8483982882 0)
(3.211916552 -0.8286768093 0)
(3.060052076 -0.8237569594 0)
(3.016410483 -0.8192846195 0)
(3.039008983 -0.8039568242 0)
(3.062196237 -0.8050162882 0)
(3.068309159 -0.8130699691 0)
(3.089071998 -0.8206624334 0)
(3.111981529 -0.8193432687 0)
(3.115644935 -0.825343429 0)
(3.123373962 -0.8309846969 0)
(3.134020997 -0.8288121987 0)
(3.132784241 -0.828259588 0)
(3.13050495 -0.8313260284 0)
(3.133988151 -0.8305031513 0)
(3.13559451 -0.8279373101 0)
(3.132778381 -0.8290606427 0)
(3.133712209 -0.8296203607 0)
(3.136706043 -0.8276248377 0)
(3.134337719 -0.8269722767 0)
(3.13329662 -0.8287836452 0)
(3.136047979 -0.828445513 0)
(3.136772255 -0.8271602246 0)
(3.135006785 -0.8285845332 0)
(3.135976531 -0.8294239896 0)
(3.138266136 -0.8279369252 0)
(3.136820468 -0.8280530436 0)
(3.136024928 -0.8293962446 0)
(3.137476412 -0.8293224831 0)
(3.13856798 -0.8284448198 0)
(3.137289412 -0.8294685901 0)
(3.137434252 -0.8296860487 0)
(3.076679438 -0.8096494576 0)
(3.118516395 -0.8078568573 0)
(3.207412079 -0.9039563483 0)
(3.547917696 -0.8948681734 0)
(3.407616356 -0.8285600659 0)
(3.211927905 -0.8217763634 0)
(3.066549124 -0.8142840073 0)
(3.012824859 -0.8097546004 0)
(3.036446489 -0.7932042962 0)
(3.065912404 -0.7935610359 0)
(3.069499362 -0.8042564741 0)
(3.086418608 -0.8178130335 0)
(3.109277542 -0.818201022 0)
(3.115328094 -0.8218687091 0)
(3.122261713 -0.8257714841 0)
(3.133455929 -0.8236716374 0)
(3.134811888 -0.8214970989 0)
(3.131324404 -0.8247729442 0)
(3.133838785 -0.8254007236 0)
(3.136990461 -0.8224326858 0)
(3.132745013 -0.8241624935 0)
(3.133177142 -0.8265366535 0)
(3.137131504 -0.8243630973 0)
(3.134118806 -0.8244504093 0)
(3.132604575 -0.827434706 0)
(3.135078158 -0.8277099473 0)
(3.136622577 -0.8261729294 0)
(3.134349752 -0.8273782787 0)
(3.135100847 -0.8285710673 0)
(3.137642496 -0.8272485448 0)
(3.136391321 -0.8267787002 0)
(3.135547994 -0.8281374045 0)
(3.136979787 -0.8282860394 0)
(3.13878002 -0.8267159532 0)
(3.137167768 -0.8271400375 0)
(3.137084763 -0.8281483563 0)
(3.083978457 -0.7745377861 0)
(3.119120288 -0.7849154488 0)
(3.171544222 -0.8966744074 0)
(3.549657664 -0.8749020244 0)
(3.391319208 -0.7984541387 0)
(3.199268061 -0.7913014689 0)
(3.056217081 -0.7931255055 0)
(3.006924697 -0.7913707301 0)
(3.033706762 -0.7803712505 0)
(3.066221517 -0.7837874408 0)
(3.06613159 -0.7970142843 0)
(3.080595532 -0.8097209242 0)
(3.105589176 -0.8104732845 0)
(3.116674187 -0.811431715 0)
(3.12064998 -0.818304291 0)
(3.131910597 -0.8179822316 0)
(3.135786394 -0.81631487 0)
(3.129877619 -0.8200918059 0)
(3.131088476 -0.8222999554 0)
(3.135029371 -0.8197628144 0)
(3.130558716 -0.8210498951 0)
(3.130266694 -0.8235904137 0)
(3.134297018 -0.8219715482 0)
(3.132731628 -0.8213364128 0)
(3.131138737 -0.8234550308 0)
(3.133205756 -0.8238297823 0)
(3.135693504 -0.8223383505 0)
(3.133477665 -0.8232836116 0)
(3.13381031 -0.8248332344 0)
(3.136323462 -0.8239037634 0)
(3.135550053 -0.8236163335 0)
(3.134415514 -0.8250618053 0)
(3.135458819 -0.8255407562 0)
(3.137311832 -0.8245188525 0)
(3.135848324 -0.825066847 0)
(3.135621729 -0.8258714494 0)
(3.074930796 -0.6445862038 0)
(3.117850183 -0.7184839089 0)
(3.161795326 -0.8137681295 0)
(3.522317461 -0.8217720562 0)
(3.340573898 -0.7634776061 0)
(3.161964743 -0.767173114 0)
(3.039602616 -0.7775545333 0)
(2.993428952 -0.7794705997 0)
(3.016630732 -0.7707206058 0)
(3.052053491 -0.7724078177 0)
(3.058877602 -0.7839695573 0)
(3.071439108 -0.7997466478 0)
(3.097150675 -0.8023342041 0)
(3.109862155 -0.8052091508 0)
(3.11192388 -0.8125740119 0)
(3.122172707 -0.8136608523 0)
(3.128777121 -0.8113851502 0)
(3.123422931 -0.8149760366 0)
(3.124619981 -0.8181004198 0)
(3.129744415 -0.8159488112 0)
(3.126670884 -0.8166023109 0)
(3.125981382 -0.8195330517 0)
(3.129810788 -0.8186551083 0)
(3.130379599 -0.8175522184 0)
(3.128475547 -0.8197095916 0)
(3.129811747 -0.8209889547 0)
(3.133345284 -0.8195304359 0)
(3.131445301 -0.8199678987 0)
(3.130957839 -0.8222302798 0)
(3.133459099 -0.8213363532 0)
(3.133868386 -0.8205965342 0)
(3.132482886 -0.8224515112 0)
(3.13300844 -0.8231142946 0)
(3.135145385 -0.822354452 0)
(3.133990485 -0.8225093879 0)
(3.133481064 -0.8236164487 0)
(3.038221979 -0.1352047692 0)
(3.0800116 -0.3290966597 0)
(3.105451043 -0.5715411626 0)
(3.056990754 -0.4663798172 0)
(2.878750369 -0.5148517053 0)
(2.844427294 -0.6259534114 0)
(2.817985804 -0.6596283852 0)
(2.838285397 -0.6698160271 0)
(2.864346811 -0.6806313624 0)
(2.888393542 -0.6960691166 0)
(2.926895092 -0.7081632747 0)
(2.94493075 -0.7285253321 0)
(2.964911882 -0.7399541677 0)
(2.997382882 -0.7465599368 0)
(3.009638566 -0.7560867006 0)
(3.015800498 -0.7638696122 0)
(3.032745625 -0.7667387651 0)
(3.04046541 -0.7695371735 0)
(3.043467037 -0.7770569751 0)
(3.049066897 -0.7790466066 0)
(3.057613502 -0.7805552856 0)
(3.059132861 -0.7845173188 0)
(3.060891097 -0.7867751871 0)
(3.068834249 -0.7870471091 0)
(3.071308832 -0.789463984 0)
(3.071544347 -0.7924901338 0)
(3.076355893 -0.7933582863 0)
(3.08054583 -0.7941312667 0)
(3.081053523 -0.7966341773 0)
(3.082104462 -0.7978982617 0)
(3.087029001 -0.7982141899 0)
(3.088344158 -0.7994946903 0)
(3.088355827 -0.8011835201 0)
(3.09063464 -0.8019407494 0)
(3.093667118 -0.8025509039 0)
(3.093986213 -0.8034238873 0)
(3.095010972 -0.8041859085 0)
(3.002685774 -0.006237804665 0)
(3.023896446 -0.07002746207 0)
(3.050792713 -0.1516648387 0)
(3.047455682 -0.3008020173 0)
(3.032073492 -0.4628284358 0)
(3.034513925 -0.5445777378 0)
(3.058944319 -0.5762678966 0)
(3.080783749 -0.6092976162 0)
(3.097784056 -0.6431103055 0)
(3.117021663 -0.6564544185 0)
(3.135537247 -0.682225404 0)
(3.138138175 -0.7107259562 0)
(3.145008161 -0.7147938191 0)
(3.159018068 -0.7164985926 0)
(3.159107817 -0.7353694493 0)
(3.154035812 -0.7423441753 0)
(3.156223046 -0.7398681418 0)
(3.154979014 -0.7484530551 0)
(3.149282856 -0.7564834897 0)
(3.150467929 -0.754332147 0)
(3.153554386 -0.757013085 0)
(3.149188773 -0.7667321029 0)
(3.147901107 -0.7675522786 0)
(3.151166363 -0.7661979597 0)
(3.15014886 -0.7726942985 0)
(3.147287487 -0.7761579258 0)
(3.14857417 -0.7747639734 0)
(3.150349677 -0.7771110236 0)
(3.147801193 -0.7818655768 0)
(3.14723951 -0.7820520398 0)
(3.149026351 -0.7815271132 0)
(3.148193482 -0.7854528516 0)
(3.146678254 -0.7873246712 0)
(3.147259936 -0.7865053915 0)
(3.147867926 -0.7879608953 0)
(3.146521028 -0.7910354385 0)
(3.146390363 -0.7914158254 0)
(3.000091214 -0.0002035994885 0)
(3.002858328 -0.006945408589 0)
(3.015470792 -0.04051219112 0)
(3.034219015 -0.1083834152 0)
(3.049831142 -0.1745564324 0)
(3.065169228 -0.2461842795 0)
(3.081418137 -0.2987779612 0)
(3.088794486 -0.3407927806 0)
(3.113298604 -0.4367804814 0)
(3.123237045 -0.4880374256 0)
(3.135610302 -0.4958071848 0)
(3.140336069 -0.5359838356 0)
(3.135847664 -0.572752632 0)
(3.137193957 -0.5709848587 0)
(3.138675811 -0.5885913488 0)
(3.134065512 -0.6221877033 0)
(3.133145817 -0.6242684831 0)
(3.133238174 -0.6258914867 0)
(3.132425325 -0.652471497 0)
(3.130886617 -0.660524401 0)
(3.13358064 -0.6576650509 0)
(3.134957168 -0.6737267304 0)
(3.131893791 -0.6866391752 0)
(3.133842895 -0.6853501971 0)
(3.135882444 -0.6902180636 0)
(3.133997496 -0.7034756841 0)
(3.133712754 -0.7059826432 0)
(3.135994495 -0.7058617658 0)
(3.136434557 -0.7150085366 0)
(3.134496499 -0.7211688883 0)
(3.135707767 -0.7206104686 0)
(3.136939632 -0.7247321303 0)
(3.13577172 -0.731252787 0)
(3.135547147 -0.7331469801 0)
(3.136881291 -0.7341281222 0)
(3.136758986 -0.7383573265 0)
(3.135710033 -0.742154932 0)
(3.000000867 -1.869189163e-06 0)
(3.00022035 -0.000530063224 0)
(3.002304353 -0.005718965545 0)
(3.010132561 -0.02599205842 0)
(3.026335937 -0.07064161184 0)
(3.046868236 -0.1372176345 0)
(3.067788471 -0.2261129204 0)
(3.082476212 -0.2994519473 0)
(3.097562986 -0.3557627668 0)
(3.107655959 -0.4246580961 0)
(3.113208579 -0.4584137367 0)
(3.120732215 -0.4728718435 0)
(3.120087795 -0.5206983863 0)
(3.116369399 -0.5414177746 0)
(3.120746503 -0.5439198155 0)
(3.124245584 -0.576883382 0)
(3.121273353 -0.5980656158 0)
(3.125733978 -0.5971349078 0)
(3.129965524 -0.6136647827 0)
(3.12613356 -0.6353717779 0)
(3.128230442 -0.6357089269 0)
(3.132490794 -0.6395670917 0)
(3.130675504 -0.6598336942 0)
(3.12976146 -0.6643039027 0)
(3.133717498 -0.6626484037 0)
(3.134646522 -0.6764118849 0)
(3.131629086 -0.6856029752 0)
(3.133918566 -0.6842215763 0)
(3.13686238 -0.6890405551 0)
(3.134227712 -0.7006101922 0)
(3.133898798 -0.7020824726 0)
(3.13669892 -0.7013020753 0)
(3.136703751 -0.7105303063 0)
(3.134537093 -0.7155747723 0)
(3.136066932 -0.7146145979 0)
(3.138116008 -0.7181958728 0)
(3.135996044 -0.725573208 0)
(3.000000004 -9.780293536e-09 0)
(3.00000869 -2.10655791e-05 0)
(3.000207417 -0.0005113761672 0)
(3.001754036 -0.0043410859 0)
(3.007454818 -0.0191517271 0)
(3.018328284 -0.04961468594 0)
(3.032023964 -0.09358028708 0)
(3.048479592 -0.1538052169 0)
(3.060400285 -0.1966368522 0)
(3.064695175 -0.2347282883 0)
(3.075758226 -0.298798467 0)
(3.084742162 -0.3306462716 0)
(3.090389067 -0.3647808457 0)
(3.098621183 -0.420222071 0)
(3.105813854 -0.4372248529 0)
(3.110778571 -0.4523839202 0)
(3.113577391 -0.4925812786 0)
(3.116077547 -0.5043443743 0)
(3.119881249 -0.5103834288 0)
(3.121300926 -0.5423284393 0)
(3.120902849 -0.554773357 0)
(3.124334854 -0.5546551759 0)
(3.127182798 -0.5760574265 0)
(3.12532414 -0.5935096468 0)
(3.128103597 -0.5934569974 0)
(3.130670517 -0.6008739687 0)
(3.129202504 -0.620555617 0)
(3.129246275 -0.6239476238 0)
(3.132009294 -0.6236427881 0)
(3.132767624 -0.6390083764 0)
(3.130690016 -0.647539275 0)
(3.132672998 -0.6464413193 0)
(3.134530261 -0.6523224164 0)
(3.132738449 -0.6643777065 0)
(3.132653147 -0.6664565532 0)
(3.134878664 -0.6659694229 0)
(3.135212679 -0.6758351723 0)
(3 -1.998387451e-11 0)
(3.000000212 -5.246784136e-07 0)
(3.000011314 -2.805980335e-05 0)
(3.000181303 -0.0004510222189 0)
(3.001272153 -0.00322803911 0)
(3.005201949 -0.01376258803 0)
(3.01328104 -0.03667726642 0)
(3.025478081 -0.07422107538 0)
(3.04057858 -0.1285380491 0)
(3.052958785 -0.180136072 0)
(3.066444694 -0.2386130799 0)
(3.077007913 -0.295385104 0)
(3.086546412 -0.3317402248 0)
(3.095721778 -0.3725769143 0)
(3.10016593 -0.4061035301 0)
(3.105412726 -0.421715342 0)
(3.109813034 -0.4536093698 0)
(3.109668791 -0.4799555624 0)
(3.114195222 -0.4858101823 0)
(3.119039093 -0.5060704933 0)
(3.117348169 -0.5322517395 0)
(3.119713795 -0.5363112061 0)
(3.124858718 -0.5440489105 0)
(3.123916059 -0.5685100265 0)
(3.12324863 -0.5748229155 0)
(3.127318705 -0.5749262046 0)
(3.128756693 -0.5931981545 0)
(3.125801392 -0.605089747 0)
(3.128344129 -0.6046792288 0)
(3.131757319 -0.6118946817 0)
(3.129381741 -0.6274767119 0)
(3.129177985 -0.6300582731 0)
(3.132512256 -0.6298353281 0)
(3.132891513 -0.6424295213 0)
(3.130355346 -0.6499292264 0)
(3.132083862 -0.6493926173 0)
(3.134626254 -0.6541536211 0)
(3 -1.73117459e-14 0)
(3.000000003 -8.174519106e-09 0)
(3.000000371 -9.215208379e-07 0)
(3.000011512 -2.87778701e-05 0)
(3.000145035 -0.0003679319856 0)
(3.000939674 -0.002422912437 0)
(3.003792447 -0.01011498809 0)
(3.009838896 -0.0271416745 0)
(3.019351528 -0.05590754929 0)
(3.031821695 -0.09607158475 0)
(3.042774657 -0.1341223358 0)
(3.052220736 -0.1750181652 0)
(3.061682581 -0.212715484 0)
(3.06819611 -0.2450210609 0)
(3.075699727 -0.2884591869 0)
(3.082961622 -0.3166598058 0)