/*--------------------------------*- C++ -*----------------------------------*\
  =========                 |
  \\      /  F ield         | OpenFOAM: The Open Source CFD Toolbox
   \\    /   O peration     | Website:  https://openfoam.org
    \\  /    A nd           | Version:  7
     \\/     M anipulation  |
\*---------------------------------------------------------------------------*/
FoamFile
{
    version     2.0;
    format      ascii;
    class       volScalarField;
    location    "0.3";
    object      T;
}
// * * * * * * * * * * * * * * * * * * * * * * * * * * * * * * * * * * * * * //

dimensions      [0 0 0 1 0 0 0];

internalField   nonuniform List<scalar> 
558
(
1.103957534
1.111701675
1.112147421
1.110814148
1.107273215
1.100899167
1.091927042
1.081022965
1
1
1.000000001
1.000000107
1.000003026
1.000072042
1.000728057
1.005513111
1.021896172
1.052725776
1.090641619
1.107480139
1.110470383
1.110042679
1.10798461
1.104407158
1.098581663
1.090286001
1
1
1
1.000000003
1.000000115
1.000004825
1.000072932
1.000901521
1.005241589
1.023096592
1.055964384
1.084733341
1.102221982
1.108128372
1.107176403
1.105359802
1.102311148
1.097055284
1
1
1
1
1.000000003
1.000000214
1.000004959
1.000095752
1.000844443
1.006220414
1.02188384
1.055085807
1.089809444
1.104079228
1.106860638
1.105615411
1.103521989
1.100849169
1
1
1
1
1
1.000000006
1.00000023
1.000006573
1.000092869
1.001009124
1.005767602
1.024079314
1.055226856
1.080416173
1.101934008
1.103400919
1.10284586
1.100964093
1
1
1
1
1
1
1.000000007
1.000000293
1.00000666
1.000106232
1.000974557
1.006266698
1.022577663
1.054142577
1.085126692
1.095444301
1.099512174
1.099960364
1
1
1
1
1
1
1
1.000000008
1.000000308
1.000007283
1.000105122
1.001019645
1.00607168
1.02282101
1.049577603
1.07908098
1.094751877
1.098226842
1
1
1
1
1
1
1
1
1.000000009
1.000000315
1.000007249
1.000106146
1.000989587
1.005785596
1.020700379
1.049353649
1.072999867
1.087082477
1
1
1
1
1
1
1
1
1
1.000000008
1.000000298
1.000006586
1.000097203
1.000882952
1.00517679
1.018393398
1.044119685
1.069628629
1
1
1
1
1
1
1
1
1
1
1.000000006
1.000000218
1.000005227
1.000075785
1.000720246
1.004242982
1.015965539
1.038154673
1
1
1
1
1
1
1
1
1
1
1
1.000000003
1.000000131
1.000003315
1.000052558
1.000522031
1.003235855
1.012838148
1
1
1
1
1
1
1
1
1
1
1
1
1.000000001
1.000000061
1.000001792
1.000030914
1.000334905
1.002152851
1
1
1
1
1
1
1
1
1
1
1
1
1
1
1.000000023
1.000000761
1.000014452
1.000170594
1
1
1
1
1
1
1
1
1
1
1
1
1
1
1
1.000000006
1.000000224
1.000005123
1
1
1
1
1
1
1
1
1
1
1
1
1
1
1
1
1.000000001
1.000000049
1
1
1
1
1
1
1
1
1
1
1
1
1
1
1
1
1
1
1
1
1
1
1
1
1
1
1
1
1
1
1
1
1
1
1
1
1
1
1
1
1
1
1
1
1
1
1
1
1
1
1
1
1
1
1
1
1
1
1
1
1
1
1
1
1
1
1
1
1
1
1
1
1
1
1
1
1
1
1
1
1
1
1
1
1
1
1
1
1
1
1
1
1
1
1
1
1
1
1
1
1
1
1
1
1
1
1
1
1
1
1
1
1
1
1
1
1
1
1
1
1
1
1
1
1
1
1
1
1
1
1
1
1
1
1
1
1
1
1
1
1
1
1
1
1
1
1
1
1
1
1
1
1
1
1
1
1
1
1
1
1
1
1
1
1
1
1
1
1
1
1
1
1
1
1
1
1
1
1
1
1
1
1
1
1
1
1
1
1
1
1
1
1
1
1
1
1
1
1
1
1
1
1
1
1
1
1
1
1
1
1
1
1
1
1
1
1
1
1
1
1
1
1
1
1
1
1
1
1
1
1
1
1
1
1
1
1
1
1
1
1
1
1
1
1
1
1
1
1
1
1
1
1
1
1
1
1
1
1
1
1
1
1
1
1
1
1
1
1
1
1
1
1
1
1
1
1
1
1
1
1
1
1
1
1
1
1
1
1
1
1
1
1
1
1
1
1
1
)
;

boundaryField
{
    inlet
    {
        type            fixedValue;
        value           nonuniform 0();
    }
    outlet
    {
        type            inletOutlet;
        inletValue      nonuniform 0();
        value           nonuniform 0();
    }
    bottom
    {
        type            slip;
    }
    top
    {
        type            slip;
    }
    obstacle
    {
        type            zeroGradient;
    }
    defaultFaces
    {
        type            empty;
    }
    procBoundary33to26
    {
        type            processor;
        value           nonuniform List<scalar> 
13
(
1
1
1
1
1
1
1
1
1
1
1
1
1
)
;
    }
    procBoundary33to27
    {
        type            processor;
        value           nonuniform List<scalar> 
19
(
1.114450286
1.114256742
1.112913158
1.109794074
1.103403758
1.093885143
1.082392216
1.069314172
1
1
1.000000038
1.000002912
1.000053739
1.000730306
1.004843349
1.021547058
1.055604108
1.088256572
1.088256572
)
;
    }
    procBoundary33to32
    {
        type            processor;
        value           nonuniform List<scalar> 
17
(
1
1
1
1
1
1
1
1
1
1
1
1
1
1
1
1
1
)
;
    }
    procBoundary33to34
    {
        type            processor;
        value           nonuniform List<scalar> 
32
(
1.068481378
1.079808439
1.088947333
1.095554757
1.098134862
1.098472793
1.097802396
1.093728898
1.085643446
1.062775899
1.031203227
1.009060793
1.001226912
1.000070853
1.000001388
1.000000008
1
1
1
1
1
1
1
1
1
1
1
1
1
1
1
1
)
;
    }
}


// ************************************************************************* //
