/*--------------------------------*- C++ -*----------------------------------*\
  =========                 |
  \\      /  F ield         | OpenFOAM: The Open Source CFD Toolbox
   \\    /   O peration     | Website:  https://openfoam.org
    \\  /    A nd           | Version:  7
     \\/     M anipulation  |
\*---------------------------------------------------------------------------*/
FoamFile
{
    version     2.0;
    format      ascii;
    class       volScalarField;
    location    "2.8";
    object      rho;
}
// * * * * * * * * * * * * * * * * * * * * * * * * * * * * * * * * * * * * * //

dimensions      [1 -3 0 0 0 0 0];

internalField   nonuniform List<scalar> 
22
(
1.573098807
1.621304632
1.604921175
1.554130343
1.571037684
1.535855936
1.513006129
1.492783781
1.452121901
1.458972972
1.384205808
1.379287912
1.371570263
1.311368914
1.326826157
1.31625034
1.30536506
1.327188973
1.286395046
1.317137159
1.363422512
1.314231145
)
;

boundaryField
{
    inlet
    {
        type            calculated;
        value           nonuniform 0();
    }
    outlet
    {
        type            calculated;
        value           nonuniform List<scalar> 7(1.604921173 1.535855932 1.452121898 1.379287921 1.326826165 1.327188991 1.363422438);
    }
    bottom
    {
        type            calculated;
        value           nonuniform List<scalar> 3(1.573098807 1.621304632 1.604921175);
    }
    top
    {
        type            calculated;
        value           nonuniform 0();
    }
    obstacle
    {
        type            calculated;
        value           nonuniform 0();
    }
    defaultFaces
    {
        type            empty;
    }
    procBoundary5to4
    {
        type            processor;
        value           nonuniform List<scalar> 6(1.50463452 1.520341415 1.523701233 1.512489591 1.446706657 1.342450557);
    }
    procBoundary5to10
    {
        type            processor;
        value           nonuniform List<scalar> 2(1.275883365 1.277613901);
    }
    procBoundary5to11
    {
        type            processor;
        value           nonuniform List<scalar> 4(1.352563595 1.375317678 1.352563595 1.362981203);
    }
}


// ************************************************************************* //
