/*--------------------------------*- C++ -*----------------------------------*\
  =========                 |
  \\      /  F ield         | OpenFOAM: The Open Source CFD Toolbox
   \\    /   O peration     | Website:  https://openfoam.org
    \\  /    A nd           | Version:  7
     \\/     M anipulation  |
\*---------------------------------------------------------------------------*/
FoamFile
{
    version     2.0;
    format      ascii;
    class       volVectorField;
    location    "2";
    object      U;
}
// * * * * * * * * * * * * * * * * * * * * * * * * * * * * * * * * * * * * * //

dimensions      [0 1 -1 0 0 0 0];

internalField   nonuniform List<vector> 
2223
(
(3 -4.160296216e-15 0)
(3 -2.822915814e-15 0)
(3 -3.35240434e-15 0)
(3 -2.643616881e-15 0)
(3 -2.808117421e-15 0)
(3 4.081027357e-16 0)
(3 1.855959286e-15 0)
(3 3.171509711e-15 0)
(3 3.862870947e-15 0)
(3 3.941421444e-15 0)
(3 1.67544092e-15 0)
(3 1.867473145e-15 0)
(3 3.148182974e-16 0)
(3 -4.849861846e-17 0)
(3 6.890573388e-16 0)
(3 1.207181342e-15 0)
(3 6.286504029e-16 0)
(3 1.022429301e-15 0)
(3 1.611926943e-15 0)
(3 2.574165476e-15 0)
(3 2.959459461e-15 0)
(3 1.7734174e-15 0)
(3 9.43958e-16 0)
(3 2.126539703e-15 0)
(3 2.974669067e-15 0)
(3 2.459312573e-15 0)
(3 -9.607707387e-16 0)
(3 -1.064984378e-15 0)
(3 9.404009135e-16 0)
(3 -2.177554393e-16 0)
(3 -2.58302071e-15 0)
(3 -3.819652886e-15 0)
(3 -1.813256777e-15 0)
(3 1.450485015e-16 0)
(3 1.273094513e-15 0)
(3 1.550647135e-15 0)
(3 1.93997614e-15 0)
(3 1.771905856e-15 0)
(3 1.8669331e-15 0)
(3 2.668058961e-15 0)
(3 3.046955719e-15 0)
(3 5.518483459e-15 0)
(3 6.028678323e-15 0)
(3 4.850411861e-15 0)
(3 3.440549488e-15 0)
(3 2.322302667e-15 0)
(3 3.148200163e-15 0)
(3 2.905951785e-15 0)
(3 1.013323036e-15 0)
(3 4.376653137e-16 0)
(3 -1.466322265e-15 0)
(3 -1.244830875e-15 0)
(3 -1.403725115e-16 0)
(3 1.839648894e-15 0)
(3 1.433797538e-15 0)
(3 2.233733073e-15 0)
(3 2.724319365e-15 0)
(3 2.528257763e-16 0)
(3 9.085839635e-16 0)
(3 5.938028844e-16 0)
(3 -6.187420386e-16 0)
(3 -2.816444296e-15 0)
(3 -3.737842843e-15 0)
(3 -4.41722947e-15 0)
(3 -5.091292292e-15 0)
(3 -4.754251935e-15 0)
(3 -4.860229951e-15 0)
(3 -4.089090118e-15 0)
(3 -4.292185523e-15 0)
(3 -5.375114266e-15 0)
(3 -4.614548107e-15 0)
(3 -2.925077639e-15 0)
(3 -5.744914327e-16 0)
(3 8.569461929e-16 0)
(3 2.374266034e-15 0)
(3 5.143649035e-15 0)
(3 6.540891075e-15 0)
(3 5.088489807e-15 0)
(3 4.363605291e-15 0)
(3 2.643586678e-16 0)
(3 -3.151848476e-16 0)
(3 -3.553152521e-17 0)
(3 1.062068938e-15 0)
(3 1.878411374e-15 0)
(3 2.473827206e-15 0)
(3 1.92951831e-15 0)
(3 1.232256819e-15 0)
(3 8.116883586e-17 0)
(3 3.652220499e-16 0)
(3 -4.752141198e-16 0)
(3 1.59133809e-15 0)
(3 2.562511742e-15 0)
(3 1.422342837e-15 0)
(3 5.334497923e-16 0)
(3 4.982415007e-16 0)
(3 5.62538764e-16 0)
(3 8.465501547e-16 0)
(3 -1.17892165e-15 0)
(3 -1.252024533e-15 0)
(3 2.766791112e-16 0)
(3 2.207768243e-16 0)
(3 -1.163404314e-15 0)
(3 -5.544205293e-16 0)
(3 -5.635118113e-16 0)
(3 -1.104756151e-15 0)
(3 -1.0023243e-15 0)
(3 -9.531195616e-16 0)
(3 -5.220862755e-16 0)
(3 2.153045392e-15 0)
(3 5.544945761e-15 0)
(3 4.197662175e-15 0)
(3 3.5298875e-15 0)
(3 2.87636086e-15 0)
(3 1.919105698e-15 0)
(3 1.471088393e-15 0)
(3 1.393159346e-15 0)
(3 7.96257047e-16 0)
(3 2.171446709e-15 0)
(3 3.855648782e-15 0)
(3 3.211215005e-15 0)
(3 9.792882917e-16 0)
(3 -1.343590423e-15 0)
(3 6.148123014e-16 0)
(3 -4.831423734e-16 0)
(3 -7.341795046e-16 0)
(3 -7.335936399e-16 0)
(3 -7.555008193e-16 0)
(3 -1.936704842e-15 0)
(3 -2.211555131e-15 0)
(3 -3.652362923e-15 0)
(3 -5.20934022e-15 0)
(3 -2.9740266e-15 0)
(3 -4.162938856e-15 0)
(3 -5.107563824e-15 0)
(3 -5.7052311e-15 0)
(3 -6.547210714e-15 0)
(3 -3.704907596e-15 0)
(3 -1.818672675e-15 0)
(3 -1.837678709e-15 0)
(3 -2.03577709e-15 0)
(3 -1.323922374e-15 0)
(3 -1.748248373e-15 0)
(3 3.017837147e-15 0)
(3 4.87240584e-15 0)
(3 7.083011664e-15 0)
(3 6.237030159e-15 0)
(3 -4.684163003e-16 0)
(3 2.712368713e-16 0)
(3 4.977032445e-16 0)
(3 8.444342529e-16 0)
(3 9.912529503e-16 0)
(3 7.484191626e-16 0)
(3 6.705479813e-16 0)
(3 -3.019160468e-16 0)
(3 8.026047959e-16 0)
(3 1.10616324e-15 0)
(3 1.3877748e-15 0)
(3 6.801546611e-16 0)
(3 -6.653673936e-16 0)
(3 -1.18473489e-15 0)
(3 -4.946183797e-16 0)
(3 -6.645794758e-16 0)
(3 -1.901246246e-15 0)
(3 -1.355242456e-15 0)
(3 -9.678804169e-16 0)
(3 2.220646105e-15 0)
(3 1.327832838e-15 0)
(3 1.383537006e-15 0)
(3 2.301153938e-15 0)
(3 1.613107481e-15 0)
(3 8.783926256e-17 0)
(3 -8.90865747e-16 0)
(3 -1.471242004e-15 0)
(3 -7.411622904e-17 0)
(3 2.430102569e-16 0)
(3 8.648514071e-16 0)
(3 8.096041182e-16 0)
(3 1.308665771e-15 0)
(3 1.048640139e-15 0)
(3 7.082530457e-16 0)
(3 8.838110431e-16 0)
(3 1.677136563e-15 0)
(3 2.684387027e-15 0)
(3 3.288619289e-15 0)
(3 4.650604781e-15 0)
(3 4.887040012e-15 0)
(3 3.096872213e-15 0)
(3 8.801757801e-16 0)
(3 9.600176411e-16 0)
(3 1.291382717e-15 0)
(3 -3.17619385e-15 0)
(3 -3.44792085e-15 0)
(3 -5.307861894e-15 0)
(3 -4.885860878e-15 0)
(3 -6.672419629e-15 0)
(3 -5.722404556e-15 0)
(3 -3.419790373e-15 0)
(3 -2.711305805e-15 0)
(3 -5.536534928e-16 0)
(3 -1.942114049e-15 0)
(3 -2.133323421e-15 0)
(3 -1.592185253e-15 0)
(3 -6.607585816e-16 0)
(3 9.61880175e-16 0)
(3 -9.95279945e-18 0)
(3 -4.042812458e-16 0)
(3 -1.247306906e-15 0)
(3 -5.462909265e-16 0)
(3 -1.308789684e-15 0)
(3 -1.509735291e-15 0)
(3 7.554501461e-16 0)
(3 3.013383333e-15 0)
(3 4.187336755e-15 0)
(3 -3.269030462e-16 0)
(3 1.387984089e-15 0)
(3 1.709800008e-15 0)
(3 1.509993809e-15 0)
(3 6.313966947e-16 0)
(3 1.159835116e-15 0)
(3 6.260153736e-16 0)
(3 -5.073184969e-16 0)
(3 -2.051387911e-16 0)
(3 -2.006095994e-16 0)
(3 2.095173642e-15 0)
(3 5.851991767e-16 0)
(3 -1.806389541e-16 0)
(3 -1.693804258e-15 0)
(3 1.074168782e-15 0)
(3 7.030342681e-16 0)
(3 6.811339059e-16 0)
(3 7.42150306e-16 0)
(3 2.354726584e-15 0)
(3 3.483910796e-15 0)
(3 3.731681162e-15 0)
(3 3.374980144e-15 0)
(3 4.6761431e-15 0)
(3 3.545041667e-15 0)
(3 2.035087033e-15 0)
(3 1.100826247e-15 0)
(3 -4.955116436e-16 0)
(3 -1.405493779e-15 0)
(3 -1.601360939e-16 0)
(3 -1.942605815e-16 0)
(3 1.545792971e-17 0)
(3 -5.796293267e-17 0)
(3 -1.681097701e-18 0)
(3 -1.44926852e-15 0)
(3 -1.31481339e-15 0)
(3 -8.798003692e-16 0)
(3 3.426656405e-16 0)
(3 2.000107212e-15 0)
(3 8.988755974e-16 0)
(3 -1.672336512e-16 0)
(3 -1.030982618e-15 0)
(3 6.587376697e-16 0)
(3 7.528016604e-16 0)
(3 -2.98818256e-15 0)
(3 -3.612980668e-15 0)
(3 -2.576450494e-15 0)
(3 -1.198109219e-15 0)
(3 -9.708212861e-16 0)
(3 -1.592009574e-15 0)
(3 -3.389400805e-15 0)
(3 -4.015694144e-15 0)
(3 3.695990084e-16 0)
(3 2.838827899e-15 0)
(3 2.969535603e-15 0)
(3 3.286145308e-15 0)
(3 3.299646288e-15 0)
(3 3.412216274e-15 0)
(3 1.842907105e-15 0)
(3 -2.840677458e-16 0)
(3 -4.274866875e-16 0)
(3 -2.317174153e-15 0)
(3 -3.405811406e-15 0)
(3 -3.070364995e-15 0)
(3 -1.867335095e-15 0)
(3 -2.372535802e-16 0)
(3 -4.298953648e-16 0)
(3 2.134748991e-15 0)
(3 1.261158816e-16 0)
(3 8.2705753e-17 0)
(3 7.548203523e-17 0)
(3 -6.287769008e-16 0)
(3 -3.741626405e-16 0)
(3 5.982791775e-16 0)
(3 -1.481250198e-16 0)
(3 -1.138540246e-15 0)
(3 -2.199043078e-15 0)
(3 -2.813502537e-15 0)
(3 -3.111984255e-15 0)
(3 -1.467901268e-15 0)
(3 -9.162769468e-16 0)
(3 -4.097773259e-16 0)
(3 -9.586380319e-17 0)
(3 -3.596006839e-16 0)
(3 -4.115147942e-16 0)
(3 -1.058588948e-15 0)
(3 -2.444106679e-15 0)
(3 -2.034674121e-15 0)
(3 -6.827599018e-16 0)
(3 3.860600612e-16 0)
(3 9.000892333e-16 0)
(3 2.638607194e-15 0)
(3 3.18997122e-15 0)
(3 1.483540509e-15 0)
(3 6.667096735e-19 0)
(3 1.679660887e-16 0)
(3 1.375713302e-15 0)
(3 1.846363668e-15 0)
(3 1.819402832e-15 0)
(3 -3.0056643e-16 0)
(3 -6.267388919e-16 0)
(3 -1.255392382e-15 0)
(3 -1.386223613e-15 0)
(3 -9.793119706e-16 0)
(3 -7.24614499e-16 0)
(3 7.27882621e-16 0)
(3 2.852356876e-16 0)
(3 -1.146993543e-15 0)
(3 -1.535938291e-15 0)
(3 4.997299132e-17 0)
(3 -4.819712691e-16 0)
(3 -1.0973143e-15 0)
(3 2.262593296e-16 0)
(3 -5.640158475e-16 0)
(3 3.474086118e-17 0)
(3 1.659118414e-16 0)
(3 4.654967002e-16 0)
(3 1.845377941e-15 0)
(3 1.906551467e-15 0)
(3 2.284690499e-15 0)
(3 4.26224741e-15 0)
(3 4.058188635e-15 0)
(3 3.850263917e-15 0)
(3 3.177929296e-15 0)
(3 2.667762676e-15 0)
(3 1.433451402e-15 0)
(3 4.06438929e-15 0)
(3 3.363185653e-15 0)
(3 2.529576454e-15 0)
(3 6.417874052e-16 0)
(3 5.798275391e-16 0)
(3 7.008646492e-16 0)
(3 2.56620757e-16 0)
(3 8.897202551e-16 0)
(3 1.089231811e-15 0)
(3 2.956921816e-16 0)
(3 -1.372182046e-16 0)
(3 -6.460650913e-16 0)
(3 -2.02646738e-16 0)
(3 -9.277229638e-16 0)
(3 -1.764601687e-15 0)
(3 -1.151181368e-15 0)
(3 -2.399093501e-15 0)
(3 -2.670207979e-15 0)
(3 -3.494889872e-15 0)
(3 -4.187084629e-15 0)
(3 -3.239901914e-15 0)
(3 -1.420902678e-15 0)
(3 -7.534397742e-16 0)
(3 -1.855011675e-15 0)
(3 -1.349958636e-15 0)
(3 -3.133163526e-15 0)
(3 -3.030966695e-15 0)
(3 -2.911392019e-15 0)
(3 -3.092569882e-15 0)
(3 -2.013247336e-15 0)
(3 -2.010823978e-16 0)
(3 1.106448102e-15 0)
(3 3.391731661e-15 0)
(3 3.07965849e-15 0)
(3 2.11604164e-15 0)
(3 2.997757947e-15 0)
(3 2.648334833e-15 0)
(3 1.726721308e-15 0)
(3 3.986848455e-16 0)
(3 -1.479758062e-15 0)
(3 -1.637896386e-15 0)
(3 -1.022273595e-15 0)
(3 -5.644438743e-16 0)
(3 -4.319488608e-16 0)
(3 1.369052742e-17 0)
(3 -6.921921785e-16 0)
(3 -9.123860753e-16 0)
(3 -4.399153653e-16 0)
(3 -9.635570426e-16 0)
(3 -5.966111285e-16 0)
(3 -1.048868552e-15 0)
(3 -1.274027478e-15 0)
(3 3.053036608e-16 0)
(3 1.345946229e-15 0)
(3 -6.597732502e-16 0)
(3 -2.09690162e-15 0)
(3 -1.092124211e-15 0)
(3 1.882967541e-15 0)
(3 4.773190437e-15 0)
(3 8.829946092e-15 0)
(3 7.158880211e-15 0)
(3 3.895230812e-15 0)
(3 3.454967064e-15 0)
(3 3.741068849e-15 0)
(3 3.638199994e-15 0)
(3 4.115466479e-15 0)
(3 4.960475863e-15 0)
(3 6.097224274e-15 0)
(3 6.34712162e-15 0)
(3 7.100145427e-15 0)
(3 6.931504631e-15 0)
(3 6.264587638e-15 0)
(3 3.741793257e-15 0)
(3 5.07886999e-16 0)
(3 -5.782726274e-16 0)
(3 -1.46621137e-15 0)
(3 5.108019783e-16 0)
(3 -1.365284651e-15 0)
(3 -1.319675272e-15 0)
(3 -9.429529245e-16 0)
(3 8.616549852e-17 0)
(3 6.836812195e-16 0)
(3 1.975675563e-15 0)
(3 8.994416555e-16 0)
(3 2.121971871e-16 0)
(3 7.076316426e-17 0)
(3 -5.84525038e-16 0)
(3 -1.650578125e-16 0)
(3 5.88321475e-16 0)
(3 8.676601707e-16 0)
(3 5.555189434e-16 0)
(3 -6.693566516e-16 0)
(3 -1.931905705e-15 0)
(3 -2.458423471e-15 0)
(3 -2.003486208e-15 0)
(3 -9.471296322e-16 0)
(3 8.674055726e-17 0)
(3 1.660086438e-15 0)
(3 3.528129039e-15 0)
(3 3.609745274e-15 0)
(3 3.201618665e-15 0)
(3 3.570554615e-15 0)
(3 4.150414037e-15 0)
(3 2.560540461e-15 0)
(3 -3.512298679e-16 0)
(3 -2.256368425e-15 0)
(3 -3.86829914e-15 0)
(3 -1.191506891e-15 0)
(3 -5.914695025e-16 0)
(3 -1.669380645e-16 0)
(3 -1.4591411e-16 0)
(3 1.708557981e-16 0)
(3 -5.535658535e-16 0)
(3 -1.513001751e-15 0)
(3 -2.153619603e-15 0)
(3 -1.279526851e-15 0)
(3 -1.677248166e-15 0)
(3 -2.642403387e-15 0)
(3 -2.033332377e-15 0)
(3 -1.359323922e-16 0)
(3 7.476833977e-17 0)
(3 5.326853385e-16 0)
(3 2.830556966e-16 0)
(3 3.828523536e-15 0)
(3 6.217334305e-15 0)
(3 7.043908242e-15 0)
(3 8.047687468e-15 0)
(3 8.361195297e-15 0)
(3 7.163548235e-15 0)
(3 6.255273693e-15 0)
(3 6.918066035e-15 0)
(3 6.667197872e-15 0)
(3 8.303213603e-15 0)
(3 8.178221898e-15 0)
(3 5.323136354e-15 0)
(3 4.848629086e-15 0)
(3 5.756743568e-15 0)
(3 6.44730193e-15 0)
(3 5.487369311e-15 0)
(3 2.333249057e-15 0)
(3 1.114676085e-15 0)
(3 -1.793968057e-15 0)
(3 -6.279770561e-15 0)
(3 -4.130519155e-16 0)
(3 -1.232021253e-15 0)
(3 -1.512904628e-15 0)
(3 -1.077257973e-15 0)
(3 4.076510136e-16 0)
(3 2.407320886e-15 0)
(3 1.758387366e-15 0)
(3 2.354391849e-15 0)
(3 1.763611418e-15 0)
(3 2.233171623e-15 0)
(3 1.938164757e-15 0)
(3 1.172315903e-15 0)
(3 7.377199296e-16 0)
(3 8.084208852e-16 0)
(3 1.984317098e-16 0)
(3 -9.239316911e-16 0)
(3 -1.561053949e-15 0)
(3 -2.851884417e-15 0)
(3 -4.721144613e-15 0)
(3 -2.265620331e-15 0)
(3 -1.417356458e-15 0)
(3 -1.015396182e-15 0)
(3 5.270454612e-16 0)
(3 -6.821027286e-17 0)
(3 2.943879442e-15 0)
(3 4.534416937e-15 0)
(3 3.716881123e-15 0)
(3 2.984469645e-15 0)
(3 1.714164242e-15 0)
(3 1.973015427e-15 0)
(3 1.922304074e-15 0)
(3 2.485844415e-15 0)
(3 6.445719427e-16 0)
(3 -4.255011864e-16 0)
(3 6.244919288e-16 0)
(3 1.44826865e-15 0)
(3 3.321487296e-16 0)
(3 -2.460193655e-16 0)
(3 -8.579754477e-17 0)
(3 -1.233273757e-15 0)
(3 -2.793374157e-15 0)
(3 -3.583321295e-15 0)
(3 -2.328943012e-15 0)
(3 -3.353862148e-16 0)
(3 1.393350481e-15 0)
(3 2.974468124e-15 0)
(3 6.828398309e-15 0)
(3 8.190255842e-15 0)
(3 7.794940143e-15 0)
(3 6.973230114e-15 0)
(3 6.377487004e-15 0)
(3 3.827986134e-15 0)
(3 4.884142091e-15 0)
(3 5.633248661e-15 0)
(3 6.605493439e-15 0)
(3 7.609901048e-15 0)
(3 7.361251343e-15 0)
(3 6.667143486e-15 0)
(3 6.869912566e-15 0)
(3 7.085079577e-15 0)
(3 9.12789161e-15 0)
(3 7.034306951e-15 0)
(3 5.692415033e-15 0)
(3 3.196738366e-15 0)
(3 1.305285546e-15 0)
(3 -4.19328677e-15 0)
(3 -5.22900412e-15 0)
(3 1.235717901e-16 0)
(3 2.074050145e-16 0)
(3 -5.918117598e-16 0)
(3 -6.256427065e-16 0)
(3 -1.211130409e-15 0)
(3 -6.735610406e-16 0)
(3 -1.098178948e-15 0)
(3 1.788264633e-16 0)
(3 4.37470431e-16 0)
(3 2.25599789e-15 0)
(3 1.344411685e-15 0)
(3 -3.233127713e-16 0)
(3 -5.214509261e-16 0)
(3 -2.079537212e-16 0)
(3 -8.4248852e-16 0)
(3 -8.580392598e-16 0)
(3 -9.230565609e-16 0)
(3 -1.113295583e-15 0)
(3 2.330429504e-16 0)
(3 3.977984355e-15 0)
(3 2.45579778e-15 0)
(3 2.465880901e-15 0)
(3 8.012495878e-16 0)
(3 2.113173579e-15 0)
(3 3.388319232e-15 0)
(3 4.473228508e-15 0)
(3 3.57802773e-15 0)
(3 4.0875721e-15 0)
(3 3.633059297e-15 0)
(3 2.693263873e-15 0)
(3 2.892554126e-15 0)
(3 3.244268752e-15 0)
(3 2.760504464e-15 0)
(3 3.114872839e-15 0)
(3 3.27931479e-15 0)
(3 1.981128474e-15 0)
(3 1.56756157e-15 0)
(3 1.466610981e-15 0)
(3 2.357214296e-15 0)
(3 1.117116946e-15 0)
(3 -1.676227455e-15 0)
(3 -3.501731912e-15 0)
(3 -2.996197326e-15 0)
(3 -2.383759871e-15 0)
(3 -1.765465697e-15 0)
(3 -7.838996795e-16 0)
(3 1.142715573e-15 0)
(3 2.314496107e-15 0)
(3 3.633229712e-15 0)
(3 4.248006584e-15 0)
(3 2.501918187e-15 0)
(3 1.255641929e-15 0)
(3 1.911654229e-15 0)
(3 2.618112226e-15 0)
(3 2.822682992e-15 0)
(3 4.566931674e-15 0)
(3 4.5321272e-15 0)
(3 3.230143842e-15 0)
(3 3.839146492e-15 0)
(3 4.101469809e-15 0)
(3 5.433394874e-15 0)
(3 4.259177457e-15 0)
(3 4.331149922e-15 0)
(3 1.731191173e-15 0)
(3 -1.26532042e-16 0)
(3 -1.800224567e-15 0)
(3 -3.147867903e-15 0)
(3 -1.716288927e-16 0)
(3 -7.737705995e-16 0)
(3 -6.013263246e-16 0)
(3 -6.390028513e-16 0)
(3 -1.465613774e-15 0)
(3 -2.380354204e-15 0)
(3 -1.984064417e-15 0)
(3 -5.469648312e-16 0)
(3 3.814833836e-16 0)
(3 1.210646874e-15 0)
(3 1.015612524e-15 0)
(3 -9.260314179e-16 0)
(3 -1.466118574e-15 0)
(3 -1.552252615e-15 0)
(3 -2.8451094e-16 0)
(3 -1.114836478e-15 0)
(3 2.543578619e-16 0)
(3 1.693451629e-15 0)
(3 3.628636679e-15 0)
(3 4.079090887e-15 0)
(3 4.288523432e-15 0)
(3 2.544879087e-15 0)
(3 2.985717391e-16 0)
(3 -1.685694205e-16 0)
(3 7.366624085e-16 0)
(3 7.460341702e-16 0)
(3 3.055171569e-15 0)
(3 4.4850195e-15 0)
(3 4.390998204e-15 0)
(3 3.535567769e-15 0)
(3 3.519761529e-15 0)
(3 2.652500838e-15 0)
(3 4.03006659e-15 0)
(3 4.350315051e-15 0)
(3 2.855403092e-15 0)
(3 1.26726755e-15 0)
(3 1.98584507e-16 0)
(3 5.434785407e-16 0)
(3 2.339626935e-16 0)
(3 1.247994933e-15 0)
(3 9.09713517e-16 0)
(3 -2.646934995e-16 0)
(3 -8.282936489e-16 0)
(3 -1.216655674e-15 0)
(3 -1.392026232e-15 0)
(3 -2.350708878e-15 0)
(3 -2.390668458e-16 0)
(3 8.894744135e-16 0)
(3 9.309224764e-16 0)
(3 3.345167326e-15 0)
(3 2.788406006e-15 0)
(3 2.167380584e-15 0)
(3 1.95308655e-15 0)
(3 2.497391798e-15 0)
(3 3.105716463e-15 0)
(3 2.629415007e-15 0)
(3 1.870525099e-15 0)
(3 2.012175205e-15 0)
(3 1.821175267e-15 0)
(3 2.270744835e-15 0)
(3 1.508421685e-15 0)
(3 8.601693748e-16 0)
(3 8.094012554e-16 0)
(3 4.476557324e-16 0)
(3 -1.733887039e-15 0)
(3 -1.95370642e-15 0)
(3 -3.482760544e-15 0)
(3 -6.764548301e-16 0)
(3 -7.165442498e-16 0)
(3 -5.036496366e-16 0)
(3 -4.623489845e-16 0)
(3 -6.435303778e-17 0)
(3 -1.375938977e-15 0)
(3 -1.084133521e-15 0)
(3 1.385520668e-16 0)
(3 5.44168041e-16 0)
(3 -5.346320763e-16 0)
(3 2.604710808e-16 0)
(3 2.060051284e-15 0)
(3 1.554402608e-15 0)
(3 5.755052157e-16 0)
(3 -1.59707391e-15 0)
(3 -1.584415883e-15 0)
(3 -1.703593901e-15 0)
(3 -1.426380817e-15 0)
(3 -1.593449018e-15 0)
(3 -1.242390357e-15 0)
(3 -1.176013597e-16 0)
(3 8.74508497e-16 0)
(3 1.008692357e-15 0)
(3 -2.791360399e-16 0)
(3 -7.059371655e-16 0)
(3 5.664173837e-16 0)
(3 2.795413321e-15 0)
(3 2.790055815e-15 0)
(3 4.782016357e-15 0)
(3 4.391764331e-15 0)
(3 3.607264348e-15 0)
(3 2.851355149e-15 0)
(3 3.445708517e-15 0)
(3 2.686745021e-15 0)
(3 1.93409505e-15 0)
(3 -1.279791278e-15 0)
(3 -2.239695772e-15 0)
(3 -2.625172291e-15 0)
(3 -3.150163345e-15 0)
(3 -1.341535751e-15 0)
(3 7.870094609e-16 0)
(3 1.942049922e-15 0)
(3 7.780340685e-16 0)
(3 -1.810613041e-15 0)
(3 -1.56311589e-15 0)
(3 -1.391558483e-15 0)
(3 -1.619779778e-15 0)
(3 -1.368250811e-15 0)
(3 -1.973130735e-15 0)
(3 -1.898526604e-16 0)
(3 9.884918798e-16 0)
(3 2.063904013e-15 0)
(3 1.350032274e-15 0)
(3 1.921986879e-15 0)
(3 2.866022716e-15 0)
(3 1.959968289e-15 0)
(3 -3.654057894e-16 0)
(3 9.854224079e-16 0)
(3 1.98126183e-15 0)
(3 2.113082201e-15 0)
(3 -2.524468587e-16 0)
(3 -3.96675303e-15 0)
(3 -4.329919257e-15 0)
(3 -2.145794316e-15 0)
(3 -1.935515771e-15 0)
(3 -1.564627744e-15 0)
(3 -1.736575067e-15 0)
(3 1.184314074e-15 0)
(3 2.064254222e-15 0)
(3 1.930074655e-15 0)
(3 9.993480286e-17 0)
(3 1.013496038e-16 0)
(3 -2.327765005e-16 0)
(3 -8.250200782e-16 0)
(3 -1.068093495e-16 0)
(3 9.510026759e-16 0)
(3 1.331208471e-15 0)
(3 1.492625158e-15 0)
(3 3.414656984e-15 0)
(3 1.859401011e-15 0)
(3 6.494937089e-16 0)
(3 -1.160743099e-15 0)
(3 -1.20884271e-15 0)
(3 -1.174352018e-15 0)
(3 -6.259426651e-16 0)
(3 5.785870969e-16 0)
(3 -2.310438034e-15 0)
(3 -1.671325599e-15 0)
(3 -1.862431942e-15 0)
(3 -1.251393071e-15 0)
(3 2.379103547e-16 0)
(3 -1.957036689e-16 0)
(3 -6.060736093e-16 0)
(3 4.188711272e-17 0)
(3 1.505171329e-15 0)
(3 1.863439194e-15 0)
(3 2.486565901e-15 0)
(3 1.820619721e-15 0)
(3 2.439853988e-15 0)
(3 2.473261065e-15 0)
(3 2.165215262e-15 0)
(3 2.109301687e-15 0)
(3 -1.193784283e-15 0)
(3 -1.578652032e-15 0)
(3 -2.372607008e-15 0)
(3 -1.706729322e-15 0)
(3 -1.114218993e-15 0)
(3 -1.082027737e-15 0)
(3 3.378411291e-16 0)
(3 1.016812999e-15 0)
(3 -9.697681226e-16 0)
(3 -1.112289746e-15 0)
(3 3.238450948e-16 0)
(3 -8.149169334e-16 0)
(3 -8.830763213e-16 0)
(3 3.047069655e-17 0)
(3 -3.839285584e-16 0)
(3 -6.736260387e-16 0)
(3 1.031474512e-15 0)
(3 3.074367543e-15 0)
(3 3.138625026e-15 0)
(3 2.664776062e-15 0)
(3 2.119430363e-15 0)
(3 6.465445266e-16 0)
(3 1.755931296e-16 0)
(3 1.687622951e-15 0)
(3 -6.33680084e-16 0)
(3 -2.809948023e-15 0)
(3 -2.616849553e-15 0)
(3 -2.071926307e-15 0)
(3 -2.009892567e-16 0)
(3 9.173662139e-16 0)
(3 3.01180856e-16 0)
(3 -5.865906625e-16 0)
(3 2.705234104e-16 0)
(3 9.94631787e-16 0)
(3 1.468254774e-15 0)
(3 1.987657004e-15 0)
(3 9.994272321e-16 0)
(3 9.066506041e-16 0)
(3 9.094619347e-16 0)
(3 1.321921063e-15 0)
(3 1.298313609e-15 0)
(3 2.552649945e-15 0)
(3 1.559385933e-15 0)
(3 1.492545434e-15 0)
(3 2.274095271e-16 0)
(3 6.459562918e-16 0)
(3 1.368306911e-15 0)
(3 8.209194787e-17 0)
(3 4.258504304e-16 0)
(3 2.007926383e-15 0)
(3 1.90145431e-15 0)
(3 -7.731609875e-16 0)
(3 -1.024260254e-15 0)
(3 -2.726019939e-15 0)
(3 -4.141652836e-15 0)
(3 -3.328532603e-15 0)
(3 -2.615135982e-15 0)
(3 -3.243451018e-15 0)
(3 -2.61149373e-15 0)
(3 -8.696670793e-16 0)
(3 -1.049212238e-15 0)
(3 7.130677729e-16 0)
(3 1.605165422e-15 0)
(3 4.114206806e-16 0)
(3 -6.53620109e-16 0)
(3 -1.302513576e-15 0)
(3 -1.3557249e-15 0)
(3 -6.284468143e-16 0)
(3 6.368543063e-16 0)
(3 -7.06765632e-16 0)
(3 -1.528305224e-15 0)
(3 -3.481490851e-15 0)
(3 -2.697895036e-15 0)
(3 -1.084965594e-16 0)
(3 1.972269029e-16 0)
(3 1.091832074e-15 0)
(3 2.913225503e-15 0)
(3 2.903671822e-15 0)
(3 3.194253466e-15 0)
(3 4.095259144e-15 0)
(3 5.767926475e-15 0)
(3 4.827996259e-15 0)
(3 3.820795442e-15 0)
(3 3.540174849e-15 0)
(3 3.794775655e-15 0)
(3 4.434393995e-15 0)
(3 4.50069783e-15 0)
(3 3.637863228e-15 0)
(3 1.83823402e-15 0)
(3 -1.034633931e-15 0)
(3 -3.652174099e-15 0)
(3 -2.807238467e-15 0)
(3 -2.119719187e-15 0)
(3 -1.128810047e-15 0)
(3 -5.812269324e-16 0)
(3 1.607089628e-16 0)
(3 5.580705914e-17 0)
(3 -5.592880447e-16 0)
(3 -2.361558399e-15 0)
(3 4.722381112e-17 0)
(3 -2.390847555e-17 0)
(3 -2.807327226e-16 0)
(3 8.259139419e-16 0)
(3 1.157205183e-15 0)
(3 1.55321849e-16 0)
(3 3.370513857e-16 0)
(3 8.846215802e-16 0)
(3 2.104869876e-15 0)
(3 -2.796798326e-16 0)
(3 -1.203612544e-15 0)
(3 -1.668800464e-16 0)
(3 7.535886749e-16 0)
(3 2.47731197e-15 0)
(3 3.81469779e-15 0)
(3 2.873772602e-15 0)
(3 2.963938418e-15 0)
(3 5.100072338e-15 0)
(3 3.493803273e-15 0)
(3 1.859696228e-15 0)
(3 -8.845733059e-16 0)
(3 -3.031227068e-16 0)
(3 -9.630275414e-16 0)
(3 -2.930049109e-15 0)
(3 -3.03867243e-15 0)
(3 -2.521103285e-15 0)
(3 -2.724909871e-15 0)
(3 -2.559401059e-15 0)
(3 -2.402558051e-15 0)
(3 -3.62873517e-15 0)
(3 -3.157004306e-15 0)
(3 -3.282999213e-15 0)
(3 -4.511990594e-15 0)
(3 -4.675662177e-15 0)
(3 -2.608457533e-15 0)
(3 4.801364895e-17 0)
(3 2.249893955e-15 0)
(3 3.632302171e-15 0)
(3 3.781874321e-15 0)
(3 2.893572325e-15 0)
(3 1.726191589e-15 0)
(3 2.406130311e-15 0)
(3 2.312692214e-15 0)
(3 4.309658539e-15 0)
(3 3.594607605e-15 0)
(3 3.720809625e-15 0)
(3 3.346051933e-15 0)
(3 3.793153696e-15 0)
(3 3.469233684e-15 0)
(3 2.351103423e-15 0)
(3 2.419083158e-15 0)
(3 3.310039963e-15 0)
(3 3.869646996e-15 0)
(3 5.128268157e-15 0)
(3 4.007272706e-15 0)
(3 2.139190037e-15 0)
(3 1.559137284e-16 0)
(3 -1.422359598e-15 0)
(3 -5.871404258e-15 0)
(3 -5.765941773e-15 0)
(3 -4.807830927e-15 0)
(3 -4.972680735e-15 0)
(3 -4.389895834e-15 0)
(3 -3.948039312e-15 0)
(3 -3.352665621e-15 0)
(3 -2.928604198e-15 0)
(3 -2.044771005e-15 0)
(3 7.783228341e-17 0)
(3 2.107189876e-16 0)
(3 2.721990301e-16 0)
(3 1.315514554e-15 0)
(3 1.697980276e-15 0)
(3 1.461973613e-15 0)
(3 1.593598935e-15 0)
(3 1.480704715e-15 0)
(3 -4.848957208e-16 0)
(3 -2.908759002e-15 0)
(3 -2.190777329e-15 0)
(3 -1.227398028e-15 0)
(3 9.820369449e-16 0)
(3 1.543302168e-15 0)
(3 1.908463924e-15 0)
(3 2.62179355e-15 0)
(3 1.842042095e-15 0)
(3 1.618359633e-15 0)
(3 1.840443115e-15 0)
(3 7.881608542e-16 0)
(3 -1.030247201e-15 0)
(3 -5.263638458e-16 0)
(3 1.288786339e-15 0)
(3 4.842094511e-16 0)
(3 -6.905209632e-16 0)
(3 -1.189408884e-15 0)
(3 -1.15090942e-15 0)
(3 -1.263237115e-15 0)
(3 -2.630044118e-15 0)
(3 -6.917157548e-15 0)
(3 -7.578916949e-15 0)
(3 -5.62489717e-15 0)
(3 -3.76663665e-15 0)
(3 -2.252590817e-15 0)
(3 5.872831232e-16 0)
(3 2.398806796e-15 0)
(3 4.117759817e-15 0)
(3 6.511081261e-15 0)
(3 6.822179574e-15 0)
(3 5.904276859e-15 0)
(3 4.689834157e-15 0)
(3 4.281254944e-15 0)
(3 4.580523339e-15 0)
(3 5.441115004e-15 0)
(3 4.299504058e-15 0)
(3 4.871460627e-15 0)
(3 5.445378152e-15 0)
(3 5.423311685e-15 0)
(3 3.913379164e-15 0)
(3 2.436689838e-15 0)
(3 3.669622242e-15 0)
(3 4.559859627e-15 0)
(3 5.561427153e-15 0)
(3 5.520312869e-15 0)
(3 -2.239654784e-16 0)
(3 -4.907557094e-15 0)
(3 -3.806675049e-15 0)
(3 -3.405504096e-15 0)
(3 -3.71073292e-15 0)
(3 -3.04897946e-15 0)
(3 -4.027056809e-15 0)
(3 -3.702790114e-15 0)
(3 -3.463508417e-15 0)
(3 -3.555976532e-15 0)
(3 -5.25703963e-15 0)
(3 -4.129171888e-15 0)
(3 1.367411423e-16 0)
(3 -1.845007292e-16 0)
(3 -1.517480846e-15 0)
(3 -8.413712168e-16 0)
(3 2.475776636e-16 0)
(3 6.505332732e-17 0)
(3 1.374737636e-15 0)
(3 2.059125514e-15 0)
(3 1.158721693e-15 0)
(3 -2.280457163e-15 0)
(3 -5.375732787e-16 0)
(3 4.12472075e-16 0)
(3 -1.52825225e-17 0)
(3 4.47939313e-16 0)
(3 -6.85128556e-17 0)
(3 -7.38157289e-16 0)
(3 -8.625939639e-16 0)
(3 -8.984234549e-16 0)
(3 -2.032831397e-15 0)
(3 -1.559648838e-15 0)
(3 -8.704165735e-16 0)
(3 -9.369084933e-16 0)
(3 -1.666053002e-15 0)
(3 -8.138268468e-16 0)
(3 -1.665039285e-15 0)
(3 -1.173065999e-15 0)
(3 -2.347522941e-15 0)
(3 -1.770644385e-15 0)
(3 -1.450108787e-15 0)
(3 -3.784238808e-15 0)
(3 -4.357332946e-15 0)
(3 -4.769513135e-15 0)
(3 -3.78369504e-15 0)
(3 -2.544184231e-15 0)
(3 -4.58397389e-16 0)
(3 6.932575348e-16 0)
(3 3.073965407e-15 0)
(3 4.201991457e-15 0)
(3 3.8056412e-15 0)
(3 4.589074266e-15 0)
(3 4.670097105e-15 0)
(3 5.056290003e-15 0)
(3 4.851671145e-15 0)
(3 7.44432521e-15 0)
(3 7.082793053e-15 0)
(3 6.624048099e-15 0)
(3 6.27538059e-15 0)
(3 5.80912585e-15 0)
(3 5.46204419e-15 0)
(3 4.838469384e-15 0)
(3 5.460246629e-15 0)
(3 6.158392566e-15 0)
(3 6.246379815e-15 0)
(3 7.421186333e-15 0)
(3 3.500979996e-15 0)
(3 -1.788942696e-16 0)
(3 -2.496596424e-15 0)
(3 -2.413268353e-15 0)
(3 -2.217194387e-15 0)
(3 -6.387519832e-16 0)
(3 4.937951801e-17 0)
(3 -2.498341466e-15 0)
(3 -2.326424748e-15 0)
(3 -2.581031994e-15 0)
(3 -2.767723315e-15 0)
(3 -2.084042326e-15 0)
(3 4.409204189e-16 0)
(3 9.412693929e-16 0)
(3 -3.227394609e-16 0)
(3 -1.461215015e-15 0)
(3 -1.123167412e-15 0)
(3 -2.036000524e-15 0)
(3 -1.182227952e-15 0)
(3 9.786507727e-17 0)
(3 5.722121006e-16 0)
(3 4.951209296e-16 0)
(3 -5.542569619e-17 0)
(3 9.720524968e-16 0)
(3 8.863936184e-16 0)
(3 -1.501065797e-15 0)
(3 -2.419010075e-15 0)
(3 -3.368202984e-15 0)
(3 -4.664667939e-15 0)
(3 -3.184387533e-15 0)
(3 -3.055282811e-15 0)
(3 -3.916437238e-15 0)
(3 -5.155776356e-15 0)
(3 -3.81769047e-15 0)
(3 -9.819553714e-16 0)
(3 -6.728500391e-16 0)
(3 -3.451699227e-15 0)
(3 -3.66673441e-15 0)
(3 -2.122641904e-15 0)
(3 -1.294670217e-15 0)
(3 -3.573420439e-16 0)
(3 -5.866464472e-16 0)
(3 -1.538151832e-15 0)
(3 -9.717031785e-16 0)
(3 -1.038407014e-15 0)
(3 -1.312897728e-15 0)
(3 -1.409183989e-15 0)
(3 -1.949908868e-15 0)
(3 -6.764434184e-16 0)
(3 -2.410961827e-16 0)
(3 7.752857464e-16 0)
(3 6.0743706e-16 0)
(3 2.725610434e-15 0)
(3 5.162880203e-15 0)
(3 6.7042987e-15 0)
(3 8.141502859e-15 0)
(3 8.215797491e-15 0)
(3 8.002704099e-15 0)
(3 8.213256634e-15 0)
(3 8.600193824e-15 0)
(3 5.470599482e-15 0)
(3 3.898402204e-15 0)
(3 2.612278915e-15 0)
(3 6.825544605e-16 0)
(3 -6.991006574e-16 0)
(3 -9.573391525e-17 0)
(3 4.956600182e-16 0)
(3 -1.501530644e-15 0)
(3 -1.937265286e-15 0)
(3 -1.493735548e-15 0)
(3 -4.787755786e-16 0)
(3 -8.764131663e-16 0)
(3 -7.829459029e-16 0)
(3 -1.537147668e-15 0)
(3 -2.073289232e-15 0)
(3 -1.798997567e-15 0)
(3 -1.466252939e-15 0)
(3 -1.845753845e-15 0)
(3 2.474189361e-17 0)
(3 7.911838779e-16 0)
(3 2.944528695e-16 0)
(3 1.879309062e-16 0)
(3 1.551842452e-16 0)
(3 -1.170195423e-15 0)
(3 -1.990589466e-15 0)
(3 -2.126506037e-15 0)
(3 -2.046063117e-15 0)
(3 -1.370699055e-15 0)
(3 -2.180925146e-17 0)
(3 2.970430902e-16 0)
(3 -1.277138373e-15 0)
(3 -4.033401284e-15 0)
(3 -3.422331451e-15 0)
(3 -3.331377036e-15 0)
(3 -4.270234656e-15 0)
(3 -4.512261227e-15 0)
(3 -2.724486029e-15 0)
(3 -2.090088781e-15 0)
(3 -1.837733023e-15 0)
(3 -2.93220514e-15 0)
(3 -3.212610408e-15 0)
(3 -2.389997328e-15 0)
(3 -1.775705656e-15 0)
(3 -2.117385019e-15 0)
(3 5.647814827e-17 0)
(3 1.685618617e-16 0)
(3 2.563968543e-15 0)
(3 2.387479816e-15 0)
(3 1.863085866e-15 0)
(3 1.018750684e-15 0)
(3 6.045197309e-16 0)
(3 9.550747519e-16 0)
(3 1.246732584e-15 0)
(3 1.322242946e-15 0)
(3 -3.701956612e-16 0)
(3 6.923376238e-16 0)
(3 8.288637199e-16 0)
(3 1.314084301e-15 0)
(3 2.448926825e-15 0)
(3 2.027916931e-15 0)
(3 3.241086085e-15 0)
(3 5.788806098e-15 0)
(3 8.176875408e-15 0)
(3 6.857108143e-15 0)
(3 6.945276069e-15 0)
(3 7.500704385e-15 0)
(3 8.004595399e-15 0)
(3 6.509040423e-15 0)
(3 3.205371139e-15 0)
(3 2.935122202e-15 0)
(3 2.480018084e-15 0)
(3 1.515377392e-15 0)
(3 7.142940709e-16 0)
(3 -5.039988723e-16 0)
(3 3.781340642e-16 0)
(3 4.683502745e-16 0)
(3 6.717697883e-16 0)
(3 4.872529884e-16 0)
(3 1.808540785e-15 0)
(3 -4.837574148e-16 0)
(3 -6.869279824e-16 0)
(3 -4.406911657e-16 0)
(3 -2.660981621e-16 0)
(3 6.737539425e-18 0)
(3 -4.521417725e-16 0)
(3 -1.295195579e-15 0)
(3 -2.105719439e-15 0)
(3 -1.167407548e-15 0)
(3 5.223133872e-16 0)
(3 1.500163587e-15 0)
(3 1.04621443e-15 0)
(3 9.578098329e-16 0)
(3 -2.721011056e-15 0)
(3 -4.525306799e-15 0)
(3 -4.452660079e-15 0)
(3 -3.854859821e-15 0)
(3 -9.383446724e-16 0)
(3 -2.393729031e-15 0)
(3 -3.773457715e-15 0)
(3 -3.360549738e-15 0)
(3 -3.122362611e-15 0)
(3 -4.040010111e-15 0)
(3 -4.163663086e-15 0)
(3 -3.939448976e-15 0)
(3 -2.040404224e-15 0)
(3 8.567638263e-17 0)
(3 5.45415758e-16 0)
(3 -8.756713262e-16 0)
(3 -1.421213464e-15 0)
(3 -1.327465674e-15 0)
(3 2.254340605e-15 0)
(3 3.279695332e-15 0)
(3 3.61653994e-15 0)
(3 2.730624691e-15 0)
(3 2.963514353e-15 0)
(3 3.227865912e-15 0)
(3 2.556142991e-15 0)
(3 1.927581429e-15 0)
(3 1.314015686e-15 0)
(3 1.221971384e-15 0)
(3 2.34237215e-15 0)
(3 1.037521863e-15 0)
(3 -3.778092526e-16 0)
(3 5.621203923e-16 0)
(3 1.254544424e-15 0)
(3 2.465961264e-15 0)
(3 2.253324749e-15 0)
(3 3.865146038e-15 0)
(3 5.618216941e-15 0)
(3 6.292123517e-15 0)
(3 6.210952143e-15 0)
(3 5.04342761e-15 0)
(3 4.675430416e-15 0)
(3 4.51320028e-15 0)
(3 3.973703218e-15 0)
(3 3.344672143e-15 0)
(3 1.713497447e-15 0)
(3 3.169647867e-15 0)
(3 4.251585985e-15 0)
(3 3.266506251e-15 0)
(3 1.283393735e-15 0)
(3 2.092704679e-15 0)
(3 1.988461049e-15 0)
(3 2.575344415e-15 0)
(3 4.540965811e-15 0)
(3 6.205627909e-15 0)
(3 5.233898343e-15 0)
(3 2.905280709e-15 0)
(3 1.046327752e-15 0)
(3 -6.427365096e-16 0)
(3 -1.585817682e-15 0)
(3 -1.184541288e-15 0)
(3 -4.405036749e-16 0)
(3 -8.172042473e-16 0)
(3 -1.102488029e-15 0)
(3 1.111168368e-16 0)
(3 1.443560216e-15 0)
(3 2.366696794e-15 0)
(3 2.399332847e-15 0)
(3 1.103267495e-15 0)
(3 -1.145598388e-15 0)
(3 -3.632593756e-15 0)
(3 -3.956544496e-15 0)
(3 -2.726899405e-15 0)
(3 -1.286876104e-17 0)
(3 7.884083712e-16 0)
(3 -5.794044556e-16 0)
(3 -3.055227809e-15 0)
(3 -4.218690499e-15 0)
(3 -3.84100128e-15 0)
(3 -4.564519649e-15 0)
(3 -4.348354219e-15 0)
(3 -2.851561106e-15 0)
(3 -1.149174603e-15 0)
(3 3.9042136e-16 0)
(3 1.328145399e-15 0)
(3 2.815485992e-15 0)
(3 2.529075166e-15 0)
(3 1.066819991e-15 0)
(3 1.905088353e-15 0)
(3 1.470851892e-17 0)
(3 1.270278012e-16 0)
(3 1.036331327e-15 0)