/*--------------------------------*- C++ -*----------------------------------*\
  =========                 |
  \\      /  F ield         | OpenFOAM: The Open Source CFD Toolbox
   \\    /   O peration     | Website:  https://openfoam.org
    \\  /    A nd           | Version:  7
     \\/     M anipulation  |
\*---------------------------------------------------------------------------*/
FoamFile
{
    version     2.0;
    format      ascii;
    class       volVectorField;
    location    "1.8";
    object      U;
}
// * * * * * * * * * * * * * * * * * * * * * * * * * * * * * * * * * * * * * //

dimensions      [0 1 -1 0 0 0 0];

internalField   nonuniform List<vector> 
2222
(
(2.679653738 1.000888267 0)
(2.688293347 0.9898300072 0)
(2.695894477 0.9840818562 0)
(2.702666475 0.9762526025 0)
(2.705293681 0.9519094669 0)
(2.699117384 0.8981036127 0)
(2.686121319 0.7799280975 0)
(2.662471106 0.6259279386 0)
(2.673067885 0.554661102 0)
(2.655377084 0.4690105629 0)
(2.664828572 0.4589546152 0)
(2.671703026 0.4543924031 0)
(2.679043101 0.4500344695 0)
(2.683151462 0.4437146302 0)
(2.684753025 0.4299009848 0)
(2.688697399 0.4132913974 0)
(2.69983325 0.4024272388 0)
(2.709977192 0.3954035493 0)
(3.060989416 0.47751038 0)
(3.057905023 0.4871591224 0)
(3.054169248 0.5009736386 0)
(3.017862836 0.5834308607 0)
(2.782790381 0.9430830202 0)
(2.635182321 1.075203385 0)
(2.604920215 1.076886207 0)
(2.607830341 1.074284498 0)
(2.619023065 1.068647401 0)
(2.631779328 1.062355872 0)
(2.640686543 1.059764373 0)
(2.646700403 1.054910891 0)
(2.652258536 1.049363199 0)
(2.667731541 1.032255549 0)
(2.675054397 1.020633631 0)
(2.684898264 1.000556176 0)
(2.687934739 0.9687929678 0)
(2.681392116 0.894841204 0)
(2.668229615 0.7662350188 0)
(2.645125159 0.6203870265 0)
(2.65974177 0.5705212903 0)
(2.646064198 0.5082410308 0)
(2.660778367 0.4713794595 0)
(2.667011727 0.449098629 0)
(2.665645619 0.449805126 0)
(2.669667714 0.4499211109 0)
(2.675871962 0.4493448405 0)
(2.679810501 0.4461849237 0)
(2.681149499 0.4425542297 0)
(2.685621173 0.4308645095 0)
(2.694283348 0.4154821456 0)
(2.705948562 0.3998132196 0)
(3.06216059 0.4880688576 0)
(3.061027111 0.4950756065 0)
(3.05898012 0.5072165256 0)
(3.050645775 0.5421562729 0)
(2.881038103 0.808971922 0)
(2.727551389 0.992428142 0)
(2.611917895 1.084990667 0)
(2.609574028 1.093735485 0)
(2.611333639 1.100460274 0)
(2.624045948 1.09194421 0)
(2.627316879 1.080510627 0)
(2.642357433 1.063306126 0)
(2.651010056 1.05171253 0)
(2.660192004 1.024362638 0)
(2.66388181 0.9716581803 0)
(2.660143204 0.864050779 0)
(2.648643521 0.7337761268 0)
(2.637856552 0.6361765015 0)
(2.643514217 0.5718104325 0)
(2.631772921 0.5331486375 0)
(2.64671604 0.4986288256 0)
(2.651545321 0.4923384141 0)
(2.657660908 0.4873010728 0)
(2.666649434 0.4715885896 0)
(2.66745263 0.4551716798 0)
(2.66731266 0.4528267718 0)
(2.671548466 0.4487703133 0)
(2.67686713 0.4442256862 0)
(2.679378387 0.4426268524 0)
(2.684458631 0.4364820033 0)
(2.69112248 0.4257302184 0)
(2.701128334 0.4092763547 0)
(3.065375693 0.5065836977 0)
(3.063823951 0.5064285028 0)
(3.063466614 0.515094659 0)
(3.058908932 0.5320915319 0)
(3.004551338 0.6370877096 0)
(2.781513384 0.9780317426 0)
(2.620703426 1.091187741 0)
(2.600454142 1.105311134 0)
(2.606713576 1.100287815 0)
(2.617983105 1.099706193 0)
(2.623736936 1.081681448 0)
(2.629811417 1.038548889 0)
(2.633269872 0.9613474953 0)
(2.631040269 0.8397378413 0)
(2.628693549 0.729996047 0)
(2.640653332 0.657456466 0)
(2.635590229 0.5736178456 0)
(2.630735996 0.5169174772 0)
(2.635694315 0.5167383846 0)
(2.635228479 0.517037556 0)
(2.639616936 0.5095607942 0)
(2.647706178 0.5022835682 0)
(2.657041192 0.4961943771 0)
(2.664344084 0.4861913443 0)
(2.664287691 0.4729160479 0)
(2.66665895 0.452556372 0)
(2.667220988 0.4507578554 0)
(2.674422365 0.4437382857 0)
(2.67902316 0.4411055688 0)
(2.684379546 0.435710909 0)
(2.690421711 0.4272018838 0)
(2.697795531 0.4171089494 0)
(3.066063702 0.5195011743 0)
(3.066352552 0.5185046095 0)
(3.067407927 0.527153629 0)
(3.064104241 0.5382420417 0)
(3.050459127 0.5821010627 0)
(2.858522866 0.8690291609 0)
(2.727135334 1.041645414 0)
(2.631959554 1.110264159 0)
(2.60250447 1.086616683 0)
(2.593414677 1.029571116 0)
(2.597997203 0.9332629866 0)
(2.598651775 0.800192016 0)
(2.592549456 0.6619755388 0)
(2.610613613 0.5970738637 0)
(2.613125559 0.5436283038 0)
(2.610182055 0.5436371176 0)
(2.621225619 0.5496571959 0)
(2.626562174 0.5377969558 0)
(2.629324206 0.5280773599 0)
(2.633967399 0.525406008 0)
(2.637933616 0.5172727449 0)
(2.645106087 0.5054332753 0)
(2.654215514 0.4952926903 0)
(2.65786355 0.4954007572 0)
(2.660312387 0.4855743938 0)
(2.66222665 0.4692163631 0)
(2.664449745 0.4541150641 0)
(2.674270498 0.4411002513 0)
(2.679420198 0.4405106111 0)
(2.684179552 0.4363807995 0)
(2.690627202 0.4280301386 0)
(2.696439155 0.4203688062 0)
(3.06708679 0.5286992532 0)
(3.067512042 0.5297327829 0)
(3.070349302 0.5379666567 0)
(3.068871139 0.5418087404 0)
(3.064808488 0.5485321737 0)
(2.968157695 0.6557257992 0)
(2.726073687 0.7937880701 0)
(2.615498404 0.9491086468 0)
(2.572380154 0.8170546035 0)
(2.544168381 0.687839658 0)
(2.54721575 0.6017053884 0)
(2.534775672 0.619704062 0)
(2.562803173 0.6028511571 0)
(2.582266056 0.5786349805 0)
(2.592775323 0.5582734527 0)
(2.601265366 0.5491424746 0)
(2.612453985 0.5522712557 0)
(2.619710864 0.5521188857 0)
(2.629133494 0.5434093533 0)
(2.638099224 0.5299728049 0)
(2.638799646 0.5200915975 0)
(2.644861781 0.5046780195 0)
(2.652385926 0.4935462497 0)
(2.654721437 0.4974046485 0)
(2.656383614 0.4937704565 0)
(2.660073829 0.4811958201 0)
(2.664684052 0.4649370137 0)
(2.672926725 0.4499968552 0)
(2.680606557 0.4412685688 0)
(2.684996532 0.4365335103 0)
(2.691456072 0.4274917934 0)
(2.696309108 0.4209905474 0)
(3.070045509 0.5456681484 0)
(3.07001164 0.550084201 0)
(3.072951291 0.5462772914 0)
(3.070049442 0.5382074823 0)
(3.050836596 0.4732853589 0)
(2.968997752 0.3721584669 0)
(2.873889214 0.4387227732 0)
(2.64270541 0.7144919555 0)
(2.583466417 0.6832090335 0)
(2.544052206 0.6549472186 0)
(2.538198649 0.6193385772 0)
(2.547736284 0.5901627752 0)
(2.554971651 0.5848263093 0)
(2.56085254 0.5834681885 0)
(2.574111411 0.5736157648 0)
(2.591975239 0.5592934898 0)
(2.601431905 0.5569371349 0)
(2.614000812 0.554077533 0)
(2.621563539 0.5530459547 0)
(2.631428367 0.5426019443 0)
(2.639522879 0.5221751399 0)
(2.641617404 0.5101695885 0)
(2.649856554 0.4961389846 0)
(2.652767029 0.4982237998 0)
(2.65537176 0.4953064338 0)
(2.660160996 0.4861907197 0)
(2.664918066 0.4763394446 0)
(2.67327125 0.460836781 0)
(2.679543243 0.4514921186 0)
(2.685066688 0.4423886504 0)
(2.69176771 0.4304960994 0)
(2.696382871 0.4217482022 0)
(3.071173386 0.5566146292 0)
(3.070358911 0.5534814345 0)
(3.066717591 0.5270669883 0)
(3.045190511 0.4337579089 0)
(3.003668199 0.2571742767 0)
(2.98003681 0.1171791484 0)
(2.913767816 0.1748361797 0)
(2.738235274 0.4324636218 0)
(2.611323444 0.582447466 0)
(2.579167784 0.6309850029 0)
(2.572254288 0.6199356061 0)
(2.574129735 0.5942763628 0)
(2.569626732 0.5854010081 0)
(2.568253575 0.5847553452 0)
(2.571733778 0.5792057381 0)
(2.58188338 0.5671524279 0)
(2.592553953 0.5592563313 0)
(2.603372438 0.5546957039 0)
(2.612650299 0.5533567786 0)
(2.622366093 0.5464981999 0)
(2.632109411 0.5300755361 0)
(2.639061294 0.5134448086 0)
(2.647886431 0.4991673511 0)
(2.650566389 0.5013825986 0)
(2.65437142 0.4963224358 0)
(2.661714272 0.4855289441 0)
(2.665938489 0.4790023742 0)
(2.672194087 0.4710156167 0)
(2.677577079 0.4640592817 0)
(2.683270698 0.4532334511 0)
(2.690260193 0.4384171457 0)
(2.695777218 0.4252851246 0)
(3.069424379 0.5569126362 0)
(3.059358572 0.5121990813 0)
(3.039257173 0.3946510654 0)
(2.97404077 0.1390603282 0)
(2.955553769 0.05952658223 0)
(2.956295626 -0.004570770191 0)
(2.918908402 0.059653122 0)
(2.783883164 0.2880818247 0)
(2.609608565 0.5917110261 0)
(2.579681077 0.6441668784 0)
(2.584380038 0.6254158796 0)
(2.592235604 0.6086424584 0)
(2.591593641 0.5976982882 0)
(2.580337868 0.5944733884 0)
(2.574834231 0.5870842642 0)
(2.576722556 0.5737907629 0)
(2.583483618 0.5629251536 0)
(2.59361831 0.5576690584 0)
(2.603438706 0.5529777503 0)
(2.61188215 0.5465288014 0)
(2.622911508 0.5335637116 0)
(2.631434595 0.5205927291 0)
(2.642837757 0.5069743875 0)
(2.648754577 0.50230907 0)
(2.65503584 0.4946478859 0)
(2.662189797 0.4841646051 0)
(2.66582127 0.4797548958 0)
(2.671442414 0.474189159 0)
(2.675071398 0.4722214851 0)
(2.680360791 0.4642331752 0)
(2.687351271 0.4492877018 0)
(2.694378033 0.4317854384 0)
(3.049599214 0.4689231236 0)
(3.017057186 0.2494341002 0)
(2.976124816 0.1034185526 0)
(2.958359086 0.04063645045 0)
(2.942147259 0.02554224211 0)
(2.938242627 0.01090037045 0)
(2.932410314 0.01939878805 0)
(2.87934697 0.1294764814 0)
(2.654438611 0.4828712015 0)
(2.598255793 0.5828805741 0)
(2.590489983 0.6144655873 0)
(2.595485306 0.6151628739 0)
(2.607256247 0.6067083002 0)
(2.596657983 0.6007302967 0)
(2.584353211 0.5901238206 0)
(2.57925494 0.5770280034 0)
(2.581712372 0.5651071455 0)
(2.588802037 0.5610012642 0)
(2.598259494 0.555231163 0)
(2.605215617 0.5475904602 0)
(2.616574088 0.533916337 0)
(2.624114736 0.5237961036 0)
(2.634252747 0.5153532446 0)
(2.643595466 0.5081070376 0)
(2.651150852 0.4988421884 0)
(2.660006885 0.4853969479 0)
(2.664932465 0.4776181284 0)
(2.670317197 0.4734429947 0)
(2.672961934 0.4744168629 0)
(2.677667159 0.4691442216 0)
(2.684551241 0.4569089567 0)
(2.69200101 0.4401498799 0)
(3.000343399 0.232695782 0)
(2.999401289 0.1420429336 0)
(2.964125735 0.065505354 0)
(2.95652883 0.04030557752 0)
(2.933600686 0.03151356265 0)
(2.929615508 0.02426938643 0)
(2.928256861 0.01991182217 0)
(2.915080085 0.05206914282 0)
(2.768961719 0.2904103634 0)
(2.624758458 0.5211981609 0)
(2.588195421 0.6065849794 0)
(2.592069597 0.6181591509 0)
(2.598638497 0.6198331352 0)
(2.595535888 0.6115568022 0)
(2.585229572 0.5990559016 0)
(2.582388317 0.5845748545 0)
(2.585283924 0.5721468548 0)
(2.590814314 0.5655229346 0)
(2.597725093 0.5586028376 0)
(2.601566064 0.5499938639 0)
(2.61262812 0.5343473412 0)
(2.619074934 0.523494996 0)
(2.626748032 0.520307406 0)
(2.635649562 0.515460365 0)
(2.645399143 0.5038786581 0)
(2.65449742 0.4887387907 0)
(2.659419954 0.4799913365 0)
(2.66747727 0.4729153223 0)
(2.671437235 0.473417681 0)
(2.675302684 0.4693667846 0)
(2.682738099 0.4585471673 0)
(2.689557861 0.4458474044 0)
(2.951365705 -0.001078048056 0)
(2.931824961 0.01869298234 0)
(2.939184605 0.02638629475 0)
(2.946595294 0.02570979934 0)
(2.931884652 0.02931203423 0)
(2.928464198 0.02858905002 0)
(2.925669643 0.02351829179 0)
(2.92271436 0.02920166556 0)
(2.880135743 0.1169996115 0)
(2.684878952 0.4474696797 0)
(2.609754653 0.5637472643 0)
(2.586712804 0.6167081791 0)
(2.581249066 0.6266868495 0)
(2.578543592 0.6221473342 0)
(2.582120642 0.6042651727 0)
(2.587048494 0.5861355403 0)
(2.593660611 0.5749417403 0)
(2.599887704 0.5696523442 0)
(2.604772035 0.5624095306 0)
(2.604652406 0.5510231645 0)
(2.611489458 0.5339099448 0)
(2.616356432 0.522934237 0)
(2.621609983 0.5228469849 0)
(2.62646147 0.5223587232 0)
(2.635353894 0.5124983716 0)
(2.645507962 0.4959754077 0)
(2.653659548 0.4822151871 0)
(2.662665039 0.4743250695 0)
(2.668033089 0.4742202331 0)
(2.67274974 0.4693589654 0)
(2.680953013 0.4575670893 0)
(2.687416215 0.4472368689 0)
(2.93994704 0.02599969061 0)
(2.932362521 0.02064818795 0)
(2.933421204 0.02048414552 0)
(2.934334805 0.02110954364 0)
(2.931609718 0.02398550578 0)
(2.927610739 0.02687011904 0)
(2.926658649 0.02472207647 0)
(2.925877116 0.02478278147 0)
(2.915858861 0.05072679349 0)
(2.814296947 0.2445782707 0)
(2.68727244 0.4616808896 0)
(2.573717028 0.6132160407 0)
(2.562868836 0.6325215241 0)
(2.564164976 0.6292416992 0)
(2.572762853 0.6127077845 0)
(2.583943308 0.5921398409 0)
(2.598483418 0.5804620829 0)
(2.6093813 0.5757066291 0)
(2.614014678 0.5705443535 0)
(2.613723571 0.5572484303 0)
(2.61301612 0.5408396789 0)
(2.615718417 0.5249638438 0)
(2.618581151 0.5253743873 0)
(2.620078632 0.5265629314 0)
(2.627867529 0.5185671526 0)
(2.6377129 0.5034676886 0)
(2.646098425 0.489583587 0)
(2.656504813 0.4788983738 0)
(2.663404177 0.4768012635 0)
(2.668894702 0.4703272777 0)
(2.678084165 0.4575400661 0)
(2.684797368 0.4475286221 0)
(2.923093366 0.02383202471 0)
(2.928006344 0.02357071911 0)
(2.930592942 0.02063984209 0)
(2.932073748 0.01629027238 0)
(2.931375399 0.01672812707 0)
(2.929011709 0.02008442332 0)
(2.928070996 0.02304469015 0)
(2.928044985 0.02370675465 0)
(2.926597549 0.02795673713 0)
(2.894410494 0.0996835825 0)
(2.768311533 0.3562372904 0)
(2.614481315 0.5583444505 0)
(2.544610543 0.6314380484 0)
(2.543202417 0.6316962878 0)
(2.561626319 0.6149983853 0)
(2.579034233 0.5931805767 0)
(2.599181513 0.5809025751 0)
(2.612935261 0.5787005936 0)
(2.617550126 0.5775087297 0)
(2.618671178 0.5656665095 0)
(2.618869562 0.545647864 0)
(2.618935083 0.5275534445 0)
(2.619056926 0.5285862771 0)
(2.618549558 0.5294744999 0)
(2.624769889 0.522533148 0)
(2.633477308 0.5101056339 0)
(2.640360971 0.4982019122 0)
(2.650221993 0.4873497935 0)
(2.657772727 0.4827803359 0)
(2.663764587 0.4743193639 0)
(2.673027462 0.4600351059 0)
(2.680426958 0.4488597424 0)
(2.925013605 0.02059306084 0)
(2.927269652 0.02449894833 0)
(2.928390105 0.02322436861 0)
(2.929406265 0.0200025952 0)
(2.929294201 0.01767937066 0)
(2.928649671 0.01880475574 0)
(2.928838228 0.02096484095 0)
(2.929639252 0.02221664423 0)
(2.929116985 0.02426211527 0)
(2.922478959 0.04080311702 0)
(2.861699381 0.1825011521 0)
(2.670370736 0.4679645576 0)
(2.535330966 0.6370799214 0)
(2.527533729 0.6243848395 0)
(2.557632478 0.605274133 0)
(2.576104003 0.5885619372 0)
(2.597238945 0.5790686282 0)
(2.610343663 0.5820331348 0)
(2.614285672 0.5851973394 0)
(2.618734376 0.5738766072 0)
(2.620943348 0.5531509525 0)
(2.621590911 0.5357115946 0)
(2.622394082 0.5321881559 0)
(2.620773538 0.5329592138 0)
(2.626236983 0.5254627842 0)
(2.632930481 0.5147460156 0)
(2.637198748 0.5054920526 0)
(2.645086835 0.4969288516 0)
(2.651210075 0.4930327377 0)
(2.658001216 0.4824436698 0)
(2.667036005 0.4659083281 0)
(2.675392378 0.4519601325 0)
(2.923176703 0.01909502281 0)
(2.925842723 0.02152072144 0)
(2.927913671 0.02462946728 0)
(2.927303405 0.02294704757 0)
(2.927418644 0.02154645798 0)
(2.927695557 0.02089694822 0)
(2.92825142 0.02167124151 0)
(2.929048907 0.02235946364 0)
(2.929073778 0.02374991436 0)
(2.927878139 0.0263960928 0)
(2.906636634 0.07666863423 0)
(2.797827416 0.2967519581 0)
(2.554605902 0.6130773492 0)
(2.514836635 0.6272575318 0)
(2.55589399 0.5995286129 0)
(2.575523173 0.5838871599 0)
(2.591132021 0.5809317808 0)
(2.600856241 0.5872273088 0)
(2.602857998 0.5906945059 0)
(2.607516009 0.581570737 0)
(2.61552232 0.561374151 0)
(2.621332074 0.5438674805 0)
(2.626240051 0.5379874093 0)
(2.627125585 0.537028049 0)
(2.63160735 0.5278224227 0)
(2.636078641 0.516497379 0)
(2.638103221 0.50900257 0)
(2.643102913 0.5032801016 0)
(2.645663032 0.5022434971 0)
(2.651674004 0.4917978531 0)
(2.660689217 0.4743693485 0)
(2.669842672 0.4576978074 0)
(2.919436646 0.01957675595 0)
(2.92305693 0.02054230539 0)
(2.925572878 0.02228263249 0)
(2.926085994 0.02456291913 0)
(2.926192716 0.02444136196 0)
(2.926235665 0.02409639591 0)
(2.92629013 0.02376634038 0)
(2.926618549 0.02300222302 0)
(2.92721339 0.02348784196 0)
(2.926944639 0.02427603666 0)
(2.92236115 0.03462829238 0)
(2.87595371 0.1583429098 0)
(2.654257975 0.4939970897 0)
(2.55460903 0.5937962881 0)
(2.566336853 0.5848008114 0)
(2.577102221 0.5809981805 0)
(2.586781707 0.5830374717 0)
(2.593048252 0.5916081102 0)
(2.591920376 0.5959682922 0)
(2.596642222 0.5851688195 0)
(2.608481561 0.5656235676 0)
(2.617093063 0.5517528696 0)
(2.627090103 0.5453106033 0)
(2.633668788 0.5412908763 0)
(2.638869896 0.5310379126 0)
(2.641304167 0.5184867115 0)
(2.641736051 0.5104882052 0)
(2.643975025 0.5066611562 0)
(2.643370111 0.5070187764 0)
(2.648086298 0.4973661517 0)
(2.656729685 0.4813334586 0)
(2.665435909 0.4650063014 0)
(2.918031772 0.02040552965 0)
(2.920593142 0.01912623922 0)
(2.922965123 0.01983764431 0)
(2.924195949 0.02137158464 0)
(2.92500617 0.02238996876 0)
(2.923986865 0.02308923299 0)
(2.923820275 0.02299993947 0)
(2.923573403 0.02244037927 0)
(2.924411024 0.02298946983 0)
(2.924715203 0.02324179797 0)
(2.924266641 0.02515672824 0)
(2.908574864 0.0674252592 0)
(2.792689835 0.2940676166 0)
(2.597763863 0.592595234 0)
(2.56853399 0.5768008815 0)
(2.580140354 0.585025039 0)
(2.582991811 0.5882421328 0)
(2.58193348 0.5975248881 0)
(2.5769918 0.5979798943 0)
(2.585295882 0.5854537843 0)
(2.599627585 0.5669502914 0)
(2.610216778 0.5550753275 0)
(2.623077575 0.5507800648 0)
(2.632758582 0.547863056 0)
(2.640012892 0.5375727795 0)
(2.643504013 0.5231704857 0)
(2.643774614 0.5142300996 0)
(2.645331263 0.5098471097 0)
(2.643783363 0.5095342828 0)
(2.648654855 0.4988952558 0)
(2.656610812 0.4846441281 0)
(2.663791106 0.4714240619 0)
(2.917994288 0.02163788415 0)
(2.918716266 0.02111234956 0)
(2.921263463 0.01917222999 0)
(2.922041047 0.01925868677 0)
(2.922797356 0.02018361731 0)
(2.922204997 0.02156127912 0)
(2.921645445 0.02203826073 0)
(2.921142106 0.02202524636 0)
(2.921327262 0.02223913523 0)
(2.922081291 0.02261196848 0)
(2.92282291 0.0225371062 0)
(2.919690231 0.03169608447 0)
(2.875919192 0.1435506666 0)
(2.694258744 0.4589351099 0)
(2.61157793 0.5290865735 0)
(2.581928633 0.5809020662 0)
(2.575393531 0.5959954625 0)
(2.564822802 0.6059209122 0)
(2.561055594 0.6013180864 0)
(2.574298222 0.5865142333 0)
(2.589878301 0.5660344386 0)
(2.602034444 0.5535064002 0)
(2.61621348 0.5520031327 0)
(2.62736486 0.5501251536 0)
(2.636820011 0.5399311915 0)
(2.642455717 0.5254335068 0)
(2.644758437 0.5148745339 0)
(2.647366925 0.5103758527 0)
(2.646617159 0.5095472961 0)
(2.652088425 0.4988340655 0)
(2.659653319 0.48522922 0)
(2.665240624 0.4751246305 0)
(2.918908018 0.02087934253 0)
(2.918440415 0.0203614411 0)
(2.91868811 0.01942517215 0)
(2.919855232 0.01906851514 0)
(2.920115393 0.01938133627 0)
(2.920029511 0.02037174172 0)
(2.919667675 0.02149262863 0)
(2.919190671 0.02202716148 0)
(2.918833756 0.0223315951 0)
(2.919628746 0.02293510098 0)
(2.920427875 0.02216604393 0)
(2.920270487 0.02390102813 0)
(2.909670969 0.05553475073 0)
(2.80042681 0.2679349763 0)
(2.652873413 0.4983880666 0)
(2.591032323 0.5686381911 0)
(2.569922422 0.6053545951 0)
(2.551286438 0.6167387888 0)
(2.549188391 0.605974056 0)
(2.565222311 0.5866789323 0)
(2.581045758 0.5645709201 0)
(2.596093656 0.5514586416 0)
(2.609509561 0.5513652264 0)
(2.617013689 0.5524974192 0)
(2.625933307 0.5444921614 0)
(2.634241915 0.5309707128 0)
(2.640209008 0.519489706 0)
(2.646267445 0.5138982424 0)
(2.649645236 0.5104198238 0)
(2.657444151 0.4982833634 0)
(2.664729992 0.4844769244 0)
(2.669103373 0.4766420774 0)
(2.919774995 0.02188781435 0)
(2.918122423 0.02180705715 0)
(2.917147807 0.02178536879 0)
(2.917611293 0.02161492797 0)
(2.917761754 0.02169581766 0)
(2.917777685 0.02236926713 0)
(2.917732046 0.02284772539 0)
(2.917366196 0.02292377453 0)
(2.916768502 0.02269402758 0)
(2.917022256 0.02258133808 0)
(2.91783993 0.02180739528 0)
(2.918571707 0.02127417 0)
(2.916815284 0.02711196857 0)
(2.881397801 0.1067455914 0)
(2.736510535 0.3687310811 0)
(2.613548602 0.535233014 0)
(2.556988066 0.623190764 0)
(2.542382084 0.6298636769 0)
(2.540170181 0.6149004053 0)
(2.559026708 0.5918168963 0)
(2.574053026 0.566522266 0)
(2.591952077 0.5507510345 0)
(2.603017205 0.5538193834 0)
(2.606570973 0.5569140703 0)
(2.615211628 0.5502167337 0)
(2.625271702 0.5359337123 0)
(2.633571631 0.523822141 0)
(2.642639563 0.5166774889 0)
(2.650123573 0.5110483766 0)
(2.66063804 0.4985635891 0)
(2.668924544 0.4843897369 0)
(2.673156236 0.4779939956 0)
(2.919188529 0.0231251438 0)
(2.917749631 0.02130265085 0)
(2.916019143 0.02131033381 0)
(2.915364568 0.0215150819 0)
(2.915086831 0.02162694441 0)
(2.915109061 0.0224817256 0)
(2.91534395 0.02329741209 0)
(2.915280642 0.0233843467 0)
(2.914848443 0.02288976388 0)
(2.914450592 0.02298403339 0)
(2.91537982 0.02221294938 0)
(2.91620552 0.02122528895 0)
(2.915989487 0.02222966028 0)
(2.908161847 0.04213601336 0)
(2.82494182 0.2073857678 0)
(2.679632793 0.4373152013 0)
(2.576595221 0.6073281533 0)
(2.534190906 0.6259572674 0)
(2.534814735 0.6153936985 0)
(2.55743401 0.5905748188 0)
(2.5723719 0.566690811 0)
(2.58960882 0.5530273231 0)
(2.598390144 0.5572484928 0)
(2.600680443 0.5601281024 0)
(2.607798693 0.5537225627 0)
(2.616176941 0.5410983367 0)
(2.624321736 0.5302505512 0)
(2.634948665 0.5221287114 0)
(2.645393327 0.5147101916 0)
(2.658734187 0.5006998593 0)
(2.666474586 0.4892151351 0)
(2.670179858 0.4829070141 0)
(2.917138385 0.02312877212 0)
(2.916654405 0.02271660226 0)
(2.915319083 0.02159062446 0)
(2.913263875 0.02196839038 0)
(2.912589296 0.02222524879 0)
(2.912213209 0.02250437347 0)
(2.912558291 0.022960815 0)
(2.912791444 0.02269754518 0)
(2.912890136 0.0219214953 0)
(2.912558579 0.02180285548 0)
(2.913252076 0.02134962101 0)
(2.913778309 0.02093493581 0)
(2.914107558 0.02038782676 0)
(2.912853153 0.02369879133 0)
(2.885294182 0.08218642064 0)
(2.759121556 0.3220253878 0)
(2.595057088 0.5831527963 0)
(2.539140498 0.6309957933 0)
(2.532165705 0.6111823775 0)
(2.561139819 0.582351549 0)
(2.575524145 0.5653076059 0)
(2.59094613 0.5564116269 0)
(2.596392012 0.5640465579 0)
(2.593078977 0.5661542468 0)
(2.598430092 0.5571742707 0)
(2.608340687 0.5439435666 0)
(2.615053471 0.5363112107 0)
(2.626251679 0.5295338601 0)
(2.637432622 0.5217613134 0)
(2.64968431 0.5083225498 0)
(2.657712591 0.4976105487 0)
(2.665125948 0.4883520338 0)
(2.915011839 0.0232755317 0)
(2.915022816 0.02307794604 0)
(2.914233379 0.02220318484 0)
(2.912332395 0.02066335277 0)
(2.910668993 0.01978177917 0)
(2.910239672 0.01974967285 0)
(2.910035065 0.02021303064 0)
(2.910495594 0.02053631945 0)
(2.911105381 0.02062180997 0)
(2.911324484 0.02105927684 0)
(2.911729342 0.02161916112 0)
(2.911942368 0.02140643208 0)
(2.912086497 0.02082406836 0)
(2.911933699 0.02085717063 0)
(2.904591188 0.03645928518 0)
(2.848403547 0.1658034362 0)
(2.650448984 0.4779812921 0)
(2.54894025 0.6455518331 0)
(2.532059152 0.6083075245 0)
(2.565053956 0.574937813 0)
(2.578796627 0.5648153668 0)
(2.590293746 0.563643725 0)
(2.589067804 0.5725080213 0)
(2.582477841 0.5713571269 0)
(2.590006452 0.5606335645 0)
(2.601362488 0.5459166877 0)
(2.609593885 0.5383957699 0)
(2.620899066 0.5336398543 0)
(2.62985895 0.529250927 0)
(2.640854486 0.5178728994 0)
(2.648444834 0.5071777258 0)
(2.657864395 0.4946029366 0)
(2.913836351 0.02383087588 0)
(2.913914226 0.0240954129 0)
(2.913494377 0.02344603634 0)
(2.911865613 0.02149119558 0)
(2.910033598 0.01895046993 0)
(2.909307641 0.01833087104 0)
(2.90861781 0.01834141154 0)
(2.909112774 0.01909567742 0)
(2.910161346 0.01955297068 0)
(2.910847259 0.02025427937 0)
(2.911199188 0.02064178839 0)
(2.910818982 0.02038979496 0)
(2.910576711 0.01988398477 0)
(2.910692242 0.01893084071 0)
(2.909246465 0.02165658186 0)
(2.888127997 0.07414426413 0)
(2.748195904 0.3205743918 0)
(2.584940903 0.602830657 0)
(2.556734779 0.5906122053 0)
(2.576573592 0.5678988785 0)
(2.583866775 0.565294111 0)
(2.589278601 0.5727171972 0)
(2.583124244 0.5825433246 0)
(2.575194374 0.5771877103 0)
(2.584314826 0.5630437744 0)
(2.595228857 0.5462368211 0)
(2.604136284 0.5385475262 0)
(2.616166681 0.5345341735 0)
(2.625321924 0.5317976636 0)
(2.634606151 0.5227299378 0)
(2.638729599 0.5145585933 0)
(2.648192395 0.5016567954 0)
(2.913453663 0.02389783494 0)
(2.913886519 0.02395035499 0)
(2.913741924 0.02318461515 0)
(2.912290389 0.02120914392 0)
(2.910559937 0.01884750113 0)
(2.909459577 0.01802467456 0)
(2.908525243 0.01754761253 0)
(2.908880091 0.01842635183 0)
(2.910109748 0.01974331394 0)
(2.911048361 0.02046326381 0)
(2.911213849 0.02025201988 0)
(2.910535904 0.01988255287 0)
(2.909915037 0.01941033052 0)
(2.909709525 0.01803428806 0)
(2.909426048 0.01768368978 0)
(2.903399382 0.03062963315 0)
(2.85466028 0.1547752969 0)
(2.631321285 0.5286719638 0)
(2.580154125 0.5776175274 0)
(2.581281798 0.5664253904 0)
(2.585046573 0.5673689635 0)
(2.583851059 0.5805557964 0)
(2.570190271 0.5918501148 0)
(2.566286063 0.5815875614 0)
(2.578489784 0.5635383207 0)
(2.58926203 0.5464170421 0)
(2.600431027 0.5386410326 0)
(2.612108853 0.5347081562 0)
(2.618434667 0.5327614529 0)
(2.626059505 0.5237152382 0)
(2.62959368 0.5155206499 0)
(2.63904823 0.5057692279 0)
(2.91380826 0.02316030859 0)
(2.914915711 0.02320579803 0)
(2.91480915 0.02273111721 0)
(2.913627538 0.02134336112 0)
(2.912374852 0.02006995543 0)
(2.910703996 0.0191027797 0)
(2.909627041 0.01858500881 0)
(2.909665004 0.01885437383 0)
(2.910706972 0.0193977154 0)
(2.911674235 0.0195042853 0)
(2.911817803 0.01868117768 0)
(2.911061065 0.01780938645 0)
(2.91034809 0.01676309593 0)
(2.909573272 0.01578320299 0)
(2.909450443 0.01423545165 0)
(2.907615714 0.01727254091 0)
(2.890693404 0.06608794936 0)
(2.756940187 0.3211058032 0)
(2.633966746 0.5244738796 0)
(2.590899752 0.5541783272 0)
(2.58627553 0.5676584706 0)
(2.572344898 0.5914545547 0)
(2.554283844 0.5971427918 0)
(2.555675723 0.5845636149 0)
(2.570696984 0.5653160346 0)
(2.582841492 0.5480403091 0)
(2.59875798 0.5390048514 0)
(2.610685869 0.5358710541 0)
(2.614974577 0.5335307093 0)
(2.620310963 0.5249333782 0)
(2.623267951 0.5173378707 0)
(2.632063746 0.5080107038 0)
(2.914307364 0.0228320935 0)
(2.915713168 0.02198815651 0)
(2.91570007 0.02090911768 0)
(2.915256891 0.01991717673 0)
(2.914219699 0.01927493538 0)
(2.912656864 0.01881173256 0)
(2.911494528 0.01890785389 0)
(2.910984782 0.01921069533 0)
(2.9112217 0.01988750739 0)
(2.911674835 0.02009981617 0)
(2.911692455 0.01943007927 0)
(2.911062835 0.01806353713 0)
(2.909921038 0.01662846284 0)
(2.909142372 0.01496237246 0)
(2.90833349 0.0133309655 0)
(2.908055431 0.01263979666 0)
(2.903736315 0.02278300741 0)
(2.858765745 0.1336275969 0)
(2.691477469 0.4469019055 0)
(2.619660851 0.5096627547 0)
(2.581763241 0.5694877035 0)
(2.557288435 0.6002620813 0)
(2.542424163 0.6001688599 0)
(2.548300293 0.5894825047 0)
(2.564472784 0.5683866082 0)
(2.580229851 0.5509721175 0)
(2.599726909 0.5398941246 0)
(2.609846436 0.5371474615 0)
(2.610996193 0.5338557855 0)
(2.613450456 0.5264209954 0)
(2.616975816 0.5190568388 0)
(2.62677577 0.5088427879 0)
(2.913277983 0.02144285253 0)
(2.914648824 0.02050816617 0)
(2.91491816 0.01976427066 0)
(2.914599166 0.01943142218 0)
(2.913960221 0.01940998033 0)
(2.912931024 0.01949562635 0)
(2.911728695 0.01955358012 0)
(2.910631409 0.01960338774 0)
(2.909997531 0.01962827529 0)
(2.909846619 0.01935637716 0)
(2.909783719 0.01878472594 0)
(2.909672303 0.01800030174 0)
(2.908491052 0.01633233609 0)
(2.907864184 0.01524175727 0)
(2.90701182 0.01427169238 0)
(2.906306312 0.01274383667 0)
(2.905383349 0.01455312006 0)
(2.894132207 0.04577804356 0)
(2.799205814 0.2389139106 0)
(2.675568709 0.4313973123 0)
(2.573572927 0.5771704282 0)
(2.540948674 0.6135086517 0)
(2.531824887 0.6089328367 0)
(2.541621552 0.5941417563 0)
(2.562368398 0.5690598829 0)
(2.581275676 0.5536660861 0)
(2.600763819 0.5431890858 0)
(2.607094694 0.5415784825 0)
(2.606576661 0.5387155354 0)
(2.607606617 0.5326564447 0)
(2.609246778 0.5234306849 0)
(2.621709518 0.5098473975 0)
(2.908885909 0.02084308107 0)
(2.909764563 0.020202128 0)
(2.910098187 0.01941177999 0)
(2.910033369 0.01915447854 0)
(2.909509773 0.01876018929 0)
(2.908992418 0.01867862448 0)
(2.9078863 0.01862349996 0)
(2.906496144 0.01847582655 0)
(2.905452217 0.01856356299 0)
(2.905072759 0.01882507223 0)
(2.905069057 0.01883276251 0)
(2.905562061 0.01897519776 0)
(2.904861481 0.01792462524 0)
(2.904595674 0.01756191778 0)
(2.904083355 0.01678160864 0)
(2.903545275 0.01564553159 0)
(2.903055299 0.01463855739 0)
(2.900723493 0.01970187827 0)
(2.866491952 0.0914211514 0)
(2.746681232 0.3159365448 0)
(2.592667581 0.5316401903 0)
(2.529453485 0.6301763098 0)
(2.517081959 0.6214853146 0)
(2.538538076 0.5978304346 0)
(2.564414917 0.5696031213 0)
(2.584388181 0.5534260516 0)
(2.5999364 0.54608659 0)
(2.601444762 0.5479267061 0)
(2.601568133 0.546494807 0)
(2.598687881 0.5398361777 0)
(2.604732123 0.5279260002 0)
(2.617105497 0.5121036578 0)
(2.900174096 0.02005290456 0)
(2.900357698 0.02014568972 0)
(2.900628587 0.02001845122 0)
(2.900794924 0.01972849266 0)
(2.900710013 0.01911326168 0)
(2.900464062 0.01877235235 0)
(2.899682408 0.01843949389 0)
(2.89854779 0.01790452169 0)
(2.897601326 0.01784710788 0)
(2.897293532 0.01811066778 0)
(2.897465881 0.01834350466 0)
(2.898072035 0.0185238047 0)
(2.898490894 0.01785875261 0)
(2.89865824 0.01707029897 0)
(2.898725632 0.01657543295 0)
(2.898773179 0.0158112574 0)
(2.898850137 0.01546875182 0)
(2.898289812 0.01669137939 0)
(2.889246248 0.03980801218 0)
(2.826767604 0.1808663983 0)
(2.637549377 0.4222629994 0)
(2.519154111 0.6089818461 0)
(2.513982988 0.6236918742 0)
(2.540817429 0.5975837214 0)
(2.572310716 0.564727017 0)
(2.587238358 0.5478826443 0)
(2.597462004 0.5456419543 0)
(2.597080089 0.5542136558 0)
(2.595572313 0.5557298883 0)
(2.590872376 0.5442680736 0)
(2.600556 0.5290531557 0)
(2.612753435 0.5132873123 0)
(2.893285832 0.0190101927 0)
(2.89297636 0.01903376911 0)
(2.893028868 0.01909191653 0)
(2.893386128 0.01898075906 0)
(2.893747563 0.01875766363 0)
(2.893867652 0.01873510611 0)
(2.893517941 0.0186282156 0)
(2.892798762 0.0188267431 0)
(2.892184381 0.01982565433 0)
(2.89215792 0.02155461814 0)
(2.892531695 0.02319280805 0)
(2.893152665 0.02399275648 0)
(2.893990325 0.0235859438 0)
(2.894569203 0.02252837129 0)
(2.894946822 0.02079438157 0)
(2.89536068 0.01835264388 0)
(2.895709497 0.01641330073 0)
(2.896003849 0.01556042394 0)
(2.896594721 0.01720731344 0)
(2.870733267 0.09950533649 0)
(2.663312442 0.3528040137 0)
(2.507112649 0.606901701 0)
(2.514396644 0.6292876357 0)
(2.544309695 0.5954945795 0)
(2.57804973 0.5599909043 0)
(2.589132139 0.5456472012 0)
(2.595711425 0.549620377 0)
(2.597037295 0.5601509171 0)
(2.591218014 0.56045593 0)
(2.586594324 0.5438081964 0)