/*--------------------------------*- C++ -*----------------------------------*\
  =========                 |
  \\      /  F ield         | OpenFOAM: The Open Source CFD Toolbox
   \\    /   O peration     | Website:  https://openfoam.org
    \\  /    A nd           | Version:  7
     \\/     M anipulation  |
\*---------------------------------------------------------------------------*/
FoamFile
{
    version     2.0;
    format      ascii;
    class       volScalarField;
    location    "3.8";
    object      p;
}
// * * * * * * * * * * * * * * * * * * * * * * * * * * * * * * * * * * * * * //

dimensions      [1 -1 -2 0 0 0 0];

internalField   nonuniform List<scalar> 
800
(
1
1
1
1
1
1
1
1
1
1
1
1
1
1
1
1
1
1
1
1
1
1
1
1
1
1
1
1
1
1
1
1
1
1
1
1
1
1
1
1
1
1
1
1
1
1
1
1
1
1
1
1
1
1
1
1
1
1
1
1
1
1
1
1
1
1
1
1
1
1
1
1
1
1
1
1
1
1
1
1
1
1
1
1
1
1
1
1
1
1
1
1
1
1
1
1
1
1
1
1
1
1
1
1
1
1
1
1
1
1
1
1
1
1
1
1
1
1
0.9999999999
0.9999999997
1
1
1
1
1
0.9999999999
0.9999999997
0.9999999995
0.9999999992
0.999999999
1
1
0.9999999999
0.9999999997
0.9999999994
0.9999999988
0.9999999988
0.9999999977
0.9999999982
0.9999999986
0.9999999998
0.999999999
0.9999999987
0.999999998
0.999999998
0.9999999976
1.000000001
0.9999999941
1.000000623
1.00000016
0.9999999958
0.9999999958
0.9999999966
0.9999999952
1.000000016
1.000000389
1.000002599
1.000012353
1.000101931
1.000085505
0.99999999
1.000000086
1.000001429
1.000011599
1.00005586
1.000214777
1.000649166
1.001710235
1.004328953
1.006575727
1.000020342
1.000155332
1.000663003
1.002091325
1.005168799
1.011049995
1.020680604
1.035686243
1.05658349
1.081451193
1.003224387
1.011799665
1.025840206
1.047881008
1.07398034
1.106973389
1.141420949
1.181235298
1.216470902
1.275360452
1.056061108
1.121144329
1.193503375
1.261733797
1.328156151
1.386801675
1.442073521
1.489204878
1.527480788
1.57436812
1
1.000000634
1.000036301
1.000954712
1.008589297
1.04303404
1.106550447
1.177646461
1.228817842
1.211841414
1.000000001
1.00001962
1.00055664
1.00756375
1.034701319
1.084547008
1.122916082
1.157905706
1.176110544
1.139907493
1.000000302
1.000358552
1.005329487
1.034238072
1.092567983
1.11768642
1.126654076
1.115682053
1.095079986
1.054508028
1.000023924
1.004036616
1.031054983
1.089832235
1.141010506
1.137311895
1.115562556
1.061054769
0.9852814305
0.9818880288
1.000879107
1.026499911
1.101356981
1.144177964
1.143881882
1.118458125
1.049442061
0.97431914
0.9155612401
0.9307694701
1.014065039
1.096274769
1.173806765
1.168626531
1.119595451
1.032117876
0.9469017734
0.9215817727
0.9113602853
0.9323525567
1.093518927
1.185315989
1.180631242
1.129797006
1.008356111
0.9115234693
0.884815461
0.8950879474
0.9247565529
0.9707276591
1.241016537
1.230306858
1.127930621
0.9713178325
0.8962410203
0.8820945038
0.8915496875
0.9270159658
0.9651312988
0.9892295333
1.277113846
1.133725356
0.9154976027
0.8208678581
0.8363054201
0.8793023417
0.9518922419
0.9866759356
0.9907118793
0.996991731
1.192576408
0.8368186119
0.7767993988
0.8219924379
0.9081956713
0.9725518214
0.9881916703
0.9975222761
0.9967084113
0.9965530213
0.6825463828
0.6815502504
0.7891883375
0.9493251474
1.009577345
1.015150932
0.9843494701
0.988125813
0.9890428405
0.9929516852
0.656256278
0.6978538008
0.850170461
0.9858102158
1.012372982
1.014815061
0.9851394428
0.9904479807
0.9924300921
0.9955970438
0.6699122506
0.7223328816
0.8922588729
1.001847702
1.015391034
1.017519952
0.9874382907
0.9933350829
0.9963367776
0.9988367405
0.677873253
0.7474994469
0.9315302369
1.012317678
1.020319127
1.021833035
0.989167591
0.9926404468
0.9973158956
0.999047386
0.6857885436
0.7810692632
0.9690651586
1.01985236
1.018234058
1.01805754
0.9838844286
0.9880406002
0.9926492252
0.9942559048
0.6944923823
0.8264320116
1.002498845
1.018730094
1.015232258
1.015823484
0.9812238216
0.9862852858
0.9922975052
0.9957949116
0.7048694643
0.8775028003
1.027015219
1.019925073
1.014472105
1.01540612
0.9790181817
0.9832229081
0.989537489
0.9953695537
0.7167410873
0.9231487143
1.038936542
1.017688382
1.010425611
1.011872743
0.9753305821
0.9848664551
0.9905962453
0.9967104657
0.7300049009
0.9550127974
1.044285755
1.020162032
1.015332401
1.015867115
0.97651461
0.9904534066
0.9961605419
0.998952522
0.7291539956
1.01742509
1.048410274
1.019815411
1.020316719
1.019590328
0.9761667805
0.9913659091
0.9973872173
0.9978307099
0.7298401185
1.038359176
1.046272458
1.019665331
1.018451344
1.019143032
0.9762558606
0.9887439527
0.9976315616
0.9953993963
0.7304273131
0.9724079349
1.045857019
1.020557287
1.016842383
1.017198334
0.9761463661
0.9855044595
0.9935669051
0.9933278318
0.7170993319
0.9240426086
1.034204733
1.017329888
1.010915221
1.011655159
0.9749407421
0.9845023314
0.9896857383
0.9959872498
0.7049154212
0.8685857934
1.025397861
1.020296859
1.013544147
1.014938612
0.9789490826
0.9850110863
0.9911784754
0.9974360945
0.6944098647
0.8211567022
1.002442399
1.019332464
1.014583157
1.015345477
0.9811401184
0.9871828187
0.9928648349
0.9975516677
0.6855511858
0.7847018381
0.9721443291
1.018753759
1.017740197
1.017989473
0.9837049358
0.9895681099
0.9949999628
0.9976951562
0.6779187925
0.7506974981
0.9339767895
1.010846875
1.020958291
1.022182568
0.9891742579
0.9922631326
0.9976313746
0.9976374505
0.670037591
0.7211198382
0.889207056
1.000845721
1.015835684
1.017970946
0.9877215185
0.9928584179
0.994679242
0.9946396702
0.6562328257
0.6963832719
0.8468560401
0.9858460847
1.012659492
1.015208546
0.9853357951
0.989993469
0.9901807518
0.9931572199
0.6824589571
0.6814730232
0.790156912
0.9510412678
1.009981818
1.015384018
0.9844603308
0.9879391325
0.9890893128
0.9951739335
1.192581222
0.8368316368
0.7768851411
0.8220809782
0.9082325839
0.9725836842
0.9881861695
0.9975131746
0.9968962419
0.996591837
1.27711361
1.133704321
0.9154970239
0.8208763073
0.8363085588
0.8793360085
0.951962378
0.9865563853
0.9906036488
0.9969090095
1.241016403
1.230306704
1.127929139
0.9713226313
0.8962422895
0.8821144148
0.891578903
0.9269921988
0.9651070362
0.989201475
1.093518979
1.185315628
1.180630569
1.12979564
1.008357321
0.9115244423
0.8848385984
0.8951106447
0.9247707046
0.9707052911
1.014065066
1.096274509
1.173806008
1.16862612
1.11959409
1.032120438
0.9469071099
0.9215910466
0.9113766434
0.9323556497
1.000879111
1.02649985
1.101356559
1.144177671
1.1438816
1.118456702
1.049444183
0.9743244448
0.9155757995
0.930775893
1.000023924
1.004036612
1.031054904
1.089832098
1.141010194
1.137311497
1.115561454
1.06105534
0.9852881965
0.9818920451
1.000000302
1.000358552
1.005329486
1.034237946
1.09256768
1.117686015
1.12665346
1.115679857
1.095079758
1.054510695
1.000000001
1.00001962
1.00055664
1.0075637
1.034701198
1.084546707
1.122915568
1.157904891
1.176109509
1.139908408
1
1.000000634
1.000036301
1.000954706
1.008589249
1.043033894
1.106550068
1.177645473
1.228816549
1.211841193
1.056061108
1.121144329
1.193503376
1.261733797
1.328156152
1.386801674
1.442073521
1.489204878
1.527480786
1.574368131
1.003224387
1.011799666
1.025840206
1.047881008
1.07398034
1.106973389
1.141420949
1.181235297
1.216470897
1.275360526
1.000020342
1.000155332
1.000663003
1.002091325
1.005168799
1.011049996
1.020680602
1.035686244
1.056583487
1.0814512
0.99999999
1.000000086
1.000001429
1.000011599
1.00005586
1.000214777
1.000649166
1.001710235
1.004328952
1.006575728
0.9999999958
0.9999999958
0.9999999966
0.9999999952
1.000000016
1.000000389
1.000002599
1.000012353
1.000101931
1.000085505
0.9999999998
0.999999999
0.9999999987
0.999999998
0.999999998
0.9999999976
1.000000001
0.9999999941
1.000000623
1.00000016
1
1
0.9999999999
0.9999999997
0.9999999994
0.9999999988
0.9999999988
0.9999999977
0.9999999982
0.9999999986
1
1
1
1
1
0.9999999999
0.9999999997
0.9999999995
0.9999999992
0.999999999
1
1
1
1
1
1
1
1
0.9999999999
0.9999999997
1
1
1
1
1
1
1
1
1
1
1
1
1
1
1
1
1
1
1
1
1
1
1
1
1
1
1
1
1
1
1
1
1
1
1
1
1
1
1
1
1
1
1
1
1
1
1
1
1
1
1
1
1
1
1
1
1
1
1
1
1
1
1
1
1
1
1
1
1
1
1
1
1
1
1
1
1
1
1
1
1
1
1
1
1
1
1
1
1
1
1
1
1
1
1
1
1
1
1
1
1
1
1
1
1
1
1
1
1
1
)
;

boundaryField
{
    inlet
    {
        type            fixedValue;
        value           uniform 1;
    }
    outlet
    {
        type            zeroGradient;
    }
    bottom
    {
        type            slip;
    }
    top
    {
        type            slip;
    }
    obstacle
    {
        type            zeroGradient;
    }
    defaultFaces
    {
        type            empty;
    }
}


// ************************************************************************* //
