/*--------------------------------*- C++ -*----------------------------------*\
  =========                 |
  \\      /  F ield         | OpenFOAM: The Open Source CFD Toolbox
   \\    /   O peration     | Website:  https://openfoam.org
    \\  /    A nd           | Version:  7
     \\/     M anipulation  |
\*---------------------------------------------------------------------------*/
FoamFile
{
    version     2.0;
    format      ascii;
    class       volScalarField;
    location    "3.6";
    object      T;
}
// * * * * * * * * * * * * * * * * * * * * * * * * * * * * * * * * * * * * * //

dimensions      [0 0 0 1 0 0 0];

internalField   nonuniform List<scalar> 5(1.038343995 1.031938314 1.038150624 1.03127511 1.035435034);

boundaryField
{
    inlet
    {
        type            fixedValue;
        value           nonuniform 0();
    }
    outlet
    {
        type            inletOutlet;
        inletValue      uniform 1;
        value           nonuniform List<scalar> 2(1.031906588 1.031278247);
    }
    bottom
    {
        type            slip;
    }
    top
    {
        type            slip;
    }
    obstacle
    {
        type            zeroGradient;
    }
    defaultFaces
    {
        type            empty;
    }
    procBoundary29to22
    {
        type            processor;
        value           nonuniform List<scalar> 3(1.049107243 1.046772497 1.041518183);
    }
    procBoundary29to23
    {
        type            processor;
        value           nonuniform List<scalar> 2(1.038450059 1.03190722);
    }
    procBoundary29to35
    {
        type            processor;
        value           nonuniform List<scalar> 3(1.028873404 1.028873404 1.032226626);
    }
}


// ************************************************************************* //
