/*--------------------------------*- C++ -*----------------------------------*\
  =========                 |
  \\      /  F ield         | OpenFOAM: The Open Source CFD Toolbox
   \\    /   O peration     | Website:  https://openfoam.org
    \\  /    A nd           | Version:  7
     \\/     M anipulation  |
\*---------------------------------------------------------------------------*/
FoamFile
{
    version     2.0;
    format      ascii;
    class       volScalarField;
    location    "1.4";
    object      rho;
}
// * * * * * * * * * * * * * * * * * * * * * * * * * * * * * * * * * * * * * //

dimensions      [1 -3 0 0 0 0 0];

internalField   nonuniform List<scalar> 
2222
(
1.984455209
1.974654343
1.965134846
1.953888045
1.939467169
1.927895075
1.916725682
1.902872959
1.89193558
1.881517694
1.871084427
1.860972636
1.849883656
1.835745569
1.820347387
1.805974378
1.781070998
2.253524084
2.243996715
2.229539994
2.214304269
2.194219513
2.174167636
2.155582537
2.139877494
2.130757796
2.119762146
2.11030869
2.110117792
2.109709773
2.103147703
2.096695758
2.084535002
2.066378251
2.049527787
2.039501356
2.028513357
2.01348206
2.003376303
1.991835067
1.978066214
1.965152957
1.953554039
1.938753153
1.92706365
1.916168481
1.903012614
1.892357174
1.882502137
1.871377498
1.861002693
1.849717815
1.835648805
1.82042492
1.806201617
1.781243201
2.245855105
2.23218026
2.216133296
2.195681324
2.175704677
2.15774913
2.140612308
2.132067377
2.122300126
2.114999105
2.113029101
2.111692593
2.10420183
2.096361864
2.085037335
2.067666523
2.050171408
2.039842826
2.030586581
2.016938223
2.006754868
1.994420404
1.979329949
1.965811261
1.9534595
1.938748584
1.927132377
1.91647373
1.903752091
1.893373133
1.883112145
1.871569163
1.860635399
1.849397823
1.835747895
1.820693409
1.806401501
1.78131287
2.246890011
2.233830017
2.21653881
2.195774313
2.176140924
2.158729383
2.141719011
2.133724173
2.124722671
2.118483275
2.115256886
2.113347355
2.105314626
2.096487303
2.084799323
2.067002025
2.049466475
2.039549989
2.031810566
2.018696798
2.007303564
1.994734434
1.979581064
1.966089176
1.953835772
1.939264929
1.927665129
1.917266501
1.90512808
1.894258053
1.883289987
1.87107986
1.86000926
1.849295444
1.835945693
1.821069393
1.806663493
1.781416363
2.248531493
2.235677707
2.217813397
2.196753982
2.177797987
2.161082999
2.143401373
2.135649807
2.127777596
2.120951579
2.117171619
2.114850402
2.106658364
2.097022462
2.085105733
2.066994443
2.047975273
2.038978312
2.032890525
2.020378893
2.007824246
1.994920182
1.980039647
1.966629012
1.954444295
1.940272658
1.92877377
1.918752815
1.906428074
1.894569339
1.883033151
1.870514514
1.859969872
1.849539446
1.836320546
1.821549888
1.807108293
1.781988037
2.251036467
2.23823462
2.219794461
2.198204178
2.179609962
2.162501125
2.145240222
2.13771439
2.13111516
2.123413848
2.118983787
2.116392846
2.108094187
2.097724028
2.084921665
2.066340054
2.046473884
2.038991971
2.033809825
2.021289799
2.008090667
1.995342511
1.980969441
1.967529323
1.955249978
1.941662605
1.930464187
1.9202884
1.907038593
1.894554693
1.882344564
1.870554718
1.86032427
1.850072896
1.836915619
1.822324576
1.808386312
1.783218966
2.254301366
2.24196126
2.222397597
2.200368245
2.180903558
2.163348494
2.147236338
2.139934624
2.13434769
2.126285305
2.120960762
2.118076063
2.109831704
2.098104021
2.083973385
2.065208582
2.045931739
2.03950121
2.03488227
2.022224428
2.008320125
1.995960804
1.982034217
1.968620704
1.956419171
1.943480303
1.932427608
1.921233853
1.907450399
1.893925867
1.882116846
1.871017703
1.861047619
1.850904912
1.837761429
1.823390371
1.8097786
1.784328697
2.255539334
2.244120256
2.22502984
2.202674915
2.181789974
2.16457143
2.149766042
2.142476791
2.137113509
2.129059896
2.123082919
2.119946483
2.111532509
2.098331269
2.082611499
2.06447158
2.046028018
2.040502191
2.036302854
2.022936486
2.00874346
1.996810679
1.983234507
1.969897436
1.957838044
1.945808428
1.934131695
1.92173542
1.907208718
1.893401263
1.882444808
1.871819343
1.862193064
1.85192508
1.83853193
1.823932831
1.809909871
1.784164753
2.256238431
2.24549409
2.227334676
2.204971767
2.183102088
2.166348218
2.152765452
2.145386256
2.139685614
2.131601374
2.12541787
2.12192384
2.113165867
2.098850366
2.081948654
2.06439854
2.046750793
2.042317818
2.037479989
2.023512811
2.009327859
1.997994025
1.985077051
1.971823818
1.960021262
1.948384157
1.934903706
1.921835455
1.906418044
1.893516039
1.882954442
1.872957198
1.863229308
1.852435244
1.838873092
1.824183453
1.809796728
1.783874816
2.257283123
2.246895962
2.229384895
2.207237878
2.184956415
2.16825218
2.155960171
2.14855911
2.142230118
2.134081132
2.127884078
2.123960069
2.114908575
2.099593075
2.081629865
2.064905568
2.048452396
2.043465485
2.037914753
2.024188483
2.010144611
1.999847892
1.987762342
1.974588127
1.963047642
1.949772958
1.934904495
1.920867292
1.906201879
1.893871622
1.883670896
1.873765327
1.863502338
1.852476469
1.838662609
1.823710995
1.809666629
1.783624586
2.258470182
2.24818236
2.231189212
2.209297661
2.186864449
2.170197105
2.159199854
2.151599438
2.144718927
2.136812743
2.130665715
2.126270243
2.117024102
2.099840916
2.0810309
2.065890892
2.05120603
2.04395936
2.038236435
2.025056676
2.01168263
2.002553109
1.990230812
1.977337999
1.964697953
1.949788205
1.934252194
1.919653966
1.906291471
1.894430429
1.884958966
1.874192387
1.863329417
1.852342798
1.83848408
1.823404003
1.809211465
1.783346496
2.259273217
2.249151931
2.232617866
2.211082879
2.188493563
2.17224771
2.162706423
2.153898528
2.147105962
2.140176722
2.134385933
2.129371988
2.118297657
2.099044996
2.080040416
2.067280892
2.053905131
2.044296934
2.038627843
2.026400921
2.013912444
2.003290437
1.991368369
1.978856377
1.964882589
1.949504943
1.932999559
1.9192485
1.906605571
1.895609626
1.88478171
1.873672218
1.862952728
1.852059053
1.838318276
1.823202957
1.808891589
1.783145328
2.259117614
2.249790493
2.233485078
2.212643299
2.189509489
2.174715707
2.163531378
2.154839752
2.149217371
2.144512489
2.139560712
2.132697006
2.118674177
2.096637254
2.079302235
2.069212693
2.055340531
2.044498284
2.039155723
2.028124481
2.014710361
2.003412589
1.992091751
1.979410942
1.964858774
1.948623697
1.932274301
1.919194007
1.907393946
1.896148286
1.884392089
1.872958507
1.862581958
1.85163646
1.838138926
1.823131463
1.808779857
1.783222187
2.258216962
2.249813894
2.233366345
2.21164757
2.190121185
2.175852409
2.162977545
2.154494891
2.151226392
2.149089184
2.143794899
2.134131382
2.117674812
2.093827924
2.079274838
2.070453572
2.055948598
2.044769157
2.039859488
2.029565929
2.014870646
2.00349179
1.992897195
1.979857141
1.964522299
1.947879577
1.932299152
1.919496993
1.908226492
1.896235386
1.883865603
1.872208712
1.861743691
1.851126855
1.837947678
1.8232161
1.808941667
1.783657077
2.249237962
2.231777477
2.209366277
2.188507946
2.174357668
2.161164784
2.153929403
2.152033411
2.151566756
2.145317943
2.134691023
2.115126076
2.092728964
2.079734283
2.070825787
2.055970631
2.045251451
2.041043202
2.030783063
2.014978599
2.003701617
1.993436634
1.980149764
1.96422463
1.947789869
1.932577503
1.920152726
1.908716955
1.896166346
1.883282459
1.871388211
1.861083185
1.850741334
1.838057225
1.82382199
1.809701095
1.784741127
2.248861556
2.229827382
2.205892203
2.185859763
2.172632145
2.159866728
2.154225019
2.152734982
2.151879629
2.146073736
2.134178409
2.113391644
2.09291173
2.080526765
2.070977173
2.054802665
2.045980971
2.042039854
2.031118204
2.015150122
2.003900753
1.993650941
1.98023694
1.964200523
1.948036756
1.933177112
1.921088227
1.909035771
1.896008816
1.882802885
1.87066171
1.860484942
1.85096798
1.838927769
1.825326611
1.811425044
1.787297353
2.247939671
2.226810684
2.202443203
2.184071795
2.172008998
2.159465698
2.154539918
2.152588923
2.151365134
2.145786584
2.132555812
2.113063513
2.09389445
2.081500282
2.070420803
2.053584831
2.046939829
2.042288539
2.031176191
2.015346513
2.003846051
1.993552396
1.980218977
1.964501398
1.948606702
1.934547833
1.922266026
1.909106306
1.89581376
1.882478286
1.869994107
1.859872069
1.85062603
1.838745743
1.82549007
1.812684689
1.788356443
2.245133424
2.223171039
2.200704721
2.183926889
2.172719299
2.159416221
2.154787532
2.15202865
2.150057371
2.144071764
2.13121159
2.113510042
2.096511496
2.082212986
2.06930722
2.053677598
2.047871496
2.042398789
2.031181667
2.015254721
2.00330816
1.993242196
1.98045216
1.965117065
1.949975139
1.936956182
1.923223527
1.909023679
1.895588507
1.882243544
1.869558817
1.859183991
1.849765432
1.83792688
1.825200254
1.812900615
1.788697897
2.240512061
2.220482574
2.200542403
2.185728321
2.173218718
2.159605885
2.155334738
2.151517659
2.148232676
2.142011119
2.130888931
2.11530788
2.099135974
2.082057035
2.068622033
2.054374728
2.048681905
2.042500014
2.03096244
2.014671245
2.002477407
1.993072125
1.981085453
1.96618471
1.952703754
1.938941013
1.923661728
1.908991077
1.895441582
1.882120196
1.869377441
1.858634569
1.848639392
1.836693915
1.824602137
1.812909815
1.788985221
2.237001516
2.21928703
2.202313531
2.187144174
2.17303773
2.160255948
2.15632257
2.151483617
2.147173278
2.141311283
2.131552894
2.118149587
2.099589428
2.080701942
2.068620177
2.055478889
2.049606317
2.042468612
2.030243696
2.013960355
2.002062726
1.99338764
1.982062134
1.968531036
1.954829932
1.939573786
1.923968472
1.909148916
1.89545691
1.882152638
1.869252891
1.857937552
1.847427305
1.83547312
1.823775871
1.812792886
1.789271094
2.235486741
2.219805202
2.203851756
2.186570025
2.172848362
2.161564485
2.157929166
2.152238487
2.147108554
2.141592782
2.133110753
2.118942116
2.098359474
2.079057124
2.069162724
2.057617472
2.051133025
2.042136383
2.029366804
2.013780191
2.002308046
1.994237668
1.983951043
1.970632121
1.955434117
1.939958054
1.924400002
1.909563155
1.895711551
1.882317517
1.869333531
1.857569792
1.846671789
1.83459894
1.822878815
1.812723141
1.789467889
2.235080442
2.219880983
2.203003791
2.18515709
2.173155927
2.163657226
2.160490932
2.153335853
2.147073835
2.14210124
2.133891503
2.118310432
2.094378109
2.078343672
2.070088813
2.061488269
2.052993378
2.041555186
2.028997838
2.014210999
2.003241904
1.995593739
1.985582369
1.971282435
1.955859261
1.940475854
1.925067415
1.910236306
1.896219316
1.882608534
1.869497627
1.857538348
1.846560352
1.834295828
1.822267042
1.812358572
1.789359583
2.233220474
2.217843719
2.200734626
2.184286823
2.17416768
2.167204393
2.163980983
2.153789208
2.146503962
2.141689171
2.133183724
2.11436433
2.090647614
2.078610421
2.072218987
2.065543509
2.05369168
2.041170216
2.02924496
2.015346283
2.004124355
1.996147122
1.986084612
1.971779683
1.95638838
1.941217071
1.926010015
1.911186495
1.896987232
1.883071021
1.869714942
1.857625982
1.846671747
1.834663348
1.822466103
1.81156124
1.789046986
2.230100687
2.214528935
2.198394956
2.184184494
2.176620966
2.172719451
2.165626278
2.153633151
2.14583682
2.140466452
2.130383637
2.109837578
2.089406098
2.079378528
2.075530999
2.068025355
2.053850535
2.04111839
2.030083672
2.016332449
2.004357267
1.996067033
1.986185638
1.972339957
1.957101306
1.942177308
1.927127528
1.912308755
1.897998897
1.883733898
1.8700208
1.85785435
1.847046949
1.835601706
1.82230268
1.810312449
1.788877713
2.2275754
2.211268482
2.197300209
2.184716655
2.181636787
2.176428004
2.165910811
2.153732916
2.146284606
2.140426694
2.128271181
2.108345193
2.089584162
2.081586013
2.079223902
2.069077171
2.053391545
2.041266068
2.030814643
2.016712016
2.00393485
1.995557215
1.986333936
1.973054981
1.95797361
1.94323372
1.92831456
1.913531468
1.899239733
1.884612867
1.870404435
1.858271014
1.847975211
1.837176992
1.821975782
1.809261254
1.787721159
2.225708044
2.209062446
2.196842638
2.187818785
2.186234261
2.177214587
2.165408993
2.15467617
2.147633266
2.141387504
2.127796807
2.108533544
2.090591199
2.085953105
2.082887432
2.069531257
2.052901154
2.041370263
2.030915728
2.016336209
2.003147673
1.995306282
1.986841166
1.973842055
1.958941486
1.944423664
1.929729092
1.915015737
1.900729502
1.885688817
1.870916663
1.858937389
1.84986335
1.837761039
1.821986192
1.809012137
1.786903633
2.207941516
2.197264328
2.193176539
2.187539669
2.176778249
2.165533169
2.156190336
2.149656172
2.142756452
2.127693375
2.10958192
2.093557834
2.091373487
2.084781381
2.069179691
2.052981989
2.041071395
2.030065805
2.015245006
2.002860313
1.995532833
1.987490092
1.974714067
1.960129757
1.946259904
1.931935576
1.917132878
1.902491446
1.886799618
1.871556902
1.860442156
1.852468556
1.83737003
1.821219841
1.808692738
1.785656532
2.20791002
2.20000021
2.195052221
2.18781221
2.176134507
2.166364561
2.158255856
2.152601121
2.143741893
2.127826956
2.111136343
2.100978137
2.094973925
2.085131251
2.068758647
2.053470614
2.04062663
2.028593662
2.014590147
2.00324931
1.996104943
1.98820898
1.975745797
1.962177264
1.949748627
1.935623724
1.919886886
1.904208681
1.887670628
1.872574501
1.863435653
1.853563739
1.835898387
1.81972992
1.807696604
1.7840059
2.20786104
2.200802932
2.195370903
2.18727301
2.176409939
2.167663639
2.161686173
2.156094097
2.143893715
2.128670759
2.115714252
2.107504011
2.095562848
2.083908388
2.068852564
2.054308301
2.040738273
2.028002642
2.014963428
2.004129974
1.997018193
1.989041487
1.977465407
1.96578461
1.953349205
1.938345733
1.922182315
1.905350049
1.888342362
1.874867135
1.867531694
1.853360813
1.833460014
1.817981808
1.806162056
1.782084102
2.206766029
2.200221171
2.194652677
2.18652259
2.177055249
2.170343979
2.167328169
2.157597443
2.143383774
2.130092948
2.121975629
2.108852858
2.094591152
2.082042095
2.069396734
2.055487478
2.04125886
2.028235226
2.015869845
2.005411176
1.998011694
1.990432871
1.980434421
1.968497532
1.954210523
1.938624706
1.922452942
1.905689818
1.889357704
1.879753636
1.870829235
1.851877923
1.831407083
1.816610859
1.804366685
1.779697138
2.204844821
2.19777687
2.192520538
2.186893676
2.178686336
2.176388666
2.171106476
2.157555302
2.143496814
2.133843825
2.123556885
2.108781041
2.091891253
2.081618006
2.070522438
2.056945497
2.042111748
2.028936639
2.017138445
2.006184844
1.99827393
1.991630604
1.982031572
1.969107363
1.954413571
1.938622416
1.922382765
1.905940054
1.892905665
1.886935962
1.871185188
1.849232154
1.830701643
1.815913531
1.802513288
1.777853356
2.203968542
2.194681959
2.192457732
2.188306857
2.184329419
2.181230283
2.17218275
2.155637975
2.14471058
2.135529195
2.123954658
2.10676823
2.090099842
2.082122314
2.072072626
2.058375148
2.043196828
2.030023557
2.01865548
2.006533154
1.998132643
1.991680338
1.982181064
1.969294487
1.95448084
1.938302832
1.922410159
1.907281755
1.901348542
1.892030235
1.869736819
1.847861263
1.830650239
1.815584583
1.800990998
1.777066687
2.203838916
2.193976835
2.193517485
2.191908149
2.189257482
2.182397445
2.170773267
2.155195072
2.146674114
2.136966103
2.123586005
2.104143093
2.09025079
2.082980527
2.073431588
2.059690185
2.044561909
2.031775244
2.02006267
2.006394358
1.997844157
1.99164026
1.982286504
1.969364099
1.954061958
1.937899191
1.922573803
1.914017956
1.910975547
1.892244413
1.866818213
1.847579806
1.831053563
1.815338633
1.800340602
1.776908952
2.203516884
2.194078554
2.196441644
2.195634909
2.190378688
2.181486332
2.167808017
2.15653531
2.149235259
2.138691263
2.123218171
2.103192802
2.091092177
2.084297208
2.074926012
2.061290126
2.047030731
2.035144253
2.020860061
2.00624287
1.997784174
1.991652808
1.982452036
1.969082179
1.952729507
1.937772869
1.926066882
1.925599436
1.914723925
1.890151345
1.865321232
1.847672226
1.831910785
1.815385203
1.800192482
1.777045191
2.20316151
2.196643051
2.200612978
2.197344965
2.190228902
2.177085593
2.167810734
2.158660529
2.152118842
2.14090092
2.123536939
2.103208807
2.092194275
2.086140281
2.077043013
2.064323209
2.052684881
2.038111444
2.021088339
2.006708461
1.998057227
1.991826188
1.9824843
1.967732115
1.95143222
1.938464184
1.936055688
1.933478372
1.914353324
1.88672229
1.864797684
1.84822497
1.832888616
1.815526413
1.800299941
1.777547273
2.204861508
2.203180227
2.203611508
2.197784921
2.186398318
2.174820872
2.169141925
2.161776835
2.156061608
2.14380382
2.124067209
2.103371201
2.093626151
2.088787761
2.080669915
2.070959138
2.05906857
2.038674736
2.020965213
2.007514183
1.998583803
1.992007279
1.981926398
1.965431869
1.95116296
1.944051328
1.946268484
1.935334397
1.91180821
1.8847526
1.864745606
1.849602812
1.834175495
1.815624303
1.800652191
1.778777655
2.211201162
2.20823919
2.204246337
2.196517914
2.182401768
2.175129848
2.171110988
2.16681801
2.161868602
2.145877366
2.124327984
2.103699667
2.095746177
2.092708645
2.087080611
2.078650754
2.060664232
2.038421713
2.021303141
2.008543029
1.99934449
1.992011985
1.980126636
1.963897897
1.952723969
1.953798779
1.95073663
1.934942608
1.908372277
1.884193788
1.865441703
1.852829048
1.834327645
1.815702964
1.801536419
1.780838479
2.216265316
2.20921273
2.203851028
2.192419213
2.181796583
2.175964881
2.175710645
2.174680955
2.165738595
2.147121934
2.124013946
2.104905703
2.098877216
2.098467925
2.094452113
2.081355267
2.060640902
2.038043075
2.021927253
2.009879217
2.000413542
1.991736999
1.977703184
1.964121333
1.95907952
1.960709897
1.95155578
1.932426798
1.906595818
1.88420441
1.8689306
1.853703618
1.833833865
1.815805689
1.803200909
1.782711775
2.216773561
2.208991935
2.201057404
2.190946481
2.182122002
2.179417815
2.183404742
2.179182446
2.167208017
2.146948307
2.123232935
2.107418558
2.10420137
2.105929726
2.099697823
2.081821405
2.059490612
2.038479444
2.022738603
2.01147404
2.001871783
1.9911228
1.976365745
1.966534622
1.967297618
1.963484059
1.951104194
1.928730239
1.905975239
1.885792447
1.871549605
1.853229661
1.833291857
1.816239325
1.805679141
1.783430413
2.216078736
2.20720732
2.19793926
2.19138056
2.185479026
2.186867458
2.186878404
2.180565361
2.16726007
2.144187553
2.123976274
2.11467789
2.115153507
2.113827615
2.102386551
2.080945996
2.059063964
2.039359483
2.023816062
2.013494274
2.003874761
1.990392167
1.976471801
1.972541405
1.972599053
1.964646276
1.948876579
1.926042365
1.90582087
1.889537627
1.872062237
1.852857299
1.833031728
1.818338796
1.808037332
1.783095812
2.203181703
2.197541285
2.194657435
2.19235565
2.189774989
2.187766385
2.18003787
2.162941264
2.142599457
2.128669702
2.128735775
2.12764894
2.120060066
2.103491286
2.080656465
2.059478616
2.040200479
2.025176497
2.016386676
2.006492635
1.989746731
1.978307626
1.978920518
1.975574458
1.964995829
1.945233137
1.92449526
1.906948338
1.891581249
1.872300731
1.85283491
1.833837377
1.82154205
1.807179336
1.782047095
2.200993496
2.198035427
2.197308921
2.194311414
2.190455112
2.18693552
2.176718447
2.158884103
2.14353697
2.139854562
2.138214084
2.131490878
2.121294864
2.104254365
2.081317345
2.059942804
2.040798607
2.027162213
2.020755069
2.008552339
1.989560815
1.982932553
1.983455414
1.978041348
1.964790469
1.942176362
1.923789471
1.909174471
1.891295432
1.872351344
1.853278662
1.837255315
1.821382308
1.805803549
1.780776359
2.200054137
2.198228519
2.197562238
2.194769146
2.189391574
2.18502705
2.17622554
2.158292714
2.149074743
2.14578124
2.13945619
2.131714241
2.121583738
2.105066415
2.081959213
2.059926087
2.041440706
2.031088856
2.026364529
2.009473058
1.990170762
1.987905413
1.987092476
1.980164411
1.962879092
1.940877174
1.924250357
1.909060724
1.890779322
1.872413947
1.855338009
1.840346753
1.820717762
1.804173142
1.779591575
2.199350435
2.19797916
2.197505845
2.193968766
2.187017784
2.185663745
2.176988345
2.159227568
2.152141309
2.145709417
2.139417949
2.131612882
2.121671749
2.105634535
2.082150792
2.059244089
2.042915813
2.037884006
2.030033674
2.008194332
1.992626178
1.992934997
1.991098967
1.981286291
1.960714473
1.940814167
1.924985256
1.908368853
1.890348556
1.872969007
1.858971562
1.840428914
1.819989932
1.803306393
1.778996961
2.199350327
2.197758962
2.196915367
2.191168575
2.187516156
2.187127236
2.178072664
2.161639927
2.15143917
2.145158485
2.139080318
2.131399624
2.121545972
2.105642035
2.0811663
2.058989817
2.048002666
2.046056803
2.030987938
2.006426703
1.99786855
1.999134386
1.995258021
1.981485485
1.959499027
1.941273179
1.925039399
1.907654623
1.89021787
1.875173506
1.860186821
1.839879517
1.818984261
1.802571808
1.778504645
2.200895898
2.198218272
2.195283829
2.191153709
2.189097565
2.189603366
2.178449684
2.161018726
2.149999513
2.14368754
2.138117647
2.13028502
2.120317887
2.10390901
2.079052162
2.060041227
2.058403463
2.051314611
2.028448131
2.007221797
2.004840391
2.006136202
1.997216623
1.979642008
1.958972093
1.942261855
1.925286703
1.907514019
1.890658599
1.876928473
1.859828093
1.83862201
1.81817641
1.802108147
1.778503784
2.204124633
2.198821787
2.195043432
2.192501002
2.191849842
2.190690557
2.177356733
2.159258133
2.148712618
2.141783845
2.135513104
2.127214257
2.11682923
2.100066254
2.078315628
2.06589168
2.068993714
2.05281826
2.02419418
2.011312493
2.014519221
2.010927202
1.997280207
1.976723498
1.959068942
1.943303128
1.925768573
1.907805039
1.891977949
1.87658183
1.858565998
1.837505908
1.818107423
1.802192365
1.778563739
2.20644938
2.199053518
2.195604675
2.195739156
2.193869518
2.190110035
2.17360024
2.158127931
2.148030405
2.140803298
2.133288026
2.123765185
2.112639592
2.097905533
2.079248892
2.078041976
2.074530915
2.050623467
2.024343013
2.021332906
2.023299011
2.012299294
1.994977964
1.974811431
1.959546934
1.944325007
1.926687624
1.909038349
1.89197888
1.87543317
1.856728412
1.836927495
1.818183202
1.802519097
1.778820399
2.207236422
2.199784006
2.198771707
2.198782201
2.19373719
2.186245269
2.170638417
2.157778081
2.147739321
2.14039047
2.132858266
2.121794381
2.110639764
2.097793033
2.085354959
2.088468284
2.076035949
2.045177705
2.02790972
2.033409444
2.026840005
2.011953963
1.99044322
1.974135845
1.960528926
1.945636056
1.928163207
1.909546817
1.891282911
1.873270713
1.855147725
1.836578113
1.818435934
1.8030669
1.779345516
2.208285899
2.203025325
2.203031034
2.199114935
2.190893735
2.181724796
2.169884389
2.158025308
2.148254549
2.140937735
2.132998733
2.120911029
2.110140252
2.098602448
2.097678521
2.092514885
2.0732926
2.044570173
2.0390426
2.040066013
2.027643714
2.008484438
1.987741789
1.974100278
1.961707093
1.947162129
1.928734453
1.909571897
1.890012263
1.871124749
1.853906606
1.836124036
1.818777317
1.803733306
1.779948254
2.211221285
2.208015851
2.203628007
2.197617399
2.186957381
2.180528007
2.169675161
2.160048087
2.15130911
2.142549318
2.132983192
2.120708466
2.110233815
2.104586697
2.106787127
2.09311375
2.066250028
2.047787777
2.04903057
2.041708394
2.026947883
2.004238258
1.987209975
1.974522223
1.963001131
1.947518012
1.928701805
1.908807489
1.888453366
1.869644952
1.852756046
1.835741719
1.818954268
1.804388527
1.780724865
2.216710383
2.209632267
2.20261204
2.193866619
2.185926431
2.180366233
2.172020447
2.16410758
2.152589276
2.142326838
2.132834768
2.120869166
2.112164602
2.11529793
2.109465525
2.088744104
2.064090802
2.056984634
2.052818998
2.041793162
2.02330487
2.003002636
1.987496804
1.975554533
1.964186754
1.947134014
1.927396817
1.907756048
1.887566937
1.869213208
1.852236408
1.835280789
1.819406774
1.805255197
1.783035283
2.220063306
2.209597814
2.200073172
2.192208196
2.185876118
2.180945135
2.176430366
2.164328292
2.151578544
2.141432805
2.132828407
2.121829326
2.119325184
2.120907127
2.109448168
2.080478163
2.065613977
2.063835907
2.053783519
2.039766907
2.0203755
2.003407468
1.98854308
1.978215469
1.964390001
1.94530679
1.925975395
1.90711432
1.887436049
1.869126123
1.852356723
1.835451986
1.818744655
1.806088198
1.783023637
2.221155979
2.20899349
2.198965208
2.191962008
2.186511785
2.184180704
2.176852946
2.163043644
2.149636351
2.140641667
2.13310502
2.126904466
2.127495313
2.121425762
2.104009712
2.077257077
2.071145967
2.066809686
2.053875291
2.036386037
2.020076755
2.004312898
1.99177187
1.981244438
1.963479458
1.943233751
1.925402166
1.906851469
1.887220993
1.869167063
1.853174557
1.836448679
1.819845234
1.805915463
1.78244493
2.20891012
2.198856772
2.192338316
2.190402204
2.188296387
2.175659933
2.16110013
2.147724092
2.140232125
2.135504646
2.134960265
2.129040713
2.118878767
2.096452154
2.078054279
2.076182347
2.068079995
2.05250515
2.035419467
2.020558133
2.006926768
1.997334823
1.981509361
1.961297477
1.942528369
1.925108536
1.906413997
1.886664677
1.869326324
1.854646421
1.837731876
1.819243065
1.805261967
1.782166272
2.209246682
2.199387477
2.195673582
2.197865001
2.188008921
2.173901158
2.159207873
2.146578989
2.140411334
2.1406026
2.137447573
2.12800115
2.111865565
2.094629796
2.081427809
2.078546641
2.068668462
2.051736372
2.035742495
2.021787345
2.012721789
1.999481628
1.980287896
1.96007709
1.942616316
1.925001269
1.905360893
1.885665418
1.869966591
1.856192256
1.837429927
1.818862788
1.80542814
1.782523359
2.209969528
2.202276121
2.205464313
2.19863537
2.186229431
2.172032552
2.15762507
2.145914585
2.142499527
2.143791159
2.137494348
2.123553088
2.108475793
2.095214977
2.087293921
2.079275627
2.068135485
2.052242432
2.036652244
2.026184343
2.016345737
1.99957358
1.978663753
1.960112625
1.943344759
1.925176776
1.903894177
1.88479303
1.870799283
1.855921269
1.837141608
1.818973686
1.805924587
1.783554676
2.212987101
2.213000272
2.208216859
2.19588618
2.183710893
2.169943059
2.156432185
2.146138657
2.14653092
2.14534097
2.13604944
2.120842395
2.108563156
2.097608506
2.089508144
2.079435304
2.068015511
2.053090088
2.039733836
2.030441592
2.01677414
1.998313197
1.978393661
1.960734852
1.944719633
1.925007295
1.902891779
1.884707078
1.870805248
1.855247133
1.837083821
1.819472512
1.806790401
1.785189617
2.223436158
2.217606723
2.206008501
2.191543197
2.181193285
2.168032523
2.155445566
2.14916304
2.150301949
2.145479224
2.134500466
2.120679571
2.109866409
2.101490246
2.089782487
2.079124466
2.068630319
2.054858073
2.044114677
2.031078345
2.015920015
1.997524568
1.978830702
1.962180697
1.945206596
1.924104655
1.902525948
1.885134913
1.870350422
1.854171108
1.83701343
1.820437503
1.808716331
1.788605596
2.227432537
2.216701416
2.200598687
2.189930087
2.179934968
2.166931826
2.155937426
2.154114482
2.150907257
2.144725498
2.134079439
2.121587082
2.112143
2.101936241
2.08891026
2.079387986
2.069497445
2.058422535
2.045854688
2.030925063
2.01499434
1.997651836
1.979570532
1.963431284
1.94474987
1.922986655
1.902622738
1.885245673
1.869370629
1.853140143
1.837031485
1.821872818
1.811714313
1.79227197
2.227379589
2.2132401
2.198189235
2.189581388
2.179482199
2.166153335
2.160223035
2.15541755
2.149992022
2.143577047
2.133943155
2.122291118
2.112023045
2.100494612
2.088145479
2.080087399
2.071798868
2.061196839
2.046583267
2.03101008
2.015125496
1.998015516
1.980648911
1.962630942
1.942778851
1.922060552
1.902825484
1.884843798
1.867838092
1.852043565
1.837294147
1.823971421
1.814852702
1.793515355
2.225850587
2.211359451
2.198096548
2.189941469
2.179147697
2.167822063
2.162351669
2.154521216
2.148633799
2.142692296
2.133776724
2.121949565
2.110303274
2.09858657
2.08850135
2.081536194
2.075319317
2.06213879
2.047228057
2.031871827
2.015764541
1.999114616
1.980295568
1.960128573
1.939939243
1.920984052
1.902791933
1.88410744
1.865987546
1.850889899
1.83792864
1.826213498
1.816624964
1.793603509
)
;

boundaryField
{
    inlet
    {
        type            calculated;
        value           nonuniform 0();
    }
    outlet
    {
        type            calculated;
        value           nonuniform List<scalar> 
62
(
1.781277712
1.781299934
1.781374265
1.781753193
1.783057885
1.784358621
1.784206309
1.783938191
1.783688052
1.783391271
1.783168647
1.783222588
1.783634914
1.784607497
1.787152292
1.788422135
1.788770789
1.789056036
1.789333416
1.789504538
1.789349498
1.788999323
1.788714825
1.787525307
1.786787949
1.785652795
1.784108762
1.78224784
1.779861972
1.777926629
1.777119943
1.776941584
1.777042922
1.777514807
1.778688066
1.780732953
1.782738718
1.783559496
1.783231603
1.782132979
1.780825029
1.779629174
1.779056462
1.778570757
1.778560753
1.778604272
1.778844857
1.779338073
1.779882928
1.780579619
1.782832368
1.782975151
1.782409
1.782154297
1.782510657
1.783508916
1.785013566
1.788276084
1.792172653
1.793608788
1.793701543
1.78113289
)
;
    }
    bottom
    {
        type            calculated;
        value           nonuniform 0();
    }
    top
    {
        type            calculated;
        value           nonuniform 0();
    }
    obstacle
    {
        type            calculated;
        value           nonuniform 0();
    }
    defaultFaces
    {
        type            empty;
    }
    procBoundary23to17
    {
        type            processor;
        value           nonuniform List<scalar> 
40
(
1.976491904
1.966628799
1.963563916
1.954243426
1.940866887
1.929509405
1.918267264
1.904341473
1.892342225
1.881158851
1.870210465
1.860531331
1.849527781
1.835328053
1.819467205
1.805527809
1.780904215
2.251142265
2.240135311
2.227576166
2.214626179
2.196393999
2.176123341
2.155846842
2.141288963
2.129850587
2.116869733
2.106262577
2.105301151
2.106884951
2.100795119
2.095996171
2.084801452
2.06632689
2.048578881
2.037395608
2.024478955
2.006739397
1.99572058
1.99572058
)
;
    }
    procBoundary23to22
    {
        type            processor;
        value           nonuniform List<scalar> 
65
(
2.261792058
2.255004011
2.255004011
2.256400517
2.258040342
2.260151528
2.261401752
2.261461025
2.261284766
2.261558209
2.262282905
2.262168838
2.260784063
2.25884936
2.257267925
2.257267925
2.256671515
2.256195602
2.254396254
2.250815508
2.247385935
2.245671657
2.244976845
2.243188212
2.239716621
2.236864126
2.235444659
2.223638925
2.223638925
2.221429659
2.219589843
2.218041386
2.217120522
2.216683627
2.217032602
2.218266532
2.219015836
2.219830167
2.222142404
2.226229579
2.227798519
2.227697633
2.214603678
2.214603678
2.212806337
2.211297927
2.209860662
2.208997802
2.208701691
2.210578577
2.215362755
2.218802015
2.220438569
2.222056086
2.225313059
2.231425413
2.235509897
2.221938173
2.221938173
2.222734383
2.223728601
2.225533324
2.231377281
2.239082951
2.24073664
)
;
    }
    procBoundary23to28
    {
        type            processor;