/*--------------------------------*- C++ -*----------------------------------*\
  =========                 |
  \\      /  F ield         | OpenFOAM: The Open Source CFD Toolbox
   \\    /   O peration     | Website:  https://openfoam.org
    \\  /    A nd           | Version:  7
     \\/     M anipulation  |
\*---------------------------------------------------------------------------*/
FoamFile
{
    version     2.0;
    format      ascii;
    class       volScalarField;
    location    "3.9";
    object      rho;
}
// * * * * * * * * * * * * * * * * * * * * * * * * * * * * * * * * * * * * * //

dimensions      [1 -3 0 0 0 0 0];

internalField   nonuniform List<scalar> 
2222
(
0.9308376681
1.088670285
1.123500459
1.124083691
1.151308235
1.198141078
1.232843828
1.264442155
1.880258703
0.5124408199
0.516251511
0.5391752689
0.570331674
0.5911535598
0.5961436465
0.5956279468
0.5977532587
0.6017349903
0.6079650189
0.6141924611
0.6186174085
0.6192220146
0.6175933134
0.615890484
0.6155335988
0.6162491196
0.6162421292
0.6158623785
0.6152348954
0.6140954668
0.6122981182
0.6124075729
0.6329603676
0.7501045107
0.9465393852
1.093734297
1.125654581
1.124826453
1.153829302
1.200863411
1.229206741
1.552897026
2.107996639
0.5068436535
0.5157505965
0.5371301886
0.5679081635
0.588714147
0.5949080758
0.5958573177
0.5979755756
0.6014607967
0.6068389306
0.6119438965
0.6154957707
0.6151684613
0.6143270575
0.6132082515
0.6134689689
0.6145493058
0.6147924831
0.6145104768
0.6140515461
0.6130869589
0.6118009979
0.6123157981
0.6378018095
0.7658637873
0.9620520616
1.097483969
1.125875605
1.125654879
1.1563708
1.198251802
1.249876804
1.9178698
2.262279724
0.5045702253
0.5154418665
0.5370405868
0.5681247798
0.5873480362
0.5928269637
0.5951545662
0.5978514395
0.6008776327
0.6054766266
0.6093458302
0.611753529
0.6126489668
0.6123332629
0.6114901095
0.6122554241
0.6135005443
0.6139304635
0.6138992409
0.6136343289
0.612772002
0.6116068385
0.6124327186
0.6436972561
0.7819642185
0.9765160353
1.100677506
1.127160889
1.126092477
1.159211037
1.195864883
1.557138735
2.17756368
0.50362507
0.5155760197
0.5375507731
0.5688375583
0.5877058262
0.5926225772
0.5933516692
0.5968411689
0.5998653093
0.6036287418
0.6068761811
0.6106486314
0.6119035862
0.6116535676
0.6108658166
0.6117370524
0.6130924115
0.6136251562
0.6137355563
0.6135602141
0.6128133124
0.6117755907
0.6126942424
0.6505464094
0.7986147673
0.9911392492
1.104172586
1.129277828
1.127346039
1.158127659
1.214574137
1.943808564
2.235444851
0.5035616502
0.5154259132
0.5368454866
0.5682579279
0.589076314
0.5941585008
0.5925640712
0.5943441584
0.5978129514
0.6013450288
0.6050837393
0.6100441009
0.6114662186
0.6113535946
0.6105901301
0.6115571573
0.6130201347
0.6135848581
0.6137610526
0.6136250642
0.6128003406
0.6116599033
0.6131682352
0.6586516269
0.8146431639
1.006250197
1.108831931
1.131501176
1.129101048
1.159342093
1.535557398
2.092564171
2.21654585
0.5041336577
0.514709529
0.5325744896
0.5636843237
0.5892077079
0.5962214849
0.5938870417
0.5919098119
0.5941349555
0.5993048084
0.6037262326
0.609073002
0.6105358323
0.6106258104
0.6099185475
0.6110074302
0.6125921723
0.6131298318
0.613304224
0.6132002441
0.6122719343
0.6109412696
0.6139768542
0.6676925846
0.8315058248
1.018720022
1.111163734
1.130793809
1.12799674
1.17827309
1.831185997
2.097032163
2.171064455
0.5037880356
0.5133370343
0.531351132
0.5611254272
0.585323364
0.596081187
0.5958712029
0.5919864324
0.5913685757
0.5976114712
0.6020608577
0.6074746186
0.6086553153
0.6089819379
0.6086079941
0.6099602955
0.6116994888
0.6121615098
0.6122587728
0.6120919598
0.6110810838
0.6101679932
0.6151494368
0.678017498
0.8473938537
1.030273653
1.112772822
1.132087126
1.129595093
1.51275469
1.978220493
2.117268895
2.167657597
0.5024482579
0.5144965232
0.5341261284
0.5626239727
0.5812504086
0.5928024771
0.5964096895
0.5927475428
0.5911417534
0.595783361
0.6009043351
0.6064356026
0.6069910687
0.6068877746
0.6073363498
0.6090704856
0.6109575508
0.6114731477
0.6115862501
0.6114541818
0.6105336298
0.6100394174
0.6167089804
0.6895921268
0.8617689742
1.039697611
1.112361385
1.129518047
1.199459537
1.821786476
2.1171209
2.17450939
2.192618837
0.5038160424
0.5170361007
0.537414956
0.5642674423
0.5802693217
0.5896458392
0.5954952128
0.5935630138
0.5915305449
0.5944590505
0.6006133857
0.6059806366
0.6064199794
0.6061019345
0.6068477764
0.6087930227
0.6107052149
0.6112459056
0.6113761598
0.6113488906
0.6104797391
0.6102354341
0.6187172685
0.7015184364
0.8777601462
1.048764627
1.114002026
1.136409716
1.626724775
2.074564485
2.181213353
2.225738529
2.25017782
0.5063753015
0.517828007
0.5363604969
0.5625255339
0.5794663516
0.5891931752
0.5930000059
0.5939627659
0.5921641735
0.5941661103
0.6005721871
0.6059410743
0.6062613161
0.6057073441
0.606755574
0.6088332987
0.6107124597
0.6112573337
0.611412611
0.6113570685
0.6103343322
0.6100318743
0.6212939231
0.7155253125
0.8927576204
1.058973249
1.106481188
1.373041594
1.984175431
2.125080537
2.186766784
2.231375049
2.26610681
0.5078114221
0.5150821352
0.5312817318
0.5596657603
0.5790996867
0.5891526304
0.5918393649
0.5938259764
0.5929054628
0.5941496706
0.6002366828
0.6055860453
0.6057841136
0.6051309012
0.6064635204
0.6088340097
0.6107349388
0.6112343004
0.6113043302
0.6109582851
0.6098221604
0.6095936365
0.6247125148
0.7292393644
0.9063548853
1.056491614
1.146680522
1.806407805
2.05264789
2.122315519
2.183648296
2.229903501
0.5077036716
0.508254425
0.5250137312
0.5555559247
0.5797005082
0.5901411188
0.5913252799
0.5926196058
0.5929866053
0.5938731196
0.5991646942
0.6044885885
0.6046226953
0.6042145112
0.6058475619
0.6084635818
0.6103279097
0.6107812521
0.6107780563
0.6100076083
0.608780158
0.6095971031
0.6292499631
0.7442891945
0.9318576852
1.03270132
1.517498948
1.908357637
2.017844869
2.086345
2.15560662
2.209507718
0.5062296326
0.5011544284
0.5221129963
0.5522398487
0.5794159017
0.5918987002
0.5912045981
0.590416272
0.5923658523
0.5933612459
0.59837062
0.603136065
0.6033167306
0.6034653452
0.6053446267
0.6079255854
0.609475382
0.609843259
0.6097371034
0.6089581909
0.6081653828
0.6097059758
0.6341895969
0.7572544666
0.9207471923
1.130334371
1.755604711
1.964116549
2.003348724
2.051580285
2.114262215
2.16665814
0.5045284124
0.4982398649
0.5193822264
0.548789991
0.5772799546
0.5913788542
0.5914397326
0.5885585662
0.5906823192
0.5931555835
0.5981769703
0.6027251803
0.6028875196
0.6031638854
0.6052101277
0.6077491728
0.6089293965
0.6091302839
0.6090387348
0.6086033543
0.6080362932
0.6099495926
0.6404165792
0.7739474386
0.9100309111
1.478588675
1.956218366
2.036724096
2.022858898
2.052642008
2.111423276
2.156280419
0.5033380658
0.4964745445
0.5174137622
0.5460467824
0.5752687148
0.5898030259
0.5909549107
0.5879986602
0.5893216154
0.5928590952
0.5980555281
0.6027370437
0.6029170365
0.6030567378
0.605189754
0.6077065424
0.6087840106
0.6089594355
0.6088694221
0.6085073587
0.6080077148
0.6105410602
0.649180898
0.756666936
1.033259612
1.794408391
2.051628455
2.081626349
2.083815825
2.081257412
2.123721714
2.160379194
0.5030097623
0.4955867815
0.517019621
0.5446541537
0.5738791233
0.5880152092
0.5901483766
0.5876266611
0.5886246897
0.592221339
0.5977395213
0.6021832924
0.6028541767
0.6033176849
0.6054160321
0.6078709976
0.6089038475
0.6090442064
0.6088802579
0.6084925805
0.608114934
0.6112242247
0.6482566572
0.7872758171
1.436743508
1.941650236
2.064075626
2.08590686
2.116476408
2.141627868
2.172891393
2.189827575
0.5039826492
0.4961314881
0.5187431128
0.5452020076
0.5721896083
0.5859544133
0.5891717865
0.5874525613
0.5881618436
0.5912703405
0.5970383958
0.6007634992
0.6020332674
0.6031652738
0.6055187223
0.6080476659
0.6089202669
0.6089330774
0.6087010078
0.6083086614
0.6080272698
0.611755713
0.6518328767
0.9981952978
1.649257739
1.962997805
2.05968925
2.083447624
2.117015031
2.158193591
2.203410079
2.233360694
0.5046872143
0.4960044118
0.5181566596
0.544951244
0.570749388
0.5831372138
0.5874891618
0.5877024054
0.5877344882
0.5903686947
0.5962638558
0.5995235782
0.600806531
0.6025352517
0.6052164416
0.6077401586
0.6084581673
0.6082956483
0.6081025896
0.60784026
0.6078100614
0.6114250422
0.7038665681
1.169306728
1.687353122
1.92935033
2.024729021
2.067473886
2.112861477
2.157759851
2.204863893
0.5036460496
0.4949526722
0.5166052218
0.5435532072
0.5700509313
0.581332421
0.5856453638
0.5875737698
0.5872626241
0.5898487763
0.5957518006
0.5989966365
0.6002666712
0.6020095229
0.6047963977
0.6070196853
0.60760475
0.6073993904
0.6070706358
0.6069338231
0.6071505251
0.6134606576
0.8058148094
1.303286627
1.747506926
1.9320446
1.996269972
2.02731018
2.087486356
2.144533226
2.198093665
0.5020497608
0.4937597484
0.5151589389
0.5423659815
0.5694345975
0.5806332292
0.5847836523
0.587040963
0.5868005553
0.5895328159
0.5954834947
0.598652697
0.6000707
0.6018768547
0.6047648252
0.6068105777
0.6073687831
0.6072145521
0.6067217441
0.6064888052
0.606643838
0.6303886064
0.9936194461
1.495971344
1.857234568
1.961997048
1.998238405
2.01437637
2.055409536
2.109124306
2.165697098
0.499265228
0.4921940099
0.513520944
0.5415396296
0.5686040761
0.5802389958
0.5842099221
0.5865223307
0.5864250842
0.5894763449
0.5950635851
0.598045664
0.5998004701
0.601998932
0.604881225
0.6068512811
0.6073195253
0.6072080145
0.6067070157
0.6064479156
0.6067404618
0.6772750781
1.13396917
1.635818644
1.958321528
2.031252366
2.021353936
2.018064695
2.052635209
2.097417534
2.140744725
0.4924966141
0.4896472719
0.5105828692
0.5405762087
0.5679117212
0.5807297204
0.5842940487
0.5862952997
0.5861965419
0.5894380303
0.5941095241
0.5969680192
0.5991925853
0.6018482433
0.6048320558
0.6067386059
0.6070878096
0.6070625174
0.6067050216
0.6064127722
0.6086207146
0.7668797251
1.18690143
1.669411617
1.977131854
2.065889062
2.073763334
2.048930072
2.059830433
2.100207105
2.139722139
0.4829131567
0.4861202719
0.5066831015
0.5395304216
0.5673761082
0.5812918825
0.5858785642
0.5865866793
0.5863275181
0.5895786526
0.5926758186
0.5955456618
0.5984362685
0.6016412539
0.6045375374
0.6062151458
0.6064954956
0.606644739
0.6066073488
0.6065540037
0.6235922098
0.9213466972
1.252588078
1.666374154
1.981622287
2.068080434
2.093244583
2.094990148
2.098632367
2.123037759
2.147815987
0.4800945025
0.4839897995
0.5052756426
0.5393456797
0.5666078606
0.5810338579
0.5867886041
0.5872367725
0.5863597399
0.5898395918
0.5921104865
0.5946067213
0.5978696359
0.6013954874
0.6043223782
0.6055919442
0.6059164979
0.6060197146
0.6063330282
0.6066145555
0.6669896988
1.032330486
1.3528688
1.644748386
1.956258604
2.060879651
2.091512897
2.104109192
2.137121557
2.166492718
2.182454099
0.4803262178
0.4839140625
0.5048000812
0.538505244
0.5658611676
0.5812260413
0.5866484645
0.5870976733
0.5860476764
0.589876794
0.5921288973
0.5942544292
0.5975200293
0.6012606331
0.6041556594
0.6051861895
0.6055592576
0.6056461047
0.605933165
0.6097603603
0.7707462884
1.113023207
1.432166785
1.660433118
1.918242473
2.028853325
2.077325609
2.103138038
2.140068591
2.177329405
2.208878751
0.4811137323
0.484233037
0.5041769859
0.5374677128
0.5650031458
0.5805333681
0.5865110504
0.5867308756
0.5856735453
0.5892053333
0.5920510976
0.5943158624
0.597322013
0.6013269184
0.604024674
0.6048870645
0.6051052159
0.6052819786
0.6054011795
0.6306158416
0.9204141737
1.211027572
1.455063002
1.718816201
1.918089218
2.009173342
2.045782838
2.087624879
2.1354773
2.175576434
0.4815656894
0.4842413831
0.5037003285
0.5360412166
0.5632523193
0.5797707613
0.5859952147
0.5863672369
0.5855887173
0.5881252155
0.591351856
0.5944275616
0.5972788653
0.6017953228
0.6040677313
0.6045803776
0.6044959287
0.6046992474
0.6061132911
0.6955760582
1.012253684
1.254363789
1.464040622
1.804879023
1.932862067
2.009911076
2.036358008
2.054006758
2.108968173
2.160726589
0.4809895864
0.4835255673
0.5028011233
0.5341758734
0.5610691453
0.5785385191
0.5855554797
0.5861422863
0.585715106
0.5879379483
0.5900491782
0.5942271895
0.5974608059
0.6020442957
0.6038387322
0.6041462082
0.604066804
0.6045078356
0.6128542192
0.8008958094
1.10228099
1.255063418
1.465073003
1.840018806
1.986101984
2.016273477
2.037809952
2.046234888
2.085288159
2.128960694
0.4799455326
0.4828058751
0.5010076157
0.5318593417
0.5592574334
0.5772134317
0.5848877655
0.5860943059
0.5863912949
0.5881002054
0.5894364989
0.5936158732
0.5975843334
0.6020600307
0.6034894223
0.6037727465
0.603912223
0.6046174281
0.6458865122
0.9590276101
1.190308172
1.265497192
1.473036896
1.844580496
2.037337638
2.046603849
2.046364718
2.048457451
2.083405869
2.120127274
0.479352285
0.4817160562
0.4994223303
0.5298081093
0.5577976899
0.57627208
0.5840922748
0.5855843594
0.5866995421
0.5885417201
0.5893726837
0.5926796047
0.5977643405
0.6018710569
0.6031581774
0.6036398727
0.603865609
0.6071852828
0.7435668587
1.062707651
1.212744569
1.28861057
1.500199029
1.832896813
2.041639829
2.090681528
2.080044141
2.068727313
2.089750893
2.12020099
0.4785606232
0.4810905634
0.4994709688
0.5292179598
0.5567389443
0.5758479701
0.5833991431
0.5847937745
0.5861810074
0.5885721525
0.5895245622
0.5922982638
0.5977995628
0.601644207
0.6031561754
0.6035253576
0.6038725554
0.620786491
0.8506866767
1.103478725
1.205607897
1.320732378
1.544989547
1.809293737
2.029174832
2.095586708
2.106248274
2.108616086
2.120413278
2.134442545
0.4782293756
0.4814499419
0.5010241556
0.5298835186
0.5567329382
0.5753085467
0.5826854155
0.5838329076
0.5849480495
0.5880338254
0.5894982854
0.5923590873
0.5976659906
0.6017186689
0.6032904888
0.6033657478
0.6041533849
0.666732355
0.9592088806
1.158971124
1.207832538
1.335711121
1.588081068
1.812594259
1.99484438
2.086795848
2.106918227
2.119176097
2.145577452
2.168161916
0.4784585343
0.4816887375
0.5020286262
0.5305395861
0.5579039458
0.574868161
0.5819247212
0.5830770423
0.5837440859
0.5865629074
0.5890841639
0.592652495
0.5974067618
0.6018435312
0.603231617
0.6029093814
0.6085878678
0.7690975027
1.101837193
1.208068718
1.218471954
1.336787378
1.625936954
1.834383452
1.982300144
2.057220397
2.0994078
2.117619745
2.145447146
0.4786268963
0.4820555803
0.5029210535
0.5302192125
0.5594837127
0.576651653
0.5820397639
0.5829314965
0.583143154
0.5849160876
0.5882650221
0.5929492372
0.5974508009
0.6022286153
0.6029075806
0.6026739929
0.6311954265
0.9243590218
1.170832889
1.216305524
1.235015718
1.340682321
1.659185377
1.886697056
1.982801499
2.041276025
2.072688876
2.106415619
2.140044526
0.4788251422
0.4826702659
0.5033180439
0.5285491471
0.5591972946
0.5781805545
0.5828840413
0.5831346954
0.5829676562
0.5840401172
0.5872896417
0.5929012252
0.5974228921
0.6022486188
0.6023277887
0.6038464889
0.7053009001
1.012142787
1.166715939
1.213409192
1.24085912
1.347164744
1.676773947
1.945631823
1.991446129
2.040075285
2.056446966
2.080084739
2.118629196
0.4792459149
0.4834874832
0.5041596646
0.5285745407
0.5585629679
0.5780753726
0.583182163
0.5834526395
0.5829673405
0.5836214069
0.5867264819
0.5923301732
0.597948342
0.6017425724
0.6013809546
0.6118030544
0.800617941
1.076276555
1.180402334
1.204470937
1.242453408
1.361886872
1.684345743
1.974711086
2.024563493
2.041409874
2.05537846
2.071804541
2.099945802
0.479864755
0.4839183412
0.5055018169
0.5306540725
0.5585061597
0.5762318839
0.5827750497
0.5832090498
0.58285909
0.5835102609
0.5865804379
0.5914158379
0.5986750482
0.6008240957
0.6009593536
0.6426800954
0.9250451365
1.15950155
1.203438775
1.204444337
1.242772132
1.391751346
1.695714908
1.977512724
2.069530542
2.058074301
2.061803191
2.072497099
2.097438999
0.4804850683
0.4838127098
0.5061950219
0.5333446548
0.558618039
0.5743662258
0.5810796933
0.5824108132
0.5824144596
0.5836608554
0.5865531141
0.5911432082
0.5987153529
0.5992578099
0.6033788422
0.7302768856
1.066892739
1.200532793
1.21509838
1.209656839
1.243865488
1.43167405
1.715979898
1.970161639
2.078618676
2.089033717
2.087724771
2.08866732
2.100888421
0.479902376
0.4834216939
0.505081694
0.5344054485
0.558982057
0.5744956603
0.5795127062
0.580769583
0.5811838056
0.5836181225
0.586520219
0.5913928429
0.5978947755
0.5985967823
0.6182781363
0.8727162592
1.133998542
1.207238941
1.216734306
1.218588316
1.247363236
1.463425885
1.745150946
1.95140086
2.072812874
2.09685884
2.107082116
2.118957628
2.124301923
0.4776873355
0.483736231
0.5019639404
0.5338615732
0.5584662737
0.5738233245
0.5781928292
0.5787917976
0.5793151259
0.5828603352
0.5863482307
0.592030586
0.5961858757
0.5976081166
0.6718366475
0.9724142331
1.154405392
1.198097598
1.214305416
1.220727863
1.257034172
1.483907272
1.779993366
1.945518998
2.052087822
2.093158781
2.106240764
2.125797705
0.4781452713
0.4851214387
0.5001529194
0.5302438152
0.5572537324
0.5724247059
0.576821793
0.5780009887
0.5785819585
0.5813237841
0.5858568532
0.5921082116
0.5936426738
0.6024781548
0.7680628901
1.073864225
1.186702473
1.195882896
1.20706528
1.220280633
1.268536681
1.502999027
1.821551243
1.947202868
2.031212561
2.076760527
2.101106618
2.123394523
0.4800089137
0.4869164515
0.5001121452
0.5285661101
0.554526667
0.5700142268
0.5754191407
0.5774985911
0.5783175128
0.579691062
0.5848749941
0.5914840175
0.5922802434
0.6285149506
0.9193030927
1.167961783
1.21181788
1.203096988
1.207728446
1.218674426
1.278926985
1.520562393
1.866697629
1.964992359
2.025055397
2.053527886
2.082575235
2.113193417
0.4816497265
0.488689386
0.4998034999
0.5271608426
0.5506919205
0.5670313892
0.5743283124
0.5774178483
0.5778363786
0.5790413646
0.5847071981
0.5898258749
0.5938144882
0.7132588523
1.042537616
1.190581986
1.214250169
1.214390028
1.208950277
1.218658417
1.289125728
1.537095002
1.891423401
2.00696547
2.023147611
2.048290164
2.06650003
2.093017186
0.4824526283
0.4889250597
0.4994658825
0.5247061415
0.5466202012
0.5635643973
0.573179148
0.576904852
0.5776565801
0.57937733
0.5853171356
0.5875127479
0.6066421892
0.8282724611
1.090291121
1.185794877
1.208416755
1.211740192
1.213858936
1.220484377
1.300078244
1.559780727
1.896042993
2.036728838
2.029861036
2.046785332
2.064257282
2.086710345
0.482497884
0.4876711174
0.4991275165
0.5210837437
0.5423577546
0.5615556458
0.5722220809
0.5761310558
0.5774651147
0.580708428
0.5857985421
0.587509569
0.6515322352
0.9411168547
1.140191258
1.182507982
1.197918239
1.207815759
1.211772938
1.219722951
1.312595466
1.591313523
1.894885441
2.037254882
2.055796688
2.053292881
2.06676106
2.086876558
0.4822376921
0.4847176109
0.497896584
0.5172646842
0.5400520284
0.560299401
0.5707284173
0.5749122199
0.5770777611
0.5823500548
0.5843186792
0.5930788335
0.7613317646
1.090265084
1.194467294
1.190047199
1.194190143
1.201072388
1.210023824
1.221890103
1.327769051
1.626640944
1.892989266
2.02790542
2.063440228
2.073304454
2.085331263
0.4818512724
0.482067727
0.4957861016
0.5145366913
0.5396360548
0.5594981057
0.5693615618
0.573203107
0.5783144958
0.5833894914
0.5845190177
0.6231449731
0.923805583
1.163462451
1.205851285
1.204613582
1.197611381
1.201250633
1.205964465
1.222103808
1.345577998
1.662125822
1.893694948
2.008206229
2.05744847
2.075455204
2.09863766
0.4814097289
0.4798257417
0.4928037758
0.5132251431
0.5395843999
0.5585543925
0.5676355384
0.5737822152
0.5795226941
0.5821052226
0.5851111188
0.7078533145
1.011046333
1.17081212
1.206335476
1.208486916
1.202949962
1.202579099
1.205902684
1.223747578
1.363956367
1.69690991
1.903408594
1.996083529
2.038126449
2.069708864
2.098346283
0.4803414073
0.4785738797
0.490661538
0.512743056
0.539416969
0.5589654435
0.5690705099
0.5759849245
0.5807444947
0.5798096795
0.5988389148
0.8075607772
1.06840891
1.163683333
1.19129304
1.203824179
1.205883999
1.204258867
1.206095585
1.225681608
1.380605674
1.729566448
1.930099206
1.992041181
2.016989315
2.05126952
2.091875861
0.4784566233
0.4789558595
0.4908468942
0.5118008997
0.5386387143
0.5582174103
0.5714825237
0.5782321586
0.5793115472
0.5789837318
0.6468863572
0.9429409738
1.139888408
1.170666647
1.176340055
1.190041822
1.199292015
1.202055918
1.20571929
1.228449512
1.395894126
1.752635724
1.962312735
1.991477171
2.011960771
2.036327312
2.076049636
0.4761566671
0.4790711141
0.4928865485
0.5121164395
0.539325498
0.5592855797
0.5732100668
0.5794697549
0.5766799239
0.5855762905
0.7679831341
1.075627865
1.176247561
1.184521367
1.176590203
1.178558541
1.190185503
1.196464816
1.201814957
1.229551528
1.412158049
1.762761292
1.98011034
1.998360889
2.010254214
2.035614557
2.071229147
0.4736382345
0.4787192603
0.4941329822
0.5138250229
0.5407116894
0.5615365127
0.5746977886
0.5776282647
0.5766011274
0.6201125503
0.9042666816
1.125194086
1.184598876
1.189260728
1.180875169
1.178401864
1.18130076
1.18990495
1.197014343
1.235409395
1.431757828
1.770248902
1.978438412
2.018049298
2.013413595
2.038523142
2.075305772
0.4709392393
0.4794336235
0.495192742
0.5152773753
0.5430575133
0.5642223959
0.5752120597
0.5750011703
0.5761831291
0.7016939324
0.9871701422
1.136292205
1.182261924
1.191259017
1.187180535
1.18195412
1.181027741
1.183491511
1.192068052
1.238105142
1.456452152
1.780161689
1.969136643
2.024447673
2.032794222
2.053040737
0.4678786056
0.4807490216
0.4968755802
0.5171160044
0.545383554
0.5664598003
0.5730784462
0.5706443921
0.5934591851
0.8126461678
1.072566837
1.154317475
1.171993092
1.184194406
1.189927761
1.186390037
1.184083712
1.183068709
1.188019741
1.244439807
1.486560128
1.795037798
1.957800218
2.020200522
2.04440096
2.072988758
0.4666728846
0.4819352966
0.4982672089
0.519063564
0.5472457961
0.5669637434
0.569262247
0.5703401299
0.6495561464
0.9444366302
1.128287387
1.169259981
1.16869262
1.170864839
1.182012409
1.186831972
1.186434793
1.185604591
1.189598034
1.254490434
1.519769499
1.816373687
1.949766016
2.010042042
2.045468841
2.07915537
0.4685611342
0.4830333316
0.4984576144
0.5204865682
0.5481922295
0.5655119468
0.5667013505
0.5794781445
0.7544362385
1.028685861
1.14526063
1.166686717
1.16704719
1.163969142
1.168953792
1.180776076
1.185861665
1.187462743
1.192305883
1.266509093
1.55252461
1.844667906
1.946378791
1.996450793
2.042615681
2.082086518
0.4714585843
0.4839962919
0.4987819899
0.5215704388
0.5486918851
0.5607706563
0.5642126452
0.6120077795
0.8584556079
1.070906228
1.147453743
1.164575286
1.16820727
1.16353899
1.164805886
1.170964642
1.180205358
1.185382225
1.192227225
1.277886354
1.57550257
1.869675042
1.949066183
1.991527585
2.029234813
2.078724346
0.4749934865
0.4855931517
0.4996174028
0.5221523623
0.547581316
0.5554096233
0.5662361245
0.6857705488
0.9724579626
1.115874666
1.143166312
1.159896192
1.167986042
1.166700245
1.166308858
1.167982755
1.172863507
1.178727903
1.19015933
1.289642307
1.588629101
1.873425803
1.961386718
1.99254705
2.030541754
2.073716677
0.480381295
0.4869932929
0.5002682491
0.5224193177
0.5446771287
0.551791176
0.5845175365
0.8121722672
1.085890764
1.152409512
1.149731995
1.155778263
1.16300307
1.167887764
1.169340512
1.169919044
1.171047184
1.17269756
1.18772275
1.3068691
1.599903421
1.870431257
1.976960208
2.001924423
2.039533889
0.4860295761
0.4880387652
0.5006637699
0.5220277489
0.5400244527
0.5511387464
0.6395564374
0.9292694221
1.12269689
1.162068086
1.161143918
1.157911176
1.157666604
1.163984731
1.170189386
1.172846306
1.172864798
1.171787393
1.189420404
1.329927452
1.617318058
1.862495335
1.979042253
2.025614478
2.062513035
0.4870781788
0.4893453743
0.501284945
0.520991102
0.5347386138
0.5612468262
0.7261562767
0.9820442445
1.122836592
1.159515073
1.163514403
1.160262821
1.157534319
1.158857716
1.167250874
1.174360097
1.176033832
1.174732201
1.194582518
1.358042847
1.642866848
1.856814793
1.976480591
2.038742923
2.087689399
0.4866312466
0.4901240184
0.5017640418
0.5186154444
0.5323207053
0.5904310829
0.8042509789
1.027668104
1.114818114
1.140869629
1.15577509
1.159506381
1.158925249
1.158750731
1.16317194
1.173292551
1.177506471
1.177554045
1.20218322
1.388895772
1.680283987
1.857503649
1.972402346
2.043597283
2.098352053
0.4840634564
0.4899040395
0.5010738499
0.5150696794
0.5364160322
0.6488046366
0.9244779946
1.085457566
1.116671543
1.124010136
1.143012889
1.154691118
1.159545966
1.161045772
1.163209261
1.169353875
1.173661618
1.176316288
1.209005459
1.414929737
1.718918227
1.865598155
1.967550606
2.045576845
2.103260792
0.483180438
0.489727301
0.4993752623
0.5134957012
0.5550323599
0.7649104927
1.047410748
1.118551241
1.123705318
1.12415527
1.13132175
1.146594247
1.156826056
1.161736116
1.163614013
1.164483312
1.166105793
1.170403915
1.214371218
1.432650317
1.735634621
1.88395711
1.967901475
2.03723616
2.103240305
0.4825075482
0.4894290669
0.4972636677
0.5155732102
0.6061092035
0.8908043841
1.084856253
1.124847838
1.131599733
1.126745808
1.127824226
1.13469619
1.147184401
1.155852899
1.159946637
1.16087569
1.16026015
1.163760276
1.221796356
1.450044494
1.74217822
1.905383424
1.97532703
2.03835987
2.096049946
0.4820512703
0.4903602931
0.4976646149
0.5293275841
0.6885151254
0.9382983055
1.07256631
1.115329611
1.128456574
1.127621377
1.126777193
1.126779704
1.13325401
1.144961025
1.1547575
1.158768685
1.15807038
1.160540255
1.232856664
1.471262737
1.745622285
1.91707212
1.995845262
2.051250521
0.482755901
0.4917614827
0.5014014323
0.5605454495
0.7593011477
0.9779871069
1.067150717
1.093431427
1.11233663
1.120329419
1.122470279
1.121046947
1.123449804
1.13290509
1.147896159
1.155636012
1.156717799
1.16069713
1.247513623
1.498352591
1.751438191
1.922417087
2.021842289
2.077901203
0.4879918763
0.4949799616
0.5123602999
0.6127408024
0.8482109786
1.021013647
1.06393964
1.065432559
1.080996181
1.100395256
1.110453929
1.114194592
1.116661179
1.124104681
1.137148279
1.147350344
1.151489952
1.159388535
1.264585591
1.530710658
1.761595101
1.92533367
2.033345678
2.098257473
0.4943676103
0.5022337489
0.5357969065
0.6930692291
0.9463810229
1.029723031
1.044646552
1.047932993
1.058379528
1.075236939
1.094093217
1.103612519
1.108439927
1.115522993
1.124206532
1.131456995
1.13815919
1.152380755
1.280193905
1.564286943
1.77642025
1.927754715
2.039988314
2.104707097
0.5001376563
0.5121348403
0.5759376902
0.8051294452
0.9828259199
1.021279521
1.029375991
1.035397663
1.043622991
1.054766602
1.073218553
1.087026808
1.095488681
1.10349013
1.108102536
1.112076274
1.118875307
1.140196083
1.291462616
1.593171094
1.798982863
1.931009247
2.040399225
2.107008586
0.5120932946
0.5291383185
0.645309688
0.8772795695
0.9880385732
1.003120429
1.016725804
1.024947704
1.033370702
1.040307882
1.049684022
1.061632781
1.07414111
1.083656977
1.089943855
1.09489705
1.100283726
1.126838359
1.298479623
1.611537698
1.827431179
1.939967662
2.027796366
2.100872781
0.5230368097
0.5552577607
0.7102636349
0.9058601363
0.9906172854
0.9973645782
0.9983630315
1.013722465
1.022121753
1.026490565
1.030097544
1.035509798
1.048966577
1.063261014
1.072558492
1.077227557
1.082169765
1.112666531
1.303357179
1.620045902
1.853307212
1.955102678
2.026277532
0.5361277176
0.5968168629
0.7743151624
0.9414881874
0.9921611187
0.990741953
0.990140983
0.9978254034
1.008910519
1.013753493
1.015939831
1.020859406
1.03105283
1.044068513
1.055508008
1.060206464
1.064904441
1.10040675
1.309886714
1.625487768
1.870870626
1.982265976
2.036864853
0.5565280985
0.6604712411
0.8596554772
0.968257988
0.9884423627
0.9868040091
0.9821159834
0.9834648234
0.9942278034
1.003516438
1.009309755
1.014373131
1.023113259
1.03272534
1.040329816
1.043632258
1.049873893
1.093332756
1.320820859
1.634272542
1.883381258
2.006934274
2.057258834
0.5748885991
0.7356478726
0.9253504238
0.9674978377
0.972343674
0.9718529471
0.9724164201
0.9752572105
0.9858891079
0.9981330239
1.010831439
1.018977976
1.024035097
1.027166754
1.02876887
1.029428025
1.037509286
1.091882259
1.337365558
1.648816761
1.894573424
2.017376144
2.078520806
0.5831776143
0.8130365588
0.9522502097
0.9582649452
0.9612047688
0.9635737149
0.9716866641
0.9752104987
0.987005497
1.004873206
1.018832274
1.024792685
1.026441844
1.024352303
1.022220814
1.021888176
1.030474786
1.09152578
1.343394701
1.664276496
1.900814016
2.022475386
2.086008594
0.6149329069
0.9045747059
0.9698260353
0.9626724957
0.9635653118
0.9648594224
0.9793012625
1.000073086
1.009504242
1.015158188
1.021016702
1.023810132
1.025449858
1.023089238
1.020325917
1.021143924
1.030506168
1.12120241
1.391231369
1.708240762
1.909643192
2.026707846
0.5786562357
0.9978138263
0.9981524853
0.9998620398
1.003989002
1.007566776
1.026981709
1.03176636
1.025588861
1.019937454
1.018184625
1.021046255
1.024042128
1.026267991
1.028179845
1.028812642
1.033825725
1.088288882
1.319900291
1.645658815
1.865930937
1.978463161
0.6538339994
0.9931082113
1.115263498
1.118787183
1.091189502
)
;

boundaryField
{
    inlet
    {
        type            calculated;
        value           nonuniform 0();
    }
    outlet
    {
        type            calculated;
        value           nonuniform 0();
    }
    bottom
    {
        type            calculated;
        value           nonuniform 0();
    }
    top
    {
        type            calculated;
        value           nonuniform 0();
    }
    obstacle
    {
        type            calculated;
        value           nonuniform List<scalar> 
79
(
0.5786562357
0.6538339994
0.5124408199
0.5068436535
0.5045702253
0.50362507
0.5035616502
0.5041336577
0.5037880356
0.5024482579
0.5038160424
0.5063753015
0.5078114221
0.5077036716
0.5062296326
0.5045284124
0.5033380658
0.5030097623
0.5039826492
0.5046872143
0.5036460496
0.5020497608
0.499265228
0.4924966141
0.4829131567
0.4800945025
0.4803262178
0.4811137323
0.4815656894
0.4809895864
0.4799455326
0.479352285
0.4785606232
0.4782293756
0.4784585343
0.4786268963
0.4788251422
0.4792459149
0.479864755
0.4804850683
0.479902376
0.4776873355
0.4781452713
0.4800089137
0.4816497265
0.4824526283
0.482497884
0.4822376921
0.4818512724
0.4814097289
0.4803414073
0.4784566233
0.4761566671
0.4736382345
0.4709392393
0.4678786056
0.4666728846
0.4685611342
0.4714585843
0.4749934865
0.480381295
0.4860295761
0.4870781788
0.4866312466
0.4840634564
0.483180438
0.4825075482
0.4820512703
0.482755901
0.4879918763
0.4943676103
0.5001376563
0.5120932946
0.5230368097
0.5361277176
0.5565280985
0.5748885991
0.5831776143
0.6149329069
)
;
    }
    defaultFaces
    {
        type            empty;
    }
    procBoundary15to9
    {