/*--------------------------------*- C++ -*----------------------------------*\
  =========                 |
  \\      /  F ield         | OpenFOAM: The Open Source CFD Toolbox
   \\    /   O peration     | Website:  https://openfoam.org
    \\  /    A nd           | Version:  7
     \\/     M anipulation  |
\*---------------------------------------------------------------------------*/
FoamFile
{
    version     2.0;
    format      ascii;
    class       volVectorField;
    location    "3.7";
    object      U;
}
// * * * * * * * * * * * * * * * * * * * * * * * * * * * * * * * * * * * * * //

dimensions      [0 1 -1 0 0 0 0];

internalField   nonuniform List<vector> 5((3 8.59117423e-16 0) (3 -1.308665642e-15 0) (3 1.994043694e-15 0) (2.987330669 -0.003718667151 0) (2.973872396 -0.00453971534 0));

boundaryField
{
    inlet
    {
        type            fixedValue;
        value           nonuniform 0();
    }
    outlet
    {
        type            inletOutlet;
        inletValue      nonuniform 0();
        value           nonuniform 0();
    }
    bottom
    {
        type            slip;
    }
    top
    {
        type            slip;
    }
    obstacle
    {
        type            slip;
    }
    defaultFaces
    {
        type            empty;
    }
    procBoundary13to7
    {
        type            processor;
        value           nonuniform List<vector> 4((3 -1.785982482e-15 0) (3 -1.974713634e-15 0) (2.998496492 -0.002428981842 0) (2.998496492 -0.002428981842 0));
    }
    procBoundary13to12
    {
        type            processor;
        value           nonuniform List<vector> 2((3 5.818699004e-16 0) (3 2.409351463e-15 0));
    }
    procBoundary13to14
    {
        type            processor;
        value           uniform (2.995417026 -0.007831942286 0);
    }
    procBoundary13to19
    {
        type            processor;
        value           nonuniform List<vector> 4((3 4.263070284e-16 0) (3 4.263070284e-16 0) (3 -5.088237349e-16 0) (3 4.263070284e-16 0));
    }
    procBoundary13to20
    {
        type            processor;
        value           uniform (2.95883109 -0.02051564165 0);
    }
}


// ************************************************************************* //
