/*--------------------------------*- C++ -*----------------------------------*\
  =========                 |
  \\      /  F ield         | OpenFOAM: The Open Source CFD Toolbox
   \\    /   O peration     | Website:  https://openfoam.org
    \\  /    A nd           | Version:  7
     \\/     M anipulation  |
\*---------------------------------------------------------------------------*/
FoamFile
{
    version     2.0;
    format      ascii;
    class       volScalarField;
    location    "1.6";
    object      rho;
}
// * * * * * * * * * * * * * * * * * * * * * * * * * * * * * * * * * * * * * //

dimensions      [1 -3 0 0 0 0 0];

internalField   nonuniform List<scalar> 
800
(
1.40000504
1.40000504
1.40000504
1.40000504
1.40000504
1.40000504
1.40000504
1.40000504
1.40000504
1.40000504
1.40000504
1.40000504
1.40000504
1.40000504
1.40000504
1.40000504
1.40000504
1.40000504
1.40000504
1.40000504
1.40000504
1.40000504
1.40000504
1.40000504
1.40000504
1.40000504
1.40000504
1.40000504
1.40000504
1.40000504
1.40000504
1.40000504
1.40000504
1.40000504
1.40000504
1.40000504
1.40000504
1.40000504
1.40000504
1.40000504
1.40000504
1.40000504
1.40000504
1.40000504
1.40000504
1.40000504
1.40000504
1.40000504
1.40000504
1.40000504
1.40000504
1.40000504
1.40000504
1.40000504
1.40000504
1.40000504
1.40000504
1.40000504
1.40000504
1.40000504
1.40000504
1.40000504
1.40000504
1.40000504
1.40000504
1.40000504
1.40000504
1.40000504
1.40000504
1.40000504
1.40000504
1.40000504
1.40000504
1.40000504
1.40000504
1.40000504
1.40000504
1.40000504
1.40000504
1.40000504
1.40000504
1.40000504
1.40000504
1.40000504
1.40000504
1.40000504
1.40000504
1.40000504
1.40000504
1.40000504
1.40000504
1.40000504
1.40000504
1.40000504
1.40000504
1.40000504
1.40000504
1.40000504
1.40000504
1.40000504
1.40000504
1.40000504
1.40000504
1.40000504
1.40000504
1.40000504
1.40000504
1.40000504
1.40000504
1.40000504
1.40000504
1.40000504
1.40000504
1.40000504
1.40000504
1.40000504
1.40000504
1.40000504
1.40000504
1.40000504
1.40000504
1.40000504
1.40000504
1.40000504
1.40000504
1.40000504
1.40000504
1.40000504
1.400005039
1.400005039
1.40000504
1.40000504
1.40000504
1.40000504
1.40000504
1.400005039
1.400005039
1.400005038
1.400005038
1.400005039
1.40000504
1.400005039
1.400005039
1.400005038
1.400005038
1.400005038
1.400005041
1.400005034
1.400005664
1.4000052
1.400005036
1.400005036
1.400005037
1.400005035
1.400005057
1.40000543
1.400007641
1.400017388
1.40010675
1.400090646
1.40000503
1.400005127
1.400006469
1.400016613
1.400060703
1.40021886
1.400650637
1.401704068
1.404301715
1.406520083
1.400025285
1.400159114
1.400661934
1.402073945
1.40511523
1.410918863
1.420410891
1.435154134
1.455616143
1.479852429
1.403201574
1.411652565
1.42543138
1.446901162
1.4722561
1.504098008
1.537296618
1.575395781
1.609010384
1.665293614
1.455410666
1.518758828
1.587863688
1.651739946
1.712802242
1.765780628
1.815049798
1.856457337
1.8898343
1.930205764
1.40000504
1.400005675
1.40004135
1.400959391
1.408571851
1.442635829
1.504635199
1.573098318
1.62130644
1.604925585
1.400005042
1.400024674
1.400561774
1.407551979
1.434461402
1.483271698
1.52034091
1.554129105
1.571038954
1.535860174
1.400005342
1.400363865
1.405326989
1.433969885
1.490977298
1.515133161
1.523700449
1.513003826
1.492777625
1.452129864
1.400029011
1.404034008
1.430809128
1.48816745
1.537162191
1.533591354
1.512489701
1.458962101
1.384190419
1.379304552
1.400882108
1.426212974
1.499019534
1.53966463
1.539306246
1.514567099
1.446702519
1.371546432
1.311385049
1.326849734
1.413867438
1.493562713
1.567005764
1.562012932
1.514529623
1.428588324
1.342429437
1.316216736
1.305410906
1.327221619
1.490222726
1.577076645
1.572388226
1.52264365
1.40219918
1.303063465
1.275875172
1.286393406
1.31714418
1.36341294
1.629063754
1.618554412
1.518002658
1.360755212
1.283631348
1.267379494
1.277609423
1.314217215
1.352565076
1.375326498
1.664551377
1.520170257
1.294614865
1.196654477
1.212755371
1.256933367
1.329771293
1.362956143
1.366520493
1.372661626
1.559805654
1.206440489
1.142762176
1.187618782
1.273950304
1.338762897
1.352793835
1.362132963
1.361738857
1.361696946
1.025547414
1.028168176
1.154056136
1.309419551
1.364996207
1.370542596
1.342926624
1.351663677
1.350179287
1.35151698
0.9962294927
1.044029067
1.209851308
1.343225154
1.365913383
1.370090238
1.341691812
1.350055421
1.351342938
1.350211784
1.011291008
1.0692079
1.247413933
1.355286769
1.367867171
1.369977162
1.339923206
1.346965712
1.350281559
1.351086123
1.020187353
1.099583785
1.288043091
1.360875822
1.369375903
1.369691141
1.334489748
1.33870229
1.345334209
1.347548323
1.02923425
1.136511949
1.321845754
1.362784192
1.360055877
1.358487637
1.323139698
1.328446619
1.333394745
1.33707573
1.039848909
1.173773243
1.345111025
1.355265994
1.349565199
1.348977094
1.314119851
1.319194124
1.323858443
1.328690547
1.049589976
1.214268238
1.356923175
1.348458206
1.341428078
1.342492557
1.306575313
1.310600122
1.31773367
1.322409612
1.052767543
1.255206167
1.353934436
1.336169105
1.331003574
1.333708979
1.298495861
1.309508609
1.314621923
1.320643343
1.050877097
1.281719381
1.352114703
1.331128543
1.329367077
1.331940594
1.296737307
1.310539293
1.315656202
1.319106703
1.039396974
1.33333642
1.353818432
1.329637571
1.332387531
1.333020142
1.296245313
1.309686652
1.31830098
1.318103439
1.040292799
1.311435238
1.35114328
1.329727172
1.332137408
1.333946162
1.29640678
1.310848556
1.318934919
1.319356908
1.049679301
1.269205373
1.354346825
1.332166327
1.331554622
1.333718163
1.29661595
1.308162238
1.316363986
1.319740622
1.052184798
1.257014332
1.356442288
1.336409294
1.330310725
1.333120877
1.2986335
1.306736049
1.312666646
1.320142561
1.049770044
1.22569761
1.357043498
1.347027643
1.341163725
1.342778104
1.306696834
1.313627727
1.318853067
1.324850361
1.040131611
1.177054687
1.343705045
1.354537213
1.350229983
1.349353262
1.313844703
1.320505905
1.325366486
1.330412935
1.029590824
1.131253555
1.31778965
1.363289456
1.3600249
1.357549112
1.322734718
1.327621056
1.331933107
1.335280004
1.0202009
1.097338801
1.286255045
1.361342329
1.369733203
1.369175631
1.33442233
1.337411383
1.342122597
1.343287277
1.011172743
1.071000134
1.25100461
1.355427553
1.368221313
1.370323061
1.340234705
1.346656524
1.350720496
1.353490366
0.9962140163
1.044989754
1.212094758
1.342754362
1.366071661
1.370632119
1.342114395
1.350471307
1.352043238
1.354907125
1.025595548
1.027822344
1.152142848
1.308270721
1.364671942
1.37101674
1.343110848
1.352241041
1.351513525
1.354359432
1.559798289
1.206402241
1.142742831
1.187652132
1.273962241
1.338831143
1.352788404
1.362021547
1.361443585
1.361458956
1.66455135
1.520192434
1.294611323
1.196668372
1.212752516
1.256974544
1.329804742
1.362934548
1.366447292
1.372628259
1.629063761
1.618552807
1.517999042
1.360754475
1.283646006
1.267390417
1.277630598
1.314260773
1.35253559
1.375299764
1.490222813
1.577075665
1.57238762
1.522646821
1.402207943
1.303054335
1.275891067
1.286423969
1.317161735
1.363399633
1.413867476
1.49356259
1.567005214
1.562012991
1.514525818
1.428591177
1.342423569
1.316239513
1.305429281
1.327222726
1.400882116
1.4262129
1.49901878
1.539664628
1.539305516
1.514568414
1.446703072
1.371540095
1.311393652
1.326848914
1.400029012
1.404033974
1.430808854
1.48816742
1.537161691
1.533591167
1.512489467
1.458960991
1.38419347
1.379303313
1.400005342
1.40036386
1.405326971
1.433969675
1.490976837
1.515133435
1.523699787
1.513002214
1.492777976
1.452131286
1.400005042
1.400024674
1.400561776
1.407551872
1.434461385
1.48327175
1.520340629
1.554128058
1.571037477
1.535859991
1.40000504
1.400005675
1.400041351
1.400959378
1.408571801
1.442635738
1.504635304
1.573097682
1.621303833
1.604922397
1.455410666
1.518758828
1.587863689
1.651739945
1.712802243
1.765780627
1.815049799
1.856457337
1.889834299
1.930205764
1.403201574
1.411652566
1.425431379
1.446901163
1.472256101
1.504098007
1.537296619
1.575395779
1.609010387
1.665293609
1.400025285
1.400159114
1.400661934
1.402073945
1.405115229
1.410918864
1.42041089
1.435154135
1.455616142
1.479852431
1.40000503
1.400005127
1.400006469
1.400016613
1.400060703
1.40021886
1.400650637
1.401704069
1.404301713
1.406520083
1.400005036
1.400005036
1.400005037
1.400005035
1.400005057
1.40000543
1.400007641
1.400017388
1.40010675
1.400090645
1.40000504
1.400005039
1.400005039
1.400005038
1.400005038
1.400005038
1.400005041
1.400005034
1.400005664
1.4000052
1.40000504
1.40000504
1.40000504
1.40000504
1.40000504
1.400005039
1.400005039
1.400005038
1.400005038
1.400005039
1.40000504
1.40000504
1.40000504
1.40000504
1.40000504
1.40000504
1.40000504
1.40000504
1.400005039
1.400005039
1.40000504
1.40000504
1.40000504
1.40000504
1.40000504
1.40000504
1.40000504
1.40000504
1.40000504
1.40000504
1.40000504
1.40000504
1.40000504
1.40000504
1.40000504
1.40000504
1.40000504
1.40000504
1.40000504
1.40000504
1.40000504
1.40000504
1.40000504
1.40000504
1.40000504
1.40000504
1.40000504
1.40000504
1.40000504
1.40000504
1.40000504
1.40000504
1.40000504
1.40000504
1.40000504
1.40000504
1.40000504
1.40000504
1.40000504
1.40000504
1.40000504
1.40000504
1.40000504
1.40000504
1.40000504
1.40000504
1.40000504
1.40000504
1.40000504
1.40000504
1.40000504
1.40000504
1.40000504
1.40000504
1.40000504
1.40000504
1.40000504
1.40000504
1.40000504
1.40000504
1.40000504
1.40000504
1.40000504
1.40000504
1.40000504
1.40000504
1.40000504
1.40000504
1.40000504
1.40000504
1.40000504
1.40000504
1.40000504
1.40000504
1.40000504
1.40000504
1.40000504
1.40000504
1.40000504
1.40000504
1.40000504
1.40000504
1.40000504
1.40000504
1.40000504
1.40000504
1.40000504
1.40000504
1.40000504
1.40000504
1.40000504
1.40000504
1.40000504
1.40000504
1.40000504
1.40000504
1.40000504
1.40000504
1.40000504
1.40000504
1.40000504
1.40000504
1.40000504
1.40000504
1.40000504
1.40000504
1.40000504
1.40000504
1.40000504
1.40000504
1.40000504
1.40000504
1.40000504
1.40000504
1.40000504
1.40000504
1.40000504
1.40000504
1.40000504
1.40000504
)
;

boundaryField
{
    inlet
    {
        type            calculated;
        value           uniform 1.40000504;
    }
    outlet
    {
        type            calculated;
        value           nonuniform List<scalar> 
40
(
1.361442157
1.372628159
1.375300414
1.363399941
1.32722288
1.326849088
1.379303303
1.452131245
1.53585998
1.604922381
1.319282061
1.319520882
1.320051531
1.324943912
1.330470165
1.335344279
1.343023872
1.353538315
1.355108198
1.35458688
1.351365365
1.350475995
1.351588717
1.34760999
1.336834969
1.328514206
1.322197562
1.320715608
1.319487021
1.318222539
1.604925557
1.53586016
1.452129842
1.379304531
1.326849797
1.327221676
1.363412941
1.375326589
1.372666841
1.36167496
)
;
    }
    bottom
    {
        type            calculated;
        value           nonuniform List<scalar> 
30
(
1.40000504
1.40000504
1.40000504
1.40000504
1.40000504
1.40000504
1.40000504
1.40000504
1.40000504
1.40000504
1.40000504
1.40000504
1.40000504
1.40000504
1.40000504
1.40000504
1.40000504
1.40000504
1.40000504
1.40000504
1.40000504
1.400005675
1.40004135
1.400959391
1.408571851
1.442635829
1.504635199
1.573098318
1.62130644
1.604925585
)
;
    }
    top
    {
        type            calculated;
        value           nonuniform List<scalar> 
30
(
1.40000504
1.40000504
1.40000504
1.40000504
1.40000504
1.40000504
1.40000504
1.40000504
1.40000504
1.40000504
1.40000504
1.40000504
1.40000504
1.40000504
1.40000504
1.40000504
1.40000504
1.40000504
1.40000504
1.40000504
1.40000504
1.400005675
1.400041351
1.400959378
1.408571801
1.442635738
1.504635304
1.573097682
1.621303833
1.604922397
)
;
    }
    obstacle
    {
        type            calculated;
        value           nonuniform List<scalar> 
40
(
1.455410666
1.518758828
1.587863689
1.651739945
1.712802243
1.765780627
1.815049799
1.856457337
1.889834299
1.930205764
1.040292799
1.049679301
1.052184798
1.049770044
1.040131611
1.029590824
1.0202009
1.011172743
0.9962140163
1.025595548
1.025547414
0.9962294927
1.011291008
1.020187353
1.02923425
1.039848909
1.049589976
1.052767543
1.050877097
1.039396974
1.455410666
1.518758828
1.587863688
1.651739946
1.712802242
1.765780628
1.815049798
1.856457337
1.8898343
1.930205764
)
;
    }
    defaultFaces
    {
        type            empty;
    }
}


// ************************************************************************* //
