/*--------------------------------*- C++ -*----------------------------------*\
  =========                 |
  \\      /  F ield         | OpenFOAM: The Open Source CFD Toolbox
   \\    /   O peration     | Website:  https://openfoam.org
    \\  /    A nd           | Version:  7
     \\/     M anipulation  |
\*---------------------------------------------------------------------------*/
FoamFile
{
    version     2.0;
    format      ascii;
    class       volScalarField;
    location    "2.8";
    object      p;
}
// * * * * * * * * * * * * * * * * * * * * * * * * * * * * * * * * * * * * * //

dimensions      [1 -1 -2 0 0 0 0];

internalField   nonuniform List<scalar> 
22
(
0.7276566555
1.033896622
0.7308655541
0.9618961145
0.7170494286
0.9173293673
0.7046935846
0.8693556439
1.027075525
0.6943246199
0.8261324187
1.003498603
0.6856449687
0.7851538621
0.9714166722
0.6779468731
0.7480166764
0.9317627387
0.6699956605
0.7208335831
0.8894759539
0.656217757
)
;

boundaryField
{
    inlet
    {
        type            fixedValue;
        value           nonuniform 0();
    }
    outlet
    {
        type            zeroGradient;
    }
    bottom
    {
        type            slip;
    }
    top
    {
        type            slip;
    }
    obstacle
    {
        type            zeroGradient;
    }
    defaultFaces
    {
        type            empty;
    }
    procBoundary21to15
    {
        type            processor;
        value           nonuniform List<scalar> 2(0.7311267946 1.020941593);
    }
    procBoundary21to22
    {
        type            processor;
        value           nonuniform List<scalar> 7(1.049583319 1.042565844 1.036327661 1.036327661 1.020478892 1.018346415 1.019034106);
    }
    procBoundary21to27
    {
        type            processor;
        value           nonuniform List<scalar> 4(0.6974919673 0.8492057716 0.6974919673 0.6824862132);
    }
    procBoundary21to28
    {
        type            processor;
        value           nonuniform List<scalar> 2(1.011855066 1.001655745);
    }
}


// ************************************************************************* //
