/*--------------------------------*- C++ -*----------------------------------*\
  =========                 |
  \\      /  F ield         | OpenFOAM: The Open Source CFD Toolbox
   \\    /   O peration     | Website:  https://openfoam.org
    \\  /    A nd           | Version:  7
     \\/     M anipulation  |
\*---------------------------------------------------------------------------*/
FoamFile
{
    version     2.0;
    format      ascii;
    class       volVectorField;
    location    "4.1";
    object      U;
}
// * * * * * * * * * * * * * * * * * * * * * * * * * * * * * * * * * * * * * //

dimensions      [0 1 -1 0 0 0 0];

internalField   nonuniform List<vector> 
2223
(
(3.123238787 -0.5445079153 0)
(3.124208954 -0.5443449573 0)
(3.125169018 -0.5452090118 0)
(3.12497903 -0.5530242305 0)
(3.124412179 -0.5557817707 0)
(3.125316708 -0.5552483897 0)
(3.126730947 -0.5605802437 0)
(3.126055824 -0.5679586297 0)
(3.125980951 -0.5692924944 0)
(3.127317437 -0.5702759119 0)
(3.12799317 -0.5774900844 0)
(3.127106865 -0.5805068672 0)
(3.12773245 -0.5799488118 0)
(3.128965665 -0.5831657501 0)
(3.128316795 -0.5885108415 0)
(3.128205338 -0.5886392679 0)
(3.128742471 -0.5887450927 0)
(3.12948149 -0.5940733634 0)
(3.128975132 -0.5968076075 0)
(3.128886043 -0.5972687531 0)
(3.12959811 -0.60013917 0)
(3.130159007 -0.6031510087 0)
(3.115793676 -0.4817237178 0)
(3.117936636 -0.4880037669 0)
(3.117555344 -0.4976302608 0)
(3.118119625 -0.4987911012 0)
(3.119426515 -0.4983068303 0)
(3.119582564 -0.5063271988 0)
(3.118861432 -0.5109070411 0)
(3.119800216 -0.5099328555 0)
(3.12052271 -0.513187226 0)
(3.120878253 -0.52262141 0)
(3.120767311 -0.5254583684 0)
(3.122080314 -0.5257530429 0)
(3.123685028 -0.5328965534 0)
(3.122852281 -0.5400936566 0)
(3.123336294 -0.5409608726 0)
(3.125050356 -0.5425282192 0)
(3.125179349 -0.550158487 0)
(3.124476218 -0.5525544985 0)
(3.125201992 -0.5516405772 0)
(3.126177917 -0.5562079163 0)
(3.12535621 -0.5620301277 0)
(3.12555285 -0.5618977334 0)
(3.126211432 -0.5629386068 0)
(3.127081301 -0.5706741396 0)
(3.12650335 -0.5734058634 0)
(3.126874158 -0.5737090422 0)
(3.128115848 -0.5785845025 0)
(3.127948263 -0.5830205742 0)
(3.127873669 -0.5837559458 0)
(3.128340496 -0.5864591224 0)
(3.12873866 -0.5908673686 0)
(3.113001636 -0.4619011186 0)
(3.114381477 -0.4628795505 0)
(3.115006719 -0.4729758388 0)
(3.114483061 -0.4777080673 0)
(3.115307626 -0.4777657091 0)
(3.117186855 -0.4850406618 0)
(3.117361162 -0.4955946235 0)
(3.117423093 -0.498105957 0)
(3.119345952 -0.4998210162 0)
(3.12062025 -0.5088311455 0)
(3.11953097 -0.5144323645 0)
(3.120455748 -0.5148632209 0)
(3.122199569 -0.5171659906 0)
(3.121782544 -0.5248140671 0)
(3.121336579 -0.5266038538 0)
(3.122222756 -0.5253117031 0)
(3.123440234 -0.5314985028 0)
(3.122580502 -0.5381808001 0)
(3.122856878 -0.5384421665 0)
(3.124125098 -0.5406693922 0)
(3.124676815 -0.549160065 0)
(3.124174197 -0.5514265635 0)
(3.124813906 -0.5515967246 0)
(3.126069198 -0.5577079588 0)
(3.125462126 -0.562008676 0)
(3.125756788 -0.5618855965 0)
(3.126651158 -0.5644637351 0)
(3.126652276 -0.5698748485 0)
(3.126664276 -0.570641642 0)
(3.126896587 -0.5707708853 0)
(3.127403041 -0.575758195 0)
(3.109799613 -0.4460270913 0)
(3.110803975 -0.4461881208 0)
(3.113041128 -0.4548243447 0)
(3.112664861 -0.4651067951 0)
(3.113288289 -0.4667183848 0)
(3.11545489 -0.4680815805 0)
(3.115942172 -0.4770930981 0)
(3.115176396 -0.481259056 0)
(3.116380618 -0.4799211932 0)
(3.116993009 -0.482934008 0)
(3.116758517 -0.4923606658 0)
(3.116753193 -0.4944196063 0)
(3.117836026 -0.4941072237 0)
(3.11969458 -0.5024762929 0)
(3.118988299 -0.5097689897 0)
(3.119600877 -0.510279208 0)
(3.121247286 -0.5133135523 0)
(3.121542074 -0.5223393973 0)
(3.121207998 -0.5243932888 0)
(3.1222037 -0.5243932307 0)
(3.123156505 -0.5307376111 0)
(3.122400158 -0.5346887563 0)
(3.122736436 -0.5342523012 0)
(3.123738375 -0.5376879086 0)
(3.123567925 -0.5440945029 0)
(3.123629416 -0.5446450689 0)
(3.124025642 -0.5453577023 0)
(3.125086297 -0.552431314 0)
(3.124713813 -0.5562106904 0)
(3.125281074 -0.5560769163 0)
(3.125931404 -0.5589744208 0)
(3.106867697 -0.4266310271 0)
(3.107888744 -0.4279815647 0)
(3.109629355 -0.4302057273 0)
(3.110347422 -0.4416690879 0)
(3.110010996 -0.4461888523 0)
(3.111364998 -0.445848879 0)
(3.112849334 -0.45293576 0)
(3.112620281 -0.4629607582 0)
(3.112922652 -0.4649232826 0)
(3.114582429 -0.4667849355 0)
(3.116367759 -0.4774233864 0)
(3.115332136 -0.4835842641 0)
(3.116336092 -0.4841988019 0)
(3.118563277 -0.4884402103 0)
(3.118207954 -0.4970862254 0)
(3.117852755 -0.4987914933 0)
(3.119030882 -0.4988319732 0)
(3.120116925 -0.5061686881 0)
(3.119287846 -0.5104483334 0)
(3.119658765 -0.5096979047 0)
(3.120978617 -0.5141212543 0)
(3.121000666 -0.5222318564 0)
(3.120998208 -0.5234806086 0)
(3.121941513 -0.5247784334 0)
(3.122796448 -0.5322103298 0)
(3.12229289 -0.5355124902 0)
(3.122981267 -0.5354635321 0)
(3.124044583 -0.5392298019 0)
(3.123611223 -0.5450335944 0)
(3.123788841 -0.5459495458 0)
(3.124768362 -0.5455827992 0)
(3.105070622 -0.4098739679 0)
(3.104910691 -0.4139816427 0)
(3.106296611 -0.4137315336 0)
(3.108099019 -0.4225743635 0)
(3.107554135 -0.432165279 0)
(3.108315326 -0.4334740303 0)
(3.110463887 -0.4363212544 0)
(3.111627201 -0.4477568404 0)
(3.110859459 -0.4527734364 0)
(3.112550698 -0.4526362438 0)
(3.114157728 -0.4567548967 0)
(3.113203448 -0.4650991404 0)
(3.11333264 -0.4658661415 0)
(3.113992546 -0.4649348145 0)
(3.115300183 -0.4740368548 0)
(3.114645622 -0.4801809166 0)
(3.115389244 -0.4801049353 0)
(3.117219531 -0.4849651705 0)
(3.117512918 -0.4940599934 0)
(3.117594184 -0.495516109 0)
(3.118674136 -0.4970053302 0)
(3.119464627 -0.504972 0)
(3.119135092 -0.5079974647 0)
(3.119824366 -0.5076480496 0)
(3.120743774 -0.5124274791 0)
(3.120424684 -0.5186889446 0)
(3.120830359 -0.519581639 0)
(3.121765368 -0.5202204605 0)
(3.12224018 -0.5269186657 0)
(3.121712483 -0.5311258169 0)
(3.122581258 -0.5312875061 0)
(3.100579625 -0.3826943752 0)
(3.100950734 -0.3933466093 0)
(3.10233014 -0.3947898047 0)
(3.104517397 -0.3990556237 0)
(3.105440929 -0.4117265723 0)
(3.10528011 -0.4160679369 0)
(3.107096777 -0.4157183519 0)
(3.108425666 -0.4226438754 0)
(3.107881267 -0.4322619325 0)
(3.108420006 -0.4336615221 0)
(3.10982876 -0.4353186618 0)
(3.111781002 -0.4468102196 0)
(3.11094438 -0.4532329505 0)
(3.111856397 -0.4540180587 0)
(3.114254612 -0.4604504549 0)
(3.113957285 -0.4693052476 0)
(3.114027782 -0.4706446189 0)
(3.115535203 -0.472364869 0)
(3.116444868 -0.4806647929 0)
(3.115879122 -0.4839085809 0)
(3.116509033 -0.4840974911 0)
(3.117742303 -0.4899387396 0)
(3.117361914 -0.495723535 0)
(3.117842145 -0.4960216995 0)
(3.118872249 -0.497977266 0)
(3.119446778 -0.5058877355 0)
(3.119027021 -0.5091889184 0)
(3.120076048 -0.5092301411 0)
(3.12108747 -0.5127518214 0)
(3.120806535 -0.5195546887 0)
(3.120595967 -0.5215647893 0)
(3.098755574 -0.3663297063 0)
(3.099616509 -0.3789193191 0)
(3.099735023 -0.3829963749 0)
(3.101655242 -0.3835753233 0)
(3.103341261 -0.39294027 0)
(3.102651491 -0.4018297874 0)
(3.103542894 -0.4027942923 0)
(3.10547139 -0.4056074926 0)
(3.10678352 -0.4177723993 0)
(3.106007882 -0.4231616013 0)
(3.107655948 -0.4235917424 0)
(3.109993525 -0.4298042022 0)
(3.109379511 -0.4388225438 0)
(3.109627431 -0.4400066737 0)
(3.111071589 -0.4406234966 0)
(3.111613988 -0.4491167491 0)
(3.111065666 -0.4524670443 0)
(3.111466653 -0.452034027 0)
(3.113036491 -0.4586928294 0)
(3.113168716 -0.4663393665 0)
(3.113691928 -0.4673044988 0)
(3.114933835 -0.4703816291 0)
(3.11573793 -0.4790039294 0)
(3.115704513 -0.4820388393 0)
(3.116800209 -0.482429531 0)
(3.117682064 -0.4876910312 0)
(3.117186504 -0.4938704308 0)
(3.117642313 -0.4949450421 0)
(3.118750393 -0.4952979736 0)
(3.119445875 -0.5019466734 0)
(3.11880951 -0.5073476746 0)
(3.093489423 -0.3414338367 0)
(3.094959142 -0.3520653121 0)
(3.095001325 -0.3617311098 0)
(3.096430071 -0.3629374104 0)
(3.09832104 -0.367470514 0)
(3.100125827 -0.3810993378 0)
(3.100058151 -0.3863941255 0)
(3.102194602 -0.3872477715 0)
(3.104106943 -0.3952038785 0)
(3.103469979 -0.404562894 0)
(3.104148441 -0.4057723033 0)
(3.105558306 -0.4069263266 0)
(3.10679726 -0.4177300678 0)
(3.106282238 -0.4231605803 0)
(3.1071691 -0.4240602977 0)
(3.109621086 -0.4320360712 0)
(3.10975836 -0.4407187086 0)
(3.109933829 -0.4426858044 0)
(3.111609516 -0.4469193939 0)
(3.112304225 -0.4548504932 0)
(3.112341683 -0.4574282627 0)
(3.113285974 -0.4583810887 0)
(3.114219466 -0.4646386957 0)
(3.113841661 -0.4700491802 0)
(3.11452918 -0.4709855992 0)
(3.115750394 -0.4729962654 0)
(3.116169627 -0.48051084 0)
(3.115681129 -0.484498104 0)
(3.116824787 -0.4849667845 0)
(3.118031854 -0.4872861033 0)
(3.1178066 -0.4943459419 0)
(3.089897179 -0.3267636179 0)
(3.092737726 -0.3347688863 0)
(3.093702805 -0.3483688126 0)
(3.093892785 -0.3530030643 0)
(3.096326712 -0.3547513607 0)
(3.098470731 -0.3643726941 0)
(3.097821174 -0.3732140215 0)
(3.098762316 -0.37443162 0)
(3.100553988 -0.376901019 0)
(3.101798788 -0.3887240918 0)
(3.10122576 -0.3942700987 0)
(3.10263448 -0.3956299753 0)
(3.105200918 -0.4031050396 0)
(3.105004121 -0.411781082 0)
(3.105282849 -0.413804083 0)
(3.107155941 -0.4165435473 0)
(3.10790471 -0.4239458691 0)
(3.107706144 -0.4269908205 0)
(3.108361861 -0.4283618829 0)
(3.10917912 -0.4343903414 0)
(3.109216345 -0.4394265306 0)
(3.109854399 -0.4405614882 0)
(3.11087896 -0.4443632629 0)
(3.111680652 -0.4527726929 0)
(3.11187121 -0.4563910815 0)
(3.113258622 -0.4572629989 0)
(3.114207612 -0.4619872874 0)
(3.114095128 -0.4693834491 0)
(3.114193127 -0.471946299 0)
(3.115642918 -0.472700807 0)
(3.116445364 -0.4780419871 0)
(3.086539418 -0.3137751863 0)
(3.088634357 -0.3142868863 0)
(3.089882656 -0.3244710745 0)
(3.089679468 -0.3332483903 0)
(3.091091133 -0.334235745 0)
(3.092554116 -0.3379897567 0)
(3.094337882 -0.3512843729 0)
(3.094453725 -0.3572449626 0)
(3.096400971 -0.3586434689 0)
(3.098700846 -0.3669087708 0)
(3.098864077 -0.3768976121 0)
(3.099524675 -0.379617888 0)
(3.101623989 -0.3823822689 0)
(3.10235671 -0.3904522664 0)
(3.102082424 -0.3954156098 0)
(3.10294164 -0.3978855382 0)
(3.104577908 -0.4043503865 0)
(3.105188925 -0.4112690159 0)
(3.105712985 -0.4147015064 0)
(3.107154835 -0.4203014082 0)
(3.108038647 -0.4278681569 0)
(3.108425807 -0.4317561518 0)
(3.10970603 -0.4342941672 0)
(3.110558982 -0.4396737287 0)
(3.110321244 -0.4452797224 0)
(3.110929478 -0.4471645104 0)
(3.112116483 -0.4482686149 0)
(3.112606399 -0.4546174099 0)
(3.112255147 -0.4603379668 0)
(3.113030939 -0.4619804018 0)
(3.11459691 -0.4636044743 0)
(3.081322905 -0.2930904379 0)
(3.08332914 -0.2954716204 0)
(3.085877579 -0.3027848278 0)
(3.087721136 -0.3174257807 0)
(3.087931634 -0.3230271675 0)
(3.090402509 -0.3262531029 0)
(3.092972987 -0.3362067624 0)
(3.092774995 -0.3454595269 0)
(3.09358858 -0.3484736045 0)
(3.095937089 -0.3516962292 0)
(3.096930133 -0.3606825203 0)
(3.096702999 -0.3665120077 0)
(3.097916506 -0.3692871592 0)
(3.099905217 -0.3750851506 0)
(3.100508222 -0.3831900904 0)
(3.100716647 -0.3882003678 0)
(3.10228577 -0.3925877626 0)
(3.103721919 -0.3981504487 0)
(3.104225404 -0.4027363913 0)
(3.104933459 -0.4056319075 0)
(3.105375922 -0.4095583679 0)
(3.105646984 -0.4145497462 0)
(3.106396724 -0.4174434315 0)
(3.107099139 -0.4200958794 0)
(3.107660774 -0.4268220571 0)
(3.10804801 -0.432443894 0)
(3.10930636 -0.4345463786 0)
(3.110475601 -0.4373585021 0)
(3.110742816 -0.444728943 0)
(3.110623115 -0.4490538379 0)
(3.111925842 -0.4500161076 0)
(3.079525953 -0.2808647185 0)
(3.08017239 -0.2862533098 0)
(3.08275951 -0.2882259004 0)
(3.084822286 -0.2982526787 0)
(3.084733934 -0.30713229 0)
(3.086150152 -0.3089317113 0)
(3.087727452 -0.311897427 0)
(3.088572767 -0.322334314 0)
(3.089001924 -0.3293948877 0)
(3.090849203 -0.3327773111 0)
(3.092777814 -0.3384313955 0)
(3.093856051 -0.3480249143 0)
(3.094558619 -0.3542347915 0)
(3.096427775 -0.3578912913 0)
(3.09765734 -0.3626004723 0)
(3.098202033 -0.3699838385 0)
(3.098874811 -0.3748989828 0)
(3.099923292 -0.377733578 0)
(3.100867305 -0.3832805144 0)
(3.101678367 -0.3895497201 0)
(3.102410622 -0.3939670369 0)
(3.103377736 -0.4000354678 0)
(3.104279409 -0.4062887026 0)
(3.105453814 -0.409984576 0)
(3.106514326 -0.4138614602 0)
(3.106921263 -0.4206964253 0)
(3.107131755 -0.4252000817 0)
(3.108497995 -0.4267003742 0)
(3.109172951 -0.4299603322 0)
(3.109164908 -0.436855104 0)
(3.109292171 -0.4398695869 0)
(3.073673089 -0.2528931063 0)
(3.074835292 -0.2641901508 0)
(3.076885682 -0.2674508801 0)
(3.079148231 -0.273179849 0)
(3.081247154 -0.2868540932 0)
(3.08197143 -0.2938377549 0)
(3.084278161 -0.298489956 0)
(3.086764582 -0.3071775785 0)
(3.087499274 -0.3165288419 0)
(3.088272336 -0.3229762655 0)
(3.090488078 -0.3274933657 0)
(3.091978101 -0.3324381873 0)
(3.09262713 -0.3409263194 0)
(3.093210631 -0.3466473524 0)
(3.094690065 -0.3486702285 0)
(3.095825077 -0.3542209132 0)
(3.096632789 -0.3630343253 0)
(3.097279561 -0.3673266341 0)
(3.098724406 -0.3713503058 0)
(3.100029476 -0.3786553638 0)
(3.10066047 -0.3833146499 0)
(3.101478887 -0.38595483 0)
(3.102224655 -0.3916063285 0)
(3.102796412 -0.3962760704 0)
(3.103592755 -0.3972115251 0)
(3.103475635 -0.4003828558 0)
(3.104377166 -0.4085619193 0)
(3.105013901 -0.4126107616 0)
(3.106404145 -0.4138900163 0)
(3.10729188 -0.4196253019 0)
(3.107521155 -0.4270115188 0)
(3.071326683 -0.238396855 0)
(3.073258607 -0.2518885443 0)
(3.073881117 -0.2586642384 0)
(3.076447156 -0.2626923598 0)
(3.079013666 -0.2716369605 0)
(3.079611119 -0.2808157331 0)
(3.080837686 -0.2858661054 0)
(3.083107932 -0.2898636146 0)
(3.083619849 -0.2948002541 0)
(3.084228186 -0.3029831992 0)
(3.085537241 -0.3094402496 0)
(3.087039672 -0.311687726 0)
(3.087835353 -0.3177544571 0)
(3.089600805 -0.3288424862 0)
(3.090736899 -0.3336161014 0)
(3.092511962 -0.3361786782 0)
(3.094114263 -0.3450488546 0)
(3.094389409 -0.3514983443 0)
(3.095313094 -0.3532751592 0)
(3.096744993 -0.3590038828 0)
(3.09762341 -0.3666504284 0)
(3.098169152 -0.3690655268 0)
(3.098797762 -0.3730154122 0)
(3.100389891 -0.382199361 0)
(3.100969869 -0.3871912258 0)
(3.102230376 -0.389342202 0)
(3.103275321 -0.3953765921 0)
(3.103493924 -0.4025550708 0)
(3.104276282 -0.4051479134 0)
(3.105617962 -0.4062653239 0)
(3.106113469 -0.4127167364 0)
(3.065738138 -0.2161446803 0)
(3.067652418 -0.2256854453 0)
(3.068805391 -0.23666077 0)
(3.070670051 -0.2417205336 0)
(3.073108767 -0.2471890011 0)
(3.074469222 -0.2566619238 0)
(3.075919844 -0.2657987502 0)
(3.078183164 -0.2731505711 0)
(3.080303518 -0.2784921583 0)
(3.081609883 -0.2863844104 0)
(3.083087554 -0.2970911583 0)
(3.084295685 -0.3029170362 0)
(3.086363553 -0.3059366716 0)
(3.088169273 -0.314964903 0)
(3.088404764 -0.3230028485 0)
(3.089621273 -0.3248508428 0)
(3.091436651 -0.3295266405 0)
(3.092329093 -0.3393646523 0)
(3.09259693 -0.3425747841 0)
(3.093769727 -0.3450973252 0)
(3.09567914 -0.3543703782 0)
(3.096040176 -0.3602173037 0)
(3.097061714 -0.3617199209 0)
(3.098270232 -0.367241446 0)
(3.098796228 -0.3749115243 0)
(3.099709081 -0.3772101072 0)
(3.100508873 -0.3778493333 0)
(3.101017741 -0.3850148445 0)
(3.101187627 -0.3911575374 0)
(3.102297196 -0.3925016079 0)
(3.103139084 -0.3949830624 0)
(3.06145927 -0.2043766527 0)
(3.064517287 -0.2110755199 0)
(3.066819891 -0.2231832164 0)
(3.067777455 -0.2313796855 0)
(3.070053142 -0.2377881862 0)
(3.072581102 -0.2450924917 0)
(3.073870768 -0.2529706982 0)
(3.075293525 -0.2617856627 0)
(3.077119154 -0.2677673269 0)
(3.07878808 -0.2703601528 0)
(3.079864099 -0.27840056 0)
(3.080590249 -0.2870640907 0)
(3.082061528 -0.288882944 0)
(3.082829181 -0.291641581 0)
(3.084560105 -0.3033703392 0)
(3.085217443 -0.3089720545 0)
(3.086775698 -0.3107790563 0)
(3.08906819 -0.3200647034 0)
(3.089686416 -0.3281127441 0)
(3.090796111 -0.3302526166 0)
(3.092412178 -0.3357387556 0)
(3.093248512 -0.3441443797 0)
(3.094009734 -0.3468106371 0)
(3.09469207 -0.3484979036 0)
(3.095988055 -0.357373608 0)
(3.096415212 -0.3639366661 0)
(3.097672658 -0.3657334386 0)
(3.099027169 -0.3699525212 0)
(3.100014971 -0.3793089406 0)
(3.099982843 -0.3839523953 0)
(3.101599047 -0.3852293175 0)
(3.056758132 -0.1877589235 0)
(3.059259718 -0.1923400208 0)
(3.061652303 -0.2002226747 0)
(3.063054874 -0.2103714985 0)
(3.064736719 -0.2177363937 0)
(3.067216568 -0.2240676925 0)
(3.068482382 -0.2294347835 0)
(3.069712741 -0.2383560225 0)
(3.07180826 -0.2484951435 0)
(3.073924408 -0.2527926356 0)
(3.075224674 -0.2575508323 0)
(3.07763614 -0.2703770319 0)
(3.078512223 -0.2775771849 0)
(3.080483549 -0.2806715187 0)
(3.082941029 -0.2897107346 0)
(3.083449691 -0.2988170444 0)
(3.084499357 -0.3017307375 0)
(3.086659735 -0.3067090745 0)
(3.087695051 -0.3157872135 0)
(3.088163273 -0.3191767701 0)
(3.089344944 -0.3216209431 0)
(3.091036718 -0.3308620306 0)
(3.09127276 -0.33724449 0)
(3.092460855 -0.3388064184 0)
(3.093940405 -0.3433866765 0)
(3.094822488 -0.3527822446 0)
(3.095107198 -0.3568145637 0)
(3.096851677 -0.3574219569 0)
(3.097611387 -0.3621156496 0)
(3.097772009 -0.3700853431 0)
(3.098267573 -0.3728057004 0)
(3.05303361 -0.1715081389 0)
(3.054756133 -0.179150298 0)
(3.057515748 -0.1852600615 0)
(3.0600272 -0.1949203048 0)
(3.061671631 -0.2047381763 0)
(3.063661478 -0.21315263 0)
(3.066026311 -0.2197364001 0)
(3.067793284 -0.2262258429 0)
(3.069608076 -0.2366849207 0)
(3.070918232 -0.2443186859 0)
(3.072968066 -0.2473804549 0)
(3.074925276 -0.2546896699 0)
(3.075792051 -0.2644365674 0)
(3.077085962 -0.2674615743 0)
(3.078813415 -0.2706858202 0)
(3.079876369 -0.2801744753 0)
(3.08033105 -0.2849047031 0)
(3.081536718 -0.2872901248 0)
(3.083676371 -0.2965835682 0)
(3.08446887 -0.3041578215 0)
(3.085678282 -0.3058521623 0)
(3.087053847 -0.3110935768 0)
(3.088520238 -0.3215166851 0)
(3.08928537 -0.3256588398 0)
(3.090882339 -0.3267211043 0)
(3.091748259 -0.3334256698 0)
(3.092196087 -0.3418265878 0)
(3.09317044 -0.3445040699 0)
(3.094488375 -0.3462374035 0)
(3.095881376 -0.3549369049 0)
(3.095986433 -0.3622458329 0)
(3.048176486 -0.1511675155 0)
(3.050481121 -0.1629674918 0)
(3.052686684 -0.1699828933 0)
(3.055261434 -0.1760544173 0)
(3.057038356 -0.1845700211 0)
(3.058779371 -0.1940576288 0)
(3.060914295 -0.201181001 0)
(3.062924027 -0.2057924922 0)
(3.064219245 -0.21362305 0)
(3.065863407 -0.2239954366 0)
(3.067799578 -0.229139595 0)
(3.069689063 -0.2333972527 0)
(3.071630019 -0.2445086134 0)
(3.07273841 -0.2519108747 0)
(3.07460506 -0.2556202926 0)
(3.077221619 -0.2651595706 0)
(3.078141375 -0.2741303954 0)
(3.079285009 -0.2775590016 0)
(3.081416018 -0.283535463 0)
(3.082800947 -0.2934228146 0)
(3.083471839 -0.2978770361 0)
(3.084994154 -0.2997698693 0)
(3.086474965 -0.3075653469 0)
(3.086831921 -0.3154150836 0)
(3.087948478 -0.3178378296 0)
(3.089438126 -0.3204071502 0)
(3.090645281 -0.3295777529 0)
(3.090629777 -0.3358352996 0)
(3.092130215 -0.33777348 0)
(3.093728218 -0.3404876659 0)
(3.09426304 -0.3487245734 0)
(3.043229564 -0.1335133887 0)
(3.045924972 -0.1441181942 0)
(3.048302708 -0.1551257644 0)
(3.050725301 -0.1622941679 0)
(3.053200666 -0.1688655117 0)
(3.055443619 -0.1789892936 0)
(3.057288071 -0.1887519583 0)
(3.059414646 -0.1947710124 0)
(3.061738201 -0.2012658447 0)
(3.063773364 -0.2119859052 0)
(3.065013199 -0.2198156937 0)
(3.067071781 -0.224346301 0)
(3.069476655 -0.232341476 0)
(3.070583109 -0.2414731218 0)
(3.071869261 -0.245401635 0)
(3.073909149 -0.2502263391 0)
(3.075251828 -0.2591082937 0)
(3.076067319 -0.2635789611 0)
(3.077226958 -0.265637862 0)
(3.078455551 -0.2734018813 0)
(3.07933074 -0.28135699 0)
(3.080771126 -0.284055262 0)
(3.081993353 -0.2877831731 0)
(3.083594717 -0.2980074508 0)
(3.08426918 -0.3039810484 0)
(3.086128733 -0.3058405556 0)
(3.087328204 -0.3107230309 0)
(3.088203747 -0.3202397593 0)
(3.088741041 -0.3247035533 0)
(3.090530485 -0.326019827 0)
(3.091448523 -0.3313655379 0)
(3.038543909 -0.1196844229 0)
(3.041081513 -0.1262446866 0)
(3.043697434 -0.136943962 0)
(3.046098192 -0.1472778179 0)
(3.048552583 -0.1534190758 0)
(3.050808584 -0.1601797403 0)
(3.053061754 -0.171259082 0)
(3.054795062 -0.1789831135 0)
(3.057029773 -0.1832873778 0)
(3.058967788 -0.1911661269 0)
(3.060332849 -0.2007790549 0)
(3.06197749 -0.2058815443 0)
(3.06415366 -0.2113938198 0)
(3.066002012 -0.2212370183 0)
(3.06716248 -0.2276387807 0)
(3.06891764 -0.2319210516 0)
(3.071338231 -0.2414010236 0)
(3.072597492 -0.2497870752 0)
(3.074020512 -0.2535655388 0)
(3.076051077 -0.2601229475 0)
(3.07761494 -0.2703946179 0)
(3.078314717 -0.275844466 0)
(3.080263828 -0.278692914 0)
(3.082025902 -0.2853723587 0)
(3.082586303 -0.2941809446 0)
(3.083278487 -0.2979401076 0)
(3.085067759 -0.2995576199 0)
(3.086255889 -0.3064202485 0)
(3.086649696 -0.3145870552 0)
(3.087476543 -0.3178810333 0)
(3.089346319 -0.3197071794 0)
(3.033770063 -0.1044854276 0)
(3.036468325 -0.112084459 0)
(3.038906158 -0.1191477321 0)
(3.041758796 -0.1306668073 0)
(3.04403404 -0.1399332911 0)
(3.046387406 -0.1450803733 0)
(3.048952447 -0.1539969274 0)
(3.051184571 -0.1654541322 0)
(3.053013766 -0.1714598514 0)
(3.055579343 -0.1776383249 0)
(3.057919464 -0.1884595997 0)
(3.05912403 -0.1958814026 0)
(3.061162796 -0.2008658492 0)
(3.063784169 -0.2099044197 0)
(3.065015771 -0.218617214 0)
(3.06642725 -0.2227545811 0)
(3.068649918 -0.2287609306 0)
(3.070280363 -0.2386057589 0)
(3.071189718 -0.2434920363 0)
(3.072827271 -0.2453586006 0)
(3.074099762 -0.2523656535 0)
(3.074895163 -0.260905682 0)
(3.076167211 -0.2640847184 0)
(3.077340142 -0.2659119425 0)
(3.078542951 -0.2745682397 0)
(3.079562742 -0.2830548434 0)
(3.081194803 -0.2862868058 0)
(3.082763685 -0.2889534101 0)
(3.083919256 -0.2977141118 0)
(3.084477356 -0.3047310019 0)
(3.086072512 -0.3073387399 0)
(3.028680038 -0.08669726506 0)
(3.031720268 -0.09758696183 0)
(3.034307064 -0.1043831033 0)
(3.036795418 -0.1123643156 0)
(3.039769663 -0.1245198042 0)
(3.041959109 -0.132080103 0)
(3.044249206 -0.1370045632 0)
(3.046954416 -0.1478397375 0)
(3.048770391 -0.1571887014 0)
(3.05090229 -0.1616679142 0)
(3.053382539 -0.1695823548 0)
(3.05508236 -0.1795075675 0)
(3.056557013 -0.1842159701 0)
(3.058459603 -0.1894908142 0)
(3.060533945 -0.1996625527 0)
(3.061862001 -0.2060880941 0)
(3.06335688 -0.2091806969 0)
(3.065252015 -0.2177215668 0)
(3.067065187 -0.2277909169 0)
(3.068737716 -0.2319183735 0)
(3.070450186 -0.2360790816 0)
(3.072457608 -0.2466089424 0)
(3.073288827 -0.2542041164 0)
(3.07503868 -0.2579446886 0)
(3.077099157 -0.2630507307 0)
(3.078248023 -0.2720722612 0)
(3.078726114 -0.2780401813 0)
(3.080519418 -0.2808816627 0)
(3.08203669 -0.2849833015 0)
(3.08283914 -0.2934653851 0)
(3.083199611 -0.2987721425 0)
(3.023577123 -0.06982476588 0)
(3.026817477 -0.08086128593 0)
(3.029700098 -0.09083663307 0)
(3.032127762 -0.0968942354 0)
(3.034860732 -0.1063027776 0)
(3.037708433 -0.1181035808 0)
(3.039945311 -0.1241405444 0)
(3.042387368 -0.1306768325 0)
(3.045089367 -0.1424765931 0)
(3.046828649 -0.1495017815 0)
(3.049145028 -0.1547433981 0)
(3.051930275 -0.1654175566 0)
(3.053398081 -0.1737098203 0)
(3.055244317 -0.1783683816 0)
(3.057832867 -0.1869157426 0)
(3.059474845 -0.1966716189 0)
(3.060883915 -0.2016186317 0)
(3.062965969 -0.2064450688 0)
(3.065038909 -0.2162762736 0)
(3.065989313 -0.2235129581 0)
(3.067880239 -0.2266950182 0)
(3.069640381 -0.2318620184 0)
(3.070691184 -0.2409228036 0)
(3.071592755 -0.2458018679 0)
(3.073391111 -0.2476653904 0)
(3.074089588 -0.2528649929 0)
(3.075106818 -0.2618462821 0)
(3.076222931 -0.2668336191 0)
(3.0780822 -0.2691014594 0)
(3.079005434 -0.2748572418 0)
(3.080261998 -0.2839741849 0)
(3.018983512 -0.05586622988 0)
(3.021624674 -0.06384854524 0)
(3.024973196 -0.07517772941 0)
(3.02771059 -0.08408403602 0)
(3.030050478 -0.09007914781 0)
(3.033056326 -0.1008396616 0)
(3.035607466 -0.1109983182 0)
(3.037945114 -0.1163555339 0)
(3.040625786 -0.1251317255 0)
(3.04291344 -0.1357815099 0)
(3.044862784 -0.1410688982 0)
(3.047248232 -0.1477891626 0)
(3.04951425 -0.1583011208 0)
(3.051127124 -0.1641485564 0)
(3.052965157 -0.1686809527 0)
(3.05509738 -0.1783246463 0)
(3.056619844 -0.18611373 0)
(3.058423907 -0.1895618355 0)
(3.059779044 -0.1954774923 0)
(3.061650984 -0.2058926119 0)
(3.063216001 -0.211708031 0)
(3.065048503 -0.2145849812 0)
(3.066678078 -0.2227636489 0)
(3.068343643 -0.2327098407 0)
(3.069754104 -0.2374042042 0)
(3.071818912 -0.2412325345 0)
(3.073485049 -0.2495994429 0)
(3.074280628 -0.2577444084 0)
(3.0754846 -0.26218218 0)
(3.077532861 -0.2653303513 0)
(3.078725762 -0.2719435376 0)
(3.014461778 -0.04238033915 0)
(3.017091828 -0.04997253985 0)
(3.019791336 -0.05829793276 0)
(3.023094159 -0.06939698411 0)
(3.025732234 -0.07724581851 0)
(3.028194029 -0.0842462539 0)
(3.031244422 -0.09545654216 0)
(3.03362343 -0.1036586633 0)
(3.035995994 -0.1094667467 0)
(3.038858705 -0.1199775452 0)
(3.040915 -0.1287215917 0)
(3.043034139 -0.1338907299 0)
(3.045717605 -0.1430307575 0)
(3.047690418 -0.1524897127 0)
(3.049473394 -0.15734886 0)
(3.051731764 -0.1642360755 0)
(3.053978185 -0.1748307723 0)
(3.055371383 -0.1811860575 0)
(3.057368656 -0.1853972578 0)
(3.059577527 -0.1939160746 0)
(3.060937539 -0.2031738298 0)
(3.062344381 -0.2078493263 0)
(3.064363402 -0.211315423 0)
(3.06616133 -0.2199014525 0)
(3.067072498 -0.2277755033 0)
(3.068675188 -0.2311177597 0)
(3.070116149 -0.2335625805 0)
(3.070959562 -0.241191176 0)
(3.071849602 -0.248319071 0)
(3.073483205 -0.2516324824 0)
(3.074588942 -0.2541483229 0)
(3.00995138 -0.02864386144 0)
(3.012789814 -0.0372971699 0)
(3.015304859 -0.04450681808 0)
(3.018129115 -0.05329613555 0)
(3.021207993 -0.06344315543 0)
(3.023777865 -0.07061352711 0)
(3.026454281 -0.07896498172 0)
(3.029372136 -0.08968295395 0)
(3.031726552 -0.0965390079 0)
(3.034210659 -0.1036615806 0)
(3.036916944 -0.1142262413 0)
(3.038984403 -0.1212509473 0)
(3.041192555 -0.1271448653 0)
(3.043769483 -0.1372133612 0)
(3.045636446 -0.1448642791 0)
(3.04754398 -0.149127931 0)
(3.049487995 -0.1569531204 0)
(3.051405441 -0.1664819962 0)
(3.053287367 -0.1714789391 0)
(3.05479448 -0.1752048884 0)
(3.05633222 -0.1841130524 0)
(3.058051922 -0.1927224334 0)
(3.060103683 -0.1967550818 0)
(3.0612422 -0.2004314026 0)
(3.062975825 -0.2101868613 0)
(3.064549879 -0.2180924753 0)
(3.066554629 -0.2217539493 0)
(3.068146719 -0.2267656836 0)
(3.069786901 -0.2363085736 0)
(3.070674427 -0.242936636 0)
(3.072482336 -0.2468567417 0)
(3.006199832 -0.01758576886 0)
(3.008577616 -0.02460498147 0)
(3.011176578 -0.03238460437 0)
(3.013637607 -0.03948716784 0)
(3.01653221 -0.04851577029 0)
(3.019397008 -0.05760384721 0)
(3.021890463 -0.06454069935 0)
(3.024744527 -0.0738540251 0)
(3.027491822 -0.08346160249 0)
(3.029896727 -0.09005818453 0)
(3.032515447 -0.09851579551 0)
(3.035007621 -0.1080813504 0)
(3.037149581 -0.1142169954 0)
(3.039494803 -0.1216180636 0)
(3.041950179 -0.1316432362 0)
(3.043894259 -0.1381351297 0)
(3.045917976 -0.143415092 0)
(3.048222716 -0.1528486927 0)
(3.049977384 -0.1613118465 0)
(3.051932235 -0.1662425193 0)
(3.053903099 -0.1720532876 0)
(3.055854882 -0.1816137381 0)
(3.057183601 -0.1889266463 0)
(3.059128049 -0.1931623562 0)
(3.06096367 -0.1985848174 0)
(3.062579061 -0.2078017761 0)
(3.063616813 -0.2139354497 0)
(3.065568815 -0.2167207637 0)
(3.066898584 -0.2214519134 0)
(3.067990302 -0.2298870301 0)
(3.068966162 -0.2349474887 0)
(3.003439301 -0.009660980519 0)
(3.005124069 -0.01447781069 0)
(3.007311782 -0.02090136724 0)
(3.009673431 -0.02784222183 0)
(3.012068063 -0.0348325062 0)
(3.014946265 -0.04375019231 0)
(3.017646007 -0.05196948907 0)
(3.020158851 -0.05923359617 0)
(3.023006849 -0.06861062426 0)
(3.025645886 -0.07712429071 0)
(3.028116263 -0.0841815593 0)
(3.030808446 -0.09343482734 0)
(3.033141721 -0.1016262837 0)
(3.035333421 -0.1076449699 0)
(3.037772359 -0.1162601969 0)
(3.040010533 -0.1252946644 0)
(3.042093129 -0.1308009663 0)
(3.044049211 -0.1368857942 0)
(3.046154423 -0.1463911056 0)
(3.0479727 -0.1534453476 0)
(3.050025017 -0.1575533928 0)
(3.051374336 -0.1636159602 0)
(3.05310502 -0.172890007 0)
(3.054880357 -0.1792041223 0)
(3.056771775 -0.1824077103 0)
(3.057710341 -0.1884261931 0)
(3.05964486 -0.1983385489 0)
(3.061303143 -0.2040486519 0)
(3.063099964 -0.2067126076 0)
(3.064484523 -0.2137935761 0)
(3.066195078 -0.2233292212 0)
(3.00155769 -0.004308901064 0)
(3.002681042 -0.007491448751 0)
(3.004171518 -0.01174209461 0)
(3.00614987 -0.01751144453 0)
(3.008296813 -0.02375119981 0)
(3.010624527 -0.03058589282 0)
(3.013354259 -0.03892532424 0)
(3.015964716 -0.04666626973 0)
(3.018545017 -0.05441017273 0)
(3.021304423 -0.0633602607 0)
(3.023816375 -0.07092927923 0)
(3.026383864 -0.0787687108 0)
(3.029074903 -0.08814924005 0)
(3.031362116 -0.09533245344 0)
(3.033569294 -0.1017533345 0)
(3.036132404 -0.1112142615 0)
(3.038265601 -0.1192075585 0)
(3.040337156 -0.1243051486 0)
(3.042458956 -0.1317468447 0)
(3.044682019 -0.1415140938 0)
(3.046495563 -0.1478612946 0)
(3.048528967 -0.1524130345 0)
(3.050481097 -0.1602611873 0)
(3.052258501 -0.1694849921 0)
(3.053821244 -0.1751861533 0)
(3.055789472 -0.1790744977 0)
(3.05763582 -0.1866505796 0)
(3.059056499 -0.1955773023 0)
(3.060366075 -0.2003509505 0)
(3.062257809 -0.2031167923 0)
(3.06382212 -0.2103364406 0)
(3.000549946 -0.001494355938 0)
(3.001140203 -0.003139692549 0)
(3.002053329 -0.005709557638 0)
(3.003342033 -0.009370830666 0)
(3.005083995 -0.0144129628 0)
(3.007057032 -0.02011315551 0)
(3.009293649 -0.02668614664 0)
(3.011823483 -0.03427452611 0)
(3.014321827 -0.04161671564 0)
(3.016995921 -0.04979844802 0)
(3.019646551 -0.05816350756 0)
(3.022069932 -0.06526193687 0)
(3.024691255 -0.07360197292 0)
(3.027335159 -0.08266036306 0)
(3.029589216 -0.0891532238 0)
(3.031848775 -0.09625287626 0)
(3.034433723 -0.1059476633 0)
(3.036550209 -0.1130431037 0)
(3.038533475 -0.1178242414 0)
(3.040624053 -0.1259228203 0)
(3.042783784 -0.1352588195 0)
(3.04478595 -0.140840968 0)
(3.046542875 -0.1448939114 0)
(3.048137688 -0.1529026561 0)
(3.049955607 -0.1615829507 0)
(3.051923958 -0.1663563961 0)
(3.053265512 -0.1694190658 0)
(3.054551842 -0.1775018488 0)
(3.056363794 -0.1863062202 0)
(3.058294035 -0.1904920221 0)