/*--------------------------------*- C++ -*----------------------------------*\
  =========                 |
  \\      /  F ield         | OpenFOAM: The Open Source CFD Toolbox
   \\    /   O peration     | Website:  https://openfoam.org
    \\  /    A nd           | Version:  7
     \\/     M anipulation  |
\*---------------------------------------------------------------------------*/
FoamFile
{
    version     2.0;
    format      ascii;
    class       volVectorField;
    location    "1.4";
    object      U;
}
// * * * * * * * * * * * * * * * * * * * * * * * * * * * * * * * * * * * * * //

dimensions      [0 1 -1 0 0 0 0];

internalField   nonuniform List<vector> 
22
(
(2.99696686 -0.006799502547 0)
(2.993137681 0.002288531769 0)
(2.988320432 0.002396480569 0)
(2.980794749 -0.0005999264115 0)
(2.968960835 -0.007323227117 0)
(2.966574039 0.002327420893 0)
(2.962817879 0.001051368565 0)
(2.958346974 -0.0008133318528 0)
(2.935281303 -0.004076692965 0)
(2.934053816 0.003358375907 0)
(2.931946529 0.004307967158 0)
(2.932397671 0.001933516648 0)
(2.904711088 -0.008177672064 0)
(2.903398524 4.644807291e-06 0)
(2.905017924 -0.0003863563376 0)
(2.909288641 0.0009764825788 0)
(2.886101732 -0.004399235841 0)
(2.887056291 0.0008220975625 0)
(2.890547096 -0.0007097420645 0)
(2.896600082 -8.703383202e-05 0)
(2.880068593 -0.002690396517 0)
(2.881970141 0.001656862312 0)
)
;

boundaryField
{
    inlet
    {
        type            fixedValue;
        value           nonuniform 0();
    }
    outlet
    {
        type            inletOutlet;
        inletValue      uniform (3 0 0);
        value           nonuniform List<vector> 5((2.980794749 -0.0005999264115 0) (2.958346974 -0.0008133318528 0) (2.932397671 0.001933516648 0) (2.909288641 0.0009764825788 0) (2.896600082 -8.703383202e-05 0));
    }
    bottom
    {
        type            slip;
    }
    top
    {
        type            slip;
    }
    obstacle
    {
        type            slip;
    }
    defaultFaces
    {
        type            empty;
    }
    procBoundary17to11
    {
        type            processor;
        value           nonuniform List<vector> 4((3.010572315 -0.01246209829 0) (3.007522746 0.001550637792 0) (3.001583429 0.0002531628981 0) (2.995040642 0.001252463468 0));
    }
    procBoundary17to16
    {
        type            processor;
        value           nonuniform List<vector> 5((2.995222126 0.003151621717 0) (2.964444203 0.0005993034118 0) (2.927611203 0.003534218776 0) (2.893284567 -0.003057489694 0) (2.872562251 -0.002362098543 0));
    }
    procBoundary17to22
    {
        type            processor;
        value           uniform (2.866828454 -0.0005383236662 0);
    }
    procBoundary17to23
    {
        type            processor;
        value           nonuniform List<vector> 5((2.884725081 -0.0002909504997 0) (2.892706492 0.001129758198 0) (2.879889579 0.002819645612 0) (2.884725081 -0.0002909504997 0) (2.879578312 -0.0005521034218 0));
    }
}


// ************************************************************************* //
