/*--------------------------------*- C++ -*----------------------------------*\
  =========                 |
  \\      /  F ield         | OpenFOAM: The Open Source CFD Toolbox
   \\    /   O peration     | Website:  https://openfoam.org
    \\  /    A nd           | Version:  7
     \\/     M anipulation  |
\*---------------------------------------------------------------------------*/
FoamFile
{
    version     2.0;
    format      ascii;
    class       volScalarField;
    location    "1.5";
    object      p;
}
// * * * * * * * * * * * * * * * * * * * * * * * * * * * * * * * * * * * * * //

dimensions      [1 -1 -2 0 0 0 0];

internalField   nonuniform List<scalar> 
800
(
1
1
1
1
1
1
1
1
1
1
1
1
1
1
1
1
1
1
1
1
1
1
1
1
1
1
1
1
1
1
1
1
1
1
1
1
1
1
1
1
1
1
1
1
1
1
1
1
1
1
1
1
1
1
1
1
1
1
1
1
1
1
1
1
1
1
1
1
1
1
1
1
1
1
1
1
1
1
1
1
1
1
1
1
1
1
1
1
1
1
1
1
1
1
1
1
1
1
1
1
1
1
1
1
1
1
1
1
1
1
1
1
1
1
1
1
1
1
0.9999999999
0.9999999997
1
1
1
1
1
0.9999999999
0.9999999997
0.9999999995
0.9999999992
0.999999999
1
1
0.9999999999
0.9999999997
0.9999999994
0.9999999988
0.9999999988
0.9999999977
0.9999999982
0.9999999986
0.9999999998
0.999999999
0.9999999987
0.999999998
0.999999998
0.9999999976
1.000000001
0.9999999941
1.000000623
1.00000016
0.9999999958
0.9999999958
0.9999999966
0.9999999952
1.000000016
1.000000389
1.000002599
1.000012353
1.000101931
1.000085505
0.99999999
1.000000086
1.000001429
1.000011599
1.00005586
1.000214776
1.000649167
1.00171024
1.004328952
1.006575719
1.000020342
1.000155331
1.000663007
1.002091327
1.005168789
1.011049971
1.020680609
1.035686307
1.056583502
1.081451145
1.003224381
1.011799627
1.025840285
1.047881119
1.073980178
1.106973161
1.141421199
1.18123554
1.216470733
1.275360228
1.056061108
1.121144392
1.193503251
1.26173358
1.328156443
1.386802104
1.442073196
1.489204372
1.527480945
1.574368417
1
1.000000635
1.000036302
1.000954817
1.0085897
1.043034978
1.106550907
1.177648119
1.228829048
1.21186235
1.000000001
1.000019623
1.000556641
1.007564302
1.034701956
1.084546783
1.122916276
1.157906765
1.176121503
1.139930704
1.000000301
1.000358581
1.005329489
1.03423891
1.092569774
1.117685842
1.126654992
1.11567376
1.095090176
1.054530261
1.000023922
1.004036737
1.031055479
1.089831644
1.141011118
1.137311803
1.115561203
1.061035187
0.9852873451
0.9818958048
1.000879068
1.026500106
1.101358837
1.144176839
1.143881975
1.1184568
1.049431103
0.9742871434
0.9155880399
0.9307915864
1.014064847
1.096274921
1.17380757
1.168625672
1.119599205
1.032118453
0.9468406257
0.9215558187
0.9114298353
0.9323933264
1.093518607
1.185317287
1.180631446
1.12979417
1.008351039
0.9115041553
0.8848141667
0.8951143607
0.924833599
0.970757612
1.241016516
1.230308754
1.12792822
0.9713264344
0.8962118476
0.8821025369
0.8915587806
0.9270891823
0.9651787159
0.98925037
1.277114255
1.133712618
0.9154991252
0.8208648483
0.836285831
0.879205803
0.9518789718
0.9866374693
0.9907160694
0.9969263935
1.192580057
0.8368413442
0.7768625607
0.8221073986
0.9080573964
0.9725262491
0.9883241664
0.9977272574
0.996758912
0.9967475918
0.6824645155
0.6816961086
0.7914374691
0.9507264345
1.014840052
1.020383444
0.9916399732
0.9950784462
0.9952038021
0.9971500734
0.6562628832
0.6968937376
0.8476657124
0.9852087351
1.017266927
1.019096456
0.9864114098
0.9894247293
0.991540769
0.9939472232
0.6700804238
0.7206787999
0.8864705417
1.00018814
1.014885002
1.013658651
0.9819210067
0.9857385586
0.9881276848
0.9921561812
0.67790533
0.749304047
0.931081767
1.009721391
1.012236706
1.01190117
0.9815256157
0.9870713143
0.9910042371
0.9962062695
0.6855011768
0.7855244085
0.9732028178
1.016608279
1.015329488
1.015820679
0.9837608918
0.9890963506
0.9946969289
0.9995752328
0.6944055089
0.8240109794
1.004880851
1.019122513
1.017121039
1.018480707
0.9833783108
0.9886001291
0.994517224
0.9968542925
0.7050483949
0.8681709482
1.02786781
1.022807263
1.0171143
1.017191996
0.9808885319
0.9889820854
0.9954287059
0.9965905815
0.717364183
0.9215712745
1.036608023
1.022786321
1.019222483
1.018775248
0.9797786987
0.9890325281
0.9967085371
0.996545269
0.7304628586
0.9695496018
1.043223193
1.020387395
1.017461392
1.018945504
0.9760020121
0.9835418027
0.9920898961
0.9942895259
0.7281385016
1.037791669
1.044229591
1.014376189
1.011174261
1.014435725
0.9709943532
0.9830463572
0.9898596916
0.9954872395
0.7293049212
1.012175249
1.045767776
1.014862447
1.01106346
1.013651539
0.9710521092
0.9860852602
0.9907194206
0.9977718261
0.7296988198
0.9583071182
1.044830367
1.020291817
1.014937105
1.016869485
0.9762888775
0.9882372265
0.9950026423
0.9984203169
0.7169126989
0.9265283817
1.041107766
1.022978722
1.019253691
1.019002872
0.9798884463
0.9893019898
0.9967742567
0.9968855033
0.7051222168
0.8799901693
1.028622308
1.021628352
1.018215595
1.017461875
0.9807982586
0.9891232627
0.995962736
0.9969655781
0.6945878413
0.8264882797
1.003995616
1.018779413
1.017576493
1.017930576
0.9833684252
0.9882662952
0.9945830226
0.996684074
0.685689828
0.7802257423
0.969792031
1.017220314
1.015715015
1.016372836
0.9839911689
0.9872713572
0.9925810623
0.9954683747
0.6777695508
0.7473261885
0.9302763184
1.010286998
1.011443911
1.012176362
0.9818083225
0.9863201535
0.9895528592
0.9947659696
0.6699552219
0.7225955181
0.8897678214
1.000337034
1.013783512
1.013317857
0.9817213232
0.9863545164
0.9890267223
0.9957338569
0.6563228721
0.6976554157
0.8491485079
0.9843969908
1.017433099
1.01857137
0.9857128952
0.9904395955
0.9939085045
0.9983708239
0.6825744957
0.6813631418
0.7895278423
0.9489595628
1.014842859
1.020419327
0.9915433514
0.9952658051
0.9955076537
0.997327694
1.192576175
0.8368049514
0.7768421123
0.8221046934
0.9081436811
0.9726101846
0.9884229803
0.9976644305
0.9967750087
0.9963048954
1.277113848
1.133723225
0.9154906102
0.820887551
0.8362837792
0.8792012387
0.9519617781
0.9865180062
0.9906364755
0.9969540325
1.241016445
1.230307291
1.127926149
0.9713304945
0.8962156869
0.8821163454
0.8915923171
0.9270345159
0.9651275716
0.9892318043
1.093518776
1.185315887
1.180631372
1.129795631
1.008355897
0.9114998105
0.884837159
0.8951314014
0.9248215322
0.9707198016
1.014064902
1.096274422
1.173807299
1.168626631
1.119593893
1.032120896
0.9468549798
0.9215642454
0.911456615
0.9324086426
1.000879075
1.026499993
1.101358226
1.144177411
1.143881557
1.118457792
1.049427904
0.9742897193
0.9156094605
0.9308112549
1.000023922
1.004036715
1.031055257
1.089831879
1.141010746
1.13731157
1.115558692
1.061033061
0.9852861274
0.9819123444
1.000000301
1.000358578
1.005329485
1.034238731
1.09256906
1.1176862
1.126653584
1.115672368
1.095080553
1.054533566
1.000000001
1.000019623
1.000556643
1.007564178
1.034701957
1.084546756
1.122915391
1.157904693
1.17611695
1.139927151
1
1.000000635
1.000036302
1.000954804
1.008589644
1.043034905
1.106550907
1.177646292
1.228825905
1.211858246
1.056061108
1.121144392
1.193503251
1.26173358
1.328156444
1.386802103
1.442073196
1.489204373
1.527480941
1.574368431
1.003224381
1.011799627
1.025840285
1.047881119
1.073980178
1.106973161
1.1414212
1.18123554
1.216470726
1.275360318
1.000020342
1.000155332
1.000663007
1.002091327
1.005168789
1.011049972
1.020680608
1.035686309
1.056583498
1.081451153
0.99999999
1.000000086
1.000001429
1.000011599
1.00005586
1.000214776
1.000649167
1.001710241
1.004328951
1.006575719
0.9999999958
0.9999999958
0.9999999966
0.9999999952
1.000000016
1.000000389
1.000002599
1.000012353
1.000101931
1.000085505
0.9999999998
0.999999999
0.9999999987
0.999999998
0.999999998
0.9999999976
1.000000001
0.9999999941
1.000000623
1.00000016
1
1
0.9999999999
0.9999999997
0.9999999994
0.9999999988
0.9999999988
0.9999999977
0.9999999982
0.9999999986
1
1
1
1
1
0.9999999999
0.9999999997
0.9999999995
0.9999999992
0.999999999
1
1
1
1
1
1
1
1
0.9999999999
0.9999999997
1
1
1
1
1
1
1
1
1
1
1
1
1
1
1
1
1
1
1
1
1
1
1
1
1
1
1
1
1
1
1
1
1
1
1
1
1
1
1
1
1
1
1
1
1
1
1
1
1
1
1
1
1
1
1
1
1
1
1
1
1
1
1
1
1
1
1
1
1
1
1
1
1
1
1
1
1
1
1
1
1
1
1
1
1
1
1
1
1
1
1
1
1
1
1
1
1
1
1
1
1
1
1
1
1
1
1
1
1
1
)
;

boundaryField
{
    inlet
    {
        type            fixedValue;
        value           uniform 1;
    }
    outlet
    {
        type            zeroGradient;
    }
    bottom
    {
        type            slip;
    }
    top
    {
        type            slip;
    }
    obstacle
    {
        type            zeroGradient;
    }
    defaultFaces
    {
        type            empty;
    }
}


// ************************************************************************* //
