/*--------------------------------*- C++ -*----------------------------------*\
  =========                 |
  \\      /  F ield         | OpenFOAM: The Open Source CFD Toolbox
   \\    /   O peration     | Website:  https://openfoam.org
    \\  /    A nd           | Version:  7
     \\/     M anipulation  |
\*---------------------------------------------------------------------------*/
FoamFile
{
    version     2.0;
    format      ascii;
    class       volVectorField;
    location    "3.7";
    object      U;
}
// * * * * * * * * * * * * * * * * * * * * * * * * * * * * * * * * * * * * * //

dimensions      [0 1 -1 0 0 0 0];

internalField   nonuniform List<vector> 
2222
(
(2.98531736 0.003261604177 0)
(2.985190547 0.00329999261 0)
(2.984800415 0.003795706696 0)
(2.984330862 0.004152043273 0)
(2.984044646 0.004312749233 0)
(2.984089507 0.004186736982 0)
(2.984495832 0.004049137064 0)
(2.984807976 0.003897746665 0)
(2.984961206 0.003955815404 0)
(2.985305768 0.004273560248 0)
(2.985718988 0.004615572184 0)
(2.985977707 0.004762932025 0)
(2.985815077 0.004525106381 0)
(2.98540507 0.004029863659 0)
(2.984972824 0.00391558371 0)
(2.984632312 0.003413285764 0)
(2.9842138 0.002862723054 0)
(2.984053685 0.002982228807 0)
(2.984170671 0.003301508046 0)
(2.984272783 0.003550961147 0)
(2.984407074 0.003871333415 0)
(2.984452264 0.004201054972 0)
(2.984463074 0.004291338967 0)
(2.984421573 0.004399235616 0)
(2.984326268 0.006866727897 0)
(2.984452845 0.008696411051 0)
(2.985193649 0.01026262635 0)
(2.986142815 0.009598982412 0)
(2.986020575 0.00807120407 0)
(2.986022975 0.005761588282 0)
(2.986071148 0.003870683713 0)
(2.985928417 0.003235781969 0)
(2.98594237 0.003149354381 0)
(2.985761657 0.003139306366 0)
(2.98573204 0.003221316423 0)
(2.985646866 0.003315863153 0)
(2.985233691 0.003717623081 0)
(2.984761815 0.004154777473 0)
(2.984408785 0.004287332906 0)
(2.984399015 0.00419304056 0)
(2.984781774 0.004116759187 0)
(2.985145522 0.003939907444 0)
(2.985299283 0.004001933847 0)
(2.985679026 0.004319125401 0)
(2.986087951 0.004725432929 0)
(2.986286594 0.004902833448 0)
(2.986164101 0.0046335854 0)
(2.985864967 0.004070171371 0)
(2.985360755 0.00393826483 0)
(2.985047606 0.003436546562 0)
(2.984610686 0.002948498273 0)
(2.984430179 0.003007110671 0)
(2.984516479 0.003242869192 0)
(2.984617125 0.003455061427 0)
(2.984778882 0.003777558481 0)
(2.984755198 0.004094146836 0)
(2.984790177 0.00425549291 0)
(2.984762115 0.004514847651 0)
(2.984675105 0.006860438369 0)
(2.984597787 0.008593815723 0)
(2.985419732 0.01030750351 0)
(2.986365491 0.01002298507 0)
(2.986238819 0.008495483495 0)
(2.986240042 0.006351834809 0)
(2.986409187 0.004337341968 0)
(2.986237123 0.003608390148 0)
(2.986255509 0.003181752705 0)
(2.986136211 0.003159618755 0)
(2.986105835 0.00322335729 0)
(2.986022583 0.003410461266 0)
(2.985598581 0.003850284597 0)
(2.985154919 0.004186774138 0)
(2.984765941 0.004323244057 0)
(2.984743772 0.00428750049 0)
(2.985077925 0.004185813926 0)
(2.985450751 0.003991968667 0)
(2.985584968 0.004047797961 0)
(2.985962794 0.004381705076 0)
(2.986384972 0.004800151826 0)
(2.986595783 0.00497686186 0)
(2.986548327 0.004648397 0)
(2.986188611 0.004136206729 0)
(2.985685175 0.004142668201 0)
(2.985428418 0.003610288167 0)
(2.985021492 0.003103764616 0)
(2.98478364 0.003069550172 0)
(2.984874223 0.003241626564 0)
(2.984996291 0.00351892762 0)
(2.985138949 0.003846074379 0)
(2.985162281 0.004195667631 0)
(2.985194608 0.004323339508 0)
(2.985137008 0.004559852557 0)
(2.985012804 0.006631371701 0)
(2.984787408 0.008471275284 0)
(2.98563303 0.0102657775 0)
(2.986551768 0.01020877681 0)
(2.986447835 0.008945189785 0)
(2.986459044 0.006828308747 0)
(2.986640463 0.004680594443 0)
(2.986470397 0.003582759616 0)
(2.986530047 0.003154290669 0)
(2.986487426 0.003174495686 0)
(2.986427107 0.00324601014 0)
(2.986307308 0.003575958335 0)
(2.98593891 0.003913112677 0)
(2.985488335 0.004236383733 0)
(2.985095546 0.004434807392 0)
(2.985028099 0.004441531099 0)
(2.985382997 0.004326732173 0)
(2.985727741 0.004076698819 0)
(2.985842697 0.004090557888 0)
(2.986168738 0.004401299264 0)
(2.986603555 0.004732449077 0)
(2.98688774 0.004916937477 0)
(2.986801564 0.004636960874 0)
(2.986432277 0.004350293578 0)
(2.986072679 0.00427494048 0)
(2.985751027 0.003886440471 0)
(2.985309609 0.003230449349 0)
(2.985099794 0.00302561995 0)
(2.985213281 0.003065146921 0)
(2.985360864 0.003334114679 0)
(2.985490298 0.003751957642 0)
(2.985537141 0.004393678932 0)
(2.985567349 0.004613978815 0)
(2.985530233 0.004799340854 0)
(2.985397834 0.006419997217 0)
(2.985025534 0.008302862538 0)
(2.985894768 0.01017436137 0)
(2.986716398 0.01023168954 0)
(2.986615984 0.009077142128 0)
(2.986637595 0.006940013521 0)
(2.986853262 0.004759737228 0)
(2.986651728 0.003385092646 0)
(2.986728047 0.002857454048 0)
(2.986735984 0.003161879219 0)
(2.986690635 0.003271844951 0)
(2.986539969 0.003492110324 0)
(2.986203182 0.003825067629 0)
(2.985789154 0.00423299372 0)
(2.985381253 0.004528320559 0)
(2.985251232 0.004514642068 0)
(2.985616257 0.004370949384 0)
(2.985966352 0.004043995159 0)
(2.986096585 0.004020925707 0)
(2.986420756 0.004267648294 0)
(2.986857388 0.004611020907 0)
(2.987124881 0.004863301684 0)
(2.987054644 0.004671726204 0)
(2.986802487 0.004484693981 0)
(2.986368093 0.004420531067 0)
(2.986075077 0.003986556451 0)
(2.985591328 0.003278117194 0)
(2.985383422 0.002960990939 0)
(2.985498117 0.003053918667 0)
(2.985633598 0.003508922458 0)
(2.985798969 0.004088050127 0)
(2.985833773 0.004665092111 0)
(2.985874017 0.004791735672 0)
(2.985863415 0.004894086868 0)
(2.985639737 0.006115032246 0)
(2.985201396 0.008099557785 0)
(2.986138565 0.01004179596 0)
(2.9869231 0.01018501649 0)
(2.986783218 0.00912443454 0)
(2.986802107 0.006964416058 0)
(2.987122989 0.004695786216 0)
(2.986863658 0.003293440211 0)
(2.986897786 0.003055933736 0)
(2.986971767 0.003268922772 0)
(2.986910446 0.003295810342 0)
(2.986772578 0.003400579532 0)
(2.986437395 0.003746135001 0)
(2.986069749 0.004166541662 0)
(2.985647295 0.004511000843 0)
(2.985499794 0.004541857897 0)
(2.985850105 0.00442203909 0)
(2.986214188 0.004042998875 0)
(2.9863648 0.003930232388 0)
(2.986669154 0.004030233814 0)
(2.987149039 0.004396334241 0)
(2.987425918 0.004836583757 0)
(2.987365846 0.004814576946 0)
(2.987094126 0.00463010257 0)
(2.986624931 0.004394944781 0)
(2.986307068 0.003945322179 0)
(2.98584093 0.003267417039 0)
(2.985627099 0.002965576918 0)
(2.985738558 0.003249032429 0)
(2.985837893 0.003740663796 0)
(2.986011604 0.004104879656 0)
(2.986080573 0.004648056769 0)
(2.986099575 0.004758341629 0)
(2.986086739 0.004838264099 0)
(2.985849141 0.005865999902 0)
(2.985371617 0.007842998057 0)
(2.986408612 0.009839325313 0)
(2.987059774 0.01011419814 0)
(2.986920729 0.009050333387 0)
(2.986974795 0.006921547199 0)
(2.987330781 0.004635470484 0)
(2.98703838 0.003371942378 0)
(2.987034116 0.00349936712 0)
(2.987155924 0.003284621352 0)
(2.987094001 0.003293150041 0)
(2.987006379 0.003355493258 0)
(2.986671836 0.00372030473 0)
(2.986321041 0.004186366882 0)
(2.985932878 0.00451358884 0)
(2.985771968 0.004520095164 0)
(2.986093323 0.004422724237 0)
(2.986452416 0.004101946456 0)
(2.986651775 0.004006073553 0)
(2.986925728 0.004011604257 0)
(2.987373368 0.004426143917 0)
(2.987689117 0.004839293605 0)
(2.987628526 0.00485853913 0)
(2.987334531 0.004688389193 0)
(2.986851523 0.004376840037 0)
(2.986519331 0.00393319461 0)
(2.986074732 0.003322667686 0)
(2.985841468 0.003070299774 0)
(2.985979879 0.003361071562 0)
(2.986050934 0.003783670469 0)
(2.986172406 0.004111829891 0)
(2.98630292 0.004589913245 0)
(2.986325325 0.004693026695 0)
(2.986309833 0.004760291671 0)
(2.985493804 0.007620414305 0)
(2.986622412 0.009635469389 0)
(2.987178399 0.009947921686 0)
(2.98704026 0.008861501098 0)
(2.987129111 0.006907662561 0)
(2.987453429 0.004786774024 0)
(2.987150759 0.003678896994 0)
(2.98713398 0.003773798647 0)
(2.987289286 0.003357064702 0)
(2.987256332 0.003273037999 0)
(2.987163688 0.003378409561 0)
(2.986845936 0.003807900803 0)
(2.986531377 0.004301598425 0)
(2.986188055 0.004539943766 0)
(2.98598428 0.004537038875 0)
(2.986275523 0.004491783194 0)
(2.986697338 0.004147188242 0)
(2.986886667 0.004056419389 0)
(2.98714026 0.004202463616 0)
(2.987566277 0.004540792179 0)
(2.987901402 0.004871642503 0)
(2.987854994 0.004809683138 0)
(2.987559075 0.00470072497 0)
(2.987097472 0.004419292295 0)
(2.986779089 0.003841117848 0)
(2.986325088 0.003429967359 0)
(2.986026163 0.003137631172 0)
(2.986189729 0.003379925747 0)
(2.986295429 0.00371077494 0)
(2.986450888 0.004079407469 0)
(2.986539056 0.004504803132 0)
(2.986550686 0.004595381768 0)
(2.986529896 0.004692429369 0)
(2.985620137 0.007311511848 0)
(2.986783982 0.00929547809 0)
(2.987376052 0.009734584815 0)
(2.987206261 0.008768668233 0)
(2.98724653 0.00704335223 0)
(2.987581624 0.004940886283 0)
(2.987246578 0.004033242459 0)
(2.987231552 0.003863563163 0)
(2.987421212 0.003438860152 0)
(2.987384445 0.00333338288 0)
(2.98728907 0.003450002813 0)
(2.987020446 0.003932932849 0)
(2.986758169 0.004397600997 0)
(2.986386661 0.00462017258 0)
(2.986167748 0.004694674735 0)
(2.986471331 0.004717479546 0)
(2.986904438 0.004410645849 0)
(2.987044673 0.004297547768 0)
(2.987268871 0.004362758432 0)
(2.987740413 0.004585480894 0)
(2.988101087 0.004837775354 0)
(2.988058713 0.004726824988 0)
(2.987750722 0.004745570939 0)
(2.987297651 0.004475445012 0)
(2.987024426 0.003840373797 0)
(2.986519511 0.003528681145 0)
(2.986158958 0.003189628266 0)
(2.986362206 0.003314077081 0)
(2.986476655 0.003539709365 0)
(2.986729684 0.004008230756 0)
(2.986800029 0.004465572594 0)
(2.986771288 0.004544001403 0)
(2.986765407 0.004604387388 0)
(2.986637904 0.004665656797 0)
(2.985766021 0.006978183953 0)
(2.986884945 0.008966468783 0)
(2.987572425 0.009681682687 0)
(2.987381453 0.008842339732 0)
(2.98738349 0.007242401149 0)
(2.987618934 0.005309840004 0)
(2.987299959 0.00422126453 0)
(2.987334177 0.003873871708 0)
(2.987556864 0.003450304327 0)
(2.987526589 0.003432704807 0)
(2.987395442 0.003657624319 0)
(2.987175916 0.003965190128 0)
(2.986931467 0.004471040216 0)
(2.986552273 0.004782717877 0)
(2.986313816 0.004975812409 0)
(2.986640657 0.005136827499 0)
(2.987032088 0.004679608482 0)
(2.987181168 0.00438947012 0)
(2.987380113 0.004426498027 0)
(2.987863515 0.004560373165 0)
(2.988236829 0.004818424973 0)
(2.988229323 0.004701628451 0)
(2.987949874 0.004728201367 0)
(2.987471304 0.004521535822 0)
(2.987239266 0.003785310254 0)
(2.986720741 0.003496512263 0)
(2.986296139 0.003147373818 0)
(2.986540221 0.003310011452 0)
(2.986695061 0.003464623528 0)
(2.986943589 0.003918854017 0)
(2.987028971 0.004369380665 0)
(2.987012636 0.004501242667 0)
(2.987018692 0.004582348799 0)
(2.986925153 0.00463365202 0)
(2.985833222 0.006765909606 0)
(2.986978633 0.008794216752 0)
(2.987729584 0.009693238638 0)
(2.987578601 0.008928044588 0)
(2.987531851 0.007455357416 0)
(2.98769185 0.005511043416 0)
(2.987359369 0.00429428214 0)
(2.987417126 0.0037347233 0)
(2.987686005 0.003620819544 0)
(2.987613604 0.003582657123 0)
(2.987494368 0.003605674533 0)
(2.987319151 0.003850790481 0)
(2.987043516 0.004381389065 0)
(2.986775051 0.00483366995 0)
(2.986558649 0.005126311187 0)
(2.986782808 0.005350567024 0)
(2.987168338 0.004807267046 0)
(2.987347742 0.004412937354 0)
(2.987559424 0.004431805795 0)
(2.987994023 0.004539910364 0)
(2.988366936 0.004821125334 0)
(2.988378436 0.004660341685 0)
(2.98813258 0.004686496826 0)
(2.987653839 0.004482111286 0)
(2.987450711 0.003754744229 0)
(2.986929918 0.003464226316 0)
(2.986459817 0.003188473183 0)
(2.98672722 0.003297894111 0)
(2.986889211 0.003365864067 0)
(2.987111605 0.00382797036 0)
(2.987200844 0.004288637599 0)
(2.987232343 0.004449617149 0)
(2.987271933 0.004563270324 0)
(2.987200596 0.004619916782 0)
(2.985905196 0.006683902138 0)
(2.987085392 0.008741960795 0)
(2.987843549 0.009742148022 0)
(2.98774448 0.009160650409 0)
(2.987695859 0.007602928514 0)
(2.987766236 0.005640590822 0)
(2.987454129 0.004275370038 0)
(2.98752595 0.003840845184 0)
(2.987805769 0.003871755348 0)
(2.987696397 0.003575275147 0)
(2.987578905 0.003533148568 0)
(2.987418465 0.003760070565 0)
(2.987176893 0.004291760621 0)
(2.986978742 0.004785563522 0)
(2.986797516 0.005220220491 0)
(2.986956628 0.005379619496 0)
(2.987348617 0.004779774126 0)
(2.987536326 0.004383623891 0)
(2.98774339 0.004365514643 0)
(2.988145051 0.004506567834 0)
(2.98853576 0.004808095783 0)
(2.988559107 0.004646587123 0)
(2.98830689 0.004633108476 0)
(2.987826307 0.004453604761 0)
(2.987686403 0.003818121032 0)
(2.987156873 0.003582171783 0)
(2.986633069 0.003237500851 0)
(2.986888768 0.003289352188 0)
(2.987090987 0.003298956399 0)
(2.987267445 0.003745403748 0)
(2.987364412 0.004214089297 0)
(2.987388197 0.004406997664 0)
(2.987435052 0.004524151642 0)
(2.987410406 0.004619485462 0)
(2.986021702 0.006624301861 0)
(2.987214399 0.008703881577 0)
(2.987921323 0.009899178964 0)
(2.987877824 0.00949825343 0)
(2.987860086 0.007773943585 0)
(2.987831372 0.005744832743 0)
(2.987556887 0.004352735125 0)
(2.987624168 0.004313677959 0)
(2.987885486 0.0040968981 0)
(2.987772389 0.003543624589 0)
(2.987648128 0.003477616849 0)
(2.987531476 0.003762430573 0)
(2.987301949 0.004217045531 0)
(2.987170667 0.00473910985 0)
(2.986991496 0.005131238203 0)
(2.987126345 0.005278581547 0)
(2.987481442 0.004746399751 0)
(2.987678245 0.004318714175 0)
(2.987831564 0.004243413742 0)
(2.988225462 0.004427451753 0)
(2.988632602 0.004723883625 0)
(2.988684868 0.004590362946 0)
(2.988481073 0.004664090479 0)
(2.988010119 0.004505826712 0)
(2.98785475 0.003898478514 0)
(2.987325318 0.003739086991 0)
(2.986796839 0.003318144535 0)
(2.987002776 0.0032863827 0)
(2.987269012 0.003321361257 0)
(2.987464801 0.00372655578 0)
(2.987572765 0.00425758802 0)
(2.987575045 0.004457490622 0)
(2.987580797 0.004564660565 0)
(2.98752572 0.004645434843 0)
(2.986205607 0.006629084195 0)
(2.987406931 0.008713653163 0)
(2.9880631 0.01001197663 0)
(2.988088529 0.009670849105 0)
(2.987885764 0.00798548016 0)
(2.987818814 0.006038300655 0)
(2.987652468 0.004685468971 0)
(2.987693527 0.004641384286 0)
(2.98794356 0.00418795248 0)
(2.987872801 0.003588620574 0)
(2.98776285 0.003480464958 0)
(2.987661704 0.003772475884 0)
(2.987458815 0.004288443019 0)
(2.987339663 0.00476965 0)
(2.987128548 0.005062011252 0)
(2.987255628 0.005162732143 0)
(2.987621335 0.004742987669 0)
(2.987801518 0.004290618761 0)
(2.987926486 0.004103124779 0)
(2.988286091 0.00432356451 0)
(2.988707299 0.004629082055 0)
(2.988804977 0.004553388834 0)
(2.988657258 0.004673275027 0)
(2.988174056 0.004585252243 0)
(2.987932417 0.004026898099 0)
(2.987461192 0.003905734662 0)
(2.987002317 0.003350597378 0)
(2.987123388 0.003322087434 0)
(2.987439268 0.003379061923 0)
(2.987644334 0.003841341576 0)
(2.987799841 0.004288124012 0)
(2.987809201 0.004449638981 0)
(2.987762942 0.004581081549 0)
(2.987640167 0.004658130746 0)
(2.986397295 0.00654625652 0)
(2.987615524 0.00862412548 0)
(2.988231018 0.01003287564 0)
(2.988307558 0.009749104933 0)
(2.988019587 0.008156577429 0)
(2.987832278 0.006379067988 0)
(2.987705906 0.005076935528 0)
(2.9877612 0.004747818939 0)
(2.988021137 0.004194918939 0)
(2.987985416 0.003621671905 0)
(2.98789159 0.00356330055 0)
(2.987806087 0.003798612013 0)
(2.987627949 0.004355593933 0)
(2.987499999 0.004858214332 0)
(2.987297718 0.005059400094 0)
(2.987392858 0.005173081371 0)
(2.987736253 0.004747643924 0)
(2.987915989 0.004294805475 0)
(2.988072673 0.003984460664 0)
(2.988397286 0.004167149524 0)
(2.988828223 0.0044927299 0)
(2.98894587 0.00453796721 0)
(2.98879266 0.004749573838 0)
(2.988316677 0.004649016236 0)
(2.988068246 0.004105614194 0)
(2.987671167 0.00399636111 0)
(2.987192385 0.003361146594 0)
(2.987282207 0.00339410577 0)
(2.987599618 0.003595666797 0)
(2.987812969 0.004039589057 0)
(2.987985494 0.004489572476 0)
(2.987979886 0.004728758043 0)
(2.987903678 0.004756466967 0)
(2.98781126 0.004652587621 0)
(2.987768203 0.008385594713 0)
(2.988338183 0.009908569512 0)
(2.988475444 0.009764716989 0)
(2.988083854 0.008350526863 0)
(2.987863606 0.006601088169 0)
(2.987762629 0.005204254941 0)
(2.98783607 0.004751464733 0)
(2.988082365 0.004225673126 0)
(2.988116798 0.003649265169 0)
(2.988063655 0.003583889912 0)
(2.98796637 0.003818179458 0)
(2.987767526 0.004396157743 0)
(2.987637589 0.004863195965 0)
(2.987488872 0.005064232466 0)
(2.987531643 0.005229950331 0)
(2.987854192 0.004757507023 0)
(2.988063255 0.0042096361 0)
(2.988218199 0.004095701394 0)
(2.988508779 0.004148211261 0)
(2.988920118 0.004550278804 0)
(2.989062013 0.004627778828 0)
(2.988905379 0.004719203041 0)
(2.988467505 0.004534740624 0)
(2.988220813 0.00409047063 0)
(2.987850948 0.004031727885 0)
(2.987346776 0.003414861516 0)
(2.987396379 0.003611773923 0)
(2.987735603 0.003782130875 0)
(2.987978938 0.004181901707 0)
(2.988156492 0.004600209424 0)
(2.98813287 0.004828962596 0)
(2.988064489 0.004792372883 0)
(2.987987546 0.004619206993 0)
(2.987982921 0.008212619328 0)
(2.988485195 0.00980533099 0)
(2.988620993 0.009780115143 0)
(2.988153703 0.008454111688 0)
(2.987853632 0.006682376572 0)
(2.987827623 0.005257406729 0)
(2.987895437 0.004717036781 0)
(2.988149225 0.004220773367 0)
(2.988250803 0.003716055035 0)
(2.988208448 0.003591653047 0)
(2.988100519 0.003678190442 0)
(2.987905232 0.004211459382 0)
(2.987780283 0.004830881657 0)
(2.987674274 0.005120260888 0)
(2.987698916 0.005305626462 0)
(2.987964432 0.004984211832 0)
(2.988180469 0.004494146843 0)
(2.988331864 0.004329269995 0)
(2.988592907 0.004482176594 0)
(2.988994029 0.004846543358 0)
(2.989157209 0.004716373217 0)
(2.989039513 0.004622269332 0)
(2.988659237 0.004460335758 0)
(2.9884241 0.004013217864 0)
(2.988071499 0.003973953667 0)
(2.987556589 0.003459678995 0)
(2.987520934 0.003818373433 0)
(2.987856249 0.00388956886 0)
(2.988098425 0.004158743907 0)
(2.988277672 0.004535459189 0)
(2.988268448 0.004784648445 0)
(2.988245779 0.004770608477 0)
(2.988178768 0.004721672933 0)
(2.988103007 0.007970368317 0)
(2.988550685 0.009631890242 0)
(2.98876968 0.009791488433 0)
(2.98823781 0.008453938323 0)
(2.987865099 0.006773649603 0)
(2.987894878 0.00529361882 0)
(2.987958899 0.004649792966 0)
(2.988228503 0.004451964767 0)
(2.988375513 0.003836776891 0)
(2.988326665 0.003541265229 0)
(2.988248641 0.003557010947 0)
(2.98807776 0.004136021598 0)
(2.987960964 0.004801078744 0)
(2.987885712 0.005255380326 0)
(2.987871319 0.005519838203 0)
(2.988151543 0.005239176125 0)
(2.988319986 0.00483836311 0)
(2.988422206 0.00464942636 0)
(2.988663438 0.004729047003 0)
(2.989057139 0.004955817835 0)
(2.989237476 0.004740394453 0)
(2.989158256 0.004649198398 0)
(2.988825371 0.004453882313 0)
(2.988592331 0.004000612202 0)
(2.988311877 0.003948088885 0)
(2.987794618 0.003560577444 0)
(2.987752299 0.003888634515 0)
(2.988041269 0.003961054096 0)
(2.988223779 0.004136220782 0)
(2.988410636 0.00449905475 0)
(2.988463768 0.00474566751 0)
(2.988464597 0.004734798361 0)
(2.988385459 0.004746021128 0)
(2.988218356 0.007817745924 0)
(2.988603443 0.009527212731 0)
(2.988884785 0.00984712471 0)
(2.988310513 0.008373300294 0)
(2.987912173 0.006797180907 0)
(2.987995198 0.005239472976 0)
(2.988017982 0.004817096071 0)
(2.988326148 0.004831585163 0)
(2.988528084 0.003895663164 0)
(2.988493448 0.00357820007 0)
(2.98842326 0.003649059167 0)
(2.988278807 0.004207660678 0)
(2.988142627 0.004939879073 0)
(2.988094109 0.005440640741 0)
(2.988056771 0.005784888562 0)
(2.988267367 0.005692084009 0)
(2.988405735 0.005133983385 0)
(2.988530724 0.004799581131 0)
(2.988755758 0.004834436981 0)
(2.989152018 0.005006229935 0)
(2.989367756 0.004782155038 0)
(2.989291225 0.00467844771 0)
(2.988963291 0.004457957699 0)
(2.98872878 0.003990297038 0)
(2.988484836 0.003949290687 0)
(2.988047669 0.003544300845 0)
(2.98797348 0.003827608811 0)
(2.988271864 0.003962050431 0)
(2.988404944 0.00413484346 0)
(2.988585895 0.004471745416 0)
(2.988655852 0.004719762277 0)
(2.988665986 0.00473502984 0)
(2.988557356 0.004875536826 0)
(2.9883787 0.007753520851 0)
(2.988672927 0.009511193195 0)
(2.989002076 0.009817547643 0)
(2.988371675 0.008220120957 0)
(2.987970815 0.006811181981 0)
(2.988091107 0.005361639206 0)
(2.988123379 0.005055514335 0)
(2.988434008 0.004969179447 0)
(2.988659461 0.004042295748 0)
(2.988658903 0.003699735333 0)
(2.988613177 0.003889644969 0)
(2.988503468 0.004449415826 0)
(2.988340883 0.005125590427 0)
(2.988308669 0.005559980879 0)
(2.988288911 0.005907344345 0)
(2.988447349 0.005796424808 0)
(2.988569185 0.005165217164 0)
(2.9887089 0.004796182646 0)
(2.988926411 0.004848038232 0)
(2.989299395 0.004991031228 0)
(2.989543358 0.004795438845 0)
(2.98949346 0.004677245513 0)
(2.989160156 0.004459375769 0)
(2.988908592 0.003986737059 0)
(2.988653239 0.003968367552 0)
(2.988295554 0.003509695188 0)
(2.988209358 0.003720852223 0)
(2.988456741 0.003828600889 0)
(2.988638684 0.004090499969 0)
(2.988773659 0.004485197438 0)
(2.98881271 0.004756922871 0)
(2.988785841 0.004830158657 0)
(2.988672797 0.004954741921 0)
(2.98851197 0.007754713671 0)
(2.988744624 0.009491368987 0)
(2.989092655 0.009681929754 0)
(2.988496306 0.008013079101 0)
(2.988044539 0.006818512872 0)
(2.9881933 0.005445765725 0)
(2.988240877 0.00518341313 0)
(2.988524294 0.00492868854 0)
(2.988825209 0.004157132101 0)
(2.988841429 0.003848227884 0)
(2.988799437 0.004060378248 0)
(2.988718359 0.004580493729 0)
(2.988548965 0.005222428258 0)
(2.988491716 0.005556884868 0)
(2.988483314 0.005851248939 0)
(2.988617072 0.005775457186 0)
(2.988723841 0.00513213726 0)
(2.988840396 0.004678285864 0)
(2.989036379 0.004729604933 0)
(2.989393279 0.004899706142 0)
(2.989665247 0.004755982824 0)
(2.989662994 0.004614076402 0)
(2.989365673 0.004410003107 0)
(2.989106851 0.004023119426 0)
(2.98888913 0.004001773071 0)
(2.988538584 0.003448156826 0)
(2.988376777 0.003541426017 0)
(2.988614598 0.003680840859 0)
(2.988827457 0.003971218488 0)
(2.988999719 0.004482658314 0)
(2.988999469 0.004800276432 0)
(2.988932896 0.004941051174 0)
(2.988814681 0.005089490056 0)
(2.988578511 0.007508414305 0)
(2.988799338 0.009253537225 0)
(2.989172419 0.009437187501 0)
(2.988619738 0.007818816285 0)
(2.988128947 0.006675087715 0)
(2.988315206 0.005349467789 0)
(2.988374636 0.004982613326 0)
(2.988641843 0.004681169749 0)
(2.98899507 0.004283621659 0)
(2.989026451 0.003934970218 0)
(2.988948332 0.00387860248 0)
(2.988896935 0.004380113988 0)
(2.988759026 0.005119552289 0)
(2.988754673 0.005579147856 0)
(2.988701136 0.005786817299 0)
(2.988808135 0.005722041737 0)
(2.988876886 0.005080471652 0)
(2.988954824 0.004572982489 0)
(2.989130287 0.004578664768 0)
(2.989490268 0.004741946703 0)
(2.989810852 0.004709855595 0)
(2.989856345 0.004483254009 0)
(2.989566684 0.004256499681 0)
(2.98935609 0.004039557517 0)
(2.989185399 0.003999067521 0)
(2.988779652 0.003411243457 0)
(2.988551315 0.003393726764 0)
(2.988815204 0.003570958451 0)
(2.988973335 0.003894377227 0)
(2.989178268 0.004385054192 0)
(2.989198603 0.004790457539 0)
(2.989158065 0.004968268987 0)
(2.989048184 0.005156353898 0)
(2.98866903 0.007228247848 0)
(2.988892164 0.009002265539 0)
(2.989321554 0.009275598178 0)
(2.988780379 0.007711291476 0)
(2.988275856 0.006578821915 0)
(2.988488005 0.005219339622 0)
(2.988553337 0.004797333137 0)
(2.98883164 0.004767743054 0)
(2.989245042 0.004377115602 0)
(2.989260798 0.003775943964 0)
(2.989196393 0.003684950317 0)
(2.989198613 0.00420136368 0)
(2.989064391 0.005014475829 0)
(2.989057036 0.005543347233 0)
(2.988978218 0.005774604601 0)
(2.989017322 0.005653516313 0)
(2.989042502 0.005043069067 0)
(2.98913559 0.004546325075 0)
(2.989313742 0.004420239015 0)
(2.989696573 0.00460588771 0)
(2.990072147 0.004582182986 0)
(2.990115695 0.004325625187 0)
(2.989829177 0.00408541753 0)
(2.989608508 0.003963555692 0)
(2.989423608 0.003850214381 0)
(2.989003908 0.003434843085 0)
(2.988730179 0.003317285421 0)
(2.988985094 0.003531709059 0)
(2.989149469 0.003846847348 0)
(2.989336124 0.004260249515 0)
(2.989351148 0.004674028702 0)
(2.989362794 0.004883648064 0)
(2.989242143 0.005074646901 0)
(2.989043084 0.008752327495 0)
(2.98951574 0.009184065146 0)
(2.989090183 0.007688546716 0)
(2.98853292 0.006513084362 0)
(2.988751123 0.005173667075 0)
(2.988814277 0.004866540588 0)
(2.989102923 0.005218716285 0)
(2.989466313 0.00453238161 0)
(2.989526304 0.003817443786 0)
(2.98955715 0.003553551745 0)
(2.989582289 0.003989493636 0)
(2.989447846 0.004844734808 0)
(2.989325418 0.005431098753 0)
(2.989306372 0.005688430058 0)
(2.989279677 0.005662281355 0)
(2.989249671 0.005064319339 0)
(2.989333315 0.004554186512 0)
(2.989556281 0.004459858689 0)
(2.989938497 0.004605984093 0)
(2.9903424 0.004587244505 0)
(2.990380169 0.004228058128 0)
(2.990088157 0.00389209658 0)
(2.989843596 0.003893164686 0)
(2.989638462 0.003728456527 0)
(2.989225262 0.003497501024 0)
(2.988911137 0.003288762918 0)
(2.989130215 0.003520400268 0)
(2.989311795 0.003809895674 0)
(2.989518863 0.004132023988 0)
(2.989541801 0.004525379667 0)
(2.9895676 0.004788875556 0)
(2.989489557 0.004882208122 0)
(2.989262563 0.008665019079 0)
(2.989834493 0.009168240569 0)
(2.989461723 0.007643683172 0)
(2.988904191 0.006779322837 0)
(2.989083377 0.005473707414 0)
(2.989132866 0.005251341804 0)
(2.989372914 0.005525634042 0)
(2.989717551 0.004570250784 0)
(2.989818732 0.003817655881 0)
(2.989937778 0.003393940157 0)
(2.990027608 0.00382281858 0)
(2.989907297 0.004729118669 0)
(2.989632465 0.005334127056 0)
(2.989545475 0.005590214741 0)
(2.989459888 0.005665326559 0)
(2.989423764 0.005128852799 0)
(2.98950992 0.004619897814 0)
(2.989704727 0.004537750661 0)
(2.990108098 0.004670940176 0)
(2.990499723 0.004594881958 0)
(2.990573831 0.004137327868 0)
(2.99032744 0.003822670777 0)
(2.990052321 0.003798931111 0)
(2.989851669 0.003633113225 0)
(2.989456714 0.003479124135 0)
(2.989093696 0.003335362395 0)
(2.989285147 0.003598999781 0)
(2.989469914 0.003790450776 0)
(2.989690281 0.004033463459 0)
(2.989734695 0.004437325103 0)
(2.989696374 0.004647060764 0)
(2.989599203 0.004656823265 0)
(2.989401345 0.004615118414 0)
(2.989641356 0.00868900982 0)
(2.990291664 0.009179968367 0)
(2.989843033 0.007540362956 0)
(2.989411275 0.006860200264 0)
(2.989495007 0.00561609217 0)
(2.989468819 0.005494815791 0)
(2.989641236 0.005647942973 0)
(2.990076597 0.00454704525 0)
(2.99011342 0.003764499186 0)
(2.990305542 0.003445791734 0)
(2.990440069 0.00382780519 0)
(2.990339509 0.004702074466 0)
(2.989969222 0.005297962859 0)
(2.989778782 0.005518958791 0)
(2.989657079 0.005693983986 0)
(2.989608123 0.005176474677 0)
(2.989703857 0.00471668762 0)
(2.9898269 0.00462668822 0)
(2.990216805 0.00461953298 0)
(2.990604228 0.004574953895 0)
(2.990699947 0.004039492688 0)
(2.990468549 0.003696108622 0)
(2.990232816 0.003752918386 0)
(2.990029232 0.003562660696 0)
(2.989659712 0.003469219638 0)
(2.989260008 0.003331056283 0)
(2.989414783 0.003653734482 0)
(2.989589911 0.003771677633 0)
(2.989821005 0.003945426536 0)
(2.989843885 0.004302926994 0)
(2.989790343 0.004523267266 0)
(2.989706059 0.004496752855 0)
(2.989535974 0.004450605841 0)
(2.990208331 0.008722481374 0)
(2.990773106 0.009114937539 0)
(2.990412302 0.007364935019 0)
(2.989938322 0.006848101406 0)
(2.989850423 0.005678636679 0)
(2.989753313 0.005516463534 0)
(2.989906222 0.005536740585 0)
(2.990331355 0.004514010479 0)
(2.990389549 0.003748023028 0)
(2.99063274 0.00352680741 0)
(2.99076381 0.003912832154 0)
(2.990664215 0.004786307868 0)
(2.990255176 0.005433108177 0)
(2.990101856 0.005598394078 0)
(2.989965623 0.00567929567 0)
(2.989791915 0.005244807095 0)
(2.989849428 0.004681947746 0)
(2.989981623 0.004612938232 0)
(2.990309637 0.004557751141 0)
(2.990731681 0.004556366717 0)
(2.990829632 0.00396778234 0)
(2.990623069 0.003598812124 0)
(2.990410761 0.003798698426 0)
(2.990200346 0.003576880189 0)
(2.989799269 0.003424592418 0)
(2.989352971 0.00320740122 0)
(2.989485252 0.003600843739 0)
(2.989651667 0.003682772288 0)
(2.989877699 0.003841833494 0)
(2.989889737 0.004156601484 0)
(2.989877397 0.004412749417 0)
(2.989813904 0.004445230858 0)
(2.989681153 0.004452962859 0)
(2.990851494 0.00866746181 0)
(2.991339794 0.008977053721 0)
(2.990904937 0.007282461985 0)
(2.990544145 0.00663673106 0)
(2.990212887 0.005526532152 0)
(2.99006617 0.005392520501 0)
(2.990195586 0.005356213081 0)
(2.990568258 0.004441228571 0)
(2.990655362 0.003916779952 0)
(2.990857627 0.003678940131 0)
(2.990993611 0.004004427566 0)
(2.990884399 0.004872551275 0)
(2.990426163 0.005629398267 0)
(2.990298704 0.005728825703 0)
(2.990140728 0.005701213858 0)
(2.989930419 0.005294381473 0)
(2.989949372 0.004636543403 0)
(2.990059538 0.004493254126 0)
(2.990350385 0.004496400233 0)
(2.990763824 0.004469201576 0)
(2.990948458 0.003877802681 0)
(2.990723216 0.003516267929 0)
(2.990549964 0.003823612456 0)
(2.990364482 0.003681173961 0)
(2.989889414 0.003362158518 0)
(2.989402772 0.003089213705 0)
(2.989499077 0.003484282833 0)
(2.989695671 0.003579157341 0)
(2.989883913 0.003740548254 0)
(2.989917995 0.004008487763 0)
(2.989912313 0.004295685924 0)
(2.98989302 0.004370369184 0)
(2.989779978 0.004480998425 0)
(2.991567812 0.008598104148 0)
(2.991848978 0.008835773303 0)
(2.991337334 0.007283920315 0)
(2.991052038 0.006492897087 0)
(2.990500358 0.005451536811 0)
(2.990405676 0.005270981866 0)
(2.990531665 0.005319369688 0)
(2.990777349 0.004637574552 0)
(2.990795747 0.004164894573 0)
(2.990987152 0.003672663908 0)
(2.991120763 0.004033462485 0)
(2.991036171 0.004895719415 0)
(2.99059608 0.005746536877 0)
(2.990477919 0.005890088133 0)
(2.990300682 0.005847218975 0)
(2.990122458 0.005465678237 0)
(2.990052961 0.004696027407 0)
(2.990090001 0.004311505877 0)
(2.990386943 0.004303891508 0)
(2.990763554 0.004273065861 0)
(2.990971014 0.003806524619 0)
(2.990765579 0.003488720485 0)
(2.990559509 0.003747102033 0)
(2.990411088 0.003696537801 0)
(2.989937434 0.003304762922 0)