/*--------------------------------*- C++ -*----------------------------------*\
  =========                 |
  \\      /  F ield         | OpenFOAM: The Open Source CFD Toolbox
   \\    /   O peration     | Website:  https://openfoam.org
    \\  /    A nd           | Version:  7
     \\/     M anipulation  |
\*---------------------------------------------------------------------------*/
FoamFile
{
    version     2.0;
    format      ascii;
    class       volScalarField;
    location    "3.5";
    object      T;
}
// * * * * * * * * * * * * * * * * * * * * * * * * * * * * * * * * * * * * * //

dimensions      [0 0 0 1 0 0 0];

internalField   nonuniform List<scalar> 8(0.9952658459 0.9936553774 1.010386189 1.001684028 1.014371141 1.012927149 1.015206545 1.020094898);

boundaryField
{
    inlet
    {
        type            fixedValue;
        value           nonuniform 0();
    }
    outlet
    {
        type            inletOutlet;
        inletValue      nonuniform 0();
        value           nonuniform 0();
    }
    bottom
    {
        type            slip;
    }
    top
    {
        type            slip;
    }
    obstacle
    {
        type            zeroGradient;
    }
    defaultFaces
    {
        type            empty;
    }
    procBoundary34to28
    {
        type            processor;
        value           nonuniform List<scalar> 2(0.9991544861 1.006324346);
    }
    procBoundary34to33
    {
        type            processor;
        value           nonuniform List<scalar> 4(1.017296028 1.016926147 1.0118853 1.005910989);
    }
    procBoundary34to35
    {
        type            processor;
        value           nonuniform List<scalar> 4(1.000051575 1.002702978 1.007140106 1.016108119);
    }
}


// ************************************************************************* //
