/*--------------------------------*- C++ -*----------------------------------*\
  =========                 |
  \\      /  F ield         | OpenFOAM: The Open Source CFD Toolbox
   \\    /   O peration     | Website:  https://openfoam.org
    \\  /    A nd           | Version:  7
     \\/     M anipulation  |
\*---------------------------------------------------------------------------*/
FoamFile
{
    version     2.0;
    format      ascii;
    class       volScalarField;
    location    "2.1";
    object      rho;
}
// * * * * * * * * * * * * * * * * * * * * * * * * * * * * * * * * * * * * * //

dimensions      [1 -3 0 0 0 0 0];

internalField   nonuniform List<scalar> 
2222
(
1.40000504
1.40000504
1.40000504
1.40000504
1.40000504
1.40000504
1.40000504
1.40000504
1.40000504
1.40000504
1.40000504
1.40000504
1.40000504
1.40000504
1.40000504
1.40000504
1.40000504
1.40000504
1.40000504
1.40000504
1.40000504
1.40000504
1.40000504
1.40000504
1.40000504
1.40000504
1.40000504
1.40000504
1.40000504
1.40000504
1.40000504
1.40000504
1.40000504
1.40000504
1.40000504
1.40000504
1.40000504
1.40000504
1.40000504
1.40000504
1.40000504
1.40000504
1.40000504
1.40000504
1.40000504
1.40000504
1.40000504
1.40000504
1.40000504
1.40000504
1.40000504
1.40000504
1.40000504
1.40000504
1.40000504
1.40000504
1.40000504
1.40000504
1.40000504
1.40000504
1.40000504
1.40000504
1.40000504
1.40000504
1.40000504
1.40000504
1.40000504
1.40000504
1.40000504
1.40000504
1.40000504
1.40000504
1.40000504
1.40000504
1.40000504
1.40000504
1.40000504
1.40000504
1.40000504
1.40000504
1.40000504
1.40000504
1.40000504
1.40000504
1.40000504
1.40000504
1.40000504
1.40000504
1.40000504
1.40000504
1.40000504
1.40000504
1.40000504
1.40000504
1.40000504
1.40000504
1.40000504
1.40000504
1.40000504
1.40000504
1.40000504
1.40000504
1.40000504
1.40000504
1.40000504
1.40000504
1.40000504
1.40000504
1.40000504
1.40000504
1.40000504
1.40000504
1.40000504
1.40000504
1.40000504
1.40000504
1.40000504
1.40000504
1.40000504
1.40000504
1.40000504
1.40000504
1.40000504
1.40000504
1.40000504
1.40000504
1.40000504
1.40000504
1.40000504
1.40000504
1.40000504
1.40000504
1.40000504
1.40000504
1.40000504
1.40000504
1.40000504
1.40000504
1.40000504
1.40000504
1.40000504
1.40000504
1.40000504
1.40000504
1.40000504
1.40000504
1.40000504
1.40000504
1.40000504
1.40000504
1.40000504
1.40000504
1.40000504
1.40000504
1.40000504
1.40000504
1.40000504
1.40000504
1.40000504
1.40000504
1.40000504
1.40000504
1.40000504
1.40000504
1.40000504
1.40000504
1.40000504
1.40000504
1.40000504
1.40000504
1.40000504
1.40000504
1.40000504
1.40000504
1.40000504
1.40000504
1.40000504
1.40000504
1.40000504
1.40000504
1.40000504
1.40000504
1.40000504
1.40000504
1.40000504
1.40000504
1.40000504
1.40000504
1.40000504
1.40000504
1.40000504
1.40000504
1.40000504
1.40000504
1.40000504
1.40000504
1.40000504
1.40000504
1.40000504
1.40000504
1.40000504
1.40000504
1.40000504
1.40000504
1.40000504
1.40000504
1.40000504
1.40000504
1.40000504
1.40000504
1.40000504
1.40000504
1.40000504
1.40000504
1.40000504
1.40000504
1.40000504
1.40000504
1.40000504
1.40000504
1.40000504
1.40000504
1.40000504
1.40000504
1.40000504
1.40000504
1.40000504
1.40000504
1.40000504
1.40000504
1.40000504
1.40000504
1.40000504
1.40000504
1.40000504
1.40000504
1.40000504
1.40000504
1.40000504
1.40000504
1.40000504
1.40000504
1.40000504
1.40000504
1.40000504
1.40000504
1.40000504
1.40000504
1.40000504
1.40000504
1.40000504
1.40000504
1.40000504
1.40000504
1.40000504
1.40000504
1.40000504
1.40000504
1.40000504
1.40000504
1.40000504
1.40000504
1.40000504
1.40000504
1.40000504
1.40000504
1.40000504
1.40000504
1.40000504
1.40000504
1.40000504
1.40000504
1.40000504
1.40000504
1.40000504
1.40000504
1.40000504
1.40000504
1.40000504
1.40000504
1.40000504
1.40000504
1.40000504
1.40000504
1.40000504
1.40000504
1.40000504
1.40000504
1.40000504
1.40000504
1.40000504
1.40000504
1.40000504
1.40000504
1.40000504
1.40000504
1.40000504
1.40000504
1.40000504
1.40000504
1.40000504
1.40000504
1.40000504
1.40000504
1.40000504
1.40000504
1.40000504
1.400005039
1.400005039
1.400005021
1.400005014
1.400005053
1.4000049
1.400052193
1.40060393
1.40000504
1.40000504
1.40000504
1.40000504
1.40000504
1.40000504
1.40000504
1.40000504
1.40000504
1.40000504
1.40000504
1.40000504
1.40000504
1.40000504
1.40000504
1.40000504
1.40000504
1.40000504
1.40000504
1.40000504
1.40000504
1.40000504
1.40000504
1.40000504
1.40000504
1.40000504
1.40000504
1.40000504
1.40000504
1.40000504
1.40000504
1.40000504
1.40000504
1.40000504
1.40000504
1.40000504
1.40000504
1.40000504
1.40000504
1.40000504
1.40000504
1.40000504
1.40000504
1.40000504
1.40000504
1.40000504
1.40000504
1.40000504
1.40000504
1.40000504
1.400005027
1.400005023
1.400005048
1.400004698
1.400019846
1.40028038
1.40291894
1.429013144
1.50960914
1.743734006
2.142457999
2.539253437
2.99041931
3.12594793
1.40000504
1.40000504
1.40000504
1.40000504
1.40000504
1.40000504
1.40000504
1.40000504
1.40000504
1.40000504
1.40000504
1.40000504
1.40000504
1.40000504
1.40000504
1.40000504
1.40000504
1.40000504
1.40000504
1.40000504
1.40000504
1.40000504
1.40000504
1.40000504
1.40000504
1.40000504
1.40000504
1.40000504
1.40000504
1.40000504
1.40000504
1.40000504
1.40000504
1.40000504
1.40000504
1.40000504
1.40000504
1.40000504
1.40000504
1.40000504
1.40000504
1.40000504
1.40000504
1.40000504
1.40000504
1.40000504
1.400005039
1.400005034
1.400005035
1.400005045
1.400004792
1.400009105
1.400139367
1.401455778
1.416547457
1.475600318
1.647505193
2.012222207
2.396828281
2.870676243
3.074692257
3.178137029
3.239666581
3.290519708
3.335616104
3.34727594
3.351670142
1.40000504
1.40000504
1.40000504
1.40000504
1.40000504
1.40000504
1.40000504
1.40000504
1.40000504
1.40000504
1.40000504
1.40000504
1.40000504
1.40000504
1.40000504
1.40000504
1.40000504
1.40000504
1.40000504
1.40000504
1.40000504
1.40000504
1.40000504
1.40000504
1.40000504
1.40000504
1.40000504
1.40000504
1.40000504
1.40000504
1.40000504
1.40000504
1.40000504
1.40000504
1.40000504
1.40000504
1.40000504
1.40000504
1.40000504
1.40000504
1.40000504
1.40000504
1.40000504
1.400005038
1.400005038
1.400005035
1.400005031
1.400004901
1.400005814
1.400073717
1.400799889
1.409572893
1.45400858
1.580386099
1.90256942
2.280355657
2.742989369
3.024028027
3.13966276
3.225375515
3.282572353
3.334679681
3.350084145
3.353616759
3.352435752
3.347181986
3.337989484
1.40000504
1.40000504
1.40000504
1.40000504
1.40000504
1.40000504
1.40000504
1.40000504
1.40000504
1.40000504
1.40000504
1.40000504
1.40000504
1.40000504
1.40000504
1.40000504
1.40000504
1.40000504
1.40000504
1.40000504
1.40000504
1.40000504
1.40000504
1.40000504
1.40000504
1.40000504
1.40000504
1.40000504
1.40000504
1.40000504
1.40000504
1.40000504
1.40000504
1.40000504
1.40000504
1.40000504
1.40000504
1.40000504
1.40000504
1.40000504
1.400005038
1.400005038
1.400005025
1.40000501
1.400005106
1.400004913
1.400041936
1.400484088
1.405864036
1.439728763
1.53604664
1.813835963
2.186732574
2.618608046
2.97396165
3.103001678
3.206898241
3.273021474
3.329561065
3.351318642
3.355446611
3.354879185
3.348786311
3.339717229
3.327370879
3.31602708
3.309782182
1.40000504
1.40000504
1.40000504
1.40000504
1.40000504
1.40000504
1.40000504
1.40000504
1.40000504
1.40000504
1.40000504
1.40000504
1.40000504
1.40000504
1.40000504
1.40000504
1.40000504
1.40000504
1.40000504
1.40000504
1.40000504
1.40000504
1.40000504
1.40000504
1.40000504
1.40000504
1.40000504
1.40000504
1.40000504
1.40000504
1.40000504
1.40000504
1.40000504
1.40000504
1.40000504
1.40000504
1.40000504
1.400005038
1.400005038
1.400005023
1.400005012
1.400005064
1.40000464
1.400026417
1.400322621
1.403932708
1.430336199
1.50746619
1.746295597
2.110465658
2.51229169
2.920693945
3.067636975
3.187592578
3.266572508
3.326339842
3.348830264
3.352951394
3.352922918
3.348507768
3.341150584
3.329201989
3.315667992
3.309655282
3.308694574
3.309983345
3.31429131
1.40000504
1.40000504
1.40000504
1.40000504
1.40000504
1.40000504
1.40000504
1.40000504
1.40000504
1.40000504
1.40000504
1.40000504
1.40000504
1.40000504
1.40000504
1.40000504
1.40000504
1.40000504
1.40000504
1.40000504
1.40000504
1.40000504
1.40000504
1.40000504
1.40000504
1.40000504
1.40000504
1.40000504
1.40000504
1.40000504
1.40000504
1.40000504
1.40000504
1.40000504
1.400005039
1.400005038
1.400005025
1.400005017
1.400005049
1.400004583
1.400018655
1.400236271
1.402902419
1.424331366
1.489418314
1.698565409
2.050694679
2.429638365
2.868195594
3.035927819
3.16706611
3.260267109
3.322546223
3.348768039
3.352778016
3.352507801
3.34734674
3.339093219
3.327043936
3.314362517
3.309745007
3.308904347
3.310254486
3.314111778
3.320214435
3.326871137
3.333174701
1.40000504
1.40000504
1.40000504
1.40000504
1.40000504
1.40000504
1.40000504
1.40000504
1.40000504
1.40000504
1.40000504
1.40000504
1.40000504
1.40000504
1.40000504
1.40000504
1.40000504
1.40000504
1.40000504
1.40000504
1.40000504
1.40000504
1.40000504
1.40000504
1.40000504
1.40000504
1.40000504
1.40000504
1.40000504
1.40000504
1.40000504
1.400005039
1.400005038
1.400005028
1.400005019
1.400005043
1.400004583
1.400015014
1.400192574
1.402367676
1.420683708
1.47834907
1.666939407
2.007125125
2.370732475
2.821536392
3.009565223
3.147606589
3.253942197
3.31999237
3.348366692
3.3527123
3.352183115
3.346184539
3.337534638
3.325208526
3.312470307
3.308525646
3.308234788
3.31048764
3.314924552
3.321112227
3.327870863
3.332797586
3.334473075
3.334436247
3.333421646
1.40000504
1.40000504
1.40000504
1.40000504
1.40000504
1.40000504
1.40000504
1.40000504
1.40000504
1.40000504
1.40000504
1.40000504
1.40000504
1.40000504
1.40000504
1.40000504
1.40000504
1.40000504
1.40000504
1.40000504
1.40000504
1.40000504
1.40000504
1.40000504
1.40000504
1.40000504
1.40000504
1.40000504
1.400005038
1.400005038
1.400005029
1.400005019
1.400005041
1.400004579
1.400013702
1.400177007
1.40216707
1.418936097
1.472708943
1.649141076
1.979205824
2.332472102
2.785815273
2.989855733
3.132144874
3.248787458
3.317966419
3.347246847
3.351666541
3.351627352
3.345931892
3.336943805
3.323973215
3.310921719
3.30763436
3.307745188
3.310612372
3.31546219
3.322198066
3.329211395
3.333639821
3.334824343
3.334470261
3.332903134
3.330172564
3.32677914
3.322610502
1.40000504
1.40000504
1.40000504
1.40000504
1.40000504
1.40000504
1.40000504
1.40000504
1.40000504
1.40000504
1.40000504
1.40000504
1.40000504
1.40000504
1.40000504
1.40000504
1.40000504
1.40000504
1.40000504
1.40000504
1.40000504
1.40000504
1.40000504
1.40000504
1.40000504
1.400005038
1.400005038
1.400005028
1.400005017
1.400005043
1.400004554
1.400014087
1.400183811
1.402228088
1.418768547
1.471821537
1.644631197
1.967720706
2.313561305
2.764552418
2.977125398
3.122227812
3.247244154
3.317543045
3.346442237
3.349958949
3.350318149
3.344930108
3.335883699
3.323080182
3.310563252
3.307578456
3.307884891
3.310848601
3.316049551
3.323238272
3.330529554
3.334680587
3.335730349
3.335277967
3.333361765
3.330124943
3.32610047
3.322592376
3.321080609
3.320980083
3.321389426
1.40000504
1.40000504
1.40000504
1.40000504
1.40000504
1.40000504
1.40000504
1.40000504
1.40000504
1.40000504
1.40000504
1.40000504
1.40000504
1.40000504
1.40000504
1.40000504
1.40000504
1.40000504
1.40000504
1.40000504
1.40000504
1.40000504
1.400005038
1.400005038
1.40000503
1.400005014
1.400005054
1.400004509
1.400016478
1.400215607
1.402564022
1.420110454
1.475632521
1.652979679
1.972684925
2.314595382
2.76033632
2.970741759
3.116749782
3.248229307
3.319016846
3.346947921
3.349668378
3.350061226
3.343984134
3.334071916
3.321314877
3.310020851
3.307659729
3.308440054
3.311919552
3.317486507
3.324799482
3.331810752
3.335342311
3.336202944
3.335761361
3.333983694
3.330762686
3.326634419
3.32305951
3.321546211
3.321410297
3.32207621
3.323442455
3.325560554
3.328508967
1.40000504
1.40000504
1.40000504
1.40000504
1.40000504
1.40000504
1.40000504
1.40000504
1.40000504
1.40000504
1.40000504
1.40000504
1.40000504
1.40000504
1.40000504
1.40000504
1.40000504
1.40000504
1.40000504
1.400005038
1.400005037
1.400005036
1.400005012
1.400005096
1.400004525
1.400022777
1.40028844
1.403300481
1.423217921
1.484675562
1.674042406
1.993571272
2.336258534
2.774329925
2.972776575
3.117578234
3.251728823
3.320294537
3.346905659
3.348839136
3.350312719
3.344114185
3.333607001
3.320491961
3.309801987
3.307741998
3.308920436
3.312957932
3.319080336
3.326780888
3.333694533
3.336639077
3.337153883
3.336339148
3.334122524
3.330658809
3.326753703
3.323742729
3.32265703
3.322666322
3.323347126
3.324669558
3.326744549
3.329144669
3.331002928
3.331778751
3.331977891
1.40000504
1.40000504
1.40000504
1.40000504
1.40000504
1.40000504
1.40000504
1.40000504
1.40000504
1.40000504
1.40000504
1.40000504
1.40000504
1.40000504
1.40000504
1.40000504
1.400005037
1.400005036
1.400005035
1.400005002
1.400005208
1.400004821
1.400036708
1.400443667
1.404834367
1.429146525
1.501366031
1.709828512
2.029855695
2.378346171
2.800787405
2.983096348
3.126506185
3.261035418
3.323306165
3.346291494
3.347199515
3.349723408
3.343472249
3.333054988
3.32031552
3.310874427
3.309108889
3.3106158
3.31477076
3.320905207
3.328617171
3.335249214
3.337952179
3.338394211
3.337475107
3.335067119
3.33121432
3.326964372
3.324023544
3.323219197
3.323490714
3.324544502
3.326294874
3.328671651
3.331141405
3.332631837
3.333055722
3.333022978
3.332500761
3.331837586
3.330354347
1.40000504
1.40000504
1.40000504
1.40000504
1.40000504
1.40000504
1.40000504
1.40000504
1.40000504
1.40000504
1.40000504
1.40000504
1.400005039
1.400005038
1.400005037
1.40000504
1.400004973
1.400005122
1.400006524
1.400068962
1.40075937
1.407646115
1.438832142
1.529180926
1.765544811
2.085208889
2.444146119
2.838671558
3.000716804
3.141320491
3.271327955
3.327220736
3.3477134
3.347676829
3.349629779
3.342376367
3.331445399
3.319635326
3.312077146
3.310954812
3.313156536
3.317562701
3.32380661
3.331493309
3.337392117
3.339362247
3.339524533
3.338268623
3.335651771
3.331844865
3.327909731
3.325228828
3.324453627
3.324633237
3.325465874
3.327150357
3.329689988
3.332437741
3.3341179
3.334618995
3.334538017
3.333915944
3.332875989
3.331418921
3.329987372
3.32932501
3.32890796
1.40000504
1.40000504
1.40000504
1.40000504
1.40000504
1.40000504
1.40000504
1.40000504
1.40000504
1.400005038
1.400005038
1.400005033
1.400005018
1.400005046
1.400004541
1.400011354
1.400143557
1.401473341
1.413105513
1.454999835
1.57239455
1.839837227
2.157760832
2.535263478
2.880908409
3.024765189
3.162071967
3.284744005
3.330460862
3.347171943
3.346969364
3.34866374
3.341375125
3.330868857
3.319698961
3.31334551
3.312789328
3.31581561
3.320507534
3.327051553
3.334686143
3.339893117
3.341210912
3.340953456
3.339381441
3.336452328
3.332321841
3.328260823
3.325886175
3.325512918
3.325969816
3.327079293
3.328929434
3.331425047
3.33371161
3.334818498
3.335089599
3.334878967
3.33426796
3.333390442
3.332207037
3.331000498
3.330122237
3.329677287
3.329612906
3.329824964
3.330509416
1.40000504
1.40000504
1.40000504
1.40000504
1.40000504
1.40000504
1.400005036
1.400005035
1.400005034
1.400004999
1.400005166
1.40000441
1.400029116
1.40033276
1.403181166
1.422905954
1.480865037
1.637152336
1.937662536
2.251345113
2.64757373
2.92778298
3.056042869
3.189470397
3.293703582
3.332765984
3.347198902
3.348271009
3.348845736
3.34033166
3.329718017
3.31961962
3.314693714
3.314670273
3.318281659
3.323397716
3.330344811
3.337922504
3.342163213
3.342846484
3.342072054
3.339923444
3.336688876
3.332657011
3.328893074
3.326708709
3.326405218
3.326844523
3.327719376
3.329675397
3.332645341
3.335059261
3.335936464
3.3359442
3.33534967
3.334403601
3.333157247
3.331715884
3.330494996
3.329890353
3.329789992
3.329983893
3.330683924
3.331316819
3.331684469
3.332009406
3.332122664
1.40000504
1.40000504
1.400005039
1.400005038
1.400005027
1.400005031
1.400004941
1.400005114
1.400006869
1.400078398
1.400803589
1.407560901
1.440853534
1.524858822
1.731791526
2.052642829
2.365977325
2.765686246
2.971239219
3.09142078
3.222419936
3.305759363
3.332475522
3.342047843
3.345436214
3.345015646
3.338196824
3.329682704
3.319775137
3.3152807
3.315837774
3.319795568
3.325240412
3.332562444
3.3402182
3.343735032
3.344016254
3.342719755
3.339900905
3.335755124
3.331115411
3.327557955
3.326118649
3.325997861
3.326712791
3.328207813
3.33048015
3.333146909
3.334751177
3.335414302
3.335427285
3.335183658
3.334630536
3.33337601
3.331447454
3.32940645
3.328345508
3.328227299
3.328527305
3.329391555
3.330397358
3.33081851
3.331024975
3.331222499
3.331300582
3.330951523
3.330935554
1.400005037
1.400005037
1.400005011
1.400005074
1.400004118
1.400018072
1.400225269
1.402079239
1.417127422
1.468319675
1.592262759
1.861133986
2.186660978
2.512394344
2.880696082
3.017583486
3.130758365
3.24762705
3.307338823
3.335343085
3.343041358
3.346683784
3.343005431
3.333576847
3.324635842
3.31645763
3.313998064
3.315828797
3.320440714
3.325756143
3.33299671
3.339969229
3.342670919
3.342723155
3.341650561
3.339571351
3.335709001
3.330926409
3.326510268
3.324069347
3.323538937
3.324007313
3.325994619
3.329328641
3.332051281
3.333721725
3.334083498
3.333682202
3.333082818
3.331752773
3.329925009
3.328390238
3.327542007
3.327083818
3.326687168
3.326317974
3.326374904
3.326641728
3.327012654
3.327545222
3.328279066
3.328809553
3.328842816
3.328547347
3.327899021
3.326338882
3.326392788
1.40000533
1.400004622
1.400051816
1.400591014
1.405718476
1.436644841
1.514589367
1.69556897
2.013298345
2.323320066
2.681006357
2.966445146
3.064479296
3.166232624
3.266745355
3.30828323
3.325803298
3.33164051
3.338428481
3.333907709
3.328129089
3.320830114
3.312178051
3.30942686
3.311248516
3.31626024
3.323003952
3.331821364
3.338500844
3.340933104
3.340580832
3.338398839
3.334588493
3.329411726
3.324447644
3.3210624
3.31995461
3.320324332
3.322013605
3.323977614
3.325132023
3.32594089
3.326745198
3.327878928
3.32892052
3.329128773
3.328388868
3.326553554
3.324125356
3.321898714
3.320564997
3.320241334
3.320516191
3.321618767
3.322881422
3.323527448
3.32366654
3.323454123
3.322653198
3.321622599
3.320827821
3.320353524
3.320043671
3.319711129
3.319352195
3.318751356
3.319561239
1.401596898
1.414691463
1.465508881
1.5818334
1.837080923
2.178967606
2.480798349
2.8520142
3.025492774
3.113066243
3.210171973
3.278753925
3.30940403
3.322451879
3.326759739
3.329399929
3.322050252
3.315884606
3.309073364
3.302641751
3.301942591
3.304404857
3.308843624
3.314835587
3.32289888
3.329380765
3.332332785
3.332742626
3.33305628
3.331230758
3.326043453
3.318706609
3.312545015
3.309530427
3.308953638
3.30984898
3.313069691
3.31704509
3.320051548
3.321720418
3.322345275
3.322425299
3.321396177
3.318901661
3.316428538
3.314704177
3.313599502
3.313032683
3.313005388
3.313423415
3.313823263
3.314114279
3.314460202
3.314883335
3.315146373
3.315095337
3.314582844
3.313497741
3.311974617
3.310506127
3.309600651
3.309306719
3.309271726
3.309482331
3.30994952
3.310043856
3.311499017
1.683858656
2.007534383
2.330900449
2.655757777
2.985140728
3.069811014
3.149085863
3.227331773
3.27598422
3.297476378
3.302488612
3.308622168
3.308824427
3.305410809
3.303292315
3.296753659
3.289612798
3.290033969
3.294262083
3.300853473
3.308146541
3.31423665
3.318439398
3.320056128
3.320232167
3.320009062
3.317197396
3.312313334
3.307421478
3.303870352
3.301807184
3.301239191
3.301980174
3.304215181
3.306334195
3.308310464
3.310339311
3.311860325
3.312239626
3.311713142
3.309703731
3.306580325
3.303329525
3.301377948
3.300961313
3.30139961
3.303190698
3.305081151
3.306061797
3.30637005
3.306297886
3.305501088
3.304051957
3.302688836
3.30192619
3.301546213
3.301316538
3.301214926
3.301222036
3.301232042
3.301097599
3.300781437
3.300640896
3.300596253
3.300515591
3.300042728
3.30108688
2.84924429
3.058053499
3.128578608
3.197705768
3.261352075
3.288809308
3.299107098
3.299732765
3.29992985
3.291400451
3.285562499
3.281590619
3.273800034
3.271264455
3.273578356
3.278407875
3.284240923
3.291027276
3.299082349
3.305224012
3.308475528
3.310494419
3.310527592
3.308018856
3.301697241
3.294208252
3.289267907
3.287690396
3.287711218
3.28916414
3.292948734
3.296921595
3.299252101
3.300318717
3.300679404
3.300517933
3.299220875
3.297231423
3.295387055
3.293875789
3.292918987
3.292605164
3.292575601
3.293329489
3.294766997
3.29607635
3.297053134
3.297448434
3.297292399
3.296462405
3.294923089
3.292973481
3.291620484
3.291328517
3.291493346
3.292238518
3.293596251
3.294380546
3.294522442
3.29444599
3.293923309
3.293002654
3.292144237
3.291713458
3.291627723
3.291643376
3.292727529
3.214053075
3.244079472
3.268809013
3.271942608
3.274049094
3.275566116
3.272638344
3.272880507
3.270977055
3.261964119
3.2591115
3.262204077
3.267800581
3.273618214
3.279301629
3.285478176
3.290871258
3.294197345
3.295229793
3.295243141
3.293095812
3.290188996
3.287691128
3.285229426
3.283592814
3.282890119
3.282998863
3.283747641
3.285148213
3.287636572
3.289884079
3.291157391
3.29141726
3.290767442
3.28875994
3.286103954
3.284641969
3.284631817
3.285344487
3.286984858
3.288844006
3.28994489
3.290494567
3.290558599
3.290409808
3.289930764
3.28886865
3.2879924
3.287726434
3.287838018
3.288080876
3.288132416
3.288239909
3.288512151
3.289084757
3.289852309
3.290101741
3.290026889
3.289703828
3.289211906
3.288690912
3.288275897
3.288157103
3.288200966
3.288667907
3.289297996
3.29021778
3.304625652
3.283074719
3.258780437
3.249848677
3.244816541
3.237322835
3.236414324
3.239443965
3.245407829
3.251556532
3.258627377
3.266294716
3.274621096
3.282132229
3.287080491
3.289268083
3.289544688
3.287486906
3.281983524
3.277669966
3.276295207
3.27596364
3.276816357
3.278840253
3.280272169
3.281673968
3.283027409
3.284074065
3.284862231
3.28513364
3.284288915
3.283121576
3.282842814
3.282414112
3.281950352
3.281812441
3.281999664
3.282480577
3.283619813
3.285906849
3.288235033
3.289037988
3.288804244
3.287673353
3.285940549
3.284824054
3.284609752
3.284794759
3.28553044
3.286416215
3.287104589
3.287679854
3.288060799
3.288207972
3.288129808
3.287885314
3.287607315
3.287586308
3.287713002
3.287732194
3.287604847
3.287601565
3.287723889
3.288016924
3.288612138
3.289190498
3.289448592
3.258936447
3.251403827
3.23935301
3.235305029
3.236451401
3.24120566
3.248505405
3.256089074
3.26289968
3.268380739
3.272133121
3.273815681
3.275195902
3.277424429
3.280820723
3.283516663
3.283476914
3.28229887
3.279577063
3.27608161
3.274762978
3.274756737
3.276092138
3.27914833
3.282433918
3.28420368
3.284544559
3.2842238
3.282469873
3.28107669
3.28120429
3.281912795
3.282577799
3.283443848
3.284188163
3.284699374
3.285034326
3.285328974
3.285797291
3.286557442
3.287205981
3.287526482
3.287666962
3.287306625
3.286399387
3.285957064
3.286049867
3.286614879
3.287835211
3.289310501
3.29018213
3.290339579
3.290275192
3.289816902
3.289043578
3.28862687
3.288651705
3.28908031
3.289907312
3.290610297
3.290887425
3.29098099
3.290930565
3.290727159
3.290678288
3.290696156
3.291066639
3.219663632
3.226562995
3.235739437
3.243176776
3.25101587
3.261976224
3.274341019
3.282536509
3.285392853
3.286092055
3.284875921
3.281287539
3.277568517
3.276772903
3.277799402
3.280122232
3.28356382
3.285532187
3.285621286
3.284993041
3.283453379
3.283272079
3.283901798
3.285529859
3.287248938
3.288001508
3.288199937
3.287779075
3.286465148
3.285913121
3.286069016
3.286590973
3.287893374
3.289748153
3.291099164
3.291747394
3.292028134
3.292134853
3.291844928
3.29136368
3.291172808
3.291120014
3.291321738
3.291565968
3.291508698
3.29157351
3.291988648
3.292973657
3.294482667
3.296129945
3.297108785
3.297218241
3.296926161
3.295824676
3.294270428
3.293603593
3.293707342
3.294382905
3.295893195
3.297731658
3.29883222
3.299124814
3.299090996
3.2984918
3.297458345
3.296885606
3.297040903
3.263928366
3.270622704
3.277022874
3.282214054
3.286148633
3.290001551
3.295164533
3.298264782
3.298236419
3.296660681
3.294088733
3.292108809
3.291654602
3.292588082
3.295574726
3.298552567
3.299539304
3.299810973
3.299605394
3.299399626
3.29952521
3.299904648
3.300176839
3.30040087
3.300418444
3.300074011
3.300031081
3.300483129
3.301237428
3.302539184
3.304363161
3.305695351
3.306084207
3.306106228
3.305541135
3.304397591
3.303544994
3.303428766
3.303644031
3.304227384
3.305408506
3.306613214
3.307202869
3.307436438
3.30737977
3.307414036
3.307547947
3.307955368
3.308660133
3.30898211
3.308919688
3.30862106
3.308156103
3.307956912
3.308185307
3.308734978
3.309653145
3.310668257
3.311086897
3.311132389
3.310865375
3.310177453
3.30950928
3.309380412
3.309561633
3.304140686
3.307195414
3.312165175
3.318384059
3.3246013
3.326800893
3.326521074
3.325669688
3.324141865
3.321795415
3.320143905
3.319257028
3.318680892
3.318231162
3.318147823
3.318468051
3.319259518
3.320559899
3.321907105
3.322227153
3.322171705
3.321682182
3.320939026
3.320972345
3.321569607
3.322840896
3.324416871
3.325023154
3.324726707
3.323687897
3.321693988
3.319538087
3.318965953
3.319366947
3.32062162
3.322935059
3.325527679
3.326756048
3.32662227
3.32567933
3.323589973
3.321437489
3.3206823
3.320757705
3.32130433
3.322538037
3.324136537
3.325259422
3.325557044
3.325365575
3.324569213
3.323486674
3.322834528
3.322601751
3.322590054
3.322705451
3.322957069
3.323377467
3.32391029
3.324333932
3.324104422
3.341479484
3.341156183
3.339381518
3.336875811
3.335649521
3.335351372
3.335540411
3.337294818
3.338769102
3.338953922
3.33885873
3.33815122
3.337250306
3.336668097
3.336416418
3.336852437
3.337306162
3.337390026
3.337716278
3.337708495
3.337144512
3.336295865
3.335734386
3.335375856
3.335038241
3.33462063
3.334235783
3.333925523
3.334250394
3.335158856
3.335971962
3.336331925
3.336386532
3.335842199
3.33473216
3.333561435
3.332660094
3.332272138
3.332454401
3.333323522
3.334647961
3.335588181
3.335727657
3.33547438
3.33454361
3.333125387
3.332124349
3.331818051
3.331758491
3.332077256
3.332898447
3.33362878
3.333858138
3.333799171
3.333321539
3.332316383
3.331347319
3.339634699
3.343610741
3.347167616
3.348108407
3.348092046
3.346729677
3.343546889
3.341016859
3.340489771
3.340699674
3.342806547
3.345784665
3.346507711
3.346169146
3.344731554
3.341608307
3.338728623
3.337855017
3.337798493
3.338784027
3.340983757
3.342179781
3.342189276
3.341791063
3.340600806
3.339008742
3.338006882
3.3372997
3.336867383
3.336855117
3.337500842
3.33853023
3.33908821
3.339215584
3.339135163
3.338856897
3.338239843
3.337363546
3.336296479
3.335403925
3.335238579
3.33539283
3.336005258
3.336846505
3.337447631
3.337552503
3.33735893
3.336675952
3.335451342
3.334200894
3.333625128
3.333744133
)
;

boundaryField
{
    inlet
    {
        type            calculated;
        value           nonuniform 0();
    }
    outlet
    {
        type            calculated;
        value           nonuniform 0();
    }
    bottom
    {
        type            calculated;
        value           nonuniform 0();
    }
    top
    {
        type            calculated;
        value           nonuniform 0();
    }
    obstacle
    {
        type            calculated;
        value           nonuniform List<scalar> 
52
(
3.339634699
3.343610741
3.347167616
3.348108407
3.348092046
3.346729677
3.343546889
3.341016859
3.340489771
3.340699674
3.342806547
3.345784665
3.346507711
3.346169146
3.344731554
3.341608307
3.338728623
3.337855017
3.337798493
3.338784027
3.340983757
3.342179781
3.342189276
3.341791063
3.340600806
3.339008742
3.338006882
3.3372997
3.336867383
3.336855117
3.337500842
3.33853023
3.33908821
3.339215584
3.339135163
3.338856897
3.338239843
3.337363546
3.336296479
3.335403925
3.335238579
3.33539283
3.336005258
3.336846505
3.337447631
3.337552503
3.33735893
3.336675952
3.335451342
3.334200894
3.333625128
3.333744133
)
;
    }
    defaultFaces
    {
        type            empty;
    }
    procBoundary14to7
    {
        type            processor;
        value           nonuniform List<scalar> 9(1.40000504 1.40000504 1.40000504 1.40000504 1.40000504 1.40000504 1.40000504 1.40000504 1.40000504);
    }
    procBoundary14to8
    {
        type            processor;
        value           nonuniform List<scalar> 
78
(
1.40000504
1.40000504
1.40000504
1.40000504
1.40000504
1.40000504
1.40000504
1.40000504
1.40000504
1.40000504
1.40000504
1.40000504
1.40000504
1.40000504
1.40000504
1.40000504
1.40000504
1.40000504
1.40000504
1.40000504
1.40000504
1.40000504
1.40000504
1.40000504
1.40000504
1.40000504
1.40000504
1.40000504
1.40000504
1.40000504
1.40000504
1.40000504
1.40000504
1.40000504
1.40000504
1.40000504
1.40000504
1.40000504
1.40000504
1.40000504
1.40000504
1.40000504
1.40000504
1.40000504
1.40000504
1.40000504
1.40000504
1.40000504
1.40000504
1.40000504
1.40000504
1.40000504
1.40000504
1.40000504
1.40000504
1.40000504
1.40000504
1.40000504
1.40000504
1.40000504
1.40000504
1.40000504
1.40000504
1.400005038
1.400005038
1.400005034
1.40000504
1.400004852
1.406336942
1.406336942
1.450131757
1.56530518
1.873640587
2.292000735
3.209372758
3.209372758
3.250707066
3.301033074
)
;
    }
    procBoundary14to9
    {
        type            processor;
        value           nonuniform List<scalar> 
28
(
3.329322171
3.318921132
3.320241322
3.328358187
3.329111543
3.324571566
3.324007011
3.327816851
3.330069943
3.330176196
3.330339432
3.332009854
3.333425102
3.332543908
3.328655407
3.322205462
3.314255532
3.304451346
3.294693306
3.287455705
3.281150805
3.272599656
3.258249189
3.230768025
3.168443389
3.017430042
2.63302652
1.810591284
)
;
    }
    procBoundary14to13
    {
        type            processor;
        value           nonuniform List<scalar> 
26
(
1.40000504
1.40000504
1.40000504
1.40000504
1.40000504
1.40000504
1.40000504
1.40000504
1.40000504
1.40000504
1.40000504
1.40000504
1.40000504
1.40000504
1.40000504
1.40000504
1.40000504
1.400005038
1.400004963
1.400153835
1.509607961
2.48574874
3.168892471
3.3106312
3.265075308
3.21781256
)
;
    }
    procBoundary14to20
    {
        type            processor;
        value           nonuniform List<scalar> 
19
(
3.250719795
3.258210174
3.258210174
3.312844126
3.311368336
3.3073632
3.303352306
3.303352306
3.332521027
3.334321317