/*--------------------------------*- C++ -*----------------------------------*\
  =========                 |
  \\      /  F ield         | OpenFOAM: The Open Source CFD Toolbox
   \\    /   O peration     | Website:  https://openfoam.org
    \\  /    A nd           | Version:  7
     \\/     M anipulation  |
\*---------------------------------------------------------------------------*/
FoamFile
{
    version     2.0;
    format      ascii;
    class       volVectorField;
    location    "2.9";
    object      U;
}
// * * * * * * * * * * * * * * * * * * * * * * * * * * * * * * * * * * * * * //

dimensions      [0 1 -1 0 0 0 0];

internalField   nonuniform List<vector> 
22
(
(3 1.329991103e-15 0)
(2.9875556 -0.0003442714606 0)
(2.973399269 0.01244619866 0)
(2.96085149 0.01191060792 0)
(2.998600708 0.002183794715 0)
(2.995398355 0.007675414967 0)
(2.989855405 0.01881328468 0)
(2.999992708 1.178331503e-05 0)
(2.999943133 9.526019986e-05 0)
(2.999781343 0.0004004278938 0)
(3 3.090395983e-15 0)
(3 4.141724888e-15 0)
(3 3.098816147e-15 0)
(3 6.108602801e-15 0)
(3 6.422009562e-15 0)
(3 5.841396226e-15 0)
(3 6.280503669e-15 0)
(3 6.500065105e-15 0)
(3 4.776379019e-15 0)
(3 1.51512499e-15 0)
(3 1.686499042e-15 0)
(3 1.779721711e-15 0)
)
;

boundaryField
{
    inlet
    {
        type            fixedValue;
        value           nonuniform 0();
    }
    outlet
    {
        type            inletOutlet;
        inletValue      nonuniform 0();
        value           nonuniform 0();
    }
    bottom
    {
        type            slip;
    }
    top
    {
        type            slip;
    }
    obstacle
    {
        type            slip;
    }
    defaultFaces
    {
        type            empty;
    }
    procBoundary19to13
    {
        type            processor;
        value           nonuniform List<vector> 5((3 -2.895109595e-15 0) (3 -1.425587399e-16 0) (3 2.713182117e-15 0) (3 2.713182117e-15 0) (2.9875556 0.0003442704641 0));
    }
    procBoundary19to18
    {
        type            processor;
        value           nonuniform List<vector> 3((3 2.221451892e-15 0) (3 5.340667569e-15 0) (3 5.793197538e-15 0));
    }
    procBoundary19to20
    {
        type            processor;
        value           nonuniform List<vector> 3((2.946388575 0.0352201934 0) (2.982444727 0.03478946957 0) (2.999341876 0.001284869675 0));
    }
    procBoundary19to24
    {
        type            processor;
        value           uniform (3 2.061550346e-15 0);
    }
    procBoundary19to25
    {
        type            processor;
        value           nonuniform List<vector> 7((3.000000021 -2.423272274e-08 0) (2.999999947 1.263660145e-07 0) (2.99999956 5.961048024e-07 0) (3.000000021 -2.423272274e-08 0) (3 -2.162582886e-15 0) (3 -1.401238617e-15 0) (3 1.423116457e-16 0));
    }
}


// ************************************************************************* //
