/*--------------------------------*- C++ -*----------------------------------*\
  =========                 |
  \\      /  F ield         | OpenFOAM: The Open Source CFD Toolbox
   \\    /   O peration     | Website:  https://openfoam.org
    \\  /    A nd           | Version:  7
     \\/     M anipulation  |
\*---------------------------------------------------------------------------*/
FoamFile
{
    version     2.0;
    format      ascii;
    class       volScalarField;
    location    "2";
    object      rho;
}
// * * * * * * * * * * * * * * * * * * * * * * * * * * * * * * * * * * * * * //

dimensions      [1 -3 0 0 0 0 0];

internalField   nonuniform List<scalar> 
2222
(
0.8112234584
0.8065282816
0.801433321
0.7992631184
0.7962974727
0.794492923
0.7934746868
0.7959141336
0.836089269
1.025315025
1.293427129
1.392261544
1.393208351
1.381781369
1.361879428
1.346439342
1.334188159
1.309549245
0.8641015636
0.8591048967
0.8532418229
0.8485099758
0.844272816
0.8400031483
0.8347907953
0.8297538747
0.8264028592
0.8228085546
0.8185156523
0.8120728605
0.8078673209
0.8053106909
0.8024254932
0.7979706164
0.7920209732
0.7904219289
0.78845812
0.7849153663
0.7822629119
0.7826189397
0.7925546627
0.8951644053
1.159601548
1.335352716
1.368621676
1.364853409
1.357944762
1.350274648
1.34055859
1.311695824
0.8527274723
0.8477960395
0.8417104121
0.8368465095
0.8327688935
0.8286492284
0.8234627228
0.8185484919
0.8154531561
0.811918393
0.8075669866
0.8015819696
0.7978745851
0.7953293897
0.7927026293
0.7881337187
0.781327952
0.7803517566
0.7795068712
0.7764045619
0.7726183528
0.7710879099
0.7723399378
0.8117491918
0.9858587712
1.25537525
1.347065951
1.351793968
1.34531006
1.338272826
1.324673114
1.315394818
0.8399282406
0.83469151
0.8285172408
0.8238029367
0.819871834
0.8157761448
0.8106264269
0.8061006108
0.8034655722
0.8002883791
0.7964112076
0.7909882647
0.7874574931
0.7849414742
0.7824924429
0.7784238627
0.7726035518
0.7714884871
0.7709591145
0.7686608563
0.7628840646
0.7608856009
0.7598278311
0.7700504419
0.8550367853
1.099116844
1.306902186
1.349726758
1.346360283
1.347903549
1.37406499
1.546693812
0.8266548821
0.8216734937
0.8155315743
0.8110417713
0.8075908605
0.8040390083
0.7998311645
0.7961675798
0.7936825624
0.7906561361
0.7868930936
0.7815699683
0.7782563817
0.7758068766
0.7733738778
0.7689188247
0.763942
0.7620782405
0.7615754766
0.7598708401
0.7554525593
0.7509008987
0.7494017151
0.7527002795
0.7854598536
0.9887963422
1.205287336
1.408055356
1.518350079
1.653391084
1.804594177
1.997175263
0.8140558117
0.809378987
0.803737956
0.7996709811
0.7966571638
0.7936151907
0.7899688593
0.7862894203
0.7837515404
0.7807247681
0.7769740237
0.771979758
0.7685601493
0.7659544396
0.7632286682
0.7587026019
0.7547707385
0.753427838
0.7527246679
0.7512432512
0.7468515983
0.7386842082
0.7387155065
0.7416070851
0.7592759696
0.8888057382
1.324620134
1.74849734
1.962631674
2.072250469
2.106528519
2.114198158
0.8023021909
0.7980961678
0.7929585973
0.7891953705
0.786466179
0.7835357947
0.7800659989
0.7765285467
0.7740480541
0.7710694072
0.7672881443
0.761785259
0.7585380198
0.7560540118
0.7536095935
0.749290638
0.7458969881
0.7446648839
0.7428157173
0.7401875511
0.7360955199
0.7337977504
0.7369001288
0.7799824588
0.8971945177
1.099772705
1.424348286
1.7969995
2.06507207
2.204993492
2.197322838
2.148671707
0.7899193625
0.7856180568
0.7804945866
0.776716421
0.7740625821
0.7713621068
0.7680138314
0.764606501
0.76206931
0.7592110631
0.7555233823
0.7505528036
0.7480038302
0.746311138
0.7441136992
0.7402929312
0.736474019
0.7348263406
0.7330590693
0.7310785009
0.730961158
0.7446226009
0.814519206
0.9965912416
1.202148947
1.271838143
1.384851558
1.663076609
2.000811014
2.200133639
2.199154175
2.174186516
0.7772247037
0.7733327954
0.7687653462
0.7651988271
0.762568743
0.7597735828
0.7563946093
0.7529295168
0.7509589849
0.7485881414
0.7455059046
0.7412787654
0.7386248347
0.7367624054
0.7345331163
0.7300682477
0.7253070891
0.7256245673
0.7264591951
0.7307786425
0.769380507
0.9002891088
1.106396616
1.193128032
1.281797382
1.297926276
1.329718775
1.474763185
1.797410689
2.063717381
2.155285109
2.166701305
0.7658941773
0.7623506304
0.7578552281
0.7541866246
0.7520504029
0.7498710477
0.7471687227
0.744242687
0.7421582493
0.7396317291
0.7364103966
0.7315167654
0.7295711897
0.7275608594
0.7248384711
0.7188635576
0.7189417304
0.7212098423
0.7402672123
0.8316337767
1.005217501
1.180804764
1.301168614
1.308095028
1.313470023
1.307040612
1.309817768
1.357108226
1.544015907
1.891901923
2.151997357
2.176567206
0.7557519472
0.7522539527
0.7478242696
0.7443760332
0.7421860707
0.7399999014
0.7368380213
0.7335835032
0.7315381183
0.7292442355
0.7261506758
0.7225208759
0.7197908802
0.7177102111
0.7136243723
0.7129062411
0.7200740435
0.7692152698
0.9239896257
1.117750905
1.256331253
1.27714101
1.311593148
1.322672868
1.321997646
1.317786296
1.313781618
1.319135072
1.380268194
1.641422632
2.01102831
2.152293029
0.7436479279
0.7399546553
0.7350593086
0.7312338497
0.7291376207
0.7267863593
0.7240731406
0.721749756
0.7206612885
0.7189543274
0.7157114818
0.7110554646
0.7083571985
0.7085586006
0.7097166658
0.7367220213
0.850619961
1.022290807
1.17643499
1.247082856
1.292756924
1.290267761
1.298759974
1.311784394
1.320253082
1.320346794
1.318112245
1.318518573
1.330027057
1.43176245
1.765476981
2.096617429
0.7310381328
0.7271506189
0.7221972161
0.7189103362
0.7175762296
0.7162546134
0.7143186225
0.7124105663
0.7105009786
0.7077684014
0.7027385869
0.7005823295
0.7018425038
0.7145180801
0.7720275077
0.9428601604
1.152547367
1.273684674
1.298505889
1.30475298
1.313710122
1.311142082
1.305710052
1.308615618
1.314361599
1.318400311
1.318219468
1.318260343
1.32094183
1.348165069
1.51874962
1.94613752
0.7188151345
0.7161263729
0.7126112439
0.7098887923
0.7085187312
0.7070421136
0.7051292172
0.7026623648
0.7007834347
0.6984593847
0.6960790182
0.699722833
0.7314466549
0.8737734973
1.066511242
1.229090204
1.263111445
1.311052656
1.314006205
1.313515287
1.320105323
1.322581792
1.319120727
1.312994958
1.312547632
1.314640574
1.316756379
1.317695138
1.319388585
1.327562245
1.379434396
1.741621172
0.7099146143
0.7072298099
0.7032057675
0.6998750106
0.6991819973
0.6978560072
0.6956050615
0.6921659554
0.6919588532
0.6922720575
0.7041773186
0.7968443264
0.9765719803
1.127800894
1.251255549
1.282340246
1.276801517
1.292618174
1.304811779
1.310441144
1.317308689
1.323128919
1.322208088
1.318287658
1.313521048
1.312785793
1.313919102
1.316053993
1.317999633
1.320641333
1.331765202
1.557404714
0.697191223
0.6946365173
0.6915626536
0.6890067047
0.687305819
0.6854633533
0.6816403595
0.6818662872
0.688113684
0.7326712561
0.8712753051
1.090817438
1.257110251
1.280147111
1.303049905
1.308195751
1.301790624
1.301694951
1.30455915
1.305326164
1.308859716
1.315383271
1.319522135
1.318177305
1.315327264
1.313398592
1.312933126
1.313976008
1.315307023
1.315288748
1.316156255
1.429198869
0.6863479291
0.6838792222
0.6801025188
0.6765668978
0.6746643205
0.6750069674
0.677123725
0.7011878796
0.8174043404
0.9889288138
1.175090993
1.226993177
1.291824394
1.299572591
1.310348453
1.31735286
1.317714423
1.316056497
1.310154898
1.304027239
1.303421138
1.305661746
1.311081556
1.315116457
1.315370068
1.315150028
1.31462754
1.314033208
1.313508993
1.313026276
1.312643372
1.360224504
0.6749092762
0.6722525276
0.6676512222
0.6668089273
0.6680373727
0.678112983
0.7563540341
0.9247610462
1.110527604
1.250533227
1.304919104
1.282028299
1.286664892
1.293436595
1.303491524
1.312093538
1.315958145
1.315409761
1.313483252
1.306080984
1.304007008
1.305123244
1.308497799
1.312622782
1.314991442
1.315895208
1.316027862
1.315563805
1.314646924
1.313884281
1.313276611
1.330492953
0.6644105336
0.6620180016
0.6602313405
0.6638544652
0.7010840387
0.8370855965
1.064395185
1.235555283
1.269640968
1.295715979
1.313174736
1.307433579
1.294295204
1.29484566
1.297217685
1.303601597
1.30883989
1.310612765
1.310186144
1.307248454
1.306412074
1.307006609
1.310045978
1.313371796
1.315009018
1.315864427
1.316379015
1.316095952
1.315478703
1.315047273
1.31450188
1.320332949
0.6560231551
0.6557142208
0.6700105643
0.773925695
0.9583768375
1.153222522
1.213004487
1.276460044
1.281598654
1.290181014
1.302763028
1.304923629
1.301194073
1.297385108
1.298146759
1.298821954
1.300122047
1.301728261
1.303088289
1.303741318
1.305015948
1.308447003
1.311678366
1.313374748
1.314439908
1.314821048
1.315390407
1.315776055
1.315744464
1.315708768
1.315175287
1.317262789
0.654125887
0.720077742
0.873820709
1.068748979
1.22906273
1.289463494
1.272144289
1.27987102
1.280012506
1.283095763
1.291138592
1.300355639
1.301748524
1.300810326
1.300749454
1.300038819
1.299806533
1.300202179
1.300436499
1.300796507
1.302801582
1.306211303
1.309071072
1.310404692
1.310939974
1.311424907
1.311883317
1.312462193
1.313014236
1.313723886
1.314135285
1.315291646
0.8122407158
1.029881083
1.215384702
1.261344726
1.294220442
1.30300497
1.296733333
1.290386302
1.288926632
1.290128017
1.293932265
1.297753935
1.300047476
1.301262905
1.301867457
1.302360638
1.302201379
1.30231834
1.301828628
1.301075542
1.301134613
1.302653589
1.304730515
1.306235162
1.306943316
1.307423978
1.30794404
1.308397317
1.309007167
1.309890758
1.310963342
1.312523426
1.122125788
1.190676792
1.265122893
1.275074345
1.290063847
1.297164197
1.29459423
1.292220087
1.294007533
1.299017218
1.300725071
1.300442157
1.298864585
1.299924425
1.301797956
1.303441573
1.305015738
1.305719821
1.305076895
1.303269773
1.301238039
1.300167851
1.300616254
1.301812598
1.303369279
1.304698093
1.305496601
1.305863708
1.306148566
1.306734924
1.307751063
1.309799064
1.271279196
1.259186466
1.272082986
1.274864588
1.276352061
1.280139035
1.283439762
1.287728429
1.293971515
1.299181896
1.30191656
1.301581045
1.298962708
1.298088556
1.299506645
1.302280471
1.305543168
1.307029146
1.306627696
1.305057961
1.302426167
1.300239301
1.300313957
1.301077434
1.30229944
1.303859688
1.304879623
1.305382175
1.305794827
1.306502196
1.307676679
1.308962818
1.286431827
1.28302393
1.282457123
1.279433161
1.276669554
1.277684605
1.279770543
1.282388051
1.287793566
1.293094761
1.297171217
1.299199225
1.298010915
1.296621503
1.297153639
1.29945458
1.302660466
1.3049185
1.305178047
1.304491606
1.30271475
1.301280814
1.301434888
1.301940364
1.302742328
1.303704058
1.304447963
1.305049981
1.305740927
1.30656155
1.307830446
1.308125821
1.27848354
1.28379252
1.285505318
1.286384242
1.283957544
1.283114818
1.28280288
1.282101429
1.282536874
1.284165377
1.287449744
1.29137228
1.293096284
1.293583482
1.294549212
1.295951331
1.29761789
1.299181737
1.3000888
1.300378977
1.300491088
1.301090988
1.301660888
1.302047747
1.302539258
1.302787068
1.302940179
1.30323465
1.303907063
1.304704597
1.305140028
1.305416418
1.274561979
1.278631702
1.283598798
1.287156906
1.288725227
1.288522764
1.287306101
1.284203129
1.280265233
1.279478245
1.280308709
1.283240636
1.28664961
1.288683886
1.289760698
1.290517425
1.291650013
1.292927164
1.293904348
1.294345227
1.29483529
1.295880128
1.297089835
1.298204071
1.298707803
1.298544648
1.298355764
1.29839473
1.298665082
1.299263996
1.299699891
1.300603672
1.272570068
1.27142374
1.273775467
1.278934214
1.283071477
1.284470667
1.283984098
1.281683635
1.278361434
1.277039229
1.277525046
1.279050333
1.281409559
1.283329657
1.284529438
1.285432732
1.286587546
1.287857514
1.288599152
1.288998178
1.288931492
1.289284246
1.290133173
1.291083547
1.291676508
1.291689066
1.291526986
1.291533458
1.291851637
1.292248717
1.292772728
1.294299756
1.267652871
1.264459159
1.263904683
1.266285363
1.271041324
1.275174373
1.277027629
1.276887035
1.275971924
1.275192963
1.275591281
1.275840376
1.276170829
1.276738461
1.277862891
1.279454173
1.281186767
1.282729365
1.283386129
1.283794101
1.283544346
1.282932822
1.283077308
1.28341164
1.283793798
1.284254648
1.28472424
1.284853791
1.284978373
1.285276536
1.285863355
1.287640597
1.26097773
1.259648473
1.257644976
1.258227052
1.260398318
1.263525578
1.266071164
1.267547524
1.269057999
1.270259816
1.271172408
1.271270264
1.270796747
1.270562364
1.270974044
1.272115066
1.273707666
1.275274216
1.276150086
1.27674827
1.276770765
1.276275095
1.276353547
1.276846983
1.277214258
1.277705787
1.278096071
1.27806386
1.27789469
1.278005131
1.278398399
1.280078912
1.250655336
1.251610956
1.251636518
1.251704691
1.25206351
1.253642871
1.256022934
1.258460098
1.261049067
1.26342642
1.264952383
1.266010382
1.266058195
1.265589167
1.265214526
1.26516427
1.265633604
1.26640677
1.267211529
1.267961433
1.268230352
1.267972913
1.268361381
1.269354003
1.270449076
1.271653571
1.272598139
1.273068663
1.27317704
1.273081924
1.273031638
1.273891062
1.244356637
1.246727051
1.24913359
1.250162908
1.249806936
1.249431024
1.250753961
1.252581453
1.255357212
1.258333467
1.260507983
1.262205319
1.262630119
1.262724961
1.263319283
1.263063511
1.262055553
1.261654922
1.26182749
1.262368883
1.263011601
1.26340107
1.263877048
1.264241652
1.2643958
1.264929746
1.265767817
1.266484851
1.26705921
1.267701101
1.268437724
1.27042423
1.242304686
1.244766018
1.24791694
1.250603088
1.251045842
1.251130669
1.251608983
1.252181236
1.254022999
1.256450521
1.258684958
1.260604821
1.261387857
1.262193344
1.262945869
1.262739355
1.262303153
1.261508653
1.261289248
1.261574145
1.262578281
1.263761033
1.26442712
1.264605641
1.264368947
1.263911372
1.263520854
1.263124289
1.263023119
1.263551479
1.264883328
1.268797634
1.241443648
1.243608962
1.246139561
1.249239205
1.251942285
1.253422022
1.253899346
1.253012812
1.253539956
1.255247064
1.257222622
1.259211604
1.260497243
1.261422043
1.262356037
1.262379039
1.261958612
1.260754615
1.260670287
1.261542588
1.263922629
1.266212818
1.266669275
1.266115704
1.264299601
1.263185175
1.261558556
1.260623761
1.260790998
1.261937354
1.263784416
1.267612884
1.241955147
1.243140927
1.24560493
1.248155848
1.251039933
1.254382298
1.255939731
1.255690469
1.254858762
1.255532407
1.256817708
1.258692013
1.26029254
1.261219955
1.261671487
1.261464041
1.260897123
1.260914531
1.261388992
1.262965406
1.265548983
1.26831531
1.269356566
1.269212131
1.267964062
1.264069789
1.261176093
1.260551252
1.260965797
1.262152908
1.264032523
1.267541618
1.245194082
1.245705471
1.245861632
1.247607553
1.250416047
1.253626137
1.256324619
1.257548712
1.257434358
1.257877425
1.258294884
1.259735746
1.260879458
1.261157015
1.261351137
1.260665506
1.259645159
1.26007533
1.261226593
1.263010986
1.265558184
1.268690124
1.270147497
1.270302499
1.269961617
1.268279098
1.265283304
1.262662982
1.262146212
1.262945411
1.264722355
1.267876283
1.248264575
1.249460772
1.248951607
1.248634551
1.250244429
1.252935836
1.255334161
1.257488514
1.258465933
1.25969371
1.260599737
1.262131665
1.263044276
1.262694384
1.261444051
1.260270033
1.259148319
1.258683604
1.259375514
1.261612598
1.264774669
1.268429163
1.270189109
1.271185639
1.271263941
1.270600655
1.269225163
1.267428379
1.266318979
1.266451323
1.267387787
1.268744652
1.249526721
1.251832631
1.252072641
1.251627222
1.251802663
1.2530005
1.2546393
1.256245779
1.258223273
1.259910786
1.261566186
1.263519999
1.264889717
1.264834388
1.263506892
1.260996786
1.25897594
1.258045504
1.257656202
1.258629255
1.26124767
1.265973921
1.269912178
1.271287173
1.271825186
1.271866487
1.271405917
1.270447664
1.269598266
1.269597246
1.270287349
1.271007074
1.249128194
1.252501567
1.254244632
1.254984825
1.254360399
1.254094134
1.255007148
1.256747556
1.258251273
1.259874048
1.261596715
1.263561325
1.265530885
1.26625845
1.265766787
1.263570319
1.26009435
1.257766038
1.25710855
1.257134122
1.258286152
1.261324121
1.265977145
1.270480702
1.272281709
1.272507646
1.272497681
1.272073431
1.271303816
1.27119855
1.272053235
1.272815732
1.247965169
1.251666925
1.254911746
1.257594667
1.257495214
1.256010212
1.255781413
1.256155211
1.256683287
1.25757183
1.259568933
1.262971029
1.265658939
1.267096174
1.267065837
1.265951618
1.262826771
1.258829646
1.256966895
1.256750921
1.257632167
1.259275184
1.261589978
1.265269877
1.269813415
1.272725665
1.27338369
1.273130266
1.272346364
1.271797877
1.272248355
1.273030621
1.244622044
1.250183626
1.254671346
1.258766544
1.259714293
1.258724903
1.25717897
1.256307854
1.2567322
1.256919007
1.257927201
1.260289912
1.263741829
1.266769559
1.267302089
1.266975146
1.265277511
1.261635201
1.258189034
1.256882062
1.257514448
1.25895831
1.260397672
1.262032817
1.264168829
1.26775409
1.2710206
1.272242719
1.271969397
1.271440439
1.27181096
1.27256906
1.242294285
1.246283869
1.252890777
1.258380213
1.259607592
1.259851719
1.259506489
1.258567414
1.257757275
1.25708137
1.25786678
1.259197192
1.261082366
1.264559029
1.267328794
1.267362071
1.26622626
1.263975757
1.261546422
1.259565429
1.258918104
1.25921518
1.259845132
1.260186773
1.260773435
1.262691372
1.265282317
1.267758328
1.268908642
1.269102625
1.269044085
1.269907185
1.241576955
1.243780042
1.248341871
1.254783792
1.259007864
1.26048152
1.260784681
1.260282783
1.259217448
1.258490517
1.258564293
1.259226941
1.260866529
1.262480188
1.264668254
1.266663533
1.266118337
1.265064482
1.263878724
1.263107951
1.262500328
1.261827371
1.260768096
1.259957404
1.260389518
1.260899796
1.26169602
1.263073453
1.264829659
1.266267288
1.266511362
1.267280117
1.241896912
1.243061713
1.24551188
1.249729355
1.255586719
1.259895242
1.260892524
1.260458806
1.259421659
1.2591652
1.260073854
1.260419415
1.261329427
1.262176458
1.262449196
1.263814472
1.265465081
1.265285691
1.26513353
1.265181109
1.265093343
1.264438622
1.263195411
1.261556311
1.2608805
1.259734482
1.259456582
1.260460387
1.262437177
1.264810103
1.265297105
1.265957458
1.242454256
1.243301578
1.244541212
1.247517178
1.251974045
1.256292004
1.259145109
1.259815722
1.258952328
1.25919263
1.260609948
1.261886981
1.26291851
1.262729514
1.261842085
1.261556084
1.263083857
1.265147343
1.265877153
1.266511129
1.2665648
1.266068714
1.26487787
1.263020213
1.260079265
1.25849894
1.258636092
1.259617473
1.261525521
1.263803324
1.26553053
1.266268154
1.242811235
1.243263835
1.244360973
1.247094312
1.250544566
1.253210991
1.25516413
1.255974844
1.255442919
1.256676383
1.259953495
1.262301481
1.263598108
1.263625467
1.26207346
1.260679151
1.260663716
1.263248407
1.265889697
1.266866188
1.267247331
1.267081335
1.266086653
1.264313144
1.262084825
1.260200157
1.259191044
1.259068849
1.260790057
1.264045483
1.266607571
1.267712259
1.242529775
1.243083955
1.244171285
1.247071363
1.249862954
1.251353882
1.252497628
1.252855009
1.252545203
1.253353473
1.256257899
1.260912602
1.263631992
1.263714424
1.262341199
1.260291297
1.25907395
1.259816669
1.263343183
1.266511236
1.267321193
1.267435941
1.267060842
1.265631868
1.263415201
1.261022441
1.259774778
1.260075197
1.261398079
1.264093314
1.266903927
1.268843576
1.239483917
1.241422166
1.242694995
1.243743776
1.246532563
1.249067183
1.249907104
1.250655561
1.251258771
1.251640708
1.252102416
1.25320332
1.255968562
1.260238686
1.262248017
1.261760168
1.259770642
1.257773115
1.256944215
1.257997337
1.26188377
1.265953536
1.267268982
1.26724919
1.266103985
1.263953117
1.261655046
1.260279915
1.260460567
1.261568425
1.263843412
1.266999817
1.269100509
1.237102978
1.238601567
1.241054436
1.242877627
1.245378581
1.247955074
1.248619021
1.249191153
1.250282872
1.25165602
1.252027245
1.252161781
1.252761584
1.254760628
1.257543803
1.258909566
1.258279448
1.256360761
1.254567613
1.253995253
1.255345699
1.259318989
1.263889064
1.266164835
1.265775497
1.263827883
1.262015515
1.260847571
1.260700555
1.26131221
1.262482805
1.265202595
1.268829428
1.236574686
1.236549481
1.238283936
1.240984151
1.243491796
1.246224272
1.247322803
1.248190316
1.249769005
1.251930641
1.252231214
1.251805382
1.251443827
1.251560209
1.252842802
1.254769005
1.2554549
1.254688099
1.253002879
1.251747847
1.251622981
1.252814518
1.255852682
1.259346059
1.261869371
1.262405878
1.262005589
1.261321907
1.260887956
1.260900785
1.261311977
1.262388973
1.265234095
1.236939741
1.236142164
1.236623116
1.238448893
1.240957233
1.243661697
1.245405576
1.246742907
1.24876472
1.251620557
1.252026631
1.25141185
1.250714967
1.250026276
1.250153978
1.251241218
1.252462368
1.252641678
1.252032464
1.251025822
1.250323855
1.249772461
1.250017004
1.251144147
1.253421208
1.256940962
1.260351218
1.261249951
1.261146966
1.261103588
1.261041518
1.260875364
1.261420118
1.238248246
1.236492393
1.235879588
1.236648118
1.238714845
1.241250797
1.242937539
1.244058613
1.245663201
1.24856966
1.250689977
1.250418082
1.250005904
1.249453152
1.249211283
1.249517665
1.250334712
1.251097047
1.251408426
1.251195302
1.250407841
1.248922619
1.247127876
1.246275439
1.246817096
1.249424245
1.254180898
1.259054924
1.261172814
1.261570002
1.261242858
1.260466169
1.259263283
1.239121798
1.237570984
1.235765293
1.235893177
1.237324566
1.23964872
1.241123978
1.241672164
1.242373446
1.243658412
1.246735374
1.249275693
1.249881061
1.249560654
1.248888993
1.248721595
1.249117809
1.250486789
1.250930953
1.250933475
1.250248249
1.248804402
1.246553516
1.24477687
1.244372112
1.245084654
1.24802967
1.253311049
1.259156774
1.261512622
1.261497073
1.260552426
1.258134963
1.23933474
1.237849166
1.235838679
1.235477255
1.236630071
1.238800106
1.239986956
1.239989366
1.239911788
1.239934488
1.241375088
1.246085821
1.249240577
1.24935891
1.248750455
1.24840383
1.248736667
1.250043124
1.251916656
1.252159736
1.251494297
1.249850792
1.247021522
1.244356067
1.243463024
1.24372035
1.245287158
1.248488593
1.253851937
1.259166263
1.260632482
1.25961457
1.256631
1.238810311
1.237540454
1.235184429
1.234951001
1.236152145
1.238291718
1.239143287
1.238836347
1.238629181
1.238215578
1.238985497
1.241575018
1.245256575
1.247674859
1.247977648
1.248097313
1.248826245
1.250717478
1.252484371
1.253197525
1.252530771
1.249848213
1.246360559
1.243746854
1.24308229
1.243280301
1.244357217
1.246199884
1.248791946
1.253082639
1.257197803
1.257606408
1.256396157
1.235562387
1.2358662
1.234579563
1.234426696
1.235432716
1.237303145
1.237905977
1.237572887
1.237039557
1.237586427
1.238524055
1.239299963
1.240737519
1.242918746
1.244851532
1.246411767
1.24823143
1.250879876
1.252731428
1.253622728
1.253291562
1.251890585
1.248910793
1.246008763
1.244608173
1.24455765
1.244615032
1.245382859
1.246123535
1.247605462
1.25048015
1.254436644
1.255894615
1.231964652
1.232870212
1.233342772
1.23337253
1.23382922
1.235126513
1.236072336
1.236522856
1.23760934
1.239167296
1.238905805
1.239018065
1.238969882
1.239217929
1.2403058
1.242165547
1.244838238
1.248645792
1.251781293
1.25340968
1.253492126
1.252455708
1.250428348
1.24781901
1.245892208
1.245679103
1.245136305
1.244686371
1.245412477
1.245325525
1.245767157
1.248820974
1.253760547
1.230602229
1.231135995
1.231554463
1.231453004
1.231241047
1.231877496
1.233284438
1.235287157
1.237561711
1.239810156
1.240522447
1.239896139
1.238608117
1.237849504
1.237693993
1.238379483
1.240068116
1.243106088
1.247191624
1.251315411
1.252733038
1.252287836
1.250917344
1.248803996
1.247211925
1.246818702
1.246752879
1.246658966
1.245409313
1.244567315
1.244367111
1.24516019
1.249355849
1.230543381
1.230717027
1.230652009
1.230374673
1.22961105
1.229330982
1.230037817
1.232369824
1.236177581
1.239791032
1.241014692
1.240830451
1.23917887
1.237654972
1.236837159
1.236770024
1.23732427
1.23835055
1.240400314
1.244256991
1.248527713
1.250985794
1.250824212
1.249163882
1.247742114
1.24739402
1.2474385
1.247407572
1.247181113
1.246179885
1.244776443
1.24431213
1.246048865
1.23078668
1.230835798
1.230642561
1.230296003
1.229339397
1.228094941
1.227650841
1.228798723
1.232381379
1.23830995
1.240952468
1.240863116
1.239676365
1.237344057
1.236586006
1.236601624
1.236757491
1.236657751
1.236620831
1.237399504
1.239931261
1.243649073
1.24713216
1.248340606
1.24765848
1.247432482
1.247818069
1.248172638
1.248283999
1.247960755
1.246451027
1.244534652
1.244886621
1.230691865
1.231321463
1.231154592
1.230715171
1.229631665
1.227736781
1.226525658
1.226365573
1.228207563
1.233182536
1.2388292
1.240289808
1.23952417
1.238429276
1.237357979
1.237264733
1.237278795
1.236624668
1.235637384
1.234141024
1.23396964
1.235234074
1.238494411
1.243171309
1.246067745
1.247113606
1.247995156
1.248583769
1.248988088
1.248972274
1.24787123
1.245572557
1.244695392
1.229645424
1.231423679
1.231481828
1.230992163
1.229421468
1.227681727
1.226394232
1.22535196
1.225583214
1.228177289
1.232974894
1.237497912
1.239038082
1.238789818
1.237845402
1.236999808
1.236750443
1.236684612
1.235465736
1.233322692
1.231395088
1.230852485
1.231934262
1.235803919
1.241255786
1.245200654
1.247331043
1.248501626
1.249165436
1.249195942
1.248314873
1.246594641
1.244901147
1.225913301
1.230352017
1.231225601
1.230880275
1.229468331
1.227735015
1.226277897
1.224923683
1.223947737
1.224742402
1.227666658
1.23173543
1.23587504
1.237933273
1.23770062
1.237647306
1.237613729
1.237636421
1.236852885
1.234286014
1.230870211
1.229379275
1.229657754
1.231782273
1.236699239
1.241342456
1.243895196
1.245521431
1.247020459
1.248072671
1.248192399
1.247073832
1.244673646
1.217091985
1.221621241
1.22628757
1.228598528
1.229465726
1.229106066
1.227689422
1.225669038
1.223905585
1.223117888
1.223058378
1.224788697
1.226709653
1.229877199
1.23473159
1.237295034
1.238082625
1.238439571
1.23867743
1.237668666
1.233500622
1.230321573
1.229181418
1.229245608
1.230637429
1.234504246
1.238614842
1.240564533
1.241531319
1.242320025
1.243428085
1.244945886
1.24559989
1.243555563
1.215863713
1.219551928
1.223485538
1.225154151
1.225695108
1.22559904
1.225384357
1.224483335
1.223670259
1.223206827
1.222618967
1.22322313
1.223587999
1.224692936
1.228872187
1.2351665
1.237873912
1.238878297
1.239002267
1.237550437
1.234890648
1.232081215
1.229864299
1.229629288
1.23080031
1.233661843
1.237024135
1.238526553
1.238950795
1.238693728
1.238547588
1.239210913
1.240492388
1.241024068
1.215467651
1.219069243
1.222778684
1.223598109
1.223070965
1.221905015
1.220805404
1.221508174
1.223156911
1.223107741
1.222808883
1.222478883
1.222228476
1.222345759
1.224146708
1.229197202
1.23588965
1.238693509
1.238726561
1.23707911
1.235476021
1.232610256
1.230263746
1.230411748
1.231307124
1.232928525
1.235542636
1.23692599
1.236983943
1.236041384
1.234554793
1.233693533
1.233948624
1.23668703
1.215526816
1.219311168
1.222966785
1.223209424
1.222120946
1.219785569
1.21733118
1.21728909
1.219616267
1.221824195
1.222419239
1.222035477
1.221668142
1.221402607
1.221974223
1.224023704
1.228522462
1.234022173
1.236417799
1.236011598
1.235270363
1.231931735
1.230667263
1.23089792
1.231279286
1.232030661
1.233816352
1.235301347
1.235409965
1.234382949
1.232270078
1.230302567
1.229955849
1.232293727
1.215404097
1.219453451
1.223125121
1.223090481
1.221790122
1.218968865
1.215767447
1.214410314
1.215037308
1.217706428
1.220441475
1.221044832
1.22089285
1.221318092
1.22203019
1.221920485
1.222186071
1.224585198
1.228401528
1.232249074
1.233256698
1.231659235
1.230648202
1.230508577
1.230696718
1.230962723
1.231824275
1.233039674
1.233484266
1.232831934
1.230756412
1.228291863
1.227651366
1.22936186
1.213918503
1.218246628
1.222239923
1.222406213
1.22138284
1.218625104
1.215328505
1.213290057
1.212582668
1.213290665
1.215834611
1.219109741
1.220683787
1.22210146
1.222403625
1.220661094
1.21863442
1.217834494
1.219070481
1.222635801
1.226425827
1.229986165
1.229909638
1.229733032
1.229923748
1.229784435
1.229940394
1.230204593
1.230692622
1.23070216
1.229711484
1.22795926
1.227153405
1.227874347
)
;

boundaryField
{
    inlet
    {
        type            calculated;
        value           nonuniform 0();
    }
    outlet
    {
        type            calculated;
        value           nonuniform List<scalar> 
69
(
1.270417062
1.268656635
1.267490643
1.267477967
1.26782486
1.268798311
1.271098217
1.27287442
1.273057698
1.272580739
1.269861699
1.267297055
1.265974579
1.266345973
1.267797193
1.268888255
1.269132692
1.268741185
1.265019491
1.261332921
1.259309635
1.258278495
1.256827312
1.256491421
1.255927252
1.253524157
1.249031973
1.245892721
1.24485078
1.244731604
1.245015154
1.244840074
1.243744626
1.241080184
1.236545838
1.232138032
1.229238883
1.227813022
1.309547895
1.311708326
1.315381728
1.546701704
1.997207842
2.114223083
2.148688034
2.174195086
2.166728705
2.176588992
2.152319446
2.096639164
1.9461005
1.741539669
1.557381139
1.42922999
1.360242894
1.330500316
1.32033748
1.317265487
1.315292532
1.312522116
1.309788681
1.308954447
1.308121705
1.305408296
1.30060318
1.294305528
1.287635851
1.280074
1.273930626
)
;
    }
    bottom
    {
        type            calculated;
        value           nonuniform 0();
    }
    top
    {
        type            calculated;
        value           nonuniform 0();
    }
    obstacle
    {
        type            calculated;
        value           nonuniform 0();
    }
    defaultFaces
    {
        type            empty;
    }
    procBoundary11to5
    {
        type            processor;
        value           nonuniform List<scalar> 
33
(
0.8207942215
0.8164651819
0.8117256551
0.8077790333
0.8043803944
0.8037084951
0.8047392015
0.8176362411
0.9322256235
1.19781978
1.358631508
1.409993844
1.40994008
1.397643025
1.378600233
1.35704259
1.336331796
1.31495743
0.8763339785
0.8707778089
0.8644467193
0.8596478511
0.8551917254
0.8504810693
0.8447157838
0.8393625593
0.8358812489
0.8321219665
0.827611222
0.8210169387
0.816919855
0.8143559055
0.8143559055
)
;
    }
    procBoundary11to10
    {
        type            processor;
        value           nonuniform List<scalar> 
70
(
0.8693596122
0.8578192344
0.8452596354
0.831828834
0.819019427
0.8068356744
0.7944866684
0.7813268972
0.769668995
0.7592494877
0.7472547004
0.7350703428
0.7219001233
0.7126236319
0.6999970292
0.6885938864
0.6772462566
0.6666609229
0.6557315417
0.6465653847
0.6728473038
0.9377564872
1.234045307
1.269330175
1.2683022
1.273975371
1.273259557
1.268766152
1.260554004
1.24855507
1.242031326
1.240648001
1.239828302
1.24069546
1.243618972
1.246204902
1.247191212
1.246130556