/*--------------------------------*- C++ -*----------------------------------*\
  =========                 |
  \\      /  F ield         | OpenFOAM: The Open Source CFD Toolbox
   \\    /   O peration     | Website:  https://openfoam.org
    \\  /    A nd           | Version:  7
     \\/     M anipulation  |
\*---------------------------------------------------------------------------*/
FoamFile
{
    version     2.0;
    format      ascii;
    class       volVectorField;
    location    "2.1";
    object      U;
}
// * * * * * * * * * * * * * * * * * * * * * * * * * * * * * * * * * * * * * //

dimensions      [0 1 -1 0 0 0 0];

internalField   nonuniform List<vector> 
555
(
(3.276755639 -0.01203025722 0)
(3.277113139 -0.006207871136 0)
(3.275506912 0.0004295576597 0)
(3.273067616 0.005580328001 0)
(3.269583155 0.005222712318 0)
(3.267657288 0.002675071082 0)
(3.266686056 0.0003423385768 0)
(3.266493319 -0.0008010299135 0)
(3.268118024 -6.863536499e-05 0)
(3.208396156 -0.09579197451 0)
(3.288161112 -0.07563809592 0)
(3.273926517 -0.001529116243 0)
(3.267361549 -0.00217904869 0)
(3.269555258 8.346078773e-05 0)
(3.269936951 0.003488445749 0)
(3.267693673 0.003911581024 0)
(3.266397786 0.001435212633 0)
(3.265063021 0.0006185159809 0)
(3.264959085 -0.0003460453933 0)
(3.264726941 0.000450316433 0)
(3.267063544 -0.0009010128266 0)
(3.263898803 -0.1370243312 0)
(3.310811047 -0.1128154953 0)
(3.26896085 -0.01274968732 0)
(3.256591279 0.003884835601 0)
(3.256357844 0.006011038799 0)
(3.258797998 0.003463539336 0)
(3.260086562 -0.00189829085 0)
(3.259405807 -0.003808074848 0)
(3.258986315 -0.002153580184 0)
(3.259677849 -0.001907456586 0)
(3.260690835 9.18336931e-05 0)
(3.262579143 -0.002579627426 0)
(3.330069811 -0.1896307455 0)
(3.338970592 -0.1558920949 0)
(3.258061109 -0.01955385486 0)
(3.242839929 0.003076923524 0)
(3.239200896 0.00465041017 0)
(3.24293757 -0.001807078306 0)
(3.245813439 -0.006462295564 0)
(3.247267642 -0.003579587145 0)
(3.248393063 -0.001830528451 0)
(3.248764038 -0.0008440762182 0)
(3.251358213 -0.001830376601 0)
(3.252528197 -0.003331081508 0)
(3.360214821 -0.2374530024 0)
(3.348722506 -0.200986387 0)
(3.244125385 -0.02896944988 0)
(3.225325669 -0.005887136652 0)
(3.219825821 -0.002978401788 0)
(3.224315775 -0.00288556644 0)
(3.225799795 -0.00302523823 0)
(3.229160365 0.002146173319 0)
(3.232061282 0.001942613014 0)
(3.233811381 4.302711032e-05 0)
(3.235483994 -0.002377017195 0)
(3.237262808 -0.003309795565 0)
(3.360910112 -0.2710962951 0)
(3.340588898 -0.281069637 0)
(3.227187553 -0.0719631949 0)
(3.20837007 -0.02349672984 0)
(3.202831155 -0.006044901521 0)
(3.204472313 -0.005193967444 0)
(3.206486554 0.000380792453 0)
(3.211245221 0.00446476151 0)
(3.214134182 0.004837021161 0)
(3.216353193 0.001858353655 0)
(3.217414357 -0.0006076287415 0)
(3.218953998 -0.002480917512 0)
(3.375689504 -0.3114569245 0)
(3.335100436 -0.3259491756 0)
(3.23554918 -0.1304124252 0)
(3.201048635 -0.04307214058 0)
(3.192807918 -0.0108147509 0)
(3.190472582 -0.002487673204 0)
(3.192747684 0.002844713431 0)
(3.1959719 0.004954900908 0)
(3.197554996 0.005198525583 0)
(3.199012008 0.002846689573 0)
(3.199500723 0.001164967204 0)
(3.200017817 -0.001906251925 0)
(3.201682242 -0.002218984239 0)
(3.368603975 -0.3220224902 0)
(3.334763375 -0.3310364113 0)
(3.242718309 -0.1422112899 0)
(3.197093356 -0.05274718522 0)
(3.184657705 -0.0151805332 0)
(3.179208759 0.001393704111 0)
(3.180459666 0.003639842391 0)
(3.181125933 0.002274999336 0)
(3.182297291 0.002436363928 0)
(3.182781251 0.001690178784 0)
(3.182702548 0.00180941165 0)
(3.182276654 -0.003554965378 0)
(3.182489541 -0.002541423142 0)
(3.362277618 -0.3486548002 0)
(3.337617683 -0.3672242113 0)
(3.2494561 -0.1532335081 0)
(3.196590387 -0.04834559836 0)
(3.174404453 -0.01036918009 0)
(3.166673416 0.003088362154 0)
(3.167813159 0.0009443438728 0)
(3.168297634 -0.002343803261 0)
(3.16896893 0.001137307044 0)
(3.167891223 0.0006102278452 0)
(3.166680879 0.0008596330317 0)
(3.164997458 -0.005107229685 0)
(3.163593147 -0.002983477903 0)
(3.367641814 -0.3747234963 0)
(3.338335096 -0.3959841683 0)
(3.258974996 -0.2295999443 0)
(3.190753672 -0.08329660622 0)
(3.16155167 -0.01857184558 0)
(3.152113404 -0.001189512963 0)
(3.154753187 -0.003564862013 0)
(3.154418642 -0.003896319855 0)
(3.155032541 0.001784310394 0)
(3.153244958 0.0005999268502 0)
(3.15059019 -0.0005603938852 0)
(3.147523013 -0.005700093008 0)
(3.146037186 -0.00296043359 0)
(3.362875635 -0.3823277308 0)
(3.337662209 -0.4110770336 0)
(3.270395756 -0.2862869945 0)
(3.193294929 -0.1455932568 0)
(3.150969734 -0.05286354708 0)
(3.136612797 -0.01196412583 0)
(3.136828884 -0.006396579132 0)
(3.136112581 -0.004383969577 0)
(3.138023901 0.002868454832 0)
(3.137095374 0.001362525819 0)
(3.133933348 -0.0007397001372 0)
(3.130662683 -0.002927007655 0)
(3.12833487 -0.002574054053 0)
(3.359407475 -0.3929999402 0)
(3.337542814 -0.4173289802 0)
(3.276203778 -0.3138373202 0)
(3.205575416 -0.1997406944 0)
(3.146965572 -0.09083639872 0)
(3.126691699 -0.02340850196 0)
(3.114819552 -0.007133956259 0)
(3.116445053 -0.001868671154 0)
(3.118628133 0.004594950837 0)
(3.118107118 0.002647202291 0)
(3.11481047 0.00058982867 0)
(3.112480699 0.0001063282756 0)
(3.109640874 -0.003460702852 0)
(3.362425979 -0.4073427351 0)
(3.337156174 -0.4268766344 0)
(3.276500793 -0.3354069117 0)
(3.208431245 -0.2115115511 0)
(3.142368295 -0.1057466968 0)
(3.113284938 -0.03269922719 0)
(3.097414348 -0.002830385577 0)
(3.095339459 0.001198154255 0)
(3.09694629 0.005134356081 0)
(3.096715521 0.003549771438 0)
(3.094543341 0.002973706207 0)
(3.093036609 0.001302140366 0)
(3.089952094 -0.005322919615 0)
(3.086121159 -0.002482147837 0)
(3.360388849 -0.4101687217 0)
(3.335944441 -0.4354992245 0)
(3.283312189 -0.3712595836 0)
(3.205058051 -0.2354885824 0)
(3.13573072 -0.1088892578 0)
(3.095696462 -0.03185481645 0)
(3.082151104 0.001252506168 0)
(3.073293479 0.001818683147 0)
(3.07365703 0.00349927623 0)
(3.073920152 0.003474661094 0)
(3.072732648 0.004298091354 0)
(3.071859338 -0.000180842412 0)
(3.068168551 -0.007294549445 0)
(3.064100671 -0.003036613445 0)
(3.358808657 -0.4170361302 0)
(3.335722472 -0.4381365657 0)
(3.28753433 -0.3891182908 0)
(3.214847318 -0.2949545076 0)
(3.124902698 -0.1496760108 0)
(3.073854485 -0.03321810983 0)
(3.060289721 0.001568122492 0)
(3.04977363 -0.001598901377 0)
(3.049020933 0.00128577633 0)
(3.049939604 0.003133849447 0)
(3.049973744 0.003993239217 0)
(3.048722465 -0.001836407736 0)
(3.045027963 -0.007781337451 0)
(3.042035898 -0.002854130132 0)
(3.360462639 -0.423953093 0)
(3.33636794 -0.440907044 0)
(3.287264529 -0.3970241466 0)
(3.214626771 -0.318945488 0)
(3.126991386 -0.2114536159 0)
(3.061539446 -0.08342934334 0)
(3.034610527 -0.01242741946 0)
(3.024244282 -0.00575397244 0)
(3.023368658 -0.001415853311 0)
(3.025074387 0.003014621268 0)
(3.02667578 0.002982748661 0)
(3.024028623 -0.002289379952 0)
(3.021995493 -0.005748847285 0)
(3.019916514 -0.002173643192 0)
(3.361478325 -0.4211507674 0)
(3.336371665 -0.4452554863 0)
(3.286899723 -0.4100213083 0)
(3.213232402 -0.3354779392 0)
(3.126974941 -0.2432568239 0)
(3.048532074 -0.1234648727 0)
(3.008905934 -0.03415875509 0)
(2.999843042 -0.01042421384 0)
(2.998635052 -0.001957361535 0)
(3.000606766 0.003719852003 0)
(3.002109816 0.002444376963 0)
(3.000886692 0.0002415567068 0)
(2.999294878 -0.003605235034 0)
(2.997071963 -0.002019415139 0)
(3.361615204 -0.4224394293 0)
(3.336473568 -0.4476277363 0)
(3.291859277 -0.4233673792 0)
(3.209641116 -0.3541006369 0)
(3.125006836 -0.2594434553 0)
(3.044213656 -0.1490243282 0)
(2.993535371 -0.05535339321 0)
(2.980537946 -0.0119982549 0)
(2.977183385 0.001589411699 0)
(2.977797284 0.003820298831 0)
(2.978588842 0.002632046233 0)
(2.979270604 0.003748324024 0)
(2.977030954 -0.002456595267 0)
(2.974169171 -0.003140135052 0)
(3.361262893 -0.4268562543 0)
(3.337144573 -0.4490029016 0)
(3.291704328 -0.4276926532 0)
(3.213607129 -0.3786430727 0)
(3.122628516 -0.2938396828 0)
(3.038721965 -0.1655527166 0)
(2.977921172 -0.05572487025 0)
(2.963568628 -0.01008125392 0)
(2.958305904 0.001704113643 0)
(2.956501759 0.002976889758 0)
(2.957604012 0.004632871411 0)
(2.95779421 0.005758023546 0)
(2.954845953 -0.002823976827 0)
(2.951941624 -0.004133943853 0)
(3.361796496 -0.4307212404 0)
(3.337588986 -0.4516712149 0)
(3.289871098 -0.4310873467 0)
(3.210838096 -0.3839553335 0)
(3.132101669 -0.3319819873 0)
(3.043175279 -0.220943244 0)
(2.960743511 -0.06839223292 0)
(2.943174253 -0.01026191977 0)
(2.938245825 0.0001520914636 0)
(2.93616412 0.001903139913 0)
(2.937099343 0.006059147193 0)
(2.93661389 0.005516477194 0)
(2.93395048 -0.003836896053 0)
(2.930950539 -0.005795842425 0)
(2.929721116 -0.002150177185 0)
(3.361606167 -0.4307380148 0)
(3.338242219 -0.453854342 0)
(3.288592961 -0.4382036676 0)
(3.20909193 -0.3929997152 0)
(3.132955102 -0.3397092207 0)
(3.047442233 -0.2567625036 0)
(2.964309828 -0.1218917414 0)
(2.921795929 -0.02925337501 0)
(2.91547517 -0.00367835363 0)
(2.916207644 0.0008649365954 0)
(2.916603603 0.006018815326 0)
(2.916875854 0.003149172796 0)
(2.9144164 -0.005115066997 0)
(2.91132541 -0.007318019627 0)
(2.909632789 -0.00340398474 0)
(3.361010512 -0.4303735338 0)
(3.339079536 -0.4537649803 0)
(3.287325778 -0.4422355102 0)
(3.209154368 -0.4019716434 0)
(3.134995035 -0.3533375253 0)
(3.052693687 -0.2754723291 0)
(2.960885877 -0.1489742248 0)
(2.909870079 -0.06303425047 0)
(2.898057542 -0.009999924759 0)
(2.89707646 0.0002700203033 0)
(2.897497024 0.003577808806 0)
(2.89800475 0.001219462422 0)
(2.896486046 -0.00461028068 0)
(2.893918673 -0.006949427353 0)
(2.891953531 -0.003822241836 0)
(3.36003355 -0.4309164708 0)
(3.339709913 -0.4533323683 0)
(3.286853706 -0.4443785109 0)
(3.211325367 -0.4093165785 0)
(3.138382736 -0.3707066805 0)
(3.055003693 -0.2988363753 0)
(2.963550842 -0.1748794632 0)
(2.899260406 -0.07443724581 0)
(2.882230859 -0.01617215695 0)
(2.879477759 0.0008997370305 0)
(2.879804595 0.001200840682 0)
(2.881496907 0.001903262184 0)
(2.881462251 -0.001693145182 0)
(2.878885491 -0.005790690841 0)
(2.877083493 -0.004189918901 0)
(3.358915254 -0.4315540813 0)
(3.340102115 -0.4538356855 0)
(3.286893316 -0.4456005106 0)
(3.21197159 -0.4127689768 0)
(3.140120121 -0.3815613439 0)
(3.061921669 -0.3348964494 0)
(2.964486344 -0.20635164 0)
(2.894937682 -0.09118303429 0)
(2.866825851 -0.01838571205 0)
(2.863699166 0.0004104874523 0)
(2.864907703 0.000392484951 0)
(2.869093267 0.004722783821 0)
(2.868317047 0.0005880243342 0)
(2.866239748 -0.004942875351 0)
(2.865524782 -0.004154717101 0)
(3.357888558 -0.4316727268 0)
(3.340557909 -0.4537676562 0)
(3.287453719 -0.4487653493 0)
(3.211786483 -0.4181127064 0)
(3.140121067 -0.3873512279 0)
(3.06330495 -0.3494063393 0)
(2.979069922 -0.2585001229 0)
(2.892779122 -0.1236891531 0)
(2.853977344 -0.03043955446 0)
(2.849258348 -0.003054710542 0)
(2.85521255 0.002221251642 0)
(2.857233644 0.00574591384 0)
(2.856724277 0.0005903107666 0)
(2.856710055 -0.005269875834 0)
(2.857053435 -0.005147039333 0)
(3.357077517 -0.4316818653 0)
(3.341654874 -0.452784386 0)
(3.287193785 -0.4511151601 0)
(3.211722617 -0.4226841731 0)
(3.140388379 -0.3951462656 0)
(3.063275367 -0.3560499063 0)
(2.980394115 -0.2703036731 0)
(2.911425633 -0.1735263399 0)
(2.848189479 -0.05411195114 0)
(2.839150776 -0.007267409972 0)
(2.846706348 0.002434298068 0)
(2.847508197 0.007262521375 0)
(2.848578051 -0.0002345375574 0)
(2.849853186 -0.00623430653 0)
(2.851170731 -0.006106685217 0)
(3.356327057 -0.431888617 0)
(3.343004628 -0.4508948776 0)
(3.288720076 -0.4543616594 0)
(3.211489696 -0.425162176 0)
(3.13925702 -0.3977498471 0)
(3.06231036 -0.3710862349 0)
(2.980011107 -0.2894405328 0)
(2.913590847 -0.1794722839 0)
(2.856911503 -0.07889395387 0)
(2.837324166 -0.01440496292 0)
(2.840799692 0.003274799702 0)
(2.843300111 0.004974978386 0)
(2.844629386 -0.001387961201 0)
(2.844791015 -0.006165448167 0)
(2.847387531 -0.006572738727 0)
(2.848433846 -0.001264390619 0)
(3.355494248 -0.4326845258 0)
(3.344427433 -0.4479195517 0)
(3.288524554 -0.4562079879 0)
(3.210901869 -0.4280739093 0)
(3.137396253 -0.4009255766 0)
(3.059798835 -0.3815039746 0)
(2.979800165 -0.3192962956 0)
(2.916194966 -0.2169019007 0)
(2.867931055 -0.07960311275 0)
(2.840641375 -0.008688028088 0)
(2.841171793 0.001042665582 0)
(2.843106038 0.001769733091 0)
(2.843221544 -0.001164207916 0)
(2.842513326 -0.004924760329 0)
(2.845358036 -0.006258131141 0)
(2.845776975 -0.0008037233011 0)
(3.354302839 -0.4338252493 0)
(3.345978698 -0.4446870991 0)
(3.288238924 -0.4583515943 0)
(3.210782441 -0.4330310715 0)
(3.1350617 -0.4039559847 0)
(3.055864383 -0.3854090885 0)
(2.983272684 -0.3413972002 0)
(2.923090897 -0.2590703255 0)
(2.874126823 -0.122289457 0)
(2.846562359 -0.03005986139 0)
(2.844351772 -0.006893675952 0)
(2.844482782 0.0009348129056 0)
(2.843583066 0.0008899305696 0)
(2.843185891 -0.004164580563 0)
(2.845245197 -0.006326984944 0)
(2.845621929 -0.001138846083 0)
(3.352668508 -0.435117503 0)
(3.347559196 -0.4412758497 0)
(3.288353212 -0.4622454916 0)
(3.210519048 -0.4383216566 0)
(3.13326259 -0.4079165395 0)
(3.052089642 -0.3886921336 0)
(2.98273713 -0.3446268453 0)
(2.935738214 -0.296252966 0)
(2.887465932 -0.1735043113 0)
(2.853029206 -0.05986671861 0)
(2.849081029 -0.01337659487 0)
(2.847698696 0.000722311055 0)
(2.845942433 0.003245229243 0)
(2.845750582 -0.004831727269 0)
(2.847360402 -0.007028295105 0)
(2.847823627 -0.001798154042 0)
(3.350875777 -0.436238191 0)
(3.347862995 -0.4383160429 0)
(3.289133329 -0.4643662684 0)
(3.212111023 -0.4367180842 0)
(3.128982277 -0.408554179 0)
(3.045881043 -0.3916775889 0)
(2.981160905 -0.3553599882 0)
(2.939575775 -0.3004188576 0)
(2.907403762 -0.2087642219 0)
(2.872560653 -0.08869176925 0)
(2.856295465 -0.01718437948 0)
(2.852798544 0.00253762799 0)
(2.851197898 0.003356004879 0)
(2.84972866 -0.006230246586 0)
(2.850902625 -0.007526165938 0)
(2.851943459 -0.002178816578 0)
(3.349444918 -0.4371444533 0)
(3.348735871 -0.4350172543 0)
(3.291276835 -0.4698886848 0)
(3.21293059 -0.4383802042 0)
(3.124377058 -0.4105506621 0)
(3.038058301 -0.3943077442 0)
(2.982530909 -0.3690584565 0)
(2.943294171 -0.3234050946 0)
(2.916360875 -0.2103870643 0)
(2.885501357 -0.08819893174 0)
(2.868368359 -0.01519585555 0)
(2.859729596 0.005362040721 0)
(2.857671701 0.001304768967 0)
(2.854340283 -0.00672303698 0)
(2.855918096 -0.007573367602 0)
(2.857381081 -0.001958474911 0)
(3.348620426 -0.4377158287 0)
(3.349415551 -0.4322558563 0)
(3.293624487 -0.4701767956 0)
(3.212978629 -0.440685284 0)
(3.118791556 -0.4123969593 0)
(3.031661561 -0.3973848268 0)
(2.981526802 -0.372670005 0)
(2.949925862 -0.3456563497 0)
(2.922723085 -0.2543389181 0)
(2.893181688 -0.1050829486 0)
(2.878814327 -0.01583567481 0)
(2.868595943 0.004055785113 0)
(2.864303228 -8.553275226e-07 0)
(2.860684897 -0.004574787596 0)
(2.862723586 -0.006958925554 0)
(2.863878869 -0.002281571434 0)
(3.348049058 -0.4380116226 0)
(3.350285923 -0.4293036834 0)
(3.296888678 -0.4695147086 0)
(3.212530956 -0.4436008107 0)
(3.112675185 -0.4136290236 0)
(3.025463419 -0.3970362551 0)
(2.98093175 -0.3760785631 0)
(2.953979408 -0.3546608353 0)
(2.937633479 -0.2961607418 0)
(2.908645821 -0.1611865413 0)
(2.889723879 -0.04825114923 0)
(2.876787308 -0.003124981207 0)
(2.871373047 -0.0005348884844 0)
(2.868394326 -0.0008444265591 0)
(2.869428445 -0.006132146502 0)
(2.870996306 -0.002993469522 0)
(3.347328992 -0.4386263983 0)
(3.35094268 -0.4275382866 0)
(3.30128152 -0.467230859 0)
(3.211827769 -0.4464942852 0)
(3.10471137 -0.4146346936 0)
(3.018840447 -0.3980164696 0)
(2.979879868 -0.3808418109 0)
(2.956743664 -0.3612267123 0)
(2.947882576 -0.3138479884 0)
(2.930560792 -0.207307481 0)
(2.902801274 -0.08352512936 0)
(2.885246148 -0.01386662105 0)
(2.878831943 0.0005069523561 0)
(2.876143134 0.001230009612 0)
(2.876223872 -0.00612551705 0)
(2.87788467 -0.003680867246 0)
(2.877931756 0.002171028618 0)
(3.346346552 -0.4396963355 0)
(3.352791144 -0.424957375 0)
(3.307006513 -0.4639539298 0)
(3.210646105 -0.4498445265 0)
(3.096922747 -0.4166138466 0)
(3.012488524 -0.399496499 0)
(2.978528304 -0.3843269294 0)
(2.959679952 -0.3723154439 0)
(2.95442232 -0.3247529712 0)
(2.943634542 -0.2196251008 0)
(2.919831807 -0.1034108617 0)
(2.892996354 -0.02109258403 0)
(2.885494472 0.004411663871 0)
(2.883399907 0.0004430317118 0)
(2.882566104 -0.006318863968 0)
(2.883427986 -0.003983865379 0)
(2.884289726 0.001943364279 0)
(3.345892067 -0.4408352062 0)
(3.35528191 -0.4229720321 0)
(3.313833396 -0.4599494389 0)
(3.208451259 -0.4528964686 0)
(3.087452498 -0.4185587143 0)
(3.006687141 -0.4011832359 0)
(2.977141601 -0.3860467199 0)
(2.962640517 -0.3771608587 0)
(2.961376893 -0.3503283215 0)
(2.950061679 -0.2489562415 0)
(2.931052548 -0.1122241055 0)
(2.90208864 -0.0203134702 0)
(2.891695447 0.006730264792 0)
(2.889085036 -0.001092196565 0)
(2.886929403 -0.007011580425 0)
(2.88807191 -0.004083143546 0)
(2.889202435 0.002266187424 0)
(3.344421345 -0.4424726484 0)
(3.358464348 -0.4207944507 0)
(3.322641689 -0.4548769269 0)
(3.2083621 -0.4560480295 0)
(3.079788346 -0.4204585357 0)
(3.001663702 -0.4032070775 0)
(2.975629061 -0.3864528313 0)
(2.964938081 -0.378365082 0)
(2.966640645 -0.363206141 0)
(2.965721812 -0.2975770725 0)
(2.936731621 -0.1523309377 0)
(2.907518757 -0.02505809304 0)
(2.896961319 0.002805127234 0)
(2.893200103 -0.002275169611 0)
(2.890855347 -0.007421816221 0)
(2.892075273 -0.003595937432 0)
(2.893133669 0.002902826923 0)
(3.342487084 -0.4439333115 0)
(3.361998121 -0.4189745226 0)
(3.333320307 -0.4488290084 0)
(3.210424957 -0.458937479 0)
(3.073667229 -0.4224123503 0)
(2.995510599 -0.4039316426 0)
(2.973805166 -0.3871867264 0)
(2.966114143 -0.3825963254 0)
(2.970528187 -0.3689885501 0)
)
;

boundaryField
{
    inlet
    {
        type            fixedValue;
        value           nonuniform 0();
    }
    outlet
    {
        type            inletOutlet;
        inletValue      nonuniform 0();
        value           nonuniform 0();
    }
    bottom
    {
        type            slip;
    }
    top
    {
        type            slip;
    }
    obstacle
    {
        type            slip;
    }
    defaultFaces
    {
        type            empty;
    }
    procBoundary21to15
    {
        type            processor;
        value           nonuniform List<vector> 
13
(
(3.276798248 -0.003823644409 0)
(3.27771022 -0.002939560561 0)
(3.277862129 0.002417968468 0)
(3.273029309 0.004905525063 0)
(3.26947668 0.003250284347 0)
(3.267568385 0.002537066201 0)
(3.266509296 0.001715135689 0)
(3.266582563 0.0007192739802 0)
(3.267625169 0.0002654577225 0)
(3.202933719 -0.03777447707 0)
(3.279893522 -0.05277408043 0)
(3.278456382 -0.007673049687 0)
(3.278456382 -0.007673049687 0)
)
;
    }
    procBoundary21to22
    {
        type            processor;
        value           nonuniform List<vector> 
35
(
(3.270281568 -9.89229914e-05 0)
(3.268393277 -0.001393420658 0)
(3.262811013 -0.001413988054 0)
(3.253324589 -0.001143269083 0)
(3.238783403 -0.001192847049 0)
(3.220612432 -0.00189157397 0)
(3.220612432 -0.00189157397 0)
(3.20434301 -0.0001018143083 0)
(3.184398391 0.001101030844 0)
(3.164615258 0.001194288549 0)
(3.145977359 0.0003485452811 0)
(3.126801949 -0.0006150250948 0)
(3.106897731 -0.001787604185 0)
(3.106897731 -0.001787604185 0)
(3.086242418 0.001222892342 0)
(3.064496949 0.001572098877 0)
(3.042942704 0.001588642118 0)
(3.020531395 0.001440914327 0)
(2.997372189 0.0003698809287 0)
(2.974205682 -0.0007078336586 0)
(2.951486459 -0.001209337732 0)
(2.951486459 -0.001209337732 0)
(2.929477713 0.002802512816 0)
(2.908977048 0.002404652982 0)
(2.891329589 0.002335350321 0)
(2.87704051 0.001258423476 0)
(2.866034488 0.0008471244673 0)
(2.858274708 -0.0003975361073 0)
(2.852718475 -0.0007029850643 0)
(2.852718475 -0.0007029850643 0)
(2.849623272 0.001958455691 0)
(2.846458894 0.003130783006 0)
(2.845827334 0.002604096721 0)
(2.847509464 0.001818782088 0)
(2.851024427 0.001476567066 0)
)
;
    }
    procBoundary21to27
    {
        type            processor;
        value           nonuniform List<vector> 
18
(
(2.972000931 -0.3138406651 0)
(2.955441248 -0.205927518 0)
(2.916463468 -0.05970637818 0)
(2.901804103 -0.004921262769 0)
(2.896193217 -0.002486255177 0)
(2.893697984 -0.007338618566 0)
(2.894991452 -0.003222000836 0)
(2.896607525 0.00407804415 0)
(3.339850101 -0.4455370503 0)
(3.36515787 -0.417546038 0)
(3.345709407 -0.4417141823 0)
(3.21280193 -0.4608486664 0)
(3.065632611 -0.4243754045 0)
(2.989681832 -0.4058237397 0)
(2.97218202 -0.3896924008 0)
(2.968251469 -0.3868147697 0)
(2.972000931 -0.3138406651 0)
(2.974039394 -0.3759990408 0)
)
;
    }
    procBoundary21to28
    {
        type            processor;
        value           nonuniform List<vector> 8((2.856469937 0.002321171674 0) (2.863328275 0.003027127006 0) (2.870649272 0.003064376317 0) (2.870649272 0.003064376317 0) (2.877122576 -0.001677757457 0) (2.883453851 -0.00182522746 0) (2.888385281 -0.001793971536 0) (2.892585086 -0.001460992385 0));
    }
}


// ************************************************************************* //
