/*--------------------------------*- C++ -*----------------------------------*\
  =========                 |
  \\      /  F ield         | OpenFOAM: The Open Source CFD Toolbox
   \\    /   O peration     | Website:  https://openfoam.org
    \\  /    A nd           | Version:  7
     \\/     M anipulation  |
\*---------------------------------------------------------------------------*/
FoamFile
{
    version     2.0;
    format      ascii;
    class       volScalarField;
    location    "0.7";
    object      T;
}
// * * * * * * * * * * * * * * * * * * * * * * * * * * * * * * * * * * * * * //

dimensions      [0 0 0 1 0 0 0];

internalField   nonuniform List<scalar> 8(1.000684372 1.00168616 1.000000353 1.000008819 1.000009827 0.9999999942 0.9999999935 1.000000051);

boundaryField
{
    inlet
    {
        type            fixedValue;
        value           nonuniform 0();
    }
    outlet
    {
        type            inletOutlet;
        inletValue      nonuniform 0();
        value           nonuniform 0();
    }
    bottom
    {
        type            slip;
    }
    top
    {
        type            slip;
    }
    obstacle
    {
        type            zeroGradient;
    }
    defaultFaces
    {
        type            empty;
    }
    procBoundary32to26
    {
        type            processor;
        value           nonuniform List<scalar> 4(1.013837566 1.027177114 1.000231663 1.000231663);
    }
    procBoundary32to31
    {
        type            processor;
        value           nonuniform List<scalar> 2(1.000000008 0.9999999953);
    }
    procBoundary32to33
    {
        type            processor;
        value           nonuniform List<scalar> 3(1.017043665 1.004263145 1.000439018);
    }
}


// ************************************************************************* //
