/*--------------------------------*- C++ -*----------------------------------*\
  =========                 |
  \\      /  F ield         | OpenFOAM: The Open Source CFD Toolbox
   \\    /   O peration     | Website:  https://openfoam.org
    \\  /    A nd           | Version:  7
     \\/     M anipulation  |
\*---------------------------------------------------------------------------*/
FoamFile
{
    version     2.0;
    format      ascii;
    class       volScalarField;
    location    "2.9";
    object      p;
}
// * * * * * * * * * * * * * * * * * * * * * * * * * * * * * * * * * * * * * //

dimensions      [1 -1 -2 0 0 0 0];

internalField   nonuniform List<scalar> 
22
(
0.7269522988
1.032561142
0.7304961071
0.9623262355
0.7172594609
0.9178277853
0.7049432924
0.8700321061
1.028736155
0.6944122269
0.8272865453
1.005233396
0.6855964044
0.7856002916
0.972411035
0.6778993539
0.7476935199
0.9295438344
0.6700134561
0.7204764479
0.8865010956
0.6562219409
)
;

boundaryField
{
    inlet
    {
        type            fixedValue;
        value           nonuniform 0();
    }
    outlet
    {
        type            zeroGradient;
    }
    bottom
    {
        type            slip;
    }
    top
    {
        type            slip;
    }
    obstacle
    {
        type            zeroGradient;
    }
    defaultFaces
    {
        type            empty;
    }
    procBoundary21to15
    {
        type            processor;
        value           nonuniform List<scalar> 2(0.7305036654 1.01734268);
    }
    procBoundary21to22
    {
        type            processor;
        value           nonuniform List<scalar> 7(1.044771354 1.043981068 1.037977931 1.037977931 1.022664241 1.017732335 1.016211817);
    }
    procBoundary21to27
    {
        type            processor;
        value           nonuniform List<scalar> 4(0.6973990341 0.8489852579 0.6973990341 0.6824639291);
    }
    procBoundary21to28
    {
        type            processor;
        value           nonuniform List<scalar> 2(1.010031547 1.000472442);
    }
}


// ************************************************************************* //
