/*--------------------------------*- C++ -*----------------------------------*\
  =========                 |
  \\      /  F ield         | OpenFOAM: The Open Source CFD Toolbox
   \\    /   O peration     | Website:  https://openfoam.org
    \\  /    A nd           | Version:  7
     \\/     M anipulation  |
\*---------------------------------------------------------------------------*/
FoamFile
{
    version     2.0;
    format      ascii;
    class       volVectorField;
    location    "3.4";
    object      U;
}
// * * * * * * * * * * * * * * * * * * * * * * * * * * * * * * * * * * * * * //

dimensions      [0 1 -1 0 0 0 0];

internalField   nonuniform List<vector> 
2222
(
(2.884496312 -0.2528979774 0)
(2.88418208 -0.2491018777 0)
(2.88337501 -0.2478233178 0)
(2.883628868 -0.2468167414 0)
(2.883953955 -0.2459419572 0)
(2.884019017 -0.2457985477 0)
(2.883971774 -0.2451586806 0)
(2.872289762 -0.2562201703 0)
(2.872808362 -0.2546501818 0)
(2.873830167 -0.2536876267 0)
(2.875106718 -0.2534389454 0)
(2.875477663 -0.2533169715 0)
(2.875612469 -0.2530343277 0)
(2.875308818 -0.2517342674 0)
(2.875338097 -0.2500780063 0)
(2.875719094 -0.2490939291 0)
(2.875826486 -0.2490720808 0)
(2.875718469 -0.2493216595 0)
(2.875172496 -0.248881756 0)
(2.874851396 -0.2481044471 0)
(2.874936239 -0.2483971525 0)
(2.875473148 -0.2483451296 0)
(2.876028705 -0.2488822729 0)
(2.876508092 -0.2498402342 0)
(2.876713086 -0.2501164884 0)
(2.877047452 -0.2504412664 0)
(2.877470833 -0.2509098633 0)
(2.878261048 -0.2513231861 0)
(2.878747052 -0.2514918421 0)
(2.879265955 -0.2515707536 0)
(2.879605524 -0.251605807 0)
(2.879941168 -0.2517133667 0)
(2.880074259 -0.2518290636 0)
(2.872289812 0.256220643 0)
(2.872808524 0.2546503294 0)
(2.873829899 0.2536876402 0)
(2.87510664 0.2534387595 0)
(2.875477667 0.2533167348 0)
(2.875612631 0.2530342437 0)
(2.87530903 0.2517344727 0)
(2.875338041 0.2500784237 0)
(2.875718879 0.2490936166 0)
(2.875826379 0.2490721446 0)
(2.875718475 0.2493214854 0)
(2.875172545 0.2488814601 0)
(2.874851293 0.2481053272 0)
(2.874936299 0.2483970345 0)
(2.875473253 0.2483444388 0)
(2.876028739 0.2488819846 0)
(2.876508182 0.249840386 0)
(2.87671311 0.250116793 0)
(2.87704753 0.2504415332 0)
(2.877470845 0.2509098436 0)
(2.878261156 0.2513230748 0)
(2.878747232 0.251491742 0)
(2.879266204 0.2515708035 0)
(2.879605721 0.2516059379 0)
(2.879941209 0.2517134692 0)
(2.880074245 0.2518290436 0)
(2.880084845 0.2518633361 0)
(2.880169223 0.2518432688 0)
(2.880222104 0.2518008066 0)
(2.880353106 0.2517664573 0)
(2.88057765 0.2517436848 0)
(2.880856347 0.2517148961 0)
(2.881043675 0.2516915953 0)
(2.881083262 0.2516875815 0)
(2.881140841 0.2517027647 0)
(2.881163689 0.2517653695 0)
(2.881232064 0.2518349939 0)
(2.881319832 0.2518566197 0)
(2.881456352 0.2518830515 0)
(2.881761078 0.2519141595 0)
(2.882029767 0.2519200183 0)
(2.882094664 0.251921712 0)
(2.882166544 0.2519457956 0)
(2.882185174 0.252000698 0)
(2.882191292 0.2520638897 0)
(2.882260736 0.252090955 0)
(2.882318864 0.252102083 0)
(2.882450145 0.2521153786 0)
(2.882676698 0.2521068248 0)
(2.882814197 0.2520815139 0)
(2.88285382 0.252078504 0)
(2.882897856 0.2520945122 0)
(2.882898042 0.2521341132 0)
(2.882927114 0.2521686157 0)
(2.882976997 0.2521762354 0)
(2.883029916 0.2521798471 0)
(2.88316963 0.2521859341 0)
(2.883354632 0.2521797883 0)
(2.883432361 0.2521721022 0)
(2.883480348 0.2521782064 0)
(2.883514518 0.2521956567 0)
(2.883512327 0.2522123758 0)
(2.883537612 0.2522195769 0)
(2.883561463 0.2522203578 0)
(2.883603532 0.2522226028 0)
(2.88368066 0.2522081847 0)
(2.883823916 0.2521975683 0)
(2.884496427 0.2528984613 0)
(2.884182465 0.2491022865 0)
(2.883374955 0.2478236696 0)
(2.883628694 0.2468163057 0)
(2.883953835 0.2459416894 0)
(2.884018987 0.2457984203 0)
(2.883971803 0.2451587119 0)
(2.883620236 0.2436180847 0)
(2.883394379 0.2432378718 0)
(2.88312315 0.2436677853 0)
(2.883181819 0.2446017012 0)
(2.88323482 0.2455871991 0)
(2.883506565 0.2466054364 0)
(2.883558832 0.2474858002 0)
(2.883692037 0.2483435797 0)
(2.883909449 0.2495479883 0)
(2.883879302 0.2511356428 0)
(2.883431638 0.2518941507 0)
(2.883060202 0.2526810623 0)
(2.882992421 0.2527946392 0)
(2.88282221 0.2527654147 0)
(2.882869084 0.2526280242 0)
(2.883282464 0.2523060879 0)
(2.883807899 0.2521512774 0)
(2.884209138 0.2521329679 0)
(2.884227881 0.2518937262 0)
(2.884192281 0.2518527254 0)
(2.884109934 0.2518669616 0)
(2.883959413 0.251880983 0)
(2.883909304 0.2518478666 0)
(2.88396757 0.2518419154 0)
(2.884172868 0.2518754882 0)
(2.884393266 0.2519136051 0)
(2.884434936 0.2519119974 0)
(2.884435347 0.2519272463 0)
(2.884370474 0.2520370208 0)
(2.884224572 0.2522283614 0)
(2.884188745 0.2523463543 0)
(2.884219065 0.2523704933 0)
(2.884310136 0.2523873976 0)
(2.884464316 0.2523634173 0)
(2.88459149 0.2523296572 0)
(2.884610708 0.2523088725 0)
(2.884601174 0.2523003381 0)
(2.884564067 0.2523202581 0)
(2.884517928 0.2523819078 0)
(2.884539949 0.2524299788 0)
(2.884577332 0.2524448768 0)
(2.884677238 0.2524345993 0)
(2.884800485 0.2523489866 0)
(2.884861212 0.2522715518 0)
(2.88487906 0.2522517886 0)
(2.884897872 0.2522614688 0)
(2.884889468 0.2523305775 0)
(2.884887859 0.2523994455 0)
(2.884916941 0.2524151478 0)
(2.884956626 0.2524195571 0)
(2.885045091 0.2523965487 0)
(2.885145362 0.2523381322 0)
(2.885203221 0.2522905221 0)
(2.885221722 0.2522788616 0)
(2.885233987 0.2522786643 0)
(2.885227409 0.2522864156 0)
(2.885231557 0.2522899143 0)
(2.885248578 0.2522999983 0)
(2.885273896 0.2522662349 0)
(2.885398426 0.2522344275 0)
(2.894340066 0.266389313 0)
(2.893289959 0.2626412829 0)
(2.892279367 0.2591510412 0)
(2.892501357 0.2557889179 0)
(2.892733099 0.254786554 0)
(2.892975071 0.2545911409 0)
(2.894393139 0.253156928 0)
(2.894882168 0.2508805154 0)
(2.894747775 0.2501516693 0)
(2.894823303 0.2509290419 0)
(2.89458742 0.2509344554 0)
(2.894589871 0.2510001268 0)
(2.894702507 0.2511701716 0)
(2.894669653 0.2511480799 0)
(2.894687963 0.2510476689 0)
(2.894731485 0.2508019609 0)
(2.894558024 0.2508138636 0)
(2.894041952 0.2510241605 0)
(2.893296054 0.2511186742 0)
(2.892499105 0.2513604578 0)
(2.891689867 0.2515225631 0)
(2.890958499 0.2514077322 0)
(2.890611553 0.2513817524 0)
(2.890599563 0.2515953851 0)
(2.890622083 0.2518324054 0)
(2.890584213 0.2518707153 0)
(2.890525371 0.2518765101 0)
(2.89043045 0.2518907489 0)
(2.890343036 0.2520632917 0)
(2.890330617 0.2522846078 0)
(2.890359082 0.2523662714 0)
(2.890407079 0.2524875802 0)
(2.890482204 0.2526261145 0)
(2.890511011 0.2526277925 0)
(2.890425073 0.2525848652 0)
(2.890352329 0.2525482591 0)
(2.890155824 0.2525078022 0)
(2.889956716 0.2524926869 0)
(2.889877027 0.2524961953 0)
(2.889792093 0.2525329377 0)
(2.889803957 0.2525580091 0)
(2.889858628 0.2525232108 0)
(2.889800401 0.2524931127 0)
(2.88972963 0.2524835697 0)
(2.88965574 0.2524801106 0)
(2.889537749 0.2525096659 0)
(2.889432833 0.252578967 0)
(2.889372483 0.2526382055 0)
(2.889365176 0.2526589247 0)
(2.889378767 0.2526698845 0)
(2.88938287 0.2526626012 0)
(2.8893628 0.2526399381 0)
(2.889344333 0.2526229667 0)
(2.889310667 0.2526155824 0)
(2.889259574 0.2526315848 0)
(2.889214434 0.252644101 0)
(2.889202166 0.2526429524 0)
(2.889200619 0.2526372904 0)
(2.889218344 0.252612125 0)
(2.889239469 0.2525615761 0)
(2.889235259 0.2525185488 0)
(2.889211433 0.2525021837 0)
(2.889185698 0.2524990698 0)
(2.889151193 0.2524956248 0)
(2.889128372 0.2525002699 0)
(2.889114317 0.252494661 0)
(2.889235585 0.2525568888 0)
(2.895759542 0.2694767963 0)
(2.895904634 0.2668021891 0)
(2.89561994 0.2654647986 0)
(2.895855684 0.2633522468 0)
(2.896500827 0.2617071447 0)
(2.89731347 0.2609272438 0)
(2.898638859 0.2595715647 0)
(2.899679332 0.2583720805 0)
(2.900101332 0.2587941508 0)
(2.901023282 0.2582946247 0)
(2.902226345 0.2552023798 0)
(2.902128825 0.2532732887 0)
(2.901337466 0.2535265618 0)
(2.901180005 0.2525694623 0)
(2.901252886 0.2510803741 0)
(2.901550411 0.2495757953 0)
(2.900856747 0.2488449786 0)
(2.900314825 0.2484700378 0)
(2.899792149 0.248344285 0)
(2.898949775 0.2486177806 0)
(2.898469699 0.2490073611 0)
(2.897692945 0.249719695 0)
(2.896981644 0.2506284817 0)
(2.896561432 0.2515174555 0)
(2.896218285 0.2521476096 0)
(2.895856871 0.2523758709 0)
(2.89560798 0.2525679455 0)
(2.895335512 0.2530861604 0)
(2.895282978 0.2532875259 0)
(2.895132366 0.2533544033 0)
(2.894950833 0.253575319 0)
(2.894815193 0.2535465087 0)
(2.8947006 0.2534802467 0)
(2.894605025 0.2534039467 0)
(2.894559243 0.2532579353 0)
(2.894557566 0.2532290687 0)
(2.89452479 0.2532151898 0)
(2.894437465 0.253186484 0)
(2.894316072 0.253126965 0)
(2.894210707 0.2531036125 0)
(2.894140093 0.2531276549 0)
(2.894090546 0.2531635308 0)
(2.894057727 0.2531687655 0)
(2.894048306 0.2531482986 0)
(2.894023462 0.2531466918 0)
(2.893962458 0.253168909 0)
(2.893873021 0.2532054261 0)
(2.893764495 0.2532336755 0)
(2.893709415 0.2532422233 0)
(2.893676001 0.2532427315 0)
(2.893632451 0.2532415028 0)
(2.893610793 0.2532113961 0)
(2.893568168 0.2531559175 0)
(2.893503609 0.2531249298 0)
(2.893439326 0.2530894632 0)
(2.893342378 0.2530525749 0)
(2.89328363 0.2530181458 0)
(2.893252104 0.2529852311 0)
(2.893199137 0.2529477925 0)
(2.893163776 0.2529383756 0)
(2.893142565 0.2529467053 0)
(2.893111158 0.2529477375 0)
(2.893065646 0.2529142474 0)
(2.89299733 0.2528956048 0)
(2.892939356 0.2529204956 0)
(2.892843782 0.2529535077 0)
(2.892897212 0.2529788413 0)
(2.90018425 0.2538913538 0)
(2.89938915 0.2581795272 0)
(2.897834987 0.2599581594 0)
(2.896373257 0.2612849272 0)
(2.895064507 0.2634745926 0)
(2.894318985 0.2658879248 0)
(2.89430433 0.2666825697 0)
(2.894128193 0.2666549473 0)
(2.894851329 0.2653290416 0)
(2.894789154 0.2644058543 0)
(2.894992165 0.262666058 0)
(2.894724245 0.2612081987 0)
(2.894708764 0.2595807049 0)
(2.895896267 0.2570429431 0)
(2.896409107 0.255413403 0)
(2.896648849 0.2541867164 0)
(2.896916401 0.2531610879 0)
(2.89771903 0.2514490521 0)
(2.898268335 0.250540346 0)
(2.898718598 0.2502673333 0)
(2.898770504 0.2508447834 0)
(2.898655138 0.2510348864 0)
(2.89887032 0.2513550474 0)
(2.898869165 0.2514852499 0)
(2.898731481 0.2514717509 0)
(2.898578655 0.2513146673 0)
(2.89832586 0.2515549874 0)
(2.898041242 0.2520324563 0)
(2.897673724 0.252138873 0)
(2.897330506 0.2521693956 0)
(2.896969903 0.252589246 0)
(2.896742845 0.2528527924 0)
(2.896501081 0.2528240965 0)
(2.896260768 0.2527141223 0)
(2.89610617 0.2527188364 0)
(2.895980281 0.2528208745 0)
(2.895956742 0.2529639389 0)
(2.895943946 0.2531279811 0)
(2.895821374 0.2532407182 0)
(2.895725385 0.2533118792 0)
(2.895612893 0.2533878478 0)
(2.895543932 0.2534453682 0)
(2.895535062 0.253445008 0)
(2.895529498 0.2534380544 0)
(2.895512467 0.2534528736 0)
(2.895476363 0.2534586072 0)
(2.895441146 0.2534507078 0)
(2.895372714 0.2534117472 0)
(2.895302973 0.2533662692 0)
(2.895245195 0.2533434224 0)
(2.895163483 0.2532986212 0)
(2.895121649 0.2532568223 0)
(2.895095782 0.253209269 0)
(2.895051718 0.2531919807 0)
(2.895020887 0.2531714135 0)
(2.894935609 0.2531482863 0)
(2.894842592 0.2531789988 0)
(2.89478423 0.2532013186 0)
(2.894749698 0.2532100447 0)
(2.894726373 0.2532125492 0)
(2.894706506 0.2532053682 0)
(2.894682785 0.2531842147 0)
(2.894649305 0.2532297184 0)
(2.894610767 0.2532237782 0)
(2.894572752 0.2532207023 0)
(2.894517868 0.2532071541 0)
(2.89450276 0.2532364126 0)
(2.900354797 0.2535147389 0)
(2.892840697 0.2717261489 0)
(2.891377809 0.2748117042 0)
(2.88981895 0.2763352747 0)
(2.889320406 0.2797405698 0)
(2.888283199 0.2789322646 0)
(2.887668086 0.2756485369 0)
(2.887219244 0.2718735464 0)
(2.888086452 0.2668813574 0)
(2.889929298 0.2654151056 0)
(2.891056125 0.2629903089 0)
(2.891389492 0.2614354818 0)
(2.891544691 0.2609972158 0)
(2.891920738 0.2602427787 0)
(2.89228435 0.2589867041 0)
(2.892613913 0.2580984144 0)
(2.893194173 0.258286885 0)
(2.894039632 0.2573112956 0)
(2.894557285 0.2573557417 0)
(2.895729527 0.2565506421 0)
(2.897161794 0.2543053856 0)
(2.897508689 0.2534908854 0)
(2.897332564 0.2540055669 0)
(2.896878431 0.2532801565 0)
(2.89659075 0.2521321537 0)
(2.896748178 0.2515703444 0)
(2.89692158 0.2511715725 0)
(2.89692924 0.2513413568 0)
(2.896866419 0.2512929802 0)
(2.896728564 0.2510910285 0)
(2.89644564 0.2513030401 0)
(2.896409787 0.2515529481 0)
(2.896221425 0.2518894907 0)
(2.896070452 0.252036224 0)
(2.895840669 0.2521547729 0)
(2.895785031 0.2523420806 0)
(2.895933697 0.2526665986 0)
(2.895980601 0.253029637 0)
(2.895883476 0.2532711128 0)
(2.895688799 0.2535043473 0)
(2.895604393 0.253558417 0)
(2.895467496 0.2535297921 0)
(2.895340979 0.2534960318 0)
(2.895263997 0.2534721341 0)
(2.895234627 0.2533794556 0)
(2.895146456 0.2532862155 0)
(2.895072401 0.2532667419 0)
(2.895012254 0.2532398725 0)
(2.89493947 0.2532350161 0)
(2.894913857 0.2532477838 0)
(2.894871424 0.2532430151 0)
(2.89483355 0.2531939836 0)
(2.894829691 0.2531511424 0)
(2.894835113 0.2531535455 0)
(2.894840493 0.2531901368 0)
(2.894833421 0.2532558266 0)
(2.894806543 0.2533106759 0)
(2.894752308 0.2533775966 0)
(2.89469224 0.253406915 0)
(2.894679092 0.2534033603 0)
(2.894648437 0.2533900123 0)
(2.894626941 0.2534022884 0)
(2.89463286 0.2534064618 0)
(2.894625914 0.2534022045 0)
(2.89459129 0.2534021793 0)
(2.894545679 0.2533812604 0)
(2.894522189 0.2533292254 0)
(2.926741497 0.1692437519 0)
(2.916712944 0.2046975779 0)
(2.916934255 0.1996838201 0)
(2.915786515 0.204781616 0)
(2.906644902 0.2303085823 0)
(2.906214518 0.2312316749 0)
(2.903878283 0.2370694165 0)
(2.898563114 0.2460836659 0)
(2.896548151 0.2472030075 0)
(2.895373129 0.2485975202 0)
(2.894693733 0.2525647471 0)
(2.894235806 0.2558874695 0)
(2.89283725 0.2575783274 0)
(2.89136479 0.2590837731 0)
(2.889943075 0.2602295104 0)
(2.889734587 0.2628261021 0)
(2.88926875 0.2640301835 0)
(2.889915434 0.2627867893 0)
(2.889926756 0.261803236 0)
(2.889903002 0.2610235528 0)
(2.890571676 0.2592799504 0)
(2.890905764 0.2574800732 0)
(2.891257992 0.2561151398 0)
(2.891402057 0.254492475 0)
(2.892223252 0.2523426395 0)
(2.892672408 0.2505264352 0)
(2.892899811 0.2503612357 0)
(2.893064582 0.2506508787 0)
(2.893974909 0.2504811338 0)
(2.894409016 0.250040116 0)
(2.894753633 0.2503505193 0)
(2.894784868 0.250829227 0)
(2.894611415 0.2514062527 0)
(2.894431629 0.2517228384 0)
(2.894441488 0.2517543413 0)
(2.894613646 0.2517770338 0)
(2.894822974 0.2520223583 0)
(2.894853657 0.2523209462 0)
(2.894671998 0.2523640774 0)
(2.89445849 0.2523938869 0)
(2.89424563 0.2524964209 0)
(2.894042683 0.2525981803 0)
(2.893902912 0.2525556706 0)
(2.893922333 0.2524926576 0)
(2.894092335 0.2525451796 0)
(2.894191827 0.2526841821 0)
(2.894138557 0.2527390104 0)
(2.894091716 0.2527712057 0)
(2.893991396 0.2528230707 0)
(2.893913544 0.2528976887 0)
(2.893917975 0.2530240383 0)
(2.893941948 0.253093354 0)
(2.893957511 0.2530975037 0)
(2.893985624 0.2530979029 0)
(2.89400602 0.2531195559 0)
(2.894036901 0.2531984124 0)
(2.894018985 0.2532626306 0)
(2.893947711 0.2532704662 0)
(2.893898231 0.253256499 0)
(2.893893444 0.2532518782 0)
(2.893898895 0.2532594023 0)
(2.893936494 0.25326521 0)
(2.893967668 0.253247424 0)
(2.893936742 0.2532358422 0)
(2.893908701 0.2532329165 0)
(2.893877054 0.2532382528 0)
(2.893818693 0.2532448773 0)
(2.97295034 0.05733473065 0)
(2.961103586 0.08516756122 0)
(2.953863812 0.1069279589 0)
(2.942803172 0.1327726743 0)
(2.925787334 0.174352696 0)
(2.924023345 0.1813708854 0)
(2.918847522 0.1989979292 0)
(2.904182821 0.2372309097 0)
(2.901690193 0.2416977414 0)
(2.900215108 0.2472093396 0)
(2.892007092 0.2650276378 0)
(2.890115978 0.269629535 0)
(2.888629548 0.2701787597 0)
(2.888086733 0.274498602 0)
(2.886690389 0.2734423102 0)
(2.88585232 0.2701761389 0)
(2.885736639 0.2677196034 0)
(2.885698374 0.2635646107 0)
(2.887129652 0.2626337653 0)
(2.887826045 0.2616852975 0)
(2.888002848 0.2587048375 0)
(2.88799795 0.2577199009 0)
(2.888196896 0.2575733148 0)
(2.888530651 0.2571417005 0)
(2.88902051 0.2559437982 0)
(2.889469484 0.2557557898 0)
(2.889933225 0.2560955301 0)
(2.890515967 0.2567627022 0)
(2.891861149 0.2555973936 0)
(2.892419057 0.2540055814 0)
(2.892497112 0.2536726083 0)
(2.892439373 0.2538651054 0)
(2.892397249 0.2535023399 0)
(2.892362351 0.2529353519 0)
(2.892533966 0.2524680607 0)
(2.892821204 0.2518822779 0)
(2.893012349 0.2516324092 0)
(2.893162561 0.2515304655 0)
(2.892969274 0.251261179 0)
(2.892839025 0.2511892523 0)
(2.89282623 0.251244382 0)
(2.892723703 0.2513929548 0)
(2.892597495 0.2515059122 0)
(2.89246617 0.25176362 0)
(2.892583291 0.2521935507 0)
(2.892815716 0.2526586467 0)
(2.89283256 0.2528914315 0)
(2.892721605 0.2530333297 0)
(2.892525632 0.2532745575 0)
(2.892440453 0.2533345103 0)
(2.892373797 0.2533925749 0)
(2.892378495 0.2534916675 0)
(2.892459027 0.2535337669 0)
(2.892592708 0.2534700093 0)
(2.89264506 0.2533994598 0)
(2.892634412 0.2533900995 0)
(2.892616232 0.2533871756 0)
(2.892571894 0.2533635075 0)
(2.892552688 0.2532953044 0)
(2.892564583 0.2532377017 0)
(2.89261303 0.2531825893 0)
(2.892703584 0.2531379223 0)
(2.892779746 0.2531324723 0)
(2.892792733 0.2531425512 0)
(2.892790874 0.2531575858 0)
(2.892763407 0.2531879518 0)
(2.892675472 0.2531992856 0)
(2.996921168 0.006058615636 0)
(2.994282685 0.01134479031 0)
(2.99036739 0.02038387749 0)
(2.985095467 0.03104344391 0)
(2.977159936 0.04789102764 0)
(2.968597732 0.06963383031 0)
(2.958777558 0.09216622101 0)
(2.946599969 0.1231737974 0)
(2.942698729 0.1349741899 0)
(2.933155616 0.1564471079 0)
(2.91866423 0.1973358919 0)
(2.91621238 0.2007867034 0)
(2.916320934 0.2019790994 0)
(2.907672791 0.2258807586 0)
(2.906005514 0.2287770228 0)
(2.90634426 0.2316560044 0)
(2.899075281 0.2409415668 0)
(2.897007542 0.2459001876 0)
(2.896187432 0.2465125792 0)
(2.894473499 0.250283195 0)
(2.893472315 0.2530396351 0)
(2.8923032 0.2550380538 0)
(2.890990786 0.2570192933 0)
(2.889606306 0.2593495924 0)
(2.88878932 0.2600908719 0)
(2.888519191 0.2615741527 0)
(2.888707733 0.2614686379 0)
(2.888806213 0.2608977854 0)
(2.888678288 0.2599519328 0)
(2.888952202 0.2582828796 0)
(2.889526578 0.2561520594 0)
(2.889407243 0.2546646791 0)
(2.889452785 0.2535601104 0)
(2.889980114 0.2523067858 0)
(2.890650195 0.2510303592 0)
(2.890684954 0.2502685505 0)
(2.890983007 0.2504877444 0)
(2.891308138 0.2506608799 0)
(2.891624493 0.2504077626 0)
(2.891860403 0.250360619 0)
(2.891977699 0.2508486918 0)
(2.891932533 0.2514073191 0)
(2.891897885 0.2518553441 0)
(2.89188222 0.2519104417 0)
(2.891940365 0.2518564877 0)
(2.892054114 0.2519109124 0)
(2.891976455 0.2521071109 0)
(2.891933525 0.2522486247 0)
(2.891833384 0.2522820521 0)
(2.89168873 0.2521786202 0)
(2.891543018 0.25217632 0)
(2.891429365 0.252412466 0)
(2.891493311 0.2524716192 0)
(2.891662284 0.2524468047 0)
(2.891753131 0.2525830805 0)
(2.891743995 0.2526437387 0)
(2.8917166 0.2526672812 0)
(2.891656619 0.2527129927 0)
(2.891610282 0.2527599779 0)
(2.891605251 0.2527837326 0)
(2.891622636 0.2528072064 0)
(2.891697308 0.2528471733 0)
(2.891776768 0.2528885 0)
(2.891793434 0.2529102836 0)
(2.891801854 0.2529404747 0)
(2.891783045 0.2529990562 0)
(2.891682115 0.2530211516 0)
(2.999932342 0.0001208747642 0)
(2.999814954 0.000335202895 0)
(2.999545259 0.0008464658399 0)
(2.998966958 0.001970239697 0)
(2.99783838 0.004148187402 0)
(2.995778489 0.008550873526 0)
(2.99284957 0.01449186254 0)
(2.988155553 0.02441051839 0)
(2.981055377 0.04226753588 0)
(2.974460357 0.05564756567 0)
(2.962911454 0.08105684872 0)
(2.953304937 0.108468232 0)
(2.947601014 0.1244515218 0)
(2.929337304 0.1654379639 0)
(2.92313128 0.1843121099 0)
(2.92348649 0.1924983222 0)
(2.907122411 0.2283605954 0)
(2.903349958 0.240996629 0)
(2.90448724 0.241815716 0)
(2.895628609 0.2563320018 0)
(2.893172013 0.266900778 0)
(2.891994472 0.2658368194 0)
(2.889557374 0.2694841549 0)
(2.889280126 0.2710235187 0)
(2.887963449 0.268064598 0)
(2.887512642 0.2655382136 0)
(2.887133467 0.2611300965 0)
(2.888183095 0.2600426899 0)
(2.888978417 0.2599120952 0)
(2.888144067 0.2572578374 0)
(2.888034735 0.2560137568 0)
(2.888111272 0.2555946725 0)
(2.888469954 0.2553634455 0)
(2.88898434 0.2548427819 0)
(2.889476965 0.2546105951 0)
(2.889930004 0.2548927786 0)
(2.890180532 0.255577158 0)
(2.890770139 0.2555507621 0)
(2.891224858 0.2541877782 0)
(2.891096478 0.2538685633 0)
(2.89102576 0.2536655781 0)
(2.891285387 0.2534333476 0)
(2.891329795 0.2532767127 0)
(2.891352223 0.2529202371 0)
(2.891449588 0.2524012795 0)
(2.891490244 0.2518111818 0)
(2.891552498 0.251533165 0)
(2.891520679 0.251550078 0)
(2.891447302 0.2514551882 0)
(2.891395739 0.2514758577 0)
(2.891392919 0.2515786476 0)
(2.891431485 0.2516909701 0)
(2.891420038 0.2519127275 0)
(2.891405767 0.2521392538 0)
(2.891453214 0.2523179917 0)
(2.891402584 0.2525369526 0)
(2.891299039 0.2526796558 0)
(2.891179952 0.2528871798 0)
(2.891163918 0.2530062045 0)
(2.891124503 0.2530569923 0)
(2.891082028 0.253154575 0)
(2.891106403 0.2532323487 0)
(2.891169351 0.2531655006 0)
(2.891215514 0.2530284214 0)
(2.891209131 0.2529591897 0)
(2.891200564 0.2529576426 0)
(2.891178351 0.2529838093 0)
(2.99999978 3.565963247e-07 0)
(2.99999904 1.596461634e-06 0)
(2.999996322 6.159121583e-06 0)
(2.999987348 2.183474184e-05 0)
(2.999959676 7.117022915e-05 0)
(2.999888219 0.000199179207 0)
(2.999707431 0.0005488611669 0)
(2.999307396 0.001303740364 0)
(2.998542281 0.002812825997 0)
(2.997040365 0.005945123037 0)
(2.994500174 0.01087472349 0)
(2.990586301 0.01987653289 0)
(2.985542229 0.03119476265 0)
(2.978303512 0.04592430579 0)
(2.969126039 0.06871596095 0)
(2.960989612 0.08860659369 0)
(2.948486241 0.1183419688 0)
(2.941320768 0.1389587431 0)
(2.937142926 0.1512831003 0)
(2.921410656 0.1884585693 0)
(2.916867275 0.2036995246 0)
(2.919226722 0.1983020008 0)
(2.910266803 0.2174119015 0)
(2.906780497 0.2303465401 0)
(2.908483221 0.2292846326 0)
(2.902970738 0.23624944 0)
(2.898737675 0.2435499015 0)
(2.897738672 0.2444649426 0)
(2.896096167 0.2476495159 0)
(2.894572206 0.2503348166 0)
(2.893682984 0.2532133743 0)
(2.892326932 0.2553186687 0)
(2.890822294 0.2577298612 0)
(2.889854521 0.2590278089 0)
(2.889474382 0.2596396233 0)
(2.889191377 0.2600986675 0)
(2.889309548 0.2594797116 0)
(2.889436393 0.2589565262 0)
(2.889460683 0.2577618915 0)
(2.889396457 0.2561326457 0)
(2.889900796 0.2543528109 0)
(2.890130651 0.2530434913 0)
(2.88996602 0.2524907266 0)
(2.89046569 0.2517597538 0)
(2.890958756 0.250836174 0)
(2.891071046 0.2505151408 0)
(2.891095946 0.2504503266 0)
(2.891236182 0.250735039 0)
(2.89136141 0.2509170727 0)
(2.891509336 0.2513384903 0)
(2.891611417 0.2518199475 0)
(2.891572951 0.2520701597 0)
(2.891534851 0.2521532525 0)
(2.891527919 0.2521348461 0)
(2.891536542 0.2521013277 0)
(2.891497956 0.2521670872 0)
(2.891442299 0.2522048408 0)
(2.891384127 0.2522387616 0)
(2.891313715 0.2522742011 0)
(2.891250971 0.2522588882 0)
(2.891096456 0.2523982295 0)
(2.891057301 0.2525343343 0)
(2.891099101 0.252471608 0)
(2.891159027 0.252489942 0)
(2.891162856 0.2526419759 0)
(2.891141735 0.2527349081 0)
(2.891093643 0.2528375052 0)
(3 9.632479401e-11 0)
(2.999999999 7.641315432e-10 0)
(2.999999996 5.724657345e-09 0)
(2.999999979 3.243237712e-08 0)
(2.999999894 1.701654168e-07 0)
(2.999999514 8.081588857e-07 0)
(2.999998113 3.154960321e-06 0)
(2.999992999 1.203013179e-05 0)
(2.9999771 4.003776945e-05 0)
(2.999933177 0.0001192715076 0)
(2.999815111 0.0003375037373 0)
(2.999549587 0.0008399816157 0)
(2.998985131 0.00196762046 0)
(2.997900796 0.004065787223 0)
(2.995874078 0.008309367795 0)
(2.992834079 0.01488581113 0)
(2.988687196 0.02332221877 0)
(2.981325987 0.04110272804 0)
(2.974500478 0.05697073946 0)
(2.965704475 0.07531731804 0)
(2.952843896 0.108508668 0)
(2.947830265 0.1244635736 0)
(2.933540735 0.1553639704 0)
(2.922372819 0.1866615519 0)
(2.925102904 0.1897147308 0)
(2.912039193 0.2167348219 0)
(2.904364652 0.242310766 0)
(2.904347606 0.2409202932 0)
(2.899856115 0.2493442967 0)
(2.895367147 0.2635642921 0)
(2.893650834 0.2642343457 0)
(2.891661664 0.2656288098 0)
(2.89135998 0.2684445767 0)
(2.890275244 0.266847066 0)
(2.889697806 0.2644185229 0)
(2.888459182 0.2602334286 0)
(2.888973034 0.2575396426 0)
(2.889872976 0.2577464689 0)
(2.889468773 0.2562733826 0)
(2.88945642 0.2550692078 0)
(2.88931853 0.2544926546 0)
(2.88945607 0.254154718 0)
(2.88978046 0.2538716656 0)
(2.890205154 0.2541176366 0)
(2.890587481 0.2544587202 0)
(2.89077903 0.2547238523 0)
(2.891084098 0.2550005428 0)
(2.891516575 0.2543638814 0)
(2.891522956 0.2538893927 0)
(2.891467318 0.2537656356 0)
(2.891616611 0.2535775114 0)
(2.891536194 0.2533584998 0)
(2.891343369 0.2529642366 0)
(2.891366292 0.2525150661 0)
(2.891455372 0.2522895781 0)
(2.891440168 0.2520502469 0)
(2.891404659 0.2516918948 0)
(2.89149229 0.2516636017 0)
(2.891509073 0.2517020518 0)
(2.891528618 0.2518453153 0)
(2.891480398 0.2519858983 0)
(2.89139375 0.2521883201 0)
(2.891359193 0.2523367886 0)
(2.891363556 0.2524517688 0)
(2.891385664 0.2525646806 0)
(2.891406024 0.2526880368 0)
(2.891351997 0.252860363 0)
(3 2.425593114e-14 0)
(3 -4.723947129e-14 0)
(3 9.408976629e-15 0)
(3 2.967008735e-12 0)
(3 2.993180072e-11 0)
(3 3.019965537e-10 0)
(2.999999999 2.268809586e-09 0)
(2.999999991 1.397572083e-08 0)
(2.999999951 7.942363683e-08 0)
(2.99999977 3.74550867e-07 0)
(2.999999016 1.637915535e-06 0)
(2.999996192 6.460750251e-06 0)
(2.999987234 2.204974109e-05 0)
(2.999959344 7.253008432e-05 0)
(2.999886159 0.0002032615485 0)
(2.999708723 0.0005434424515 0)
(2.99930323 0.001335220652 0)
(2.998540205 0.002802014706 0)
(2.997068393 0.005932426916 0)
(2.994581251 0.01087877515 0)
(2.990673836 0.01928130836 0)
(2.985482766 0.03174759686 0)
(2.979022899 0.04490084638 0)
(2.969349301 0.06765090357 0)
(2.961350642 0.08887364213 0)
(2.950685558 0.1131064506 0)
(2.940532186 0.1407419663 0)
(2.938360767 0.1493564299 0)
(2.92487487 0.1780883928 0)
(2.917014748 0.2072695221 0)
(2.917420551 0.2016988987 0)
(2.914885296 0.2082260756 0)
(2.908015553 0.2278479931 0)
(2.908346132 0.228702265 0)
(2.906394073 0.2341941597 0)
(2.900444934 0.2409169062 0)
(2.898829088 0.2431851367 0)
(2.897965101 0.2448586221 0)
(2.895400277 0.2482796846 0)
(2.894821578 0.2516184247 0)
(2.893615827 0.2539101503 0)
(2.892050201 0.2559271803 0)
(2.890968614 0.2570457661 0)
(2.890558848 0.2589086533 0)
(2.890285875 0.2590109759 0)
(2.890028239 0.2582079166 0)
(2.889832346 0.2579488685 0)
(2.889891696 0.2571195495 0)
(2.890090346 0.2557699648 0)
(2.890466639 0.2543109532 0)
(2.890802382 0.2529112092 0)
(2.890698597 0.2522717746 0)
(2.890592831 0.2518869246 0)
(2.891047478 0.2511795402 0)
(2.89125419 0.2509011805 0)
(2.891348193 0.2511161816 0)
(2.89150591 0.2512661636 0)
(2.891674853 0.2513062482 0)
(2.891927722 0.2516505122 0)
(2.891993787 0.2520609643 0)
(2.891914319 0.2522938685 0)
(2.89173445 0.2524150164 0)
(2.891658976 0.2524089726 0)
(2.891642864 0.2524023194 0)
(2.891623594 0.25239382 0)
(2.89161817 0.2523799445 0)
(2.891663813 0.2523216216 0)
(3 9.103606121e-15 0)
(3 7.239452853e-15 0)
(3 9.163806572e-15 0)
(3 1.053941306e-14 0)
(3 1.104242023e-14 0)
(3 -2.857694858e-14 0)
(3 4.126286241e-13 0)
(3 2.653220587e-13 0)
(3 9.023514199e-12 0)
(3 1.123587406e-10 0)
(2.999999999 8.481648489e-10 0)
(2.999999996 6.12384429e-09 0)
(2.999999978 3.563485385e-08 0)
(2.999999889 1.771896569e-07 0)
(2.999999486 8.569496512e-07 0)
(2.999998004 3.362176966e-06 0)
(2.999992805 1.234264914e-05 0)
(2.999976051 4.221636879e-05 0)
(2.999931254 0.0001230755338 0)
(2.999811903 0.0003458414675 0)
(2.999537585 0.0008596974986 0)
(2.998965122 0.002012220655 0)
(2.997890097 0.004172210102 0)
(2.995925363 0.008149274368 0)
(2.992724246 0.01529973769 0)
(2.98878304 0.02335279687 0)
(2.981703315 0.03938153159 0)
(2.973986323 0.05907370466 0)
(2.966572389 0.07428547707 0)
(2.953425612 0.1056295756 0)
(2.947625351 0.1248848059 0)
(2.93666831 0.1509163279 0)
(2.922363096 0.1874674849 0)
(2.923290583 0.1903607276 0)
(2.91649974 0.2092366722 0)
(2.905715642 0.2397170304 0)
(2.904308404 0.2408453589 0)
(2.901963501 0.2465096596 0)
(2.896524629 0.2609194844 0)
(2.894793628 0.2629617051 0)
(2.893121421 0.2638782706 0)
(2.892818422 0.2666561389 0)
(2.891550097 0.2647736698 0)
(2.891200721 0.2626507247 0)
(2.889949449 0.2589017235 0)
(2.889713934 0.2564694814 0)
(2.890073978 0.2562976389 0)
(2.889763838 0.2552357127 0)
(2.89019486 0.2539635928 0)
(2.89024884 0.2536447217 0)
(2.8903127 0.2534380415 0)
(2.890407809 0.2531887006 0)
(2.890641572 0.2533470718 0)
(2.890983338 0.2538437235 0)
(2.891143755 0.2542613877 0)
(2.891398513 0.254735537 0)
(2.891650758 0.2545087471 0)
(2.891858359 0.2537215543 0)
(2.891939614 0.2535343676 0)
(2.891960898 0.253436782 0)
(2.891872271 0.2533305536 0)
(2.891652176 0.2530152152 0)
(2.891579379 0.2526772887 0)
(2.891592682 0.2524901534 0)
(2.891524377 0.2522610652 0)
(2.891521553 0.2519449477 0)
(2.89168192 0.2518032251 0)
(3 6.679953352e-15 0)
(3 7.330745422e-15 0)
(3 7.082420505e-15 0)
(3 7.495330573e-15 0)
(3 5.035566773e-15 0)
(3 2.332163677e-15 0)
(3 1.291381806e-15 0)
(3 -2.513154343e-15 0)
(3 -8.540599313e-15 0)
(3 5.219906763e-15 0)
(3 8.911256027e-14 0)
(3 -2.254677655e-13 0)
(3 3.234053246e-12 0)
(3 3.665874009e-11 0)
(3 3.36076825e-10 0)
(2.999999998 2.580410499e-09 0)
(2.99999999 1.552042405e-08 0)
(2.999999946 8.657899956e-08 0)
(2.999999747 4.161078125e-07 0)
(2.999998948 1.752320942e-06 0)
(2.999995909 7.003906405e-06 0)
(2.999986368 2.364116815e-05 0)
(2.99995784 7.588725964e-05 0)
(2.999880435 0.00021617912 0)
(2.99969989 0.0005564683428 0)
(2.999286889 0.0013834166 0)
(2.998483648 0.002915619392 0)
(2.997028331 0.00597874971 0)
(2.994546254 0.01118263102 0)
(2.990597163 0.01937452085 0)
(2.985378539 0.03196178447 0)
(2.978883989 0.04588044165 0)
(2.969816782 0.06638314561 0)
(2.961767842 0.08767528236 0)
(2.950631159 0.1138424472 0)
(2.940151288 0.1427446116 0)
(2.939074338 0.1479731438 0)
(2.927946899 0.1715064135 0)
(2.917593473 0.2061347431 0)
(2.916466647 0.2042255145 0)
(2.916046724 0.2066573387 0)
(2.909194537 0.2254303828 0)
(2.908552751 0.2270283911 0)
(2.907520214 0.232135745 0)
(2.901813875 0.2385117049 0)