/*--------------------------------*- C++ -*----------------------------------*\
  =========                 |
  \\      /  F ield         | OpenFOAM: The Open Source CFD Toolbox
   \\    /   O peration     | Website:  https://openfoam.org
    \\  /    A nd           | Version:  7
     \\/     M anipulation  |
\*---------------------------------------------------------------------------*/
FoamFile
{
    version     2.0;
    format      ascii;
    class       volScalarField;
    location    "1.2";
    object      T;
}
// * * * * * * * * * * * * * * * * * * * * * * * * * * * * * * * * * * * * * //

dimensions      [0 0 0 1 0 0 0];

internalField   nonuniform List<scalar> 
2223
(
0.8805588908
0.8806269489
0.8807097041
0.880798564
0.8808613517
0.8808977885
0.880905417
0.8809009001
0.8808940166
0.8808828978
0.880856461
0.8808095966
0.8807212501
0.8805601063
0.8802670615
0.8794359801
0.8782039241
0.8804125309
0.989393232
1.316663738
1.47239509
1.517635093
0.8798856759
0.8798765341
0.8797369327
0.8796747311
0.8797335116
0.8797646582
0.8797760928
0.8798338888
0.8799851979
0.8802182043
0.8804371858
0.8805733517
0.880680595
0.8807363464
0.8807633974
0.8808071306
0.8808579839
0.880875376
0.8808760703
0.8808647081
0.8808593304
0.8808586774
0.8808384876
0.8807775688
0.8806100328
0.8798455892
0.8798139879
0.8862858141
1.067007927
1.364177917
1.483393031
0.8802377008
0.8802415325
0.8799527075
0.8796220739
0.8796334516
0.8797204081
0.8797014749
0.8796596087
0.8796841701
0.8797834051
0.8799879254
0.8802311831
0.8804621001
0.8806222457
0.8806489702
0.8806791752
0.8807248957
0.8807725821
0.8808140594
0.8808380789
0.8808551625
0.8808701337
0.8808702215
0.8808598673
0.8808363668
0.8807357707
0.8803183788
0.8803791808
0.9018454479
1.114398283
1.3779575
0.8814575929
0.8811369884
0.8806500191
0.8798367544
0.8796590489
0.8797213001
0.8796883563
0.8795656034
0.8794952586
0.8795411068
0.8796404616
0.8797630302
0.8799010249
0.8800979147
0.8803351118
0.8805128455
0.8806122456
0.8807140247
0.8807680864
0.8807743289
0.8808018847
0.8808393501
0.8808344967
0.8808209251
0.8808316394
0.8808454054
0.88078036
0.8805920252
0.8810606397
0.9122511566
1.175247577
0.8839017838
0.882628475
0.8823863952
0.8816537185
0.8806028259
0.8803504529
0.8801624569
0.8797395711
0.879511932
0.8795307998
0.8795781691
0.8796028915
0.8795991761
0.8796549157
0.879791275
0.8799985457
0.8802368037
0.8804794413
0.8806855605
0.8807389039
0.8807229765
0.8807394396
0.8807583483
0.8807809937
0.8808238796
0.8808610179
0.8808636913
0.8808117622
0.8807858254
0.8815569074
0.9459813959
0.8881014305
0.8846258086
0.8843620077
0.8840310037
0.8827023302
0.8818408849
0.8816508734
0.8811099459
0.8800634381
0.8798341807
0.8798490379
0.8797593918
0.8796285394
0.8795678112
0.8795802899
0.8796467003
0.8797698338
0.8799143457
0.8801241906
0.8803828492
0.8805472819
0.8806416866
0.8807353402
0.8807973941
0.8808267378
0.8808549045
0.8808566527
0.8808483114
0.8808053365
0.8808088539
0.8838915087
0.8936305096
0.8898689253
0.887147894
0.8863203176
0.8848023001
0.8826409025
0.8823927647
0.8822504611
0.8813766572
0.8807949388
0.8807852763
0.8807228187
0.8802139636
0.8796809289
0.8796462465
0.8796633179
0.8796549866
0.8796568431
0.8797076689
0.8798610134
0.8800835361
0.8802823457
0.8804961935
0.8806688369
0.8807028309
0.8807303473
0.8807762125
0.8807911483
0.8807987837
0.8808086675
0.880870528
0.8984369942
0.896088873
0.8913803707
0.8900275378
0.8893528774
0.8867738921
0.8839429533
0.8833943083
0.8826682006
0.8813963885
0.8812870767
0.8814346803
0.8810959002
0.8803805161
0.880200144
0.8801158686
0.8798979535
0.8796810061
0.8796529161
0.8796856154
0.879770782
0.8798913656
0.8800142508
0.8801838969
0.8803662691
0.8805101531
0.8806431193
0.8807316031
0.8807681839
0.8807894325
0.8808034303
0.9037693379
0.9022520127
0.8984557289
0.8941078981
0.8930506388
0.8914399633
0.8880511811
0.8863743177
0.8859010639
0.8841257159
0.8818794569
0.8817219267
0.8815834225
0.8809627949
0.8805979022
0.8806272181
0.8805542551
0.8801312644
0.8798317395
0.8798603385
0.8798883844
0.8798393777
0.8798084903
0.8798546662
0.8800003193
0.8802269828
0.8804382056
0.8806088981
0.880716488
0.880703406
0.8807094599
0.9090667933
0.9073584642
0.905298084
0.9005575844
0.8971057955
0.8958928438
0.8931119848
0.8898125516
0.8894746882
0.8886803091
0.8860042539
0.8838630074
0.8831673811
0.8819829633
0.8807501052
0.8806778883
0.8808963855
0.8807019679
0.8803128955
0.8802641004
0.8802743835
0.8801690656
0.8799498585
0.8798594981
0.8798813345
0.8799784706
0.8800992425
0.8802256241
0.8803807302
0.8805109999
0.8806035612
0.9158354048
0.9124793845
0.9109420119
0.9077390013
0.9028110338
0.9008725346
0.8991718124
0.8948970052
0.891792589
0.8913651304
0.8898741014
0.8869512292
0.8860231935
0.8854292748
0.8835721298
0.8816310587
0.8814781365
0.8812981577
0.8806627311
0.8803507846
0.88043637
0.8804545626
0.8802459363
0.8800309966
0.8799880122
0.8799723849
0.8799398676
0.8799573981
0.8800267874
0.8801620751
0.8803055594
0.9229837278
0.9181490218
0.9160034625
0.9139529142
0.9094628583
0.9055502215
0.9043815859
0.9021412316
0.8975218232
0.8952099567
0.8938682608
0.8905847514
0.8880707223
0.8879890529
0.8872701849
0.8849570864
0.8836175474
0.8832135441
0.8821445032
0.8806820645
0.8804145204
0.8805441863
0.8804299625
0.8801299028
0.8800343058
0.8799932548
0.8799320038
0.8799169346
0.8799061063
0.8799306251
0.8799955295
0.9296078287
0.9248449924
0.921085064
0.919486863
0.9165616785
0.9115738102
0.9090700329
0.907497834
0.9038663775
0.899730746
0.898465744
0.8966810156
0.8926189682
0.8904911869
0.8901084553
0.8885214815
0.8859356486
0.8853588516
0.8848865581
0.883267234
0.8815959182
0.8814524245
0.8812222275
0.8805134978
0.8800962287
0.8800984402
0.880137433
0.8800207644
0.8799050634
0.8798992389
0.879906887
0.9350411616
0.9318465188
0.9267548571
0.9241727262
0.9223516676
0.9185453446
0.9143247484
0.9125153223
0.91017316
0.9053169973
0.9026783351
0.9018636064
0.8994194334
0.8954098751
0.8937001738
0.8924186758
0.8892585048
0.8868147327
0.8867812951
0.8862156694
0.8842390343
0.8830978929
0.8829510018
0.8823795155
0.8811369334
0.8806889168
0.880776908
0.8806888044
0.8803240927
0.8800619324
0.8800350747
0.9402485991
0.9381297668
0.9337968326
0.9293593938
0.9274998082
0.9249392326
0.9202231769
0.9173043287
0.915786495
0.9124848224
0.9077807217
0.9058825861
0.904270902
0.9006170395
0.897414128
0.8966488983
0.8950249147
0.8913271317
0.889475937
0.8889611049
0.8873239788
0.8845365361
0.8839670359
0.8838022305
0.8828188803
0.8814600289
0.8812301484
0.881196998
0.8808240697
0.8803534116
0.8802673801
0.9452716365
0.942988889
0.9402080002
0.9352929275
0.9321365946
0.9304109207
0.9269976055
0.9222748371
0.9202834086
0.9184770153
0.9145202018
0.9106861626
0.9092503699
0.9069928568
0.9026264841
0.9004770602
0.8994698185
0.8968752562
0.893186517
0.8919800049
0.8912005036
0.8888811018
0.8862162289
0.8858699807
0.8854440981
0.8838336709
0.8821519478
0.8820188149
0.8817352138
0.8808518433
0.8803946777
0.9519509567
0.9481346975
0.9460374331
0.9423153683
0.9374505329
0.935285691
0.9331344874
0.9287246654
0.9249531813
0.9233707681
0.9207843558
0.9162237908
0.9136592717
0.9121388775
0.9088943792
0.9046515828
0.9031062947
0.9017760438
0.898358374
0.8952897441
0.8947765468
0.8935341292
0.8904250422
0.8883817795
0.8879082759
0.886769157
0.8844824675
0.8833311952
0.8830944835
0.8825150056
0.8812884086
0.9586862017
0.9535709179
0.9507046531
0.9482747408
0.9437861833
0.9397457306
0.9378934622
0.9350673896
0.9304375642
0.9278226254
0.9261596977
0.9227333033
0.9183205562
0.9165976278
0.9149201513
0.9111072886
0.9077316503
0.9065681662
0.9044825582
0.9004230246
0.897994047
0.8970189194
0.8950030453
0.8914513457
0.8900395696
0.8895275237
0.8879048394
0.8851496067
0.884645166
0.884615308
0.8837995412
0.9647570014
0.9604289162
0.9558341404
0.9535415435
0.9505422016
0.945648293
0.9426558574
0.940675032
0.9369137124
0.9325922052
0.9307439401
0.9286445713
0.9243703873
0.9209240174
0.9195034847
0.9170093121
0.9126906532
0.9101640485
0.9088262495
0.9061299126
0.9020728027
0.9008121986
0.8999742537
0.8973450369
0.8940019737
0.8929919589
0.8919631133
0.8893319142
0.8869103712
0.8864415501
0.8858881793
0.9698953052
0.9667768055
0.9619682438
0.9581741043
0.9558164971
0.9519965641
0.9474088659
0.9451616237
0.9427799473
0.938406981
0.9348941781
0.9332937214
0.9306542608
0.9262146348
0.9237031272
0.9221925876
0.9190470691
0.9149541
0.9134238492
0.9119386441
0.9084401844
0.904808336
0.9034515581
0.9017542422
0.8982954959
0.8955831686
0.8949026346
0.8936740374
0.8906448603
0.888425577
0.8880048985
0.9752030444
0.9721343796
0.9685859957
0.963750895
0.9607207944
0.9581346886
0.9536757002
0.9498453937
0.947914294
0.9448920851
0.9402339939
0.9376308827
0.9358724526
0.9323835148
0.9282084342
0.926469494
0.9245702817
0.9205639337
0.9171586151
0.9158628327
0.9138171645
0.9099291636
0.9071800826
0.906104994
0.9041171774
0.9004277557
0.8985982852
0.8978684389
0.8959643724
0.8925446002
0.8911159274
0.9811253868
0.9771778303
0.9741734802
0.9701355129
0.9656567934
0.9630217289
0.9599026274
0.9551671421
0.9521007737
0.949999643
0.9463213073
0.942079261
0.9400929544
0.9379624086
0.933884535
0.9304362861
0.9290452356
0.9267652448
0.9224451956
0.9198963861
0.9186930773
0.9160991139
0.912119944
0.9102339266
0.9088937344
0.9060125258
0.9022944304
0.9007691408
0.8996076348
0.8969112259
0.8935503739
0.9865680066
0.9826366302
0.9791215614
0.9760259095
0.9716864271
0.9677661119
0.9652621097
0.9616261122
0.9570790422
0.9546562594
0.9522527846
0.947973856
0.9444555253
0.9427228819
0.9399855505
0.9355195549
0.9329690383
0.9315139589
0.9284588126
0.9242354979
0.9224398746
0.9208897039
0.917481601
0.9138116852
0.912500209
0.9110036697
0.9077925003
0.904750109
0.9037085128
0.9022926415
0.8990953092
0.9909333143
0.9878964093
0.9841570217
0.9809629
0.977674079
0.9732665287
0.9698849091
0.9671937042
0.9630336895
0.9590193547
0.9568284694
0.9538702455
0.9493737752
0.9466179086
0.9448118915
0.9415325949
0.9373287745
0.9353948701
0.933654941
0.9300303178
0.9263504386
0.9250874978
0.9233129769
0.9194437881
0.9165352377
0.9154154971
0.9133658727
0.9095661935
0.9071474437
0.9061075413
0.9040868452
0.9944679304
0.9920968636
0.9891338022
0.9856713029
0.9826717265
0.9791858747
0.9749452219
0.9719632191
0.9690069173
0.9645697772
0.9612208761
0.9590937902
0.9555902912
0.9512638705
0.9491219509
0.9470451737
0.9431122203
0.9394878467
0.9379023724
0.935662865
0.9314717215
0.9286368135
0.9274137799
0.9249694222
0.9208427032
0.9187334748
0.9175264154
0.9149554971
0.9112328777
0.9096170321
0.9085085784
0.9971309285
0.9953180674
0.9931378514
0.9902994141
0.9871401683
0.9842414884
0.980604118
0.9766808507
0.973906
0.9705746735
0.9661363755
0.963310551
0.9609217415
0.9569102978
0.9531095796
0.951209441
0.9486656915
0.9444460898
0.9415867798
0.9400738281
0.9373695875
0.9331324033
0.9310348476
0.929716322
0.9267616812
0.9228397559
0.921412902
0.9200703264
0.9168696542
0.9135188644
0.9123445463
0.998752039
0.997649563
0.9960725404
0.9940687748
0.9914031819
0.9885300912
0.9856777702
0.9819974548
0.9784383462
0.9757171326
0.9720625827
0.9678874367
0.9654317749
0.962750926
0.958437845
0.9553158426
0.9534967398
0.9504092081
0.9461448889
0.9439825145
0.9423089616
0.9389087816
0.9349740227
0.9334086435
0.9317273552
0.9280601573
0.9247805312
0.9236159268
0.9217791116
0.9180679311
0.9154573195
0.9995558964
0.9990254896
0.9980958457
0.9967329972
0.9949027114
0.9924444917
0.9898216858
0.9869948129
0.9833816831
0.9801614233
0.9773669136
0.973457451
0.9697038108
0.9673658242
0.9642249837
0.959887184
0.9573253298
0.9553037876
0.951699479
0.947809085
0.9460507582
0.9440593169
0.940262119
0.9369930702
0.935670704
0.9336004511
0.9295609143
0.9270496612
0.9260474319
0.9238039663
0.919947626
0.9998783258
0.999672566
0.9992477513
0.9984750892
0.997304635
0.9956492579
0.9934182249
0.9910075108
0.9882143183
0.9847621804
0.9818090201
0.9788930263
0.9748818644
0.9715714911
0.9692342613
0.9656959688
0.9616016313
0.9594867697
0.9572303827
0.953183743
0.9499025575
0.9483301523
0.9458516422
0.9416965239
0.9392156612
0.9378925305
0.9351637471
0.9310687201
0.9292927652
0.9280085419
0.9249889009
0.9999753175
0.9999156594
0.9997618134
0.9994264256
0.9987931611
0.9977949271
0.9963157573
0.9943155745
0.9920890617
0.9893565104
0.9861221468
0.9833589026
0.9802975564
0.9763331487
0.973399771
0.9709021091
0.9670100382
0.9633501269
0.9613780394
0.9586745211
0.954469664
0.9518388514
0.9501956561
0.9472046035
0.9431621516
0.9413065604
0.9398049315
0.9365836585
0.9328935567
0.9316110794
0.9300737986
0.9999963961
0.9999840632
0.9999424634
0.9998291189
0.9995682908
0.999056249
0.9982121813
0.9969077433
0.9951310555
0.993070194
0.9904367516
0.9874445338
0.9848025365
0.9816227511
0.9778321209
0.9751717434
0.9724765454
0.9683939637
0.965245503
0.9633191663
0.9601811331
0.956066709
0.9540199555
0.9522131267
0.9486278347
0.9450096392
0.9435482433
0.9416630192
0.9378270383
0.9349091037
0.9337783708
0.9999996367
0.9999978504
0.9999898873
0.9999613838
0.9998791582
0.9996794328
0.9992708348
0.9985643267
0.9974298045
0.995862906
0.9939582683
0.9914589216
0.988709475
0.9861432542
0.9828871618
0.979352981
0.9768468397
0.9738810329
0.9697898876
0.9670979125
0.9649950093
0.9613871375
0.9576428125
0.9558943189
0.9537243816
0.9497986253
0.9468542706
0.9454939596
0.9431373468
0.9391263836
0.937016198
0.9999999755
0.9999998009
0.999998742
0.9999936967
0.9999745103
0.9999158096
0.9997652938
0.9994434896
0.9988588724
0.9978855467
0.9965130703
0.9947606554
0.9924241806
0.9899018699
0.9873862401
0.9841218666
0.9808740184
0.9784282885
0.9752114545
0.9712845051
0.9689510216
0.9666478271
0.962696319
0.9595019707
0.9579146095
0.9553193175
0.9512199615
0.9489942095
0.9475512774
0.9445196314
0.9406841484
0.9999999989
0.9999999878
0.9999998932
0.9999992779
0.9999961426
0.9999834584
0.9999422434
0.9998306405
0.9995805977
0.999102802
0.9982788839
0.9970848518
0.9954848095
0.9933299611
0.9910139554
0.9885390324
0.9853317778
0.9823653011
0.9799019802
0.9764623973
0.9728344699
0.9706886016
0.9680437487
0.9639535279
0.9613150752
0.9596013217
0.9564672923
0.9525955385
0.9508957237
0.949180568
0.9456385975
1
0.9999999995
0.999999994
0.9999999439
0.9999995937
0.9999976834
0.9999894507
0.999961004
0.9998796083
0.9996880163
0.9993027192
0.998614235
0.9975831882
0.9961358887
0.9941735368
0.9920417707
0.9896127556
0.9865244572
0.9838001706
0.981276614
0.9777067687
0.9744404162
0.9723625017
0.9693753363
0.9653717125
0.9632342333
0.9613515901
0.9577084231
0.954360763
0.95297323
0.9508332937
1
1
0.9999999998
0.9999999971
0.9999999711
0.9999997759
0.9999986352
0.999993391
0.9999741006
0.9999157175
0.9997710248
0.9994646507
0.998896779
0.9980135195
0.9967186418
0.9949506453
0.9929857673
0.9906176231
0.9876942627
0.9851643981
0.9825474689
0.9789509236
0.9760536587
0.9739059452
0.9705415547
0.9668550698
0.9650073472
0.9627506876
0.9587912509
0.9561109159
0.9546921788
1
1
1
0.9999999999
0.9999999987
0.9999999855
0.999999879
0.9999992115
0.9999959343
0.9999830873
0.9999419175
0.9998342588
0.9995941845
0.999131798
0.9983820926
0.9972368165
0.9956592965
0.9938469935
0.9915621003
0.9888346177
0.9864490958
0.9837342875
0.980220077
0.977640458
0.9753574719
0.9717091478
0.9684825404
0.9667729265
0.9641057364
0.9601123427
0.9580873865
1
1
1
1
1
0.9999999994
0.9999999928
0.999999936
0.9999995535
0.9999975449
0.999989146
0.9999606121
0.9998817401
0.9996964132
0.9993248184
0.9986948099
0.9976944959
0.9962985028
0.994629494
0.9924498002
0.9899330625
0.9876530271
0.9848509873
0.9815128778
0.9791644478
0.9766646458
0.9728819621
0.9701572095
0.9683457104
0.9651624074
0.9615085682
1
1
1
1
1
1
0.9999999997
0.9999999966
0.9999999668
0.9999997522
0.9999985453
0.999993157
0.9999737266
0.9999168583
0.9997759952
0.9994812636
0.9989577005
0.9980947974
0.9968698526
0.9953374826
0.9932844976
0.9909778407
0.9887723813
0.9859233737
0.9828293119
0.9806084471
0.9778602918
0.9741448237
0.9718518894
0.9698397605
0.9662319061
1
1
1
1
1
1
1
0.9999999999
0.9999999984
0.9999999832
0.9999998653
0.9999991546
0.9999957637
0.9999827678
0.9999424356
0.9998370419
0.9996064463
0.9991764178
0.9984415987
0.9973749148
0.9959762263
0.9940678519
0.9919608217
0.9898065118
0.9869638639
0.9841495445
0.9819584872
0.97895124
0.9754910614
0.9734757546
0.9711176944
1
1
1
1
1
1
1
1
0.9999999999
0.9999999993
0.9999999917
0.9999999283
0.9999995184
0.9999974259
0.9999888916
0.9999607674
0.9998831781
0.9997052465
0.9993565319
0.9987387389
0.9978173122
0.996549107
0.9948005384
0.9928761654
0.9907606598
0.9879880301
0.9854410959
0.9832087641
0.9800107525
0.9769211533
0.9750150205
0.9722778358
1
1
1
1
1
1
1
1
1
1
0.9999999997
0.999999996
0.9999999626
0.9999997311
0.9999984654
0.9999929651
0.9999736931
0.9999175067
0.9997821766
0.9995031016
0.9989906645
0.9982007527
0.9970612276
0.9954797461
0.9937199772
0.9916453442
0.9890006629
0.9866771409
0.9843542001
0.9810821632
0.9783841811
0.9764190473
1
1
1
1
1
1
1
1
1
1
1
0.9999999999
0.9999999981
0.999999981
0.9999998529
0.9999991029
0.9999956252
0.9999826533
0.9999426512
0.9998412228
0.9996210019
0.9992015419
0.9985302149
0.9975166286
0.9961037744
0.994489461
0.9924723108
0.990000342
0.987838684
0.9854073561
0.9822000914
0.9798310943
1
1
1
1
1
1
1
1
1
1
1
1
0.9999999999
0.9999999991
0.9999999905
0.9999999213
0.999999486
0.9999973298
0.9999887578
0.9999607674
0.9998859007
0.9997146283
0.9993759089
0.9988103362
0.9979201082
0.9966697365
0.9951868658
0.9932499155
0.9909746321
0.9889196653
0.9863880253
0.9833603642
1
1
1
1
1
1
1
1
1
1
1
1
1
1
0.9999999996
0.9999999954
0.9999999588
0.9999997115
0.9999984013
0.9999928428
0.9999736023
0.9999192006
0.9997880355
0.9995180845
0.9990464683
0.9982745972
0.9971779111
0.9958154449
0.9939835358
0.9919079367
0.9899195904
0.9873304076
1
1
1
1
1
1
1
1
1
1
1
1
1
1
1
0.9999999998
0.9999999978
0.9999999789
0.9999998415
0.9999990614
0.9999955264
0.9999825374
0.9999436464
0.9998447696
0.9996325362
0.9992434336
0.9985835057
0.9976283142
0.9963820185
0.9946744473
0.9927862838
0.9908423199
1
1
1
1
1
1
1
1
1
1
1
1
1
1
1
1
0.9999999999
0.999999999
0.9999999894
0.9999999148
0.99999946
0.9999972561
0.9999886482
0.9999613068
0.9998879836
0.999723371
0.9994063148
0.9988493116
0.9980238093
0.996890857
0.9953236653
0.9936014493
1
1
1
1
1
1
1
1
1
1
1
1
1
1
1
1
1
1
0.9999999995
0.9999999948
0.9999999551
0.9999996956
0.9999983493
0.9999927514
0.9999738614
0.9999203788
0.9997945059
0.999539475
0.9990757479
0.9983668881
0.997347335
0.9959271956
1
1
1
1
1
1
1
1
1
1
1
1
1
1
1
1
1
1
1
0.9999999998
0.9999999975
0.9999999769
0.999999832
0.9999990264
0.9999954554
0.9999826359
0.999944283
0.9998494037
0.9996471664
0.9992660228
0.9986624725
0.997753784
1
1
1
1
1
1
1
1
1
1
1
1
1
1
1
1
1
1
1
1
0.9999999999
0.9999999988
0.9999999884
0.9999999092
0.9999994372
0.9999972034
0.9999886631
0.9999616283
0.9998911898
0.9997330864
0.9994240841
0.9989143907
1
1
1
1
1
1
1
1
1
1
1
1
1
1
1
1
1
1
1
1
1
1
0.9999999995
0.9999999943
0.999999952
0.9999996814
0.9999983118
0.9999927284
0.9999740069
0.9999225133
0.9998007962
0.9995534604
1
1
1
1
1
1
1
1
1
1
1
1
1
1
1
1
1
1
1
1
1
1
1
0.9999999998
0.9999999973
0.9999999752
0.9999998233
0.9999990006
0.9999954204
0.999982686
0.9999456531
0.9998533577
1
1
1
1
1
1
1
1
1
1
1
1
1
1
1
1
1
1
1
1
1
1
1
1
0.9999999999
0.9999999987
0.9999999875
0.9999999041
0.9999994202
0.9999971693
0.9999886657
0.9999624705
1
1
1
1
1
1
1
1
1
1
1
1
1
1
1
1
1
1
1
1
1
1
1
1
1
1
0.9999999994
0.9999999938
0.9999999491
0.9999996704
0.9999982837
0.999992711
1
1
1
1
1
1
1
1
1
1
1
1
1
1
1
1
1
1
1
1
1
1
1
1
1
1
1
0.9999999997
0.999999997
0.9999999736
0.9999998166
0.9999989797
1
1
1
1
1
1
1
1
1
1
1
1
1
1
1
1
1
1
1
1
1
1
1
1
1
1
1
1
0.9999999999
0.9999999986
0.9999999866
0.9999999001
1
1
1
1
1
1
1
1
1
1
1
1
1
1
1
1
1
1
1
1
1
1
1
1
1
1
1
1
1
1
0.9999999994
0.9999999934
1
1
1
1
1
1
1
1
1
1
1
1
1
1
1
1
1
1
1
1
1
1
1
1
1
1
1
1
1
1
1
0.9999999997
1
1
1
1
1
1
1
1
1
1
1
1
1
1
1
1
1
1
1
1
1
1
1
1
1
1
1
1
1
1
1
1
1
1
1
1
1
1
1
1
1
1
1
1
1
1
1
1
1
1
1
1
1
1
1
1
1
1
1
1
1
1
1
1
1
1
1
1
1
1
1
1
1
1
1
1
1
1
1
1
1
1
1
1
1
1
1
1
1
1
1
1
1
1
1
1
1
1
1
1
1
1
1
1
1
1
1
1
1
1
1
1
1
1
1
1
1
1
1
1
1
1
1
1
1
1
1
1
1
1
1
1
1
1
1
1
1
1
1
1
1
1
1
1
1
1
1
1
1
1
1
1
1
1
1
1
1
1
1
1
1
1
1
1
1
1
1
1
1
1
1
1
1
1
1
1
1
1
1
1
1
1
1
1
1
1
1
1
1
1
1
1
1
1
1
1
1
1
1
1
1
1
1
1
1
1
1
1
1
1
1
1
1
1
1
1
1
1
1
1
1
1
1
1
1
1
1
1
1
1
1
1
1
1
1
1
1
1
1
1
1
1
1
1
1
1
1
1
1
1
1
1
1
1
1
1
1
1
1
1
1
1
1
1
1
1
1
1
1
1
1
1
1
1
1
1
1
1
1
1
1
1
1
1
1
1
1
1
1
1
1
1
1
1
1
1
1
1
1
1
1
1
1
1
1
1
1
1
1
1
1
1
1
1
1
1
1
1
1
1
1
1
1
1
1
1
1
1
1
1
1
1
1
1
1
1
1
1
1
1
1
1
1
1
1
1
1
1
1
1
1
1
1
1
1
1
1
1
1
1
1
1
1
1
1
1
1
1
1
1
1
1
1
1
1
1
1
1
1
1
1
1
1
1
1
1
1
1
1
1
1
1
1
1
1
1
1
1
1
1
1
1
1
1
1
1
1
1
1
1
1
1
1
1
1
1
)
;

boundaryField
{
    inlet
    {
        type            fixedValue;
        value           nonuniform 0();
    }
    outlet
    {
        type            inletOutlet;
        inletValue      nonuniform 0();
        value           nonuniform 0();
    }
    bottom
    {
        type            slip;
    }
    top
    {
        type            slip;
    }
    obstacle
    {
        type            zeroGradient;
    }
    defaultFaces
    {
        type            empty;
    }
    procBoundary34to27
    {
        type            processor;
        value           nonuniform List<scalar> 9(0.8798742171 0.8805252179 0.8830017633 0.8864437759 0.8904012655 0.8952168205 0.8999641502 0.9065093508 0.9138251002);
    }
    procBoundary34to28
    {
        type            processor;
        value           nonuniform List<scalar> 
32
(
0.8807817605
0.8808422731
0.8808944354
0.8809184764
0.8809232221
0.8809207342
0.880911505
0.8808995709
0.8808704621
0.8808087651
0.8806864532
0.8804698193
0.880103667
0.8796341034
0.8785679464
0.8766291771
0.8772191144
0.9377682645
1.257777009
1.465077629
1.503210963
1.524306586
0.8794985799
0.8794982732
0.8794930014
0.8795473883
0.8796669447
0.8798942346
0.8801057671
0.8802915019
0.8804618822
0.8804618822
)
;
    }
    procBoundary34to29
    {
        type            processor;
        value           uniform 1.516057819;
    }
    procBoundary34to33
    {
        type            processor;
        value           nonuniform List<scalar> 
61
(
0.9208508409
0.9265750857
0.9320473991
0.9369803282
0.9431866702
0.9501560831
0.9569141481
0.9623275368
0.9675499925
0.9732983292
0.9796121052
0.9851154119
0.9896386253
0.993524152
0.9965349689
0.9984187535
0.999405556
0.9998271742
0.9999624124
0.9999940687
0.9999993503
0.9999999522
0.9999999977
0.9999999999
1
1
1
1
1
1
1
1
1
1
1
1
1
1
1
1
1
1
1
1
1
1
1
1
1
1
1
1
1
1
1
1
1
1
1
1
1
)
;
    }
    procBoundary34to35
    {
        type            processor;
        value           nonuniform List<scalar> 
71
(
1.498799787
1.472961422
1.419003841
1.232639649
0.9757698394
0.8859018812
0.8808895618
0.8807228374
0.8806623585
0.8804661723
0.8800973444
0.8799262107
0.8800298035
0.8803011722
0.880459476
0.8807855104
0.8824037406
0.8841985403
0.8868962969
0.8905094894
0.8927416054
0.8963488567
0.9004911834
0.9059466855
0.9108641124
0.9144624023
0.9181691501
0.9214280321
0.9265036996
0.9316044597
0.9358477967
0.9392126103
0.9424316252
0.946869512
0.9519783256
0.9565020598
0.9598785841
0.9631665325
0.9672977874
0.9672977874
0.9685527609
0.9732917203
0.9777017668
0.9812168335
0.9845444305
0.9882559594
0.9916941046
0.9943523987
0.9964833104
0.9981146925
0.9991275884
0.9996581524
0.9998936146
0.9999744992
0.9999953982
0.9999994056
0.9999999468
0.9999999968
0.9999999999
1
1
1
1
1
1
1
1
1
1
1
1
)
;
    }
}


// ************************************************************************* //
