/*--------------------------------*- C++ -*----------------------------------*\
  =========                 |
  \\      /  F ield         | OpenFOAM: The Open Source CFD Toolbox
   \\    /   O peration     | Website:  https://openfoam.org
    \\  /    A nd           | Version:  7
     \\/     M anipulation  |
\*---------------------------------------------------------------------------*/
FoamFile
{
    version     2.0;
    format      ascii;
    class       volScalarField;
    location    "0.6";
    object      T;
}
// * * * * * * * * * * * * * * * * * * * * * * * * * * * * * * * * * * * * * //

dimensions      [0 0 0 1 0 0 0];

internalField   nonuniform List<scalar> 
2222
(
1.353099236
1.34711082
1.338618204
1.332003533
1.327112874
1.319201114
1.309159317
1.30242474
1.296222742
1.288520719
1.283870564
1.281441483
1.277041359
1.268889886
1.263312855
1.260376641
1.255154842
1.248443454
1.455019519
1.445947222
1.43817602
1.432950787
1.426821551
1.417044368
1.410372285
1.405279446
1.399142716
1.390198685
1.384006355
1.380231188
1.373550881
1.363127837
1.355323991
1.350345921
1.342358986
1.334965178
1.330899705
1.324862163
1.316410074
1.307910397
1.301154877
1.292908658
1.287490191
1.284914908
1.281275737
1.274211161
1.267963281
1.264283721
1.258809094
1.25105851
1.45618412
1.447273169
1.439320938
1.433485961
1.427703917
1.418114074
1.411505142
1.407376166
1.401908776
1.392729577
1.385380285
1.381829784
1.375682699
1.3657482
1.357977998
1.353085858
1.345559268
1.337932845
1.333995092
1.328892984
1.320285237
1.313708957
1.306541547
1.298116986
1.29121749
1.287977146
1.284610303
1.278144402
1.271992092
1.268335222
1.263223176
1.254566902
1.457710038
1.448137945
1.4398563
1.434568089
1.42920103
1.421152327
1.413847054
1.409988223
1.405169459
1.39568151
1.386925066
1.383110612
1.377674988
1.368417241
1.361146905
1.356785323
1.350167916
1.341711724
1.337073314
1.332179387
1.323870486
1.316444015
1.311176881
1.303818581
1.295407421
1.291102742
1.287879994
1.281536011
1.275261694
1.271991594
1.267682056
1.258830983
1.458548989
1.449639303
1.441761448
1.437621462
1.433051588
1.426056052
1.4175288
1.412609623
1.408427006
1.399536433
1.389330681
1.384821889
1.380616832
1.372003517
1.365164943
1.361870084
1.356102601
1.346814405
1.340869251
1.335768401
1.327487377
1.319650789
1.314976369
1.30884641
1.300305054
1.294810034
1.291479515
1.285001874
1.27838352
1.275374006
1.27182527
1.263423994
1.459483686
1.451524901
1.444808771
1.441248661
1.437125534
1.430048796
1.420794036
1.414320501
1.41068144
1.403744659
1.393303404
1.387895977
1.384361302
1.376913605
1.369840445
1.367024938
1.362083053
1.352764903
1.344945524
1.339482789
1.331074896
1.322902632
1.318523357
1.313371471
1.305674243
1.299397985
1.295599386
1.289023183
1.281792079
1.278788158
1.275765309
1.268004109
1.459868737
1.45310858
1.447251873
1.443674476
1.439051354
1.432474425
1.423202698
1.415887926
1.411866242
1.406437305
1.397346338
1.391190844
1.388066532
1.382342548
1.374069608
1.370701114
1.366465262
1.357849734
1.349333923
1.343251915
1.334906616
1.326272947
1.322015469
1.317569899
1.310869166
1.304636216
1.300581129
1.294293064
1.28614058
1.282623812
1.279764621
1.272362374
1.460198866
1.452811498
1.447127497
1.443547685
1.438421811
1.432244021
1.423708917
1.416551579
1.412040287
1.407311183
1.400270472
1.393783425
1.390758785
1.385913305
1.377016599
1.372368544
1.368494612
1.360770645
1.352965138
1.347076317
1.339476882
1.330082851
1.32556887
1.32148915
1.315358114
1.309834224
1.306192117
1.300553677
1.291772374
1.287294453
1.284195999
1.276589541
1.463448804
1.454143586
1.446538533
1.442214212
1.436301442
1.430810644
1.4239409
1.416882676
1.412035681
1.407205075
1.401175109
1.394199901
1.390990194
1.386709956
1.378548697
1.372262181
1.368716998
1.361979775
1.354988989
1.350232691
1.343943377
1.334318166
1.329259473
1.325379212
1.319329228
1.314393972
1.311349607
1.306618174
1.298263766
1.292744519
1.289209648
1.28099666
1.466206937
1.45631871
1.446917963
1.441181678
1.434492772
1.42915965
1.423965882
1.417066141
1.411862964
1.406885068
1.40111788
1.393570786
1.389984464
1.386424202
1.379231349
1.371782573
1.368357818
1.362385919
1.35535643
1.352011681
1.347434716
1.338887469
1.332910312
1.329353695
1.323074935
1.318188081
1.315394852
1.31127369
1.304002047
1.298194395
1.29441765
1.285638161
1.460441565
1.453795463
1.448835844
1.441888136
1.434839191
1.428979603
1.424155321
1.416975933
1.41103596
1.406464518
1.400942599
1.392526775
1.388141753
1.385459347
1.379493726
1.371977792
1.367951105
1.362760252
1.355101485
1.352163333
1.348880701
1.342082732
1.335800003
1.332618026
1.326522545
1.321211285
1.318480551
1.314682659
1.308165337
1.302743332
1.299174503
1.290337092
1.457043655
1.455292686
1.451922417
1.444297868
1.437289166
1.43138238
1.42580136
1.417756407
1.41060549
1.406544148
1.401254676
1.392865184
1.386701907
1.384246132
1.379363092
1.372551978
1.368502831
1.364145649
1.355874379
1.352072685
1.348928505
1.342961323
1.337200675
1.334672191
1.329622886
1.323606628
1.320780363
1.317189533
1.31095201
1.306041149
1.302900401
1.294519358
1.436890019
1.454168551
1.454390341
1.448604204
1.441559838
1.435200994
1.428347687
1.41927791
1.410622854
1.406890874
1.402536276
1.395153575
1.387726738
1.384459682
1.379728573
1.372822454
1.369173048
1.365411131
1.357359597
1.352021238
1.348930114
1.343088604
1.337791422
1.335968344
1.332208197
1.325780257
1.322599796
1.319129276
1.312871881
1.308356262
1.305558433
1.297795233
1.412453692
1.450807093
1.456923759
1.454344241
1.44943371
1.440708631
1.431975966
1.421924938
1.411834367
1.407828111
1.404232358
1.397554295
1.38958168
1.385244857
1.380627854
1.373392462
1.369440138
1.365892084
1.35866198
1.351762966
1.348798564
1.343073697
1.338134171
1.336966167
1.334245162
1.328028355
1.324373526
1.321073931
1.314583554
1.310174435
1.307473058
1.300223867
1.337105412
1.412193903
1.452662139
1.453007281
1.449978554
1.445891494
1.437421905
1.426348589
1.415111227
1.410074822
1.406272718
1.399538703
1.391332547
1.386164823
1.38167495
1.374275969
1.369897488
1.366396844
1.359761201
1.351864503
1.348810125
1.343454045
1.338478632
1.337793708
1.335897511
1.330357882
1.32641481
1.323212239
1.316569398
1.311999834
1.309197417
1.302181839
1.204587403
1.341688748
1.447837378
1.45790593
1.45380313
1.449773851
1.442921124
1.431624126
1.419955138
1.413349241
1.409217452
1.402212925
1.392769428
1.386874773
1.382583936
1.375408738
1.370489651
1.367206225
1.361250913
1.353040691
1.34959299
1.344970157
1.339276417
1.33856328
1.337181707
1.332358145
1.32866544
1.325770581
1.319448432
1.314335581
1.311319061
1.304225001
1.127002659
1.227392153
1.381296023
1.434498756
1.451918357
1.452701794
1.447649428
1.437269999
1.42616064
1.41884763
1.413707953
1.405860563
1.395715746
1.389532471
1.384993591
1.377536102
1.371476525
1.368372365
1.362986445
1.355066742
1.351557002
1.347947526
1.341423831
1.339936139
1.3386147
1.334119734
1.330899208
1.328579618
1.323056838
1.317370994
1.314131194
1.306822668
1.113942695
1.137578341
1.252191332
1.419006311
1.44755346
1.451378601
1.448848663
1.441879159
1.431561842
1.422101382
1.416360704
1.409718441
1.400504673
1.394364027
1.389596745
1.381890453
1.374035911
1.370529217
1.365363183
1.357423426
1.354051848
1.351473296
1.345073312
1.342314262
1.340762791
1.336084839
1.33311275
1.331376074
1.326709446
1.320902095
1.317547129
1.310207228
1.114568673
1.116389376
1.149998949
1.31733792
1.409880157
1.448320413
1.453021109
1.44726786
1.435352299
1.426500632
1.420623273
1.41379155
1.405166017
1.400107856
1.395166369
1.387492909
1.37824705
1.374111455
1.369047709
1.360880131
1.357112931
1.355207706
1.349625005
1.345649321
1.343961487
1.338940578
1.335700249
1.334138687
1.329982862
1.324464557
1.321326963
1.314394196
1.116255598
1.115548384
1.118966333
1.183887129
1.340628366
1.427029569
1.452527833
1.446259772
1.437129374
1.431766552
1.426990857
1.419733188
1.41113831
1.404906885
1.400119651
1.392958305
1.38328826
1.378578433
1.373972739
1.365651719
1.36111358
1.359282608
1.35443798
1.34969184
1.348007363
1.343035984
1.339103022
1.337301073
1.333136707
1.327833112
1.32516235
1.31901529
1.117184093
1.116127213
1.115373869
1.12491773
1.216738868
1.346161228
1.445653491
1.45079235
1.443505571
1.438150665
1.434229757
1.427187485
1.418712911
1.410678455
1.405490854
1.398951211
1.389532442
1.383534281
1.379415834
1.371400137
1.366052143
1.364100834
1.359670184
1.354383561
1.352613408
1.348103316
1.343207044
1.340989214
1.336600507
1.331259459
1.329034899
1.323708028
1.11724907
1.116270852
1.115220699
1.115363438
1.133301422
1.23535917
1.380734967
1.437305026
1.438062141
1.442305093
1.44045876
1.435112903
1.427056053
1.417628229
1.411921692
1.405372311
1.396250316
1.389076604
1.385020242
1.377838571
1.371832965
1.369847615
1.365618369
1.359602729
1.357455787
1.353600491
1.348064155
1.345248462
1.340578906
1.334924617
1.33307382
1.32838694
1.116869221
1.11594016
1.11515094
1.114442268
1.11559948
1.141970153
1.257157302
1.415316131
1.434216575
1.440962257
1.440743162
1.43923586
1.433297228
1.423563917
1.417218275
1.410975966
1.402335017
1.394778026
1.390655227
1.384629135
1.378045048
1.37576396
1.371744122
1.365386772
1.362676422
1.358940678
1.353330126
1.350178176
1.345495964
1.339204983
1.337363752
1.332992665
1.11610497
1.115249394
1.11468081
1.114198721
1.113719734
1.115877169
1.154883232
1.30468057
1.408905973
1.436306345
1.446776046
1.445384636
1.439943965
1.429705364
1.422138636
1.416345412
1.408516601
1.401233252
1.397226482
1.392169047
1.384679435
1.381335677
1.377674716
1.371431758
1.368375931
1.36477439
1.359006949
1.355562639
1.351193352
1.344386574
1.342169491
1.337694321
1.115077368
1.114296076
1.113830832
1.113471364
1.113013386
1.112456535
1.116847064
1.177180187
1.327118079
1.394076259
1.439996084
1.44314495
1.440961807
1.432276563
1.424257804
1.420857301
1.414754051
1.407811746
1.403944225
1.400329462
1.392839134
1.38798292
1.383991739
1.377304066
1.373863358
1.370745926
1.365239772
1.361509732
1.357347985
1.350225811
1.347310687
1.342451593
1.113680735
1.113103956
1.112625422
1.112253061
1.111841857
1.111246517
1.110599412
1.118318489
1.188742166
1.318379855
1.414204001
1.443627496
1.440572563
1.431579398
1.426146095
1.422863466
1.417339349
1.410539177
1.407962039
1.406615329
1.401413
1.395312239
1.390632923
1.383745842
1.37878061
1.376068886
1.371176811
1.367430713
1.363588956
1.356705882
1.352613707
1.347184204
1.112064005
1.111586244
1.111173042
1.110669624
1.1101415
1.109545978
1.108730616
1.108298774
1.118387126
1.193130227
1.322642538
1.424416966
1.435179795
1.432275489
1.432196059
1.427827959
1.421823118
1.414802497
1.411796622
1.410357355
1.40713996
1.40163023
1.396732308
1.3907548
1.384411506
1.380697559
1.375888987
1.372458092
1.369115304
1.363066871
1.357851209
1.351839911
1.11048972
1.110101874
1.109559977
1.108926399
1.108271029
1.107594919
1.106921976
1.106159686
1.1061447
1.118636911
1.203424657
1.338740353
1.40901061
1.421557422
1.429240481
1.429444823
1.426981772
1.422202118
1.417956884
1.414398038
1.409991713
1.40436273
1.40008314
1.395692055
1.390168635
1.385262619
1.379967759
1.375858982
1.372380162
1.367790745
1.362243333
1.356023287
1.109069419
1.108630804
1.107982405
1.107305394
1.106581661
1.105937067
1.10537889
1.104770322
1.104399936
1.105012213
1.122144007
1.210703539
1.351998769
1.396196066
1.411971699
1.425662201
1.42708618
1.425528095
1.421883691
1.417516657
1.411724941
1.406526757
1.401635422
1.397322485
1.393280728
1.388702718
1.383158377
1.378094024
1.373615335
1.369738328
1.364830369
1.359138567
1.107937511
1.107367642
1.106672618
1.105963804
1.105362374
1.104845109
1.104456651
1.104093189
1.103980272
1.10396406
1.10507445
1.124543935
1.221277246
1.346916169
1.393106028
1.424017749
1.422463118
1.422881435
1.42162935
1.417199667
1.411730375
1.408047677
1.403014742
1.397979569
1.393509776
1.388772709
1.38350803
1.378463464
1.373875691
1.369482286
1.365847953
1.361745463
1.107365628
1.106739853
1.105830409
1.105023467
1.104493625
1.104177381
1.104031131
1.104103819
1.104183589
1.104148171
1.103975749
1.106644234
1.134788029
1.231871436
1.331857846
1.407833001
1.410185209
1.418549849
1.41811619
1.415772068
1.411835209
1.407739519
1.404121216
1.399259506
1.394704619
1.389833097
1.384760733
1.37980089
1.375108448
1.370453745
1.367526437
1.366135887
1.105651906
1.106551391
1.106595467
1.105678129
1.104371725
1.103487006
1.103369462
1.103609996
1.103947054
1.104238397
1.104426692
1.100640232
1.098811066
1.172083794
1.300257551
1.397960891
1.401276053
1.415325808
1.419384956
1.415036229
1.41163753
1.407425969
1.403117568
1.398372768
1.394262177
1.388548249
1.383046109
1.378078726
1.373943939
1.370153593
1.368931196
1.368945868
1.10515096
1.105101764
1.105981618
1.105633394
1.104965088
1.104153658
1.103567884
1.103503422
1.103551831
1.103599116
1.104067598
1.101203613
1.099170348
1.164749732
1.294428343
1.395564387
1.400431006
1.415522762
1.419269863
1.414787502
1.411459292
1.407339447
1.40287997
1.398114212
1.394377765
1.388419787
1.382775665
1.377897074
1.374125501
1.370712447
1.369284959
1.369226375
1.104975125
1.104547903
1.104886743
1.105590533
1.105232904
1.104703199
1.104233823
1.103788033
1.103786738
1.103529764
1.103404037
1.100980907
1.098952528
1.15828533
1.288373362
1.393020628
1.399485124
1.415466259
1.419009886
1.41453095
1.411204363
1.407160679
1.402637575
1.397899429
1.394352518
1.388331576
1.382553595
1.377766215
1.374285873
1.371138013
1.369553452
1.369394798
1.105216717
1.10436913
1.104080897
1.104951132
1.105415704
1.105025904
1.104706521
1.104559527
1.104158531
1.103790056
1.103343848
1.101156501
1.098065056
1.152022519
1.282553678
1.390261065
1.398520324
1.415740532
1.418725471
1.414312461
1.410946702
1.406904564
1.402362219
1.39776598
1.394277183
1.388234659
1.382362541
1.377597343
1.374385987
1.371579729
1.369898619
1.369602255
1.106365592
1.104451391
1.103802309
1.10394574
1.105134222
1.10527755
1.105119121
1.105097726
1.104956992
1.104399712
1.103843676
1.101648254
1.09733864
1.14617728
1.277382536
1.387526538
1.39740719
1.415596404
1.418473849
1.414152753
1.410783962
1.406661399
1.402100501
1.397469607
1.394236457
1.388149814
1.382188807
1.377428671
1.374486769
1.371987681
1.370351793
1.369978521
1.107344564
1.104957304
1.103644094
1.103474847
1.104146153
1.105202712
1.105497458
1.10561204
1.10554621
1.105339706
1.104486843
1.10227229
1.097316253
1.140496784
1.272602282
1.384444154
1.396092128
1.415272014
1.418096074
1.414034345
1.410687841
1.406471077
1.401828805
1.397222766
1.394052763
1.388087082
1.381998634
1.377308779
1.374632071
1.372422997
1.370947438
1.370545726
1.107791587
1.106129619
1.103912552
1.103651455
1.103729255
1.104389148
1.105468542
1.106029638
1.10612986
1.105940032
1.105457044
1.103167042
1.097943598
1.135416305
1.267801011
1.381024245
1.394484817
1.414902617
1.417502853
1.413826014
1.410621222
1.406271489
1.401539338
1.396997086
1.393883691
1.387948566
1.381842171
1.377215479
1.374860256
1.372811789
1.371482929
1.371086519
1.108030308
1.106955685
1.105014498
1.103698695
1.103679265
1.104013251
1.104828909
1.105893667
1.10651617
1.106506743
1.106195686
1.104390427
1.098963256
1.131213829
1.262572907
1.377120006
1.392940293
1.415058628
1.416644504
1.413472065
1.410473721
1.40606659
1.40121752
1.396760961
1.393764911
1.387793151
1.381697704
1.377250502
1.37507853
1.373151279
1.371913486
1.371424311
1.108248096
1.107358843
1.106229676
1.104498935
1.103991339
1.104201235
1.104646157
1.10538577
1.106265775
1.106949418
1.106875971
1.105392357
1.100213429
1.127730925
1.257151173
1.37362675
1.391554429
1.414945032
1.415815309
1.412935374
1.410303644
1.40589109
1.40089144
1.396505304
1.393517967
1.387623758
1.381587131
1.377337491
1.375247084
1.373447284
1.372217185
1.371605851
1.1083866
1.107689297
1.106937388
1.106000642
1.10482988
1.104480871
1.104885169
1.105422397
1.105940052
1.106775066
1.10738282
1.106332405
1.101324751
1.124778766
1.251589637
1.37050518
1.390259105
1.41482895
1.41492998
1.412313555
1.410117467
1.405762736
1.400622644
1.396233517
1.393213571
1.387443585
1.381452137
1.377380916
1.375372311
1.373734413
1.37244508
1.371745798
1.108145243
1.107970175
1.107364685
1.106738408
1.106044482
1.105392483
1.105300441
1.105772801
1.106135515
1.106478776
1.107360662
1.10702629
1.102239586
1.122049502
1.246346275
1.367588743
1.388965643
1.414726647
1.414407974
1.411632467
1.409839419
1.405675177
1.40044813
1.395966348
1.392873157
1.387324214
1.381352147
1.377339914
1.375521895
1.374086975
1.372706928
1.371901865
1.106641767
1.107787926
1.107641033
1.107239652
1.106824218
1.106475113
1.106266906
1.106310394
1.106586843
1.106694119
1.10696934
1.107038128
1.102684684
1.119299403
1.240984999
1.364313382
1.387448645
1.414387601
1.413847498
1.411011908
1.409488213
1.405638494
1.400344043
1.39572268
1.392548017
1.387015774
1.381264039
1.377292665
1.37575571
1.374570358
1.373113038
1.37212552
1.105341861
1.106217345
1.10754494
1.10768636
1.107438649
1.107209537
1.107168301
1.107252136
1.1072745
1.107192721
1.107114946
1.106697252
1.102422896
1.116492111
1.235069061
1.36021738
1.385618745
1.413692476
1.413180827
1.410502909
1.409145181
1.405570092
1.400235045
1.3955108
1.392258841
1.386742638
1.381163544
1.377332225
1.37609331
1.375175359
1.373701496
1.372472362
1.104958903
1.104939229
1.106030619
1.107572795
1.107923902
1.107828816
1.107856854
1.108025239
1.108121271
1.10787755
1.107625462
1.106873653
1.102570988
1.113845503
1.227929779
1.35614457
1.383915682
1.412781522
1.412484828
1.409821037
1.408642873
1.405416765
1.400089521
1.395327649
1.391955624
1.386504962
1.381055628
1.377432526
1.376458797
1.375779814
1.374347145
1.372919859
1.105431971
1.10493994
1.104882059
1.106106226
1.107785089
1.108305434
1.108545483
1.108749109
1.108841125
1.108731789
1.108412658
1.107529627
1.103269337
1.111917891
1.219912917
1.352657917
1.382805747
1.411499981
1.411753766
1.409004528
1.408229616
1.405283136
1.399963832
1.395182354
1.391750821
1.386378961
1.380974075
1.377503545
1.376814325
1.376276226
1.374880065
1.373391619
1.106229887
1.104922652
1.105052061
1.1052823
1.106536992
1.108126842
1.109043473
1.109447821
1.109613878
1.109522647
1.109333036
1.108411864
1.104289734
1.111076584
1.211429559
1.35030483
1.381901094
1.411292419
1.411099074
1.408379601
1.407963577
1.405298599
1.39994235
1.395051389
1.391380784
1.386038891
1.380922411
1.377605569
1.377171634
1.376764381
1.375445773
1.37390104
1.109419098
1.107926527
1.105703123
1.105066549
1.105243286
1.106070464
1.107198229
1.108625637
1.109777889
1.110209741
1.110284548
1.110223391
1.109569182
1.105694013
1.110956738
1.203455699
1.348959593
1.380905831
1.410806325
1.41038587
1.407812712
1.407881241
1.405385216
1.399961049
1.394964289
1.391135173
1.385783451
1.380888599
1.377800886
1.377562675
1.377339017
1.376086902
1.374260086
1.110195298
1.109186872
1.107682966
1.105706558
1.10580433
1.106178268
1.106983794
1.108111527
1.109291254
1.11016254
1.110797145
1.111005593
1.110613593
1.107206265
1.111167287
1.195866108
1.347962201
1.379081799
1.409936272
1.409524017
1.407254421
1.407777256
1.405365752
1.399908523
1.39494467
1.390969883
1.385615401
1.380872636
1.378067323
1.378010676
1.377877758
1.376481305
1.374442339
1.110846676
1.109849748
1.108823796
1.107543521
1.106477517
1.106737907
1.107520417
1.108360882
1.109234218
1.110084089
1.111019638
1.111707087
1.111673765
1.108412097
1.111475923
1.188454697
1.346762799
1.377384586
1.408247874
1.408184937
1.406457569
1.407552509
1.4052241
1.399735772
1.394884692
1.390836348
1.385489442
1.380879509
1.378367694
1.378520743
1.378256249
1.376748737
1.374666713
1.111254092
1.110434739
1.109597293
1.108907756
1.107914087
1.107811024
1.108093221
1.10890568
1.109727937
1.11036471
1.111246815
1.11206594
1.112426938
1.109281333
1.11173485
1.180726848
1.345166138
1.377530626
1.406661689
1.406373508
1.405427046
1.407250077
1.40494854
1.399467931
1.394739093
1.390697078
1.385395456
1.380909319
1.378655714
1.378900494
1.378586512
1.377159185
1.375104145
1.111142556
1.110973573
1.110352045
1.109764695
1.109320878
1.109067296
1.109202155
1.109896633
1.110450448
1.110996958
1.111587368
1.112218186
1.112633503
1.109723993
1.111806389
1.172688594
1.3435455
1.378471466
1.40515844
1.40449608
1.404278116
1.406933942
1.404665612
1.399156931
1.394641917
1.390543808
1.385350906
1.380988108
1.37889435
1.379106744
1.37898803
1.377754977
1.375627509
1.109851898
1.110869234
1.110974868
1.110621477
1.110367074
1.110195668
1.110318048
1.110858376
1.11153913
1.111870532
1.112136133
1.112690665
1.113204481
1.110645038
1.11183482
1.164539598
1.341582601
1.379447471
1.403733615
1.402561998
1.403020135
1.406627379
1.404494613
1.398876644
1.394161151
1.390362764
1.385363045
1.381143025
1.379122673
1.379362881
1.379416352
1.378021031
1.375834339
1.108985131
1.109809665
1.111245598
1.111458917
1.111247027
1.111245256
1.111307844
1.111774923
1.11246464
1.112843851
1.11298742
1.113581833
1.114215476
1.11195516
1.112333013
1.156940229
1.33850921
1.379460481
1.401896937
1.400126684
1.401672039
1.406389969
1.404380659
1.398607253
1.393698144
1.390168714
1.38541864
1.381346003
1.379432805
1.379865265
1.379753247
1.378155841
1.37599549
1.108995148
1.109215886
1.110483816
1.112013383
1.11213071
1.112175697
1.112240157
1.112709664
1.113396132
1.113818718
1.114083995
1.114758656
1.115581782
1.113686466
1.113280706
1.150323144
1.334285693
1.377659176
1.400100598
1.397908621
1.40042393
1.406053046
1.404161624
1.398320329
1.393348489
1.389931198
1.385500828
1.381556337
1.379844885
1.380423158
1.38006828
1.378420905
1.376387478
1.109703593
1.109520555
1.110048969
1.111654649
1.112972834
1.113098384
1.113201972
1.113525373
1.114106515
1.114755633
1.115286872
1.115817361
1.116645848
1.115484992
1.114514564
1.14497361
1.328858241
1.376579506
1.398988842
1.396069925
1.399266424
1.405585147
1.403779348
1.398067501
1.39294162
1.389639065
1.385557855
1.381850531
1.380244496
1.380744493
1.380459116
1.379011005
1.376953849
1.110581097
1.110059526
1.110224895
1.111126749
1.113082024
1.114123068
1.114197016
1.114299169
1.114653435
1.115412962
1.116237649
1.116367841
1.116952237
1.116867437
1.115623627
1.140761568
1.322544544
1.37731728
1.398714984
1.394615022
1.398180321
1.405269362
1.403453653
1.39781998
1.392533185
1.389360813
1.385595925
1.382189215
1.380601191
1.380977596
1.380976534
1.379563999
1.377255743
1.111679751
1.110817186
1.110743713
1.111169769
1.112507083
1.11467961
1.115207579
1.115317822
1.115624358
1.116185963
1.116808397
1.117102958
1.117636339
1.117714004
1.116353195
1.137398715
1.315623375
1.379416225
1.398844618
1.393469702
1.397349849
1.405280288
1.403461945
1.397634031
1.392159798
1.389108864
1.385640708
1.382390409
1.380939247
1.381402073
1.381554247
1.379767364
1.377419703
1.112617872
1.111777043
1.111487471
1.111650285
1.112414814
1.11418346
1.115892983
1.116504892
1.116949077
1.117332536
1.117799996
1.118291372
1.118974043
1.119049398
1.117292312
1.134695966
1.3085384
1.381851794
1.399606848
1.392899192
1.396528174
1.405103275
1.403298954
1.397498866
1.391779459
1.388874229
1.38572689
1.382578272
1.381351333
1.38225919
1.381977701
1.379917195
1.377674989
1.11346405
1.112736539
1.112394238
1.11246132
1.113001357
1.114040656
1.115799302
1.117076461
1.117956156
1.118637289
1.11913645
1.119939855
1.120743425
1.120757581
1.118628397
1.132667607
1.301773797
1.383289367
1.400774276
1.392440795
1.395465334
1.404436155
1.402769998
1.397260249
1.39130339
1.38867945
1.385873662
1.382970402
1.381982609
1.382588671
1.382189762
1.380290687
1.378315427
1.11434629
1.113788141
1.113372109
1.11356849
1.113930391
1.114660252
1.115782719
1.116906347
1.118025239
1.119349485
1.120507975
1.121569512
1.122459337
1.122770123
1.120253952
1.131319085
1.295064999
1.384425794
1.402353898
1.392047358
1.394467526
1.403784359
1.402279607
1.396930079
1.390841478
1.388590925
1.386138172
1.383603907
1.382355897
1.382547119
1.382397077
1.380945179
1.378646274
1.11535523
1.11485129
1.114749363
1.114621166
1.114975314
1.115718875
1.116542575
1.117451362
1.118432952
1.119478481
1.121196729
1.12295405
1.124147476
1.124634351
1.121776706
1.130611984
1.287786065
1.385594527
1.403991616
1.391919967
1.393810561
1.403084195
1.401752972
1.396590532
1.390439194
1.388623483
1.386668911
1.38398314
1.382409435
1.382416204
1.382765048
1.381131056
1.378636395
1.116335522
1.116037232
1.116002293
1.116097908
1.116405587
1.116931977
1.117725022
1.118615519
1.119583306
1.120518636
1.121771828
1.123617725
1.125167357
1.125943743
1.123342194
1.130356258
1.279960577
1.387356561
1.405613606
1.392148288
1.393841141
1.402514967
1.40149189
1.39642568
1.390260933
1.38880773
1.387074882
1.384125479
1.382266544
1.382435182
1.383150954
1.38113177
1.378657541
1.115988339
1.116647884
1.117192062
1.11721058
1.117465428
1.117766092
1.11842229
1.119278545
1.120267495
1.121181707
1.122082208
1.123207057
1.12469233
1.126446933
1.127599115
1.125424714
1.130745267
1.272089067
1.389042448
1.407151962
1.392771957
1.394130805
1.402146222
1.401204179
1.395950858
1.389934013
1.388810677
1.387254131
1.38436919
1.382280434
1.382834814
1.383250443
1.381168421
1.378924336
1.116237825
1.116541525
1.117470048
1.118297648
1.118737888
1.119295094
1.119892492
1.1206778
1.121740993
1.122829495
1.123893782
1.125001761
1.126223435
1.128115882
1.129768734
1.127761516
1.131897416
1.264401257
1.390754539
1.408928458
1.393952247
1.394740357
1.401993899
1.400339588
1.395064433
1.389449913
1.388591695
1.387468487
1.384936142
1.38270869
1.383532899
1.383307696
1.381457661
1.379694169
1.116889194
1.116850378
1.117501582
1.118682188
1.119892645
1.120767679
1.121513597
1.122230545
1.123139348
1.124302098
1.125518365
1.126864744
1.128223756
1.129897921
1.132031737
1.129992429
1.133540087
1.256356619
1.392005248
1.411134275
1.395724317
1.395520124
1.401561442
1.399424292
1.394094338
1.389088038
1.388369678
1.387396927
1.385570278
1.384134749
1.384058079
1.383504558
1.382156047
1.380056054
1.117969003
1.117828022
1.118199563
1.119152903
1.120560498
1.121983329
1.123057168
1.123800735
1.124334557
1.125256037
1.126649606
1.128329923
1.130065373
1.13129435
1.133291847
1.131448888
1.135141041
1.247963951
1.39199954
1.414011873
1.396964756
1.396087187
1.400662324
1.398495571
1.393334094
1.388825998
1.388240816
1.387109417
1.386124883
1.38531004
1.384529788
1.384105455
1.382570639
1.380041906
1.119475214
1.119135613
1.119403888
1.120317979
1.121472338
1.122927752
1.124245539
1.125084088
1.125719596
1.126714671
1.128077401
1.129507017
1.131109187
1.132685313
1.13444695
1.132663298
1.136120679
1.23954474
1.391325193
1.417491448
1.396637663
1.396121798
1.39980328
1.397718095
1.39266349
1.388676165
1.388195827
1.386869977
1.386782341
1.385554441
1.385179326
1.385071358
1.382715205
1.379991994
1.120860047
1.120384273
1.120856052
1.121783614
1.122889521
1.124218476
1.125389254
1.126381547
1.127528255
1.128784524
1.130059318
1.131270561
1.132700789
1.13445091
1.136234537
1.134754104
1.137324226
1.231552606
1.39066198
1.420932129
1.39624792
1.395989888
1.399497459
1.396954632
1.392028784
1.388718598
1.388210513
1.386938436
1.387115435
1.385737634
1.121970622
1.121548641
1.12192905
1.1229437
)
;

boundaryField
{
    inlet
    {
        type            fixedValue;
        value           nonuniform 0();
    }
    outlet
    {
        type            inletOutlet;
        inletValue      uniform 1;
        value           nonuniform List<scalar> 
68
(
1.368954718
1.369252719
1.369425028
1.369611648
1.369942869
1.370485577
1.371046056
1.371413188
1.371620505
1.371778475
1.371934551
1.372136455
1.372452009
1.372889735
1.37339124
1.37391478
1.37423485
1.374412205
1.374668559
1.37515396
1.375613706
1.375795565
1.375994471
1.376466689
1.376941037
1.37716328
1.377345603
1.377704441
1.378408061
1.378596753
1.378555688
1.378607736
1.379001092
1.379780964
1.380007377
1.379940667
1.37994172
1.248435626
1.251053198
1.254566684
1.258834125
1.263426007
1.268000886
1.272352702
1.276574564
1.280979847
1.28562294
1.290324695
1.294506327
1.297777724
1.300202914
1.30215984
1.304204545
1.306807953
1.310202971
1.314402441
1.319032701
1.323728831
1.328409035
1.333017569
1.337724322
1.342491211
1.347232832
1.351890586
1.356069736
1.359171917
1.361765574
1.366144484
)
;
    }
    bottom
    {
        type            slip;
    }
    top
    {
        type            slip;
    }
    obstacle
    {
        type            zeroGradient;
    }
    defaultFaces
    {
        type            empty;
    }
    procBoundary11to5
    {
        type            processor;
        value           nonuniform List<scalar> 
33
(
1.349628888
1.343497282
1.335081312
1.327873694
1.32130452
1.311176241
1.302112298
1.297489147
1.291804835
1.284696367
1.280079883
1.277033521
1.271584118
1.263121766
1.25948426
1.257315407
1.252679673
1.246558599
1.453383163
1.443937339
1.436470232
1.432302703
1.426775751
1.41728657
1.409183821
1.402538089
1.396191458
1.387964309
1.382607506
1.37827308
1.370883239
1.359975077
1.359975077
)
;
    }
    procBoundary11to10
    {
        type            processor;
        value           nonuniform List<scalar> 
70
(
1.463742131
1.464474059
1.467279024
1.468024569
1.467814343
1.466117216
1.465840558
1.468393872
1.468706679
1.466063252
1.457794394
1.398548083
1.264177478
1.154527505
1.114999929
1.111008085
1.112792248
1.115233355
1.116977934
1.117876491
1.118077754
1.117775567
1.117101345
1.116006319
1.114396059
1.112686199
1.110949232
1.109411944
1.108334816
1.107655048
1.105405535
1.105412406
1.105712265
1.106970094
1.107965189
1.108361218
1.108534449
1.108694124
1.108824958
1.108642858
1.107281774
1.105742916
1.105582803
1.105549086
1.106344985
1.108376355
1.108376355
1.110185339
1.110727275
1.111282079
1.111415762
1.110307004
1.108972842
1.108999683
1.109225236
1.110087244
1.111515652
1.112457359
1.113304426
1.114213152
1.115077954
1.115684994
1.115912791
1.115912791
1.115989538
1.116583588
1.117376491
1.118473968
1.11987348
1.121192677
)
;
    }
    procBoundary11to16
    {
        type            processor;