/*--------------------------------*- C++ -*----------------------------------*\
  =========                 |
  \\      /  F ield         | OpenFOAM: The Open Source CFD Toolbox
   \\    /   O peration     | Website:  https://openfoam.org
    \\  /    A nd           | Version:  7
     \\/     M anipulation  |
\*---------------------------------------------------------------------------*/
FoamFile
{
    version     2.0;
    format      ascii;
    class       volScalarField;
    location    "1.2";
    object      p;
}
// * * * * * * * * * * * * * * * * * * * * * * * * * * * * * * * * * * * * * //

dimensions      [1 -1 -2 0 0 0 0];

internalField   nonuniform List<scalar> 
2222
(
1
1
1
1
1
1
1
1
1
1
1
1
1
1
1
1
1
1
1
1
1
1
1
1
1
1
1
1
1
1
1
1
1
1
1
1
1
1
1
1
1
1
1
1
1
1
1
1
1
1
1
1
1
1
1
1
1
1
1
1
1
1
1
1
1
1
1
1
1
1
1
1
1
1
1
1
1
1
1
1
1
1
1
1
1
1
1
1
1
1
1
1
1
1
1
1
1
1
1
1
1
1
1
1
1
1
1
1
1
1
1
1
1
1
1
1
1
1
1
1
1
1
1
1
1
1
1
1
1
1
1
1
1
1
1
1
1
1
1
1
1
1
1
1
1
1
1
1
1
1
1
1
1
1
1
1
1
1
1
1
1
1
1
1
1
1
1
1
1
1
1
1
1
1
1
1
1
1
1
1
1
1
1
1
1
1
1
1
1
1
1
1
1
1
1
1
1
1
1
1
1
1
1
1
1
1
1
1
1
1
1
1
1
1
1
1
1
1
1
1
1
1
1
1
1
1
1
0.9999999956
1
1
1
1
1
1
1
1
1
1
1
1
1
1
1
1
1
1
1
1
1
1
1
1
1
1
1
1
1
1
1
1
1
1
1
1
1
1
1
1
0.9999999986
0.9999999966
0.999999676
0.999999761
0.9999928938
1.000368673
1.008552721
1.134792465
1.62679173
1
1
1
1
1
1
1
1
1
1
1
1
1
1
1
1
1
1
1
1
1
1
1
1
1
1
1
1
1
1
1
1
1
1
1
1
1
1
0.9999999986
0.9999999971
0.9999999429
0.9999999486
0.9999915183
1.000585498
1.013557859
1.193990781
1.704577372
2.775913139
3.668636566
4.269687007
4.618578765
4.730215872
4.739333386
1
1
1
1
1
1
1
1
1
1
1
1
1
1
1
1
1
1
1
1
1
1
1
1
1
1
1
1
1
1
1
1
1
1
1
1
0.9999999975
0.9999999668
0.9999999606
1.000000041
0.9999993767
1.000865591
1.027959838
1.257811365
1.844410083
2.9535559
3.762121816
4.411591936
4.682920456
4.72846275
4.724851088
4.709796592
4.68283501
4.653915396
4.63048043
4.625792375
4.627919186
1
1
1
1
1
1
1
1
1
1
1
1
1
1
1
1
1
1
1
1
1
1
1
1
1
1
1
1
1
1
1
1
1
1
0.9999999968
0.9999998721
0.9999998559
0.9999979342
1.000018175
1.001755815
1.05730194
1.32511466
2.077484099
3.104939017
3.934023758
4.537518167
4.69952597
4.701309385
4.694252971
4.669040993
4.642666099
4.619505706
4.616536611
4.623061741
4.635168134
4.647775337
4.663507743
4.679280654
4.688605096
4.691097061
4.690496534
1
1
1
1
1
1
1
1
1
1
1
1
1
1
1
1
1
1
1
1
1
1
1
1
1
1
1
1
1
1
1
1
0.9999999971
0.9999997679
0.9999997239
0.9999933491
1.000046807
1.005466541
1.097519865
1.432612465
2.351801982
3.278955577
4.171434655
4.623525485
4.665250029
4.669663254
4.650002981
4.62614675
4.613006884
4.610830016
4.623643094
4.638271769
4.6542881
4.672522266
4.686983958
4.69276718
4.693614114
4.691324805
4.686992178
4.681273354
4.673696294
4.665818507
4.660064131
4.657742569
4.657371677
1
1
1
1
1
1
1
1
1
1
1
1
1
1
1
1
1
1
1
1
1
1
1
1
1
1
1
1
1
0.9999999999
0.9999999993
0.9999996206
0.9999996819
0.9999861542
1.000186738
1.016852461
1.146499341
1.646280647
2.592593613
3.517663311
4.386533296
4.610226791
4.618366018
4.619890528
4.604296591
4.603910761
4.609797165
4.625697892
4.644681292
4.665620845
4.684676916
4.695568574
4.697889327
4.696224155
4.690967066
4.684646977
4.676213558
4.667118849
4.660040294
4.65680873
4.65616383
4.657028847
4.659127389
4.66140929
4.664687053
4.668082782
4.671502769
1
1
1
1
1
1
1
1
1
1
1
1
1
1
1
1
1
1
1
1
1
1
1
1
1
1
1
0.9999999983
0.9999999911
0.9999997176
1.000000549
0.9999754544
1.001140299
1.040219608
1.2330997
1.92867903
2.827852082
3.869533787
4.476288437
4.549169323
4.59529294
4.583665898
4.591834925
4.613488992
4.635722711
4.660840869
4.682808448
4.695598556
4.70040604
4.700108917
4.695655457
4.689975192
4.68138188
4.670952166
4.661606319
4.655931698
4.654083013
4.654273448
4.656163312
4.658971895
4.663117764
4.668024617
4.672200832
4.674225046
4.67447712
4.673794876
4.672465611
1
1
1
1
1
1
1
1
1
1
1
1
1
1
1
1
1
1
1
1
1
1
1
1
1
0.999999999
0.999999787
0.9999996526
1.000001164
0.9999722684
1.006229739
1.073044354
1.416782819
2.213798883
3.148208213
4.179085045
4.448038581
4.537274599
4.557920268
4.578240006
4.618516908
4.645721709
4.677348395
4.700798987
4.707853112
4.707673037
4.701940628
4.694685897
4.684435193
4.671349221
4.660201067
4.65401411
4.652597275
4.653540703
4.656416255
4.658754415
4.661776654
4.665857415
4.67025975
4.67397477
4.675732036
4.675954895
4.675349102
4.673987425
4.671669297
4.668427568
4.664514814
1
1
1
1
1
1
1
1
1
1
1
1
1
1
1
1
1
1
1
1
1
1
0.9999999994
0.9999999997
0.999999626
0.9999997425
0.9999735974
1.000297444
1.02026608
1.145593799
1.691743906
2.505636637
3.610730088
4.258485289
4.449343529
4.520676512
4.573972339
4.646853309
4.668382084
4.693195216
4.711778744
4.714085225
4.709408218
4.702547751
4.694308529
4.679507938
4.662075737
4.649291123
4.644364323
4.644254333
4.647843107
4.653991844
4.660667144
4.667842014
4.673738957
4.676949612
4.677570592
4.677025063
4.675342367
4.673800265
4.672461917
4.670654636
4.668463666
4.66611986
4.664090841
4.662680861
4.661566118
1
1
1
1
1
1
1
1
1
1
1
1
1
1
1
1
1
1
1
1
1
0.9999999814
0.9999998709
1.000000259
0.9999295672
1.003405808
1.043930197
1.320068535
2.010138359
2.918249113
3.952213549
4.281921023
4.464230579
4.554353342
4.659082333
4.694667235
4.71453176
4.722570237
4.719367008
4.709712681
4.701410926
4.689887982
4.671605732
4.653906625
4.644105477
4.640879344
4.641363864
4.64486667
4.649926804
4.657783129
4.6677162
4.676605187
4.681045564
4.681902047
4.681073064
4.678422955
4.674972385
4.670674497
4.666688413
4.664663087
4.664076403
4.664124553
4.664676016
4.664769626
4.664327445
4.664310283
4.664051737
1
1
1
1
1
1
1
1
1
1
1
1
1
1
1
1
1
1
1
1
0.9999999999
0.9999720515
1.000109312
1.012239786
1.1197116
1.605333878
2.334918263
3.454007269
4.071596745
4.36610127
4.524843158
4.661137115
4.713514386
4.727133774
4.729213284
4.721150159
4.709264117
4.698482765
4.68238483
4.661467965
4.644424414
4.637870818
4.636960575
4.640353352
4.646250705
4.653315384
4.662152138
4.671146295
4.677762665
4.680494494
4.681102349
4.680341067
4.678443683
4.675197593
4.670606152
4.665805627
4.663044636
4.662160478
4.662291346
4.663058147
4.664335695
4.666215117
4.667673837
4.668654313
4.668699186
4.668006891
4.667376365
1
1
1
1
1
1
1
1
1
1
1
1
1
1
1
1
1
1.000000001
1
0.9998901805
1.002471176
1.038116311
1.318491839
1.921698236
2.850605532
3.795251405
4.191261532
4.470991171
4.648870099
4.726048196
4.736543357
4.735412439
4.722110709
4.709886232
4.694823277
4.673156821
4.650822164
4.637421011
4.632910311
4.633141347
4.637504927
4.644254089
4.654540479
4.667074019
4.677729966
4.682521281
4.683586694
4.682744368
4.679963404
4.67637788
4.671364565
4.665996824
4.66253271
4.661294478
4.661091167
4.661778721
4.662576146
4.66417697
4.66657175
4.669059227
4.670706349
4.671198262
4.670843845
4.670130208
4.668857499
4.666920312
4.665729435
1
1
1
1
1
1
1
1
1
1
1
1
1
1
1.000000002
0.9999999998
0.9999732613
1.000132446
1.010970763
1.147801896
1.608320403
2.322526594
3.436703286
3.968675964
4.360908265
4.628892263
4.726405763
4.740321841
4.732890014
4.720235174
4.70895581
4.690472262
4.662223486
4.640984518
4.632443337
4.630178866
4.632579415
4.638021097
4.645654726
4.656808321
4.669599113
4.679760419
4.683937712
4.68483962
4.683689218
4.680691317
4.675976058
4.669630963
4.663381107
4.66019044
4.659266766
4.659534059
4.660432983
4.66190626
4.664443391
4.667508329
4.670216212
4.671752537
4.672125395
4.671786644
4.671183501
4.670130565
4.668752972
4.666861222
4.665123724
4.664137839
4.663149133
1
1
1
1
1
1
1
1
1
1
1
1.000000002
1.000000004
1.000000003
0.9998491895
1.002594868
1.062303554
1.37993814
1.939358514
3.001278194
3.717898027
4.204072519
4.597801072
4.723216399
4.742278066
4.729679336
4.716544732
4.701055382
4.677545585
4.646818927
4.634718194
4.629826686
4.628936662
4.632964823
4.639055429
4.649322057
4.662711294
4.675229119
4.682359743
4.684962853
4.685180626
4.683323263
4.679472323
4.673142483
4.665545113
4.659739063
4.657694347
4.657609665
4.658833569
4.660455081
4.663178476
4.666657427
4.669772
4.67165818
4.672242921
4.671971739
4.671376189
4.670542942
4.669778361
4.668608252
4.66702797
4.665755841
4.664953627
4.66432508
4.663945857
4.664147346
4.664559014
1
1
1
1
1
1
1
1
1
1.000000006
0.999999999
0.9999229936
1.000260555
1.025335054
1.230327373
1.66887559
2.576843106
3.443071997
4.010068364
4.545256843
4.7099666
4.728057814
4.711109826
4.704965657
4.688504111
4.662612814
4.635450233
4.629231282
4.62875733
4.632622998
4.63735831
4.644965733
4.656205096
4.669040068
4.67871056
4.682943339
4.684166668
4.683480397
4.681207486
4.677460822
4.671180465
4.663598536
4.65799017
4.655534669
4.655344177
4.656246122
4.658312475
4.66267148
4.668297239
4.673020928
4.675086564
4.675109587
4.674448074
4.672560758
4.670357865
4.668366876
4.666545242
4.665562989
4.665328486
4.66551993
4.665493898
4.66542714
4.665609903
4.665972507
4.66641616
4.66693574
4.667202854
1
1
1
1
1
1
1.000000079
0.9999999337
0.9999999873
0.9997796721
1.010295987
1.141110572
1.47874061
2.237507271
3.167892238
3.800678141
4.458208116
4.687034432
4.699300328
4.68353399
4.681663581
4.664235739
4.642925293
4.627640145
4.625234098
4.630950299
4.637003477
4.644968853
4.657006529
4.670068447
4.679296323
4.683472136
4.684714463
4.68378852
4.68075459
4.676588279
4.670664917
4.66414919
4.659080161
4.656435586
4.655830891
4.656380881
4.657405758
4.659469683
4.662946103
4.667230321
4.671334639
4.674008753
4.675158196
4.675148945
4.674345983
4.673080357
4.670383858
4.666830075
4.664335303
4.66345041
4.663451998
4.664090021
4.665815547
4.667951536
4.669093221
4.66909131
4.668459807
4.667422891
4.666895528
4.666954171
4.666762558
1
1
1
1.000000023
1.000000008
1.000000002
0.9998278159
1.004383853
1.091129028
1.351239526
1.98902066
2.913513801
3.589718933
4.343068598
4.635439301
4.641263884
4.651738216
4.649330963
4.630714747
4.626260539
4.625665312
4.632078333
4.640609195
4.647890123
4.658720368
4.672104965
4.681834727
4.68517661
4.685839613
4.684790132
4.68239963
4.679619805
4.674581405
4.667345607
4.659981135
4.654916619
4.652667393
4.652656291
4.653935985
4.656897858
4.661811751
4.667634041
4.672302801
4.674470684
4.674796348
4.674457867
4.67291474
4.671300819
4.670035983
4.668899216
4.667728945
4.666280877
4.665025434
4.664318945
4.663915687
4.664080059
4.66547026
4.667465352
4.669332408
4.670561095
4.670666973
4.670334051
4.669411821
4.667475578
4.665774896
4.664816065
4.664795142
1.000000013
0.9999999849
1.000000002
0.9998523906
1.002182297
1.064722367
1.271239218
1.819629991
2.694490579
3.401970974
4.228685973
4.554710825
4.566831583
4.609406755
4.617420727
4.608331405
4.619204531
4.634190453
4.642345379
4.654674685
4.669367373
4.681875921
4.689457354
4.691478039
4.69035409
4.687167521
4.682706498
4.677456206
4.67087273
4.664730688
4.66044598
4.657361883
4.655433987
4.654906433
4.655136508
4.655641312
4.657355106
4.6604764
4.665168279
4.66956792
4.672995763
4.675310658
4.67620604
4.676392021
4.675567294
4.672384123
4.667548656
4.663143647
4.661438515
4.661794381
4.663503853
4.666396219
4.668688016
4.669781365
4.670071823
4.66956163
4.668178008
4.667099439
4.666965674
4.667767947
4.66877731
4.668960361
4.668584608
4.667490114
4.66617398
4.664566609
4.664434374
0.9998667036
1.001200678
1.052145869
1.233092602
1.728346326
2.54797588
3.259131284
4.122006173
4.449609937
4.494831759
4.564403966
4.589565227
4.607709048
4.63826811
4.654103585
4.663874377
4.680645853
4.69334884
4.697918043
4.698524687
4.694685657
4.689349852
4.685858871
4.681357608
4.675066921
4.667885025
4.661052802
4.655723831
4.652935363
4.652079502
4.653283224
4.656328255
4.660744832
4.66469641
4.667973077
4.670162016
4.671109276
4.670987422
4.669596735
4.668733502
4.668504415
4.669040837
4.669725325
4.669963948
4.669523637
4.667752285
4.665458391
4.663579935
4.6629831
4.663733722
4.665208353
4.667614721
4.670502258
4.672380088
4.673229901
4.673285431
4.671627358
4.668390841
4.665547221
4.663941696
4.663495337
4.663963829
4.664920186
4.665662968
4.666357658
4.666280905
4.666702047
1.212992383
1.682447127
2.471995545
3.173910554
4.029246609
4.344436232
4.450200977
4.537864507
4.576721581
4.642099448
4.667529343
4.671510978
4.682066299
4.697980177
4.704604341
4.706098391
4.703514025
4.698246592
4.692791235
4.684491939
4.673159401
4.66236667
4.656537134
4.655265341
4.65607811
4.659054901
4.66162926
4.662673169
4.662663645
4.661733815
4.660535067
4.66150719
4.664123481
4.667816965
4.671173078
4.672901569
4.673567257
4.672562304
4.669503794
4.665337457
4.662467103
4.661599762
4.662015931
4.662946776
4.664409788
4.666538519
4.668682135
4.67030358
4.671035243
4.670602092
4.669909876
4.669815161
4.670152752
4.670356616
4.670081526
4.669218899
4.66768227
4.665870519
4.664318239
4.663443132
4.663559375
4.664297937
4.665402804
4.666590525
4.667834254
4.668214741
4.670247085
3.126922733
3.98185813
4.267775916
4.416038333
4.539525474
4.614540704
4.661324039
4.672338911
4.676942922
4.681964504
4.689168048
4.692753907
4.691432105
4.689561823
4.688343107
4.685202479
4.67856084
4.670509381
4.664599174
4.658661455
4.653280799
4.65086422
4.651920179
4.655839199
4.660746993
4.665324146
4.668605618
4.670461308
4.671575171
4.671624348
4.670518181
4.668603516
4.667353081
4.667099171
4.667247125
4.667143281
4.666404396
4.664980698
4.663264828
4.66179014
4.661400462
4.662422936
4.66411477
4.666194069
4.668366978
4.670106432
4.671465499
4.672372746
4.672420029
4.671095841
4.669209083
4.667818939
4.666942825
4.666292101
4.665668307
4.665124315
4.664929799
4.665195896
4.665662878
4.666142018
4.666582957
4.666959294
4.667233695
4.667462348
4.66721695
4.665801845
4.668853153
4.407378878
4.551468072
4.600856513
4.613962943
4.633225861
4.661015049
4.669277226
4.673860895
4.680159709
4.678594642
4.675460125
4.675713279
4.671556315
4.665498117
4.662478822
4.660441959
4.658314079
4.657561983
4.658436117
4.659404449
4.661606824
4.664714898
4.667842415
4.670994399
4.67323171
4.674637479
4.674927162
4.673680255
4.671078627
4.667443098
4.663715772
4.661121494
4.660358755
4.660889163
4.66168045
4.662209527
4.662649119
4.663281521
4.664153194
4.664955573
4.66573158
4.667132638
4.66882264
4.670681287
4.672025379
4.672767035
4.672650333
4.671247303
4.668738104
4.666191724
4.664715949
4.664550924
4.66507704
4.665967861
4.667294465
4.668641587
4.669712287
4.670295882
4.670221049
4.669301166
4.667755681
4.666072243
4.664719819
4.664489581
4.66480377
4.665206931
4.668003603
4.589719044
4.607376071
4.618377203
4.614206564
4.623774788
4.640191419
4.649952636
4.661529876
4.667192535
4.668209268
4.666202854
4.664205134
4.663054431
4.663401675
4.665437944
4.668462402
4.670901744
4.673006602
4.674335666
4.674578684
4.674224253
4.673749943
4.673217888
4.672102051
4.670179056
4.668259748
4.666615238
4.664812933
4.662591567
4.660937561
4.660690235
4.661367226
4.663006165
4.665121517
4.666736537
4.667479563
4.667892974
4.667955537
4.667462426
4.666509613
4.665980871
4.666503007
4.667531053
4.668800181
4.669466202
4.669559745
4.668914307
4.667519808
4.66588933
4.665057793
4.66501577
4.665498032
4.666675415
4.668164143
4.669257577
4.669751975
4.669744424
4.668958698
4.667224032
4.665329421
4.664179399
4.663828905
4.664231554
4.66553894
4.666478256
4.666627696
4.667405044
4.576013929
4.598717967
4.613825744
4.627612661
4.644453944
4.657554016
4.665360718
4.669607637
4.671782344
4.672273377
4.671292843
4.670730309
4.67067527
4.671410344
4.674405691
4.676960717
4.676826866
4.675920139
4.674350865
4.670696285
4.665455265
4.661189222
4.659163117
4.65873676
4.659207897
4.661343108
4.664166515
4.666273326
4.667069057
4.667223948
4.667274106
4.667095519
4.666807687
4.666818678
4.66690036
4.666800535
4.666540347
4.666128637
4.665475339
4.665159704
4.665385242
4.6660556
4.667074903
4.668198197
4.669037782
4.669201551
4.668882241
4.668429684
4.668074845
4.667887088
4.667951044
4.668302204
4.668927747
4.669345841
4.669027397
4.668365323
4.667306408
4.666332526
4.665914016
4.665602095
4.665448516
4.66582026
4.666493289
4.666720098
4.666586409
4.666330024
4.666227379
4.611060309
4.633996985
4.645297223
4.65564204
4.665460919
4.669163602
4.669047872
4.671044712
4.672689343
4.67279487
4.672225366
4.672735261
4.673822898
4.674694379
4.675693269
4.675296708
4.673194422
4.67097521
4.668478445
4.66565854
4.663187837
4.662040411
4.661777292
4.663041463
4.665652999
4.668962702
4.670838531
4.670796108
4.67016161
4.668335222
4.66595703
4.664640516
4.664010424
4.664059931
4.665288679
4.666814513
4.66712704
4.666771022
4.66647864
4.666343272
4.666353847
4.666548404
4.666996606
4.667710896
4.668372705
4.668536491
4.668275261
4.66789418
4.667573524
4.667402153
4.667445625
4.667751266
4.668174128
4.66816157
4.667553607
4.666913465
4.666327641
4.665590595
4.665040347
4.66524849
4.666178627
4.667353979
4.66809656
4.667629249
4.666908863
4.665622643
4.666916244
4.642572605
4.650057801
4.651055436
4.65248045
4.655838424
4.660027103
4.665843213
4.67173739
4.675245056
4.676316897
4.675635933
4.673308389
4.670786579
4.669027134
4.667528678
4.666616145
4.666811268
4.667113834
4.666807709
4.666000889
4.665249299
4.664783463
4.665121956
4.666342375
4.669134562
4.671646484
4.672215178
4.671295552
4.670008917
4.668296394
4.666251815
4.665103522
4.664620623
4.664965862
4.666482156
4.668126821
4.668295196
4.667765301
4.667346373
4.667190316
4.667238076
4.667366112
4.667539165
4.667850527
4.668129204
4.667988013
4.667592638
4.667314309
4.667327406
4.667661068
4.668266584
4.669084407
4.66985232
4.669862329
4.668917385
4.667508172
4.666046299
4.665038089
4.664376738
4.664491765
4.665440863
4.666835128
4.66761113
4.66741042
4.666817094
4.665792025
4.668837172
4.655111215
4.658255557
4.657215854
4.657623096
4.66267852
4.66807125
4.671946072
4.67450663
4.674754849
4.673330331
4.670714039
4.66615213
4.663449439
4.662627094
4.66255947
4.663876878
4.66655786
4.668333812
4.66878336
4.668669158
4.668313263
4.667904772
4.667857009
4.668275374
4.668530728
4.66873699
4.668930522
4.66877737
4.668288232
4.66703318
4.665602609
4.664651391
4.66436858
4.664816085
4.666024737
4.66694218
4.666388737
4.665549436
4.665122896
4.665195491
4.665591382
4.666305016
4.667483495
4.669071344
4.670292929
4.670098379
4.66912473
4.668003874
4.666859828
4.666147578
4.666037199
4.666653581
4.667854133
4.669043323
4.669251328
4.668415369
4.667596357
4.667050085
4.666626196
4.666343821
4.666367429
4.666770684
4.666681072
4.665829272
4.664699532
4.663364474
4.668253431
4.660918183
4.664764961
4.668281182
4.670967406
4.672286025
4.67174373
4.669937138
4.667556083
4.664466592
4.662626855
4.66192099
4.662160094
4.664002119
4.667249393
4.669554667
4.669922803
4.669565045
4.669238181
4.669021502
4.668749248
4.668151584
4.667514248
4.667171508
4.666989785
4.666831037
4.666848807
4.666876679
4.667013268
4.667294548
4.667651038
4.668067109
4.668641431
4.668851395
4.668129332
4.667314874
4.666774196
4.666545515
4.666443752
4.666809913
4.668199722
4.670243051
4.671458196
4.671206857
4.670267587
4.668970332
4.667489195
4.666456273
4.666086846
4.66638812
4.667514609
4.669267602
4.670126593
4.669727165
4.66880856
4.66745307
4.666399045
4.665763328
4.665433485
4.665485319
4.665712356
4.665790303
4.665202073
4.664717755
4.669777929
4.673089484
4.672690052
4.671445027
4.669577519
4.666932769
4.664578718
4.663755459
4.663628732
4.664370007
4.66544654
4.665437314
4.664672782
4.663302157
4.663369974
4.664284129
4.665750302
4.667769115
4.670254277
4.672054075
4.672018129
4.671123685
4.668495319
4.664223267
4.661701482
4.661375998
4.662129084
4.664530159
4.668552808
4.672311595
4.673199013
4.672827078
4.671446458
4.668065819
4.663874775
4.661948362
4.661805777
4.662583374
4.664584852
4.66710804
4.66940189
4.671219334
4.672181886
4.672171568
4.671340873
4.670151467
4.669171508
4.668071673
4.666510952
4.664614683
4.662779996
4.661756015
4.661811531
4.663033663
4.665529591
4.668860401
4.671957597
4.672872589
4.672214456
4.669979182
4.670383552
4.668464471
4.66649001
4.663663483
4.661699683
4.661652509
4.662533849
4.663605503
4.665484334
4.666627492
4.667386215
4.668347821
4.668989225
4.669124681
4.669170955
4.66930042
4.668959019
4.668509345
4.668130552
4.666995394
4.66580936
4.66631973
4.668260477
4.670287214
4.671737818
4.672172949
4.671042281
4.669015893
4.667030005
4.66506817
4.662987473
4.662024679
4.662935909
4.665424843
4.669044501
4.672750243
4.674865203
4.67546594
4.674802747
4.672350302
4.668914454
4.666236677
4.665048493
4.66477263
4.664696729
4.665104466
4.665995607
4.666897374
4.667770037
4.668167979
4.668155982
4.66764737
4.667612097
4.667521961
4.666515324
4.665424559
4.663642456
4.665536637
4.655496809
4.658164833
4.662593776
4.668634612
4.672589567
4.673299814
4.672147755
4.667759282
4.661063559
4.657549464
4.658124002
4.660337424
4.664473954
4.670088518
4.67437934
4.676104804
4.6763331
4.674709248
4.670496739
4.66477246
4.661474955
4.660797807
4.661491183
4.663427353
4.665512809
4.666866574
4.668371482
4.669997197
4.671047235
4.671270443
4.670736156
4.669821294
4.668798653
4.667534595
4.665826346
4.664088708
4.663406555
4.664131672
4.665539276
4.667961175
4.671307465
4.673864049
4.674280016
4.673560576
4.671264596
4.666886839
4.662382967
4.659978367
4.658929243
4.659041564
4.660818
4.663966661
4.666943983
4.669744615
)
;

boundaryField
{
    inlet
    {
        type            fixedValue;
        value           nonuniform 0();
    }
    outlet
    {
        type            zeroGradient;
    }
    bottom
    {
        type            slip;
    }
    top
    {
        type            slip;
    }
    obstacle
    {
        type            zeroGradient;
    }
    defaultFaces
    {
        type            empty;
    }
    procBoundary14to7
    {
        type            processor;
        value           nonuniform List<scalar> 
11
(
1
1
1
1
1
1
1
1
1
1
1
)
;
    }
    procBoundary14to8
    {
        type            processor;
        value           nonuniform List<scalar> 
81
(
1
1
1
1
1
1
1
1
1
1
1
1
1
1
1
1
1
1
1
1
1
1
1
1
1
1
1
1
1
1
1
1
1
1
1
1
1
1
1
1
1
1
1
1
1
1
1
1
1
1
1
1
0.9999996946
0.9999996946
0.9999997408
0.9999952485
1.000183327
1.007087346
2.580554575
2.580554575
3.634692901
4.187264619
4.51994013
4.735419564
4.735419564
4.71518599
4.694325765
4.668720446
4.637114273
4.637114273
4.64653648
4.657428887
4.669811719
4.686819399
4.686819399
4.682122192
4.676267411
4.669399434
4.65844086
4.65844086
4.660032934
)
;
    }
    procBoundary14to9
    {
        type            processor;
        value           nonuniform List<scalar> 
26
(
4.670574339
4.666987469
4.664540872
4.665751875
4.667707031
4.668169063
4.668246485
4.669299447
4.670570642
4.670777515
4.671282702
4.668655464
4.665813455
4.659902647
4.650582935
4.635589043
4.621206124
4.599506924
4.560479115
4.50265694
4.411498985
4.269309196
4.061487153
3.662405137
3.075271038
2.042256531
)
;
    }
    procBoundary14to13
    {
        type            processor;
        value           nonuniform List<scalar> 
25
(
1
1
1
1
1
1
1
1
1
1
1
1
1
1
1
1
1.000000003
1.046168751
2.441770084
4.239989503
4.602604469
4.570127586
4.583756061
4.628535977
4.650662617
)
;
    }
    procBoundary14to20
    {
        type            processor;
        value           nonuniform List<scalar> 
17
(
4.650095632
4.653403318
4.656993979
4.656993979
4.676616527
4.676181075
4.674719092
4.67358219
4.67358219
4.665424267
4.668828793
4.669387675
4.669387675
4.658717057
4.654634171
4.654085923
4.654085923
)
;
    }
}


// ************************************************************************* //
