/*--------------------------------*- C++ -*----------------------------------*\
  =========                 |
  \\      /  F ield         | OpenFOAM: The Open Source CFD Toolbox
   \\    /   O peration     | Website:  https://openfoam.org
    \\  /    A nd           | Version:  7
     \\/     M anipulation  |
\*---------------------------------------------------------------------------*/
FoamFile
{
    version     2.0;
    format      ascii;
    class       volVectorField;
    location    "2";
    object      U;
}
// * * * * * * * * * * * * * * * * * * * * * * * * * * * * * * * * * * * * * //

dimensions      [0 1 -1 0 0 0 0];

internalField   nonuniform List<vector> 
555
(
(2.970160236 -0.3011612212 0)
(2.958822378 -0.1998815183 0)
(2.90969894 -0.04789084887 0)
(2.896178791 -0.002639196334 0)
(2.893589221 0.001478026012 0)
(2.894074208 -0.006962611916 0)
(2.895981403 -0.00331744901 0)
(2.897066629 0.004522219946 0)
(3.341983721 -0.4514171559 0)
(3.370727251 -0.4229381963 0)
(3.36206391 -0.4431389175 0)
(3.229974345 -0.4612381777 0)
(3.082347649 -0.4234649493 0)
(2.997089814 -0.4054996119 0)
(2.959100669 -0.3894636856 0)
(2.957186188 -0.385550185 0)
(2.967701912 -0.3740892512 0)
(2.974072425 -0.3271734463 0)
(2.962119514 -0.2122738641 0)
(2.924252818 -0.08372771009 0)
(2.900239028 -0.008564394472 0)
(2.89667452 0.001247525294 0)
(2.896075959 -0.00807132435 0)
(2.897992361 -0.003846435651 0)
(2.899951413 0.005269024683 0)
(3.333047458 -0.4524785951 0)
(3.369927826 -0.4218993347 0)
(3.37403521 -0.4364424908 0)
(3.232657794 -0.4626635546 0)
(3.075990162 -0.4251895747 0)
(2.992882276 -0.4068548926 0)
(2.95765881 -0.389994639 0)
(2.959384659 -0.3873691723 0)
(2.970849803 -0.3770218401 0)
(2.979467854 -0.3482870168 0)
(2.967521785 -0.2510727948 0)
(2.934240695 -0.1041649861 0)
(2.907093567 -0.01972843476 0)
(2.8989735 -0.004709579198 0)
(2.898507595 -0.009624633571 0)
(2.900561301 -0.003575821421 0)
(2.902538042 0.006643672246 0)
(3.321984429 -0.4533282585 0)
(3.369269929 -0.4225651573 0)
(3.386222156 -0.4294675406 0)
(3.235109389 -0.4637594833 0)
(3.068492014 -0.4275671983 0)
(2.988908568 -0.4079357694 0)
(2.957293065 -0.3901773384 0)
(2.961937105 -0.3889161605 0)
(2.973271914 -0.3804834878 0)
(2.983372064 -0.3615250587 0)
(2.975369938 -0.2858681964 0)
(2.94103447 -0.1395935741 0)
(2.914899367 -0.03758314207 0)
(2.901242214 -0.009594059916 0)
(2.900201737 -0.009254113189 0)
(2.902733037 -0.003494411737 0)
(2.904889993 0.007346633921 0)
(3.308750826 -0.4534564446 0)
(3.370105296 -0.4219852149 0)
(3.398723734 -0.4222951191 0)
(3.237157619 -0.4635187292 0)
(3.060617086 -0.4294948756 0)
(2.984789245 -0.4092276378 0)
(2.956922969 -0.3907175197 0)
(2.964038642 -0.3903581246 0)
(2.975001827 -0.385610325 0)
(2.984944192 -0.3669916148 0)
(2.984184527 -0.3163244204 0)
(2.94904117 -0.1814153943 0)
(2.921085337 -0.06141224293 0)
(2.904231145 -0.01314406894 0)
(2.901852861 -0.009071822697 0)
(2.904877593 -0.004518577734 0)
(2.907113665 0.007724266198 0)
(2.90482812 -0.003730796951 0)
(3.29307284 -0.4535906172 0)
(3.373633156 -0.421046778 0)
(3.411375742 -0.4148201667 0)
(3.238774338 -0.4627358835 0)
(3.052007607 -0.4314957171 0)
(2.979272336 -0.4111554991 0)
(2.956181918 -0.3916647358 0)
(2.965792678 -0.3924730465 0)
(2.976998717 -0.3897353136 0)
(2.986443389 -0.3770383126 0)
(2.986502594 -0.3248149425 0)
(2.972330627 -0.2226173662 0)
(2.935018514 -0.08382366083 0)
(2.907990958 -0.01261817574 0)
(2.904718449 -0.007676243439 0)
(2.906956253 -0.005943666576 0)
(2.90877281 0.007669742563 0)
(2.905842514 -0.004558330744 0)
(3.274674633 -0.4531506537 0)
(3.383422101 -0.421047441 0)
(3.429347071 -0.4069189571 0)
(3.24031828 -0.4599580999 0)
(3.042648598 -0.4328960576 0)
(2.97321013 -0.4131980041 0)
(2.955409277 -0.3925278262 0)
(2.967546313 -0.3942253996 0)
(2.978184942 -0.3908481175 0)
(2.988029644 -0.3833414673 0)
(2.991389337 -0.3506038039 0)
(2.977064139 -0.2226677668 0)
(2.944279177 -0.09497914417 0)
(2.914377174 -0.00258690025 0)
(2.908595091 -0.006460719401 0)
(2.908632536 -0.007917545636 0)
(2.909052957 0.008180377802 0)
(2.905589863 -0.004818845947 0)
(3.251625439 -0.4532177937 0)
(3.405080544 -0.4214787066 0)
(3.454397274 -0.4017647637 0)
(3.242158464 -0.4561179617 0)
(3.031999077 -0.4332203919 0)
(2.965317935 -0.4148743838 0)
(2.954611025 -0.3926661694 0)
(2.968325395 -0.3944696544 0)
(2.979555068 -0.3920099514 0)
(2.989369592 -0.3873158626 0)
(2.993771307 -0.3617702762 0)
(2.980354272 -0.2685833915 0)
(2.957549412 -0.1111260559 0)
(2.923032639 -0.01792992694 0)
(2.9114348 -0.01189107297 0)
(2.90767552 -0.009700526917 0)
(2.906816 0.008203572501 0)
(2.90337411 -0.005188374029 0)
(3.221394368 -0.453142046 0)
(3.437927093 -0.4234329498 0)
(3.473477208 -0.3910423229 0)
(3.235043691 -0.4503179614 0)
(3.019985433 -0.4330902004 0)
(2.957184097 -0.4163302665 0)
(2.953459868 -0.3931023712 0)
(2.967965025 -0.3952037333 0)
(2.980943299 -0.393964127 0)
(2.990664584 -0.3902004835 0)
(2.996541509 -0.3729460144 0)
(2.988093819 -0.3044086589 0)
(2.969415816 -0.1549361379 0)
(2.934181695 -0.04571104531 0)
(2.909950569 -0.02119525501 0)
(2.901441457 -0.01102401633 0)
(2.90125661 0.009935460958 0)
(2.900170649 -0.004494208004 0)
(3.178332531 -0.4474852496 0)
(3.483932418 -0.4334921992 0)
(3.501060219 -0.3828803431 0)
(3.221846738 -0.4414484287 0)
(3.00717948 -0.4324085922 0)
(2.947825779 -0.4186627812 0)
(2.953460515 -0.3934000569 0)
(2.967286203 -0.3963031519 0)
(2.982637846 -0.3961056459 0)
(2.992100986 -0.3934397759 0)
(2.999872388 -0.381535211 0)
(2.992341232 -0.3264706012 0)
(2.983377973 -0.2025045788 0)
(2.955449791 -0.07703162324 0)
(2.897182258 -0.02513536829 0)
(2.889873413 -0.01415993517 0)
(2.89371228 0.009879286456 0)
(2.899174781 -0.005480199395 0)
(3.125786853 -0.4482625668 0)
(3.544972602 -0.4411404973 0)
(3.524284249 -0.373484261 0)
(3.206662822 -0.4309369848 0)
(2.997462089 -0.4293437758 0)
(2.940823061 -0.4195247044 0)
(2.955366974 -0.3939850216 0)
(2.966735583 -0.3970168047 0)
(2.98422887 -0.3971609694 0)
(2.993382871 -0.3954866127 0)
(3.002791299 -0.3871137245 0)
(2.99173071 -0.3331846014 0)
(3.006777 -0.2432737124 0)
(2.973981831 -0.08551364589 0)
(2.874071593 -0.01766738623 0)
(2.87522773 -0.01295677634 0)
(2.888715506 0.01165143867 0)
(2.90297087 -0.005984424599 0)
(3.050952523 -0.4249394472 0)
(3.589024647 -0.4441378182 0)
(3.544837296 -0.3660092368 0)
(3.17978691 -0.4228806717 0)
(2.987691045 -0.427960088 0)
(2.937030644 -0.4187511017 0)
(2.958295089 -0.3930698041 0)
(2.966437585 -0.3973815055 0)
(2.985291483 -0.3985255836 0)
(2.994220296 -0.3978120631 0)
(3.004569642 -0.3928770075 0)
(2.992942292 -0.3596692707 0)
(3.010846332 -0.2672145433 0)
(2.984395777 -0.1076223719 0)
(2.859746861 -0.0262458906 0)
(2.866478973 -0.01760125295 0)
(2.889954736 0.01134349565 0)
(2.910668093 -0.007216198197 0)
(2.961279936 -0.04209115746 0)
(2.989310546 -0.01033033922 0)
(2.970797074 -0.2665420664 0)
(2.913881826 -0.3958702341 0)
(2.927416919 -0.4226811168 0)
(2.946376571 -0.4175598804 0)
(2.967477565 -0.3935098229 0)
(2.973042324 -0.3994075305 0)
(2.986249158 -0.402871365 0)
(2.995624379 -0.4053332739 0)
(3.007618977 -0.4066713761 0)
(3.025895234 -0.3917609049 0)
(3.039826619 -0.3634827066 0)
(3.013801319 -0.2253613277 0)
(3.038435868 -0.1691832946 0)
(2.957397418 0.01361967877 0)
(2.929872586 0.01705846885 0)
(2.924654018 -0.004743483246 0)
(2.892914067 0.2292455812 0)
(2.911407169 0.05032957579 0)
(2.899910237 -0.1388243136 0)
(2.915234335 -0.2942675237 0)
(2.942436005 -0.3638485797 0)
(2.98458731 -0.3250962664 0)
(2.983589727 -0.3423374138 0)
(3.023211229 -0.3831994224 0)
(3.032647675 -0.3996318321 0)
(3.054773342 -0.4141203621 0)
(3.057644958 -0.4128699108 0)
(3.080802746 -0.4053559536 0)
(3.084902925 -0.4007947491 0)
(3.086614351 -0.3901415421 0)
(3.09852094 -0.3205924359 0)
(3.082846481 -0.1988967235 0)
(3.065094731 -0.1245247922 0)
(3.030952873 -0.04912150192 0)
(2.894584954 0.2481288876 0)
(2.906920262 0.2072666599 0)
(2.928587131 0.1129542669 0)
(2.964686499 -0.03349605388 0)
(2.971342482 -0.08056302584 0)
(3.031164557 -0.2390658789 0)
(3.040423558 -0.2827447317 0)
(3.072192493 -0.3670580087 0)
(3.082406308 -0.4112200809 0)
(3.093380362 -0.4124459904 0)
(3.111658152 -0.3938648284 0)
(3.115425547 -0.3942115605 0)
(3.114821715 -0.3976131123 0)
(3.112450643 -0.4084592387 0)
(3.113677235 -0.4030462166 0)
(3.110681738 -0.3660377904 0)
(3.105462507 -0.2598564537 0)
(3.089116386 -0.1411898963 0)
(2.900030722 0.2482695794 0)
(2.904037036 0.2404411784 0)
(2.923722855 0.1964912612 0)
(2.959391245 0.1098462528 0)
(2.995707436 -0.01052783602 0)
(3.038719326 -0.1424190686 0)
(3.066788642 -0.241700005 0)
(3.083349498 -0.2900719799 0)
(3.095807508 -0.3026897497 0)
(3.088096719 -0.3108359578 0)
(3.105019819 -0.3403389636 0)
(3.110877911 -0.3802269165 0)
(3.115981579 -0.4011049326 0)
(3.118399121 -0.4054322354 0)
(3.118200062 -0.4028153232 0)
(3.117580362 -0.4012023712 0)
(3.110085525 -0.3870533581 0)
(3.101088008 -0.3420811821 0)
(2.898279541 0.2517160752 0)
(2.900080686 0.2487666551 0)
(2.906960516 0.2361509545 0)
(2.927182017 0.1955605476 0)
(2.962231959 0.1129142423 0)
(2.993679573 0.03239332508 0)
(3.016833237 -0.040704419 0)
(3.053540477 -0.1634472219 0)
(3.062000578 -0.1882828744 0)
(3.08388777 -0.2708507845 0)
(3.097581542 -0.3423326803 0)
(3.101989827 -0.3721932159 0)
(3.113663562 -0.379623336 0)
(3.112537172 -0.3645630329 0)
(3.102292239 -0.3805476504 0)
(3.098324686 -0.388729567 0)
(3.099390044 -0.396968763 0)
(3.100411561 -0.3918676871 0)
(2.897164189 0.255137513 0)
(2.897945883 0.2519792423 0)
(2.900943597 0.2450918136 0)
(2.908959276 0.2288673391 0)
(2.928386498 0.1896875379 0)
(2.958363028 0.1208616206 0)
(2.992860893 0.03070101474 0)
(3.02100065 -0.04607200066 0)
(3.044269745 -0.1436149729 0)
(3.065242505 -0.1939171261 0)
(3.082060602 -0.2403025288 0)
(3.083924455 -0.2803488435 0)
(3.084786104 -0.2945669164 0)
(3.087447068 -0.3250679568 0)
(3.089713623 -0.3572175984 0)
(3.092254634 -0.3810857748 0)
(3.093619086 -0.3940778852 0)
(3.104643609 -0.3904502452 0)
(2.890886048 0.2602221659 0)
(2.892445664 0.2549784849 0)
(2.894500795 0.2496878467 0)
(2.898377237 0.242381652 0)
(2.907832394 0.2256052203 0)
(2.927749384 0.185489771 0)
(2.952080381 0.1315415949 0)
(2.98319963 0.05659268679 0)
(3.011674216 -0.03149439671 0)
(3.030359091 -0.08661000504 0)
(3.030776577 -0.1014357254 0)
(3.055737579 -0.1873684428 0)
(3.070371463 -0.2682052536 0)
(3.07524138 -0.3071827374 0)
(3.087894374 -0.3174290877 0)
(3.094004831 -0.3497517306 0)
(3.093099441 -0.3570663919 0)
(3.094402917 -0.3522526744 0)
(2.888028312 0.260387723 0)
(2.88865567 0.2581759535 0)
(2.890526998 0.2525146838 0)
(2.892916723 0.2486756897 0)
(2.898043256 0.2412378712 0)
(2.908646506 0.2223722826 0)
(2.928252546 0.1808570803 0)
(2.950124452 0.1318948458 0)
(2.974616112 0.07113095137 0)
(3.006464122 -0.02263290386 0)
(3.020125488 -0.08525408901 0)
(3.035927079 -0.1211496106 0)
(3.053243204 -0.1805752232 0)
(3.06155187 -0.2309142716 0)
(3.066628256 -0.2308665767 0)
(3.062648005 -0.256781909 0)
(3.079439259 -0.3046242067 0)
(3.083220501 -0.3351058371 0)
(2.893447567 0.25337854 0)
(2.888616047 0.2571050296 0)
(2.888322545 0.2554816055 0)
(2.889492676 0.2536326111 0)
(2.892505466 0.2501671216 0)
(2.898561228 0.240114806 0)
(2.909345658 0.2186672302 0)
(2.928050567 0.1771681077 0)
(2.947996693 0.1322395764 0)
(2.967113374 0.08289522907 0)
(2.995705212 0.003773398775 0)
(3.016384205 -0.05626226187 0)
(3.018833856 -0.07220693163 0)
(3.042826147 -0.1516044359 0)
(3.052149884 -0.202006323 0)
(3.061624884 -0.2306376154 0)
(3.075205281 -0.2817738692 0)
(3.079510838 -0.3065408483 0)
(2.894360826 0.27043662 0)
(2.886285836 0.2603525933 0)
(2.886371275 0.2559362509 0)
(2.886963567 0.2569014194 0)
(2.889111174 0.2552874433 0)
(2.892844264 0.2489520779 0)
(2.89869137 0.2368370543 0)
(2.908973668 0.2152580138 0)
(2.926782049 0.1768827634 0)
(2.947000257 0.1320424048 0)
(2.967918973 0.08245950236 0)
(2.993231823 0.01171524266 0)
(3.006646196 -0.0324557902 0)
(3.024115106 -0.0827052254 0)
(3.041586504 -0.1444595299 0)
(3.053183319 -0.1767404804 0)
(3.058967468 -0.1933927265 0)
(3.063877676 -0.2374486165 0)
(2.916119361 0.2044635066 0)
(2.906177732 0.2276280478 0)
(2.894722612 0.2492760942 0)
(2.887237271 0.2570714679 0)
(2.887282162 0.2562544433 0)
(2.88801098 0.2537140426 0)
(2.890869597 0.2473308715 0)
(2.897420382 0.2347446769 0)
(2.909098354 0.2126810547 0)
(2.927359146 0.1755828575 0)
(2.945924504 0.1355367006 0)
(2.967613526 0.08325506018 0)
(2.988935381 0.02438264866 0)
(3.004010338 -0.01442741272 0)
(3.014449868 -0.05331093707 0)
(3.031215378 -0.1085727461 0)
(3.040643484 -0.1369119225 0)
(3.055674441 -0.1968441021 0)
(2.944722678 0.1246568687 0)
(2.929771512 0.1849044399 0)
(2.900997408 0.2666550697 0)
(2.889391478 0.2596134732 0)
(2.884721962 0.2557355344 0)
(2.884527156 0.2555199353 0)
(2.885698142 0.2526481279 0)
(2.889635441 0.2460105152 0)
(2.897682145 0.2327277127 0)
(2.910577757 0.2094550607 0)
(2.927617138 0.1748015076 0)
(2.945357448 0.1368623009 0)
(2.964748161 0.09037179596 0)
(2.986336042 0.03203622053 0)
(3.000301225 -0.009169538243 0)
(3.016723646 -0.05979081388 0)
(3.029120053 -0.09638344506 0)
(3.041303831 -0.1387068967 0)
(2.989328507 0.02359043061 0)
(2.950271114 0.1270804066 0)
(2.921674692 0.2027085546 0)
(2.918400912 0.2267602249 0)
(2.894156338 0.2492763409 0)
(2.884281986 0.2543152433 0)
(2.88343178 0.254135394 0)
(2.884671681 0.2519482379 0)
(2.889218527 0.2448540782 0)
(2.897599593 0.2309795636 0)
(2.91061436 0.207518901 0)
(2.927658098 0.1734734905 0)
(2.94436581 0.1375253567 0)
(2.96334022 0.0926307612 0)
(2.981112906 0.04515248294 0)
(2.997168778 2.132377144e-05 0)
(3.009466712 -0.03495554627 0)
(3.024532525 -0.08437942956 0)
(2.99862766 0.003557753987 0)
(2.987572977 0.03124475641 0)
(2.947097788 0.1236381012 0)
(2.937719768 0.1835402259 0)
(2.903853645 0.2655967899 0)
(2.888426286 0.2573666629 0)
(2.883172544 0.2550009879 0)
(2.88329779 0.2542748436 0)
(2.884782039 0.2508898313 0)
(2.889286967 0.2432095999 0)
(2.898071251 0.2291348497 0)
(2.911208999 0.2060479953 0)
(2.927394958 0.1735153362 0)
(2.944508558 0.1367787356 0)
(2.961850296 0.09377895076 0)
(2.978525638 0.04841630958 0)
(2.990019412 0.01664991742 0)
(3.007296245 -0.03255699736 0)
(2.999959424 0.0001021648138 0)
(2.997351747 0.006901980161 0)
(2.986063314 0.03364295746 0)
(2.950408741 0.1274578738 0)
(2.923521869 0.1972992033 0)
(2.919315365 0.2285325755 0)
(2.897361653 0.2501359153 0)
(2.886172784 0.2528008465 0)
(2.884470159 0.2524379753 0)
(2.88528366 0.2502695518 0)
(2.8905259 0.2423701682 0)
(2.899824181 0.2274992739 0)
(2.913086353 0.2031915571 0)
(2.927571329 0.1736069386 0)
(2.943334116 0.1377897757 0)
(2.960016977 0.0953499501 0)
(2.97447628 0.05544821779 0)
(2.988094368 0.01976411539 0)
(2.999999094 2.390174301e-06 0)
(2.999783108 0.0005227386257 0)
(2.996907268 0.00830168879 0)
(2.983965774 0.03890953418 0)
(2.946000586 0.1246266824 0)
(2.93915412 0.1865004528 0)
(2.911023416 0.2614145562 0)
(2.891665279 0.2552146292 0)
(2.883856693 0.253200828 0)
(2.884608293 0.2532534501 0)
(2.887554106 0.2497584713 0)
(2.893346128 0.2408944899 0)
(2.902424708 0.2255629813 0)
(2.914948454 0.2011242569 0)
(2.928079431 0.1726366214 0)
(2.942217571 0.13920187 0)
(2.957061467 0.1004254568 0)
(2.971807219 0.06155257937 0)
(2.999999995 1.327063615e-08 0)
(2.999982749 4.196717539e-05 0)
(2.999704569 0.0007666649871 0)
(2.995716642 0.01073853684 0)
(2.984530901 0.03855518719 0)
(2.948872878 0.1368171899 0)
(2.932812258 0.1859377962 0)
(2.91885879 0.2323661832 0)
(2.897512464 0.2463438076 0)
(2.887614838 0.2515788035 0)
(2.888582945 0.2509811021 0)
(2.891269879 0.2478868297 0)
(2.896938578 0.2393587663 0)
(2.905307568 0.2243100254 0)
(2.916695014 0.1999944468 0)
(2.928775343 0.1723572098 0)
(2.942122509 0.1391952509 0)
(2.956703997 0.1019483233 0)
(3 4.037746947e-11 0)
(2.999999214 1.84946395e-06 0)
(2.999975396 6.356435773e-05 0)
(2.999473283 0.001271697534 0)
(2.99617501 0.01053703551 0)
(2.981045893 0.04613139849 0)
(2.950524901 0.1198423944 0)
(2.94079177 0.1903039938 0)
(2.910605904 0.2623043069 0)
(2.887983453 0.2502760465 0)
(2.889143223 0.250420179 0)
(2.892277643 0.2503030226 0)
(2.894626794 0.2478202256 0)
(2.899650415 0.2392448336 0)
(2.907623074 0.2226957823 0)
(2.917251045 0.2007508101 0)
(2.929875516 0.1712470822 0)
(2.942179838 0.1408667784 0)
(3 -4.46451666e-15 0)
(2.999999972 6.806362128e-08 0)
(2.999998858 2.886864484e-06 0)
(2.99995111 0.0001210787741 0)
(2.999497781 0.00132266189 0)
(2.99485907 0.01230601307 0)
(2.982766294 0.04299263573 0)
(2.948803946 0.1393242771 0)
(2.93721757 0.1824803548 0)
(2.919728658 0.2257370251 0)
(2.895735889 0.2462723684 0)
(2.889940157 0.2500005514 0)
(2.89351273 0.2497908468 0)
(2.895551911 0.2472778214 0)
(2.900265932 0.2390696179 0)
(2.908205018 0.2225161089 0)
(2.918570381 0.1996686 0)
(2.930198782 0.1725121413 0)
(3 -3.079218165e-15 0)
(2.999999999 1.570629625e-09 0)
(2.999999965 8.934472339e-08 0)
(2.999997086 7.252591733e-06 0)
(2.999954804 0.0001154178093 0)
(2.999203182 0.00191491414 0)
(2.995793963 0.01111509726 0)
(2.978219032 0.05200708067 0)
(2.955470015 0.115011226 0)
(2.938612391 0.199643893 0)
)
;

boundaryField
{
    inlet
    {
        type            fixedValue;
        value           nonuniform 0();
    }
    outlet
    {
        type            inletOutlet;
        inletValue      nonuniform 0();
        value           nonuniform 0();
    }
    bottom
    {
        type            slip;
    }
    top
    {
        type            slip;
    }
    obstacle
    {
        type            slip;
    }
    defaultFaces
    {
        type            empty;
    }
    procBoundary27to20
    {
        type            processor;
        value           nonuniform List<vector> 
16
(
(2.87647278 0.2498910353 0)
(2.883172326 0.2519827441 0)
(2.893244783 0.2510304772 0)
(2.899656165 0.2486085156 0)
(2.898007769 0.2514971509 0)
(2.894521016 0.2581584137 0)
(2.890217256 0.2623739333 0)
(2.886290314 0.2631262684 0)
(2.89674005 0.243700261 0)
(2.903652999 0.2374601695 0)
(2.939982463 0.1401169288 0)
(2.981888313 0.0394849968 0)
(2.998354872 0.003414224007 0)
(2.999995538 8.344385821e-07 0)
(3.000000016 1.881000673e-08 0)
(3.000000002 -2.148558892e-10 0)
)
;
    }
    procBoundary27to21
    {
        type            processor;
        value           nonuniform List<vector> 
18
(
(2.966028576 -0.2942830228 0)
(2.934148035 -0.1459147673 0)
(2.908592754 -0.03826980844 0)
(2.892168515 -0.002964360075 0)
(2.890113632 -0.0004905910965 0)
(2.891751297 -0.005655434189 0)
(2.893735251 -0.001360121999 0)
(2.893538028 0.004498641944 0)
(3.349501417 -0.4501967588 0)
(3.37128994 -0.4242182421 0)
(3.350733807 -0.4493600162 0)
(3.22761641 -0.4594267625 0)
(3.08804897 -0.4215883242 0)
(3.000525528 -0.4036970097 0)
(2.961240818 -0.3869696249 0)
(2.955027831 -0.3809159119 0)
(2.963337438 -0.3649377902 0)
(2.963337438 -0.3649377902 0)
)
;
    }
    procBoundary27to26
    {
        type            processor;
        value           nonuniform List<vector> 4((3 -2.48050406e-11 0) (3 -8.540981143e-13 0) (3 -3.974380825e-14 0) (3 -4.342001849e-15 0));
    }
    procBoundary27to28
    {
        type            processor;
        value           nonuniform List<vector> 
28
(
(2.895926005 -0.002826062791 0)
(2.898620966 -0.002666221571 0)
(2.900889606 -0.002694992077 0)
(2.903038034 -0.003012008397 0)
(2.903038034 -0.003012008397 0)
(2.904476077 -0.00112478908 0)
(2.905403213 -0.001856945624 0)
(2.905387957 -0.00196789855 0)
(2.904206655 -0.002500640843 0)
(2.902851831 -0.001904661359 0)
(2.90285638 -0.002990914861 0)
(2.904297258 -0.003602110766 0)
(2.906333564 -0.004375796281 0)
(2.933674178 0.00171082405 0)
(3.008029769 0.0006098425015 0)
(3.056535895 -0.04561170192 0)
(3.064802394 -0.1940846527 0)
(3.09339383 -0.3631970318 0)
(3.104086291 -0.3883515235 0)
(3.095244642 -0.3751406503 0)
(3.092682869 -0.3540705054 0)
(3.085465036 -0.298166409 0)
(3.066458258 -0.2503253853 0)
(3.06126223 -0.2302670245 0)
(3.047446493 -0.160114695 0)
(3.032052172 -0.1102449398 0)
(3.018683097 -0.07229054977 0)
(2.998697484 -0.01445664377 0)
)
;
    }
    procBoundary27to33
    {
        type            processor;
        value           nonuniform List<vector> 
19
(
(2.905280502 0.2627126404 0)
(2.885639006 0.2488802716 0)
(2.8918989 0.2490682905 0)
(2.893562605 0.249324677 0)
(2.896463715 0.2467626608 0)
(2.901256804 0.2379118395 0)
(2.909360449 0.220908606 0)
(2.920009051 0.1977661871 0)
(3 6.837944773e-17 0)
(3 1.836147366e-11 0)
(2.999999999 1.996686769e-09 0)
(2.99999989 2.751784079e-07 0)
(2.999997099 7.368492318e-06 0)
(2.999924665 0.0001852710535 0)
(2.99932713 0.0017721336 0)
(2.994226641 0.01337286279 0)
(2.981761398 0.04737225692 0)
(2.905280502 0.2627126404 0)
(2.949488034 0.1377179574 0)
)
;
    }
    procBoundary27to34
    {
        type            processor;
        value           nonuniform List<vector> 4((2.984343483 0.02557967443 0) (2.968560169 0.06875735223 0) (2.956681787 0.1019002516 0) (2.943149922 0.1403736193 0));
    }
}


// ************************************************************************* //
