/*--------------------------------*- C++ -*----------------------------------*\
  =========                 |
  \\      /  F ield         | OpenFOAM: The Open Source CFD Toolbox
   \\    /   O peration     | Website:  https://openfoam.org
    \\  /    A nd           | Version:  7
     \\/     M anipulation  |
\*---------------------------------------------------------------------------*/
FoamFile
{
    version     2.0;
    format      ascii;
    class       volScalarField;
    location    "1.8";
    object      p;
}
// * * * * * * * * * * * * * * * * * * * * * * * * * * * * * * * * * * * * * //

dimensions      [1 -1 -2 0 0 0 0];

internalField   nonuniform List<scalar> 
22
(
0.9824042433
0.9892037597
0.9946161377
0.9979416025
0.9879546632
0.9919203986
0.997875008
0.9979824541
0.9935137828
0.9955971978
0.9955533673
0.9910939081
0.9916058726
0.9937797088
0.9888460542
0.9887298791
0.994830093
0.9974267825
0.9967784332
0.9965202714
0.9865434827
0.9906057433
)
;

boundaryField
{
    inlet
    {
        type            fixedValue;
        value           nonuniform 0();
    }
    outlet
    {
        type            zeroGradient;
    }
    bottom
    {
        type            slip;
    }
    top
    {
        type            slip;
    }
    obstacle
    {
        type            zeroGradient;
    }
    defaultFaces
    {
        type            empty;
    }
    procBoundary29to22
    {
        type            processor;
        value           uniform 1.016279481;
    }
    procBoundary29to23
    {
        type            processor;
        value           nonuniform List<scalar> 4(0.9808620921 0.9867251039 0.9917234773 0.9970533121);
    }
    procBoundary29to28
    {
        type            processor;
        value           nonuniform List<scalar> 7(1.021679301 0.9888354635 0.9888354635 0.9870401702 0.9852893231 0.9880978113 0.9519921303);
    }
    procBoundary29to35
    {
        type            processor;
        value           nonuniform List<scalar> 4(0.9969032176 0.9270053724 0.9969032176 0.9651038081);
    }
}


// ************************************************************************* //
