/*--------------------------------*- C++ -*----------------------------------*\
  =========                 |
  \\      /  F ield         | OpenFOAM: The Open Source CFD Toolbox
   \\    /   O peration     | Website:  https://openfoam.org
    \\  /    A nd           | Version:  7
     \\/     M anipulation  |
\*---------------------------------------------------------------------------*/
FoamFile
{
    version     2.0;
    format      ascii;
    class       volScalarField;
    location    "3.6";
    object      rho;
}
// * * * * * * * * * * * * * * * * * * * * * * * * * * * * * * * * * * * * * //

dimensions      [1 -3 0 0 0 0 0];

internalField   nonuniform List<scalar> 
2222
(
1.252282024
1.251057409
1.256687706
1.257330688
1.257253248
1.259531582
1.266988109
1.270052818
1.270934499
1.271511198
1.27215761
1.272429833
1.272197057
1.272855023
1.275035909
1.278143668
1.280871373
1.279465482
0.9502401785
1.191247215
1.255564822
1.263239531
1.263720054
1.264178135
1.266070413
1.26288873
1.257959695
1.257978211
1.264684421
1.270075358
1.271555297
1.271292022
1.271645325
1.272377158
1.273012683
1.272935152
1.273656937
1.277715388
1.280787962
1.281040612
1.279221133
0.9422685798
1.161550201
1.257250671
1.27492738
1.27598914
1.275904089
1.274065718
1.268324722
1.264092691
1.264155587
1.269011859
1.270876017
1.271339423
1.272665984
1.274012606
1.275816906
1.276740123
1.277122201
1.27876804
1.281366943
1.282227101
1.2815825
1.27904087
0.9269354328
1.093506792
1.244194328
1.284306209
1.285544004
1.28092552
1.274046155
1.270032541
1.270342986
1.272401673
1.273111859
1.272004671
1.272661772
1.275263589
1.279494869
1.281661881
1.281880709
1.28218787
1.283297017
1.28416018
1.284032892
1.28316683
1.280471837
0.9075010986
1.014818068
1.192717587
1.284111792
1.297024128
1.286951808
1.275300132
1.272227267
1.275381342
1.278277932
1.277096846
1.275814723
1.277823935
1.282290944
1.284909166
1.285761916
1.285691122
1.286049883
1.286788439
1.287547935
1.288080226
1.287231857
1.285143152
0.8918882278
0.9746038749
1.127045723
1.269930178
1.302680429
1.294594198
1.282601495
1.278392544
1.280917562
1.281094239
1.280032341
1.281193679
1.286205106
1.288987517
1.289155185
1.28933849
1.289630315
1.289940396
1.290108099
1.290433555
1.29181129
1.292954567
1.292112528
1.289556594
0.8847772387
0.9521097429
1.085136656
1.232101959
1.295919035
1.293311427
1.290971214
1.290043867
1.287601834
1.283831603
1.283535343
1.288424984
1.293586141
1.294436969
1.29363587
1.293894093
1.294480981
1.294530254
1.294224162
1.294549569
1.296461465
1.299093567
1.299886415
1.298710073
0.8781306516
0.9241130071
1.049801452
1.199428369
1.278262916
1.296468347
1.299949645
1.298679335
1.294681936
1.288880813
1.289578493
1.295950811
1.298267714
1.29832127
1.29922671
1.299876232
1.300544391
1.300437516
1.300168456
1.300719794
1.303716242
1.306548428
1.30710094
1.305949716
0.8665644553
0.8983160988
0.9923056249
1.161516907
1.267310013
1.303468189
1.306709036
1.303053192
1.296622435
1.295064715
1.299256964
1.302636061
1.303080621
1.302772172
1.304619181
1.30680746
1.308001551
1.308403823
1.308547692
1.309928222
1.312335242
1.313689708
1.313515407
1.311749972
0.8605575204
0.8848397535
0.9493556176
1.102758907
1.260079503
1.307910637
1.312196107
1.304488544
1.300726794
1.303199409
1.307255516
1.308420401
1.306827051
1.308558272
1.312231754
1.314430417
1.315640097
1.316456197
1.317431435
1.319164211
1.320832244
1.321442729
1.320623531
1.318226317
0.8609019984
0.8783417905
0.928445822
1.050472834
1.227369161
1.309054026
1.316071102
1.307407499
1.307218912
1.311851832
1.313320788
1.311987758
1.312603813
1.316929647
1.319818629
1.321227369
1.322066431
1.323118641
1.324208917
1.325903571
1.327679575
1.32861723
1.328337409
1.325429611
0.8574366911
0.8724562073
0.9113867236
1.018604759
1.173218416
1.295047425
1.315926269
1.31494095
1.318942091
1.319650064
1.317779553
1.31579919
1.319766093
1.324555403
1.326951668
1.328177583
1.328488521
1.329636713
1.33071856
1.332020468
1.333041033
1.334005444
1.334070572
1.331654523
1.32847644
0.8536944516
0.8671182823
0.8942887338
0.9794261829
1.138712366
1.269524792
1.318364244
1.326067666
1.329322329
1.327243031
1.320881352
1.322268846
1.328424911
1.332469922
1.333288535
1.333482754
1.334381479
1.336036929
1.336781813
1.336882166
1.337581078
1.339193643
1.340507149
1.339271846
1.337492603
0.8522608166
0.8621634472
0.8830783176
0.9423091814
1.103414716
1.256615575
1.324283924
1.336969431
1.338987252
1.330632965
1.327233883
1.331578892
1.337005983
1.338152091
1.337504118
1.338995234
1.34086274
1.342651518
1.34306857
1.343432049
1.344539942
1.346408578
1.347878104
1.347477057
1.346438437
0.852156286
0.85816664
0.8726718709
0.9240460896
1.04603383
1.234794013
1.332480991
1.346765378
1.34436819
1.336145621
1.336577183
1.341601914
1.343827558
1.342598519
1.344311795
1.346820871
1.349018415
1.350389102
1.350765992
1.351508085
1.352932962
1.355117091
1.356605444
1.356769866
1.35536988
0.8513168391
0.8555454066
0.8683428753
0.9106057202
0.9976939639
1.172916836
1.316032634
1.35020029
1.345925816
1.344976021
1.347987952
1.350664621
1.349215163
1.349633364
1.352996856
1.356650606
1.358413956
1.358791812
1.359176995
1.360283074
1.362038972
1.364371147
1.365761485
1.365749347
1.364226344
0.8501698173
0.8535052661
0.8662692755
0.8924965243
0.9710220084
1.108415459
1.26652275
1.343327794
1.352156992
1.356866277
1.358184403
1.357351101
1.355311458
1.358172469
1.363499674
1.365925919
1.367155098
1.367024522
1.367647159
1.368852327
1.370868667
1.373266873
1.374732779
1.374482118
1.372668124
0.8481729024
0.8519110239
0.8638944572
0.8840257541
0.9465887943
1.077057005
1.231183598
1.332818813
1.36098256
1.367757065
1.367125819
1.362431766
1.36188768
1.367265911
1.372023566
1.373411759
1.373241208
1.373657176
1.374742907
1.37590852
1.377861647
1.380138251
1.381687823
1.381358792
1.379170809
0.8456950663
0.8518491212
0.8615457466
0.8808666827
0.9265433485
1.046134004
1.215874808
1.332533204
1.373582885
1.377021564
1.370512737
1.367105976
1.369502607
1.375411302
1.377299434
1.376896597
1.377765417
1.379344375
1.380847514
1.381959168
1.383705881
1.385753114
1.387665956
1.387254953
1.38502326
1.383067085
0.8454284057
0.8518723469
0.8585614433
0.8776119425
0.9146631058
0.9999777106
1.182855533
1.335090161
1.379398899
1.37980539
1.372537066
1.37334921
1.377751597
1.381076979
1.380105282
1.381102255
1.383096008
1.384979834
1.386358042
1.387462782
1.389131631
1.391181765
1.393109336
1.392430988
1.390298006
1.388630846
0.8456803224
0.8512137695
0.8578321937
0.8731707413
0.9040834008
0.9694308646
1.10828887
1.289179058
1.370412805
1.377998982
1.377220852
1.380841912
1.38462862
1.384145242
1.384269731
1.386869488
1.389165369
1.390613454
1.391572408
1.392778787
1.394642686
1.396584848
1.398470364
1.397633849
1.3957261
1.394157578
0.8467647726
0.8503912966
0.8577418978
0.8712119452
0.8959853419
0.9504830434
1.055994891
1.215999572
1.338282973
1.378017156
1.383944704
1.387824321
1.388492599
1.387169371
1.389263178
1.392783728
1.394847013
1.39572696
1.396397439
1.39766106
1.399442165
1.401025382
1.402653414
1.402078457
1.400504737
1.399284141
0.846935783
0.8495695961
0.8567031297
0.870243457
0.8912876072
0.9343648948
1.032267806
1.178382038
1.316207028
1.380529257
1.391400294
1.392577421
1.390086579
1.389599695
1.393671754
1.397275209
1.398746261
1.39942815
1.400114186
1.401288205
1.402756166
1.403624296
1.404547938
1.404494145
1.403502137
1.402752554
0.8465254592
0.8474667291
0.8555598728
0.8685556245
0.8874991122
0.9219353248
1.000129632
1.15534219
1.311760488
1.388249965
1.395408861
1.393714576
1.389854836
1.391690493
1.396727767
1.398831827
1.39968834
1.400907085
1.40197583
1.403067179
1.404532537
1.404923997
1.40563583
1.406300438
1.405467082
1.404626779
0.8453568685
0.8456560338
0.8544120212
0.8668423374
0.8850465565
0.913359239
0.9672376211
1.103283011
1.289315829
1.383741248
1.395665023
1.391415358
1.390743474
1.394496249
1.397929773
1.398195244
1.399379485
1.401290074
1.4028589
1.40404247
1.405433843
1.406267868
1.407566498
1.408496556
1.407523104
1.406452923
1.405580039
0.8424319523
0.8449968022
0.8538282062
0.8666877318
0.8843175656
0.9080597135
0.9514359862
1.047297169
1.221665207
1.353263693
1.38604182
1.390342981
1.393939985
1.39804679
1.398053158
1.397291961
1.399343924
1.401439577
1.403234798
1.404600337
1.405861003
1.407034187
1.408798722
1.409824091
1.408853218
1.407927759
1.407300941
0.8400321407
0.8442488419
0.8539174043
0.8676221102
0.8843683785
0.9053633362
0.9408745909
1.018742258
1.161024869
1.309933153
1.374270201
1.392398389
1.397873733
1.399240642
1.396962558
1.397940096
1.400663775
1.402370936
1.40369281
1.404500751
1.405190057
1.406336243
1.408504516
1.409908233
1.409295685
1.408682833
1.408196641
0.8384997273
0.8433719726
0.8535126043
0.8676156988
0.8844533537
0.9031405566
0.9306943692
0.9954435437
1.127676622
1.277617829
1.364875287
1.394857633
1.399561438
1.397758971
1.395824326
1.399173487
1.401829338
1.40303976
1.403566242
1.403541405
1.403916467
1.405066904
1.40725221
1.408907312
1.408908069
1.408519278
1.407665858
0.8371324215
0.8426728364
0.8527884244
0.8673353124
0.8832071822
0.9006613994
0.9222749855
0.9654857849
1.087223876
1.256549373
1.367195233
1.397591172
1.39878151
1.394009658
1.394399331
1.398751538
1.401233744
1.402161718
1.402189707
1.402113418
1.40306789
1.404832809
1.406107238
1.407415532
1.407673101
1.40711554
1.406334105
0.8363881669
0.84204919
0.8515676486
0.8665559318
0.8817826728
0.8989487896
0.917612278
0.9491526769
1.035587792
1.20995096
1.353364878
1.396473051
1.39382658
1.391829227
1.396604509
1.399908876
1.400637741
1.401073906
1.401345213
1.40160585
1.402834785
1.405004078
1.406093023
1.407230243
1.40738389
1.406201434
1.405673364
0.8382413232
0.8407971854
0.850305439
0.8660440564
0.8813905443
0.8986528278
0.9151065435
0.9417034946
1.005618225
1.14850196
1.309838788
1.381712977
1.389147554
1.393420499
1.398094513
1.399948984
1.399130959
1.399426096
1.400476109
1.401393045
1.402987271
1.405014239
1.406027693
1.407042709
1.407204417
1.405654286
1.405452827
0.8392813381
0.8391152358
0.8491897884
0.8656677392
0.8819529463
0.8990123132
0.9132957836
0.9325708498
0.986367399
1.108230055
1.266523295
1.359859699
1.387521883
1.396220708
1.39884681
1.396731157
1.395656786
1.397305517
1.399177899
1.401239928
1.40294179
1.404457555
1.405410856
1.406499971
1.406703759
1.405304858
1.405155904
1.405363142
0.8387632301
0.8380625548
0.8482757012
0.8657389439
0.8838977262
0.8991095236
0.9114890484
0.9250727205
0.9623496878
1.067090047
1.226088805
1.339446512
1.38442045
1.396102052
1.395515621
1.392026474
1.394205578
1.396879259
1.399088012
1.400782015
1.402125092
1.402830038
1.403864589
1.405337937
1.405703722
1.404447622
1.404138733
1.40405071
0.8378865815
0.8375141465
0.8482022888
0.866287655
0.8852379081
0.8988024879
0.9098935175
0.9212464566
0.9438966908
1.019722026
1.17674294
1.319063819
1.383080334
1.394620904
1.389361958
1.389951404
1.393543426
1.396558656
1.398752487
1.399322821
1.399877121
1.400712988
1.401670207
1.403129239
1.403752284
1.402263388
1.401896715
1.402187267
0.8374022114
0.8378471218
0.8482883519
0.8667233349
0.8856561582
0.8984291445
0.9087667699
0.918351113
0.9361106338
0.99012789
1.118866571
1.284531894
1.377022306
1.387507674
1.386125208
1.388730111
1.39308562
1.394932764
1.396538022
1.397764324
1.398309078
1.399257116
1.399813724
1.400912707
1.401382249
1.401028433
1.400805151
1.401377876
0.8373198096
0.8386052459
0.8483368261
0.8668087805
0.8854826297
0.8984843515
0.9082205372
0.916361708
0.9308141797
0.9733007889
1.079727759
1.242868929
1.356011926
1.380696663
1.384590876
1.390944067
1.393178411
1.393926003
1.394987869
1.396216769
1.396771906
1.397544976
1.398070503
1.399402124
1.400156453
1.399700166
1.399555864
1.400381438
0.8381482868
0.8390029462
0.8483122787
0.8664951974
0.885502176
0.8986051903
0.9080515645
0.9157998062
0.9248676718
0.955038254
1.049142461
1.210268431
1.332788027
1.376840916
1.387473008
1.391053963
1.391786813
1.391999965
1.392831507
1.39373382
1.393964987
1.394900363
1.396006908
1.397575636
1.398676483
1.398189174
1.398188626
1.399182817
0.8413122597
0.8393407603
0.8479553644
0.8662904276
0.8857784007
0.900440992
0.9087663643
0.9153366974
0.9215122691
0.939942676
1.00767507
1.163340629
1.309374169
1.370697592
1.386071925
1.389470153
1.388118059
1.387798103
1.389115976
1.390143165
1.390815856
1.392121407
1.393521284
1.395329043
1.396875237
1.396373303
1.396448579
1.397247678
1.398565022
0.8446475096
0.8399455199
0.8481527813
0.8663707403
0.887197105
0.9023111955
0.9089267317
0.9141339234
0.919394345
0.9327502314
0.9765228439
1.096996603
1.266440275
1.358636636
1.383902499
1.384582744
1.382498879
1.383784352
1.385372012
1.386451735
1.387543272
1.388676235
1.389907341
1.392220095
1.394248275
1.393736381
1.393835944
1.394202173
1.395213049
0.8465463108
0.840652934
0.8485726736
0.8668571008
0.8878646646
0.9029113972
0.9090893359
0.9127680568
0.9170791208
0.9282705144
0.9611247345
1.051475697
1.207127882
1.340872089
1.37897836
1.37699841
1.378563453
1.38053601
1.381955288
1.383029774
1.383945376
1.385154627
1.386675864
1.388696747
1.391720208
1.391627576
1.391173972
1.390442182
1.390709864
0.8478113958
0.8416405337
0.8492353665
0.867157727
0.887905296
0.9033252999
0.9093365336
0.9121526765
0.9155910191
0.9227221142
0.947154269
1.025253689
1.167117627
1.311380314
1.365210217
1.372659463
1.377134089
1.379803714
1.381126112
1.382154365
1.383005912
1.383549942
1.384673033
1.386515989
1.388939064
1.389544921
1.387322006
1.386445409
1.387209105
0.8488054966
0.8425380863
0.8499148394
0.8671604003
0.8878334807
0.9037990382
0.9097865361
0.9120098646
0.9148200345
0.9190375946
0.9334925559
0.9948452164
1.141697462
1.289200506
1.356224351
1.372108148
1.378598007
1.380742002
1.38093395
1.381153619
1.381601443
1.381896597
1.383280108
1.385631445
1.388191537
1.387565241
1.384804172
1.384487576
1.385512213
0.8496699195
0.8438862681
0.8503866891
0.8670110167
0.8879073038
0.9044838057
0.9107998754
0.9120139245
0.9135659366
0.9171981785
0.9271418661
0.9655913865
1.092205415
1.265305413
1.351493768
1.373767562
1.379034157
1.38054581
1.380162518
1.380686744
1.381030436
1.381668909
1.383409005
1.385739507
1.387255103
1.38604291
1.383304193
1.383255517
1.384669155
0.8506768327
0.8454476581
0.850636615
0.8671826181
0.88806572
0.9052893937
0.9120257486
0.9120162156
0.9124251972
0.9151431557
0.9227273022
0.950018559
1.036131376
1.205535534
1.329148956
1.370533799
1.378235684
1.379830782
1.379326139
1.378493224
1.379125516
1.381258655
1.383789546
1.385559686
1.386576541
1.385788041
1.383321996
1.383556812
1.385280083
0.8525694569
0.8476402658
0.8512775339
0.8674876864
0.8884787892
0.9057694716
0.9129947391
0.9122287972
0.9119238197
0.9134276212
0.9179436227
0.9387059431
1.005573259
1.136905702
1.291558707
1.365218202
1.377098967
1.375452822
1.376202415
1.376781159
1.377710256
1.38079043
1.383022136
1.384560264
1.386212621
1.385425156
1.38373933
1.38402518
1.38521627
1.388163781
0.8556869052
0.8494694196
0.8520838872
0.8680071501
0.8889045526
0.9061949819
0.9136733127
0.912675345
0.9117347665
0.9125594283
0.9150165553
0.9270453685
0.9822293667
1.105853614
1.256616737
1.353827654
1.371394313
1.371876044
1.373916301
1.375216984
1.377665461
1.379974314
1.381518838
1.382404845
1.384811472
1.384545202
1.384521117
1.383400665
1.383938182
1.386625304
0.8579150772
0.8509344192
0.8530350644
0.8684838216
0.889452872
0.9066534758
0.9144545881
0.9138800709
0.9117339632
0.9120246731
0.9134136391
0.9203480745
0.956963608
1.082947976
1.238782239
1.339813759
1.364788772
1.3698537
1.373341498
1.375753331
1.377448565
1.377834109
1.378344239
1.37972563
1.383333771
1.384278564
1.383584821
1.381653829
1.381904754
1.384450901
0.8586847626
0.851981923
0.8542526155
0.8690146752
0.8901863306
0.9071414307
0.9156909085
0.9159228947
0.9124869139
0.9115464595
0.9119759363
0.916887209
0.9405278638
1.035986595
1.222847926
1.331313749
1.360945941
1.370954406
1.374451357
1.375481058
1.375631851
1.375481972
1.375765515
1.377836709
1.381168824
1.38389016
1.381246697
1.379557567
1.379970027
1.38293407
0.858318496
0.8527379579
0.8551508105
0.8693653936
0.8910836871
0.9078736062
0.9170469246
0.9175534188
0.9132084494
0.9110147941
0.9105302387
0.913010931
0.9299997718
0.9940588647
1.156386202
1.309500418
1.361068581
1.372399743
1.374548705
1.374361639
1.373587074
1.373401116
1.37397684
1.376538275
1.380773462
1.381623559
1.37915841
1.3783024
1.378697551
1.382475064
0.8575727619
0.8532772458
0.8553696072
0.870161543
0.8922537352
0.9091419166
0.9178411059
0.9184919423
0.9137761946
0.9104630298
0.9091071241
0.9100975555
0.9205612622
0.9698582881
1.087203799
1.25748357
1.351186963
1.370443463
1.373236742
1.372438288
1.371924601
1.372037327
1.373948574
1.377198827
1.378665389
1.379918349
1.378934194
1.378528554
1.379003921
1.382939396
0.8573446267
0.8540562585
0.8556513116
0.8711140456
0.8937391801
0.9103136501
0.9185330139
0.9191023808
0.9142364609
0.9101691374
0.9081974258
0.9086558185
0.9146187832
0.9498435797
1.055908796
1.204047827
1.329355828
1.368089909
1.370578164
1.370521302
1.370987267
1.372295966
1.374944206
1.376441278
1.377133604
1.380740877
1.380240645
1.379792731
1.379700948
1.382420846
0.8570735138
0.8558134897
0.8560135283
0.872320705
0.8954782985
0.9115321929
0.9190930215
0.9195630582
0.9148545356
0.9102209892
0.9076860072
0.9076748217
0.9113953309
0.9344312598
1.027985765
1.180658341
1.305049464
1.362342313
1.368425338
1.369518942
1.371496338
1.37375745
1.375239334
1.375705993
1.377814901
1.381750785
1.381651835
1.380101714
1.379786292
1.381236588
1.383980036
0.8570672541
0.8573985338
0.8570455756
0.873335519
0.8969236919
0.9126356953
0.9195212258
0.9200842249
0.9156688852
0.9104829872
0.9073354585
0.9068155203
0.9087930302
0.9243947843
0.990202085
1.154844767
1.292906336
1.354788322
1.367921297
1.371932671
1.373563051
1.374706923
1.374764181
1.375318502
1.378458292
1.381641439
1.38156102
1.379441979
1.378789986
1.379973796
1.383157735
0.8573366628
0.8581693654
0.8578682053
0.8735129851
0.8979945606
0.9135079376
0.9202189409
0.9207575566
0.9167989743
0.9114519403
0.9070081317
0.9057682175
0.9061570707
0.9155962039
0.9632771866
1.099679465
1.283773205
1.350820257
1.369957469
1.374428046
1.374483161
1.374120247
1.373676632
1.374706318
1.377876786
1.380602161
1.37999088
1.377538577
1.377536151
1.379169295
1.382869452
0.856693973
0.858413712
0.8580971634
0.8736965225
0.8985245359
0.9144011895
0.9212580205
0.9218296549
0.9181367999
0.9124515422
0.9066182681
0.9045427822
0.9048255467
0.9100693701
0.9428844789
1.051590837
1.232217648
1.345587702
1.369700006
1.373797013
1.373305875
1.372480633
1.372745669
1.374371669
1.377230283
1.379074646
1.378283974
1.376087945
1.376843658
1.379286738
1.383118137
0.8543204938
0.8586685842
0.8582780599
0.8741130808
0.8989902999
0.9155031178
0.922302213
0.922693259
0.9188383914
0.912843002
0.906310803
0.9039419388
0.9041905896
0.9076736434
0.9297204788
1.017054713
1.170921811
1.318350318
1.367027544
1.37227615
1.370727023
1.37134089
1.372479733
1.374437659
1.377025641
1.377878724
1.377500216
1.375987385
1.376732737
1.379618135
1.383205455
0.8519846802
0.8587851304
0.8586353312
0.8745007355
0.899600019
0.9165501882
0.9230941318
0.9231172726
0.9190480738
0.9129595905
0.9062196898
0.9036524334
0.9035838882
0.9062133465
0.9215065992
0.9836708158
1.132609101
1.276143498
1.355112518
1.36696178
1.369375384
1.371205614
1.372959808
1.37424411
1.375381601
1.376830791
1.378441495
1.37684454
1.377119758
1.378938794
1.382347177
0.8497216299
0.8585687518
0.8590634374
0.8745888933
0.9004183721
0.91751428
0.9236819626
0.9233127057
0.9191058767
0.9131254812
0.9062414688
0.9034507716
0.902993836
0.9041370429
0.9137393362
0.9573037539
1.088376028
1.249555335
1.33880803
1.36407072
1.370016861
1.372741194
1.37278032
1.373100545
1.373864615
1.377444152
1.380506311
1.378677206
1.377139818
1.377800092
1.380837219
0.8482062907
0.8583862316
0.8600103653
0.8749164068
0.9012926978
0.9182674627
0.9242230993
0.9235787437
0.9195050279
0.9139274435
0.9067108847
0.9032995807
0.9022646291
0.9023687273
0.9078686937
0.9402847042
1.04266184
1.225402466
1.331491183
1.366647879
1.373300963
1.373052514
1.372091262
1.372145809
1.374395649
1.379800717
1.382117429
1.37941722
1.376955192
1.377086014
1.379671405
0.8467125706
0.8586600796
0.8621047525
0.8755344274
0.9022315985
0.9190965825
0.9246611671
0.9241673716
0.9207846471
0.9150463046
0.9076291773
0.9029012909
0.9015587848
0.9015786954
0.9052573468
0.9275789612
1.013670308
1.180098815
1.326354212
1.367774725
1.373805809
1.372437133
1.372152894
1.372381654
1.375425313
1.381448885
1.382431429
1.378892123
1.376616534
1.376489178
1.379001913
1.382488644
0.8449011507
0.8588101397
0.8641362055
0.8781012024
0.9021017109
0.9193493459
0.9252793283
0.9251234548
0.9215137828
0.9153974185
0.9079857498
0.902601538
0.901231532
0.9011857246
0.9038909914
0.9195674853
0.9842976214
1.129667938
1.299863092
1.36374478
1.371958971
1.371116278
1.371496004
1.372515689
1.376740936
1.381280957
1.381362971
1.37709839
1.375676048
1.376123572
1.379710065
1.383453731
0.8413243481
0.8587756196
0.8655215485
0.8800443035
0.9020836115
0.9192803697
0.9257537701
0.9259033737
0.92183551
0.9155190549
0.9079754272
0.9025574106
0.9012441063
0.9011355374
0.9024852409
0.91256486
0.9549590229
1.086934245
1.243327163
1.345985902
1.368355282
1.369138661
1.370740385
1.373341407
1.376988516
1.379930265
1.379387929
1.375237683
1.374944125
1.376456209
1.380909839
1.38307559
0.8386126589
0.8585597399
0.8663847658
0.8812649853
0.9022214875
0.9189292228
0.9262817707
0.9263932758
0.9220286514
0.9154893432
0.9080571865
0.9026388929
0.9015768447
0.9007822966
0.9008512413
0.9065817531
0.9380664769
1.039970942
1.202984176
1.317080943
1.362428747
1.369038332
1.371462441
1.374041704
1.375759385
1.37735495
1.378120734
1.375151219
1.375392908
1.376960621
1.381002956
1.381898701
0.8375869748
0.8583153813
0.8670126711
0.8823843454
0.9026115423
0.9188774282
0.926764341
0.9266076042
0.9221688203
0.9156305274
0.9083859563
0.9031613769
0.9016634114
0.9001317739
0.899853296
0.9035495716
0.9263038936
1.008045796
1.175248277
1.302110156
1.36021662
1.371967567
1.372845731
1.372919456
1.373923272
1.375837984
1.378591528
1.376742418
1.376861725
1.377299053
1.38011052
1.38061385
0.83709684
0.8579303598
0.8675792097
0.8840764993
0.9034110725
0.9197779462
0.9269262586
0.926421013
0.922548773
0.9163078839
0.9093122159
0.9038150805
0.9015578341
0.8997905028
0.8993049035
0.9018197522
0.9174104502
0.9870095454
1.139092627
1.306409034
1.364155283
1.373786312
1.372457576
1.371280632
1.37242928
1.375570315
1.380553519
1.380511417
1.378281132
1.377044363
1.378971077
1.379903918
0.8343862951
0.8573792677
0.868025573
0.8860090545
0.9055525464
0.9203483233
0.9268860385
0.9264127099
0.9231341344
0.9167765905
0.9099651452
0.9040358037
0.9013276017
0.8996182608
0.899009669
0.9006203414
0.9110792396
0.9563831944
1.097039608
1.278682972
1.358029635
1.372200098
1.371753829
1.371354207
1.3721047
1.377409367
1.383105672
1.382646929
1.378495679
1.376722395
1.377085454
1.379017262
0.8297020242
0.856689037
0.8699810953
0.8876086234
0.9066488389
0.9204178982
0.9266317762
0.9266095525
0.9233477271
0.9168292005
0.9100787958
0.9040105825
0.9013333782
0.8997397838
0.8991682936
0.8998564394
0.9062743109
0.9357990552
1.04283318
1.2110509
1.333303143
1.366540301
1.369238058
1.371022746
1.37331276
1.38011588
1.38371198
1.382140779
1.377589469
1.37599801
1.376159266
1.378689793
1.377941068
0.8273961646
0.8558523607
0.8718069036
0.8885342136
0.9075215181
0.92039164
0.9267323195
0.9270205719
0.9235505785
0.9165760044
0.9099413043
0.9040227069
0.901689887
0.9003552177
0.8992392778
0.8993797692
0.9033044516
0.926088292
1.001362731
1.153890564
1.293572518
1.35606053
1.368204375
1.371286566
1.374824589
1.380373113
1.38287702
1.381232991
1.376038764
1.375199184
1.375973544
1.379309256
1.379324422
0.8261153601
0.8544917359
0.8742930991
0.889044371
0.9083170576
0.9208902701
0.9269627531
0.9273959414
0.9235984552
0.9164979188
0.9099808595
0.904328114
0.9025456584
0.9006685404
0.8990867636
0.898888155
0.9013443289
0.918013498
0.9838073014
1.130174829
1.271536417
1.350669499
1.369584454
1.373283518
1.375446837
1.379611775
1.381773482
1.379603645
1.375094444
1.375108819
1.376485205
1.380250097
1.37986962
0.8247892911
0.8533429969
0.8761722145
0.8892722062
0.9087583778
0.9217218155
0.9273696728
0.9277928107
0.9235396251
0.9165754476
0.9102450847
0.9049883765
0.9029119657
0.9007343196
0.898839679
0.8984616814
0.8999194044
0.9105233954
0.963437126
1.104153849
1.274145821
1.354143831
1.372050026
1.373917823
1.374773278
1.377753017
1.380395697
1.378991556
1.375358955
1.375732055
1.377437994
1.380182041
1.379445837
0.8215389957
0.8501314299
0.8765281568
0.8894863473
0.9090829346
0.922895408
0.9280864777
0.9278179936
0.923681101
0.9170514262
0.9108564957
0.9054160069
0.9029528981
0.9007660567
0.898705394
0.8981687626
0.8991545202
0.9054176165
0.9358750309
1.052368113
1.243742472
1.347841242
1.371415769
1.373327977
1.37260013
1.375530559
1.37938853
1.379914888
1.376328556
1.376375034
1.377121805
1.379402695
1.378595448
0.8178566475
0.8462140832
0.8763177318
0.8895732816
0.9097265014
0.9237605817
0.9284502332
0.9277918364
0.9239255061
0.9173103172
0.911088681
0.9055619428
0.9029892312
0.9011338284
0.8990234923
0.8981982996
0.8986874087
0.9029369487
0.9243300421
1.006289905
1.177242646
1.326733773
1.367886701
1.370602343
1.370672784
1.374726735
1.379051831
1.381149595
1.37699317
1.376615141
1.376574048
1.378304983
1.378079013
0.8153308669
0.8426631976
0.8748049284
0.8898305591
0.9112918725
0.9247485408
0.9286890327
0.9281372021
0.9245708151
0.9171911539
0.911046308
0.9056792726
0.9034610767
0.9019399534
0.8996765658
0.8983518058
0.8982122571
0.9008853775
0.9175633884
0.9810957893
1.128971094
1.284156381
1.352210571
1.366966723
1.370153506
1.374524576
1.379880213
1.381165023
1.377180376
1.376581913
1.376652091
1.377674706
1.378244482
0.8134898544
0.839822222
0.8736194533
0.8909336383
0.912530813
0.9259199229
0.9288618484
0.9285092685
0.9251005017
0.9169709115
0.911025292
0.9059300018
0.903854503
0.9021854968
0.8997781859
0.8981649889
0.8977373236
0.8991885394
0.9104540629
0.9632994191
1.096546409
1.248185866
1.339326732
1.365446041
1.370872926
1.375445678
1.380397939
1.380787602
1.376814708
1.376045719
1.376368523
1.377262688
1.379114796
0.8117492979
0.8373158365
0.8731033736
0.8909897934
0.9134147987
0.9260868842
0.9295736777
0.929198865
0.925235407
0.9168547805
0.9112013123
0.9060989045
0.9038103866
0.9021399256
0.8996556563
0.8978089567
0.8973940372
0.8985202595
0.9057186424
0.9398144405
1.054345211
1.228068574
1.331865294
1.368359419
1.372823816
1.376374192
1.380553009
1.380206779
1.376263518
1.375532394
1.376477921
1.377938491
1.379914907
1.37892641
0.8097875984
0.8342657833
0.872758803
0.8902263211
0.9136134703
0.9264684892
0.9305813389
0.9303857015
0.9252112097
0.9169261358
0.9113608867
0.9061726295
0.9037479873
0.9022212313
0.8996490759
0.8976830784
0.8972601965
0.8980978471
0.902938006
0.9250163112
1.009225846
1.189302365
1.328088251
1.368720535
1.373665248
1.376524346
1.380601917
1.381055235
1.376234364
1.375703642
1.377657093
1.379039153
1.379737759
1.37822336
0.8074447918
0.8300290205
0.8710021924
0.8904766093
0.9130690927
0.9271265032
0.9318470683
0.9307757686
0.9252221279
0.9172983763
0.9114453943
0.9062904265
0.9038692917
0.9026155841
0.9002776304
0.8980226775
0.8975380692
0.8980671305
0.901325668
0.9182850982
0.9833614991
1.137248693
1.311467683
1.366356929
1.373038
1.375069936
1.379782211
1.382008294
1.377128468
1.376516323
1.378224199
1.378846096
1.379070335
1.377071863
0.804716773
0.8255235633
0.867075209
0.8906878918
0.9130102158
0.9282173289
0.9326157571
0.9304027989
0.9255704599
0.9175137677
0.911553345
0.9065681798
0.9039294007
0.903309424
0.9011480425
0.898770995
0.8978027051
0.8978573921
0.8998805773
0.9118322699
0.9633457541
1.101540726
1.265215336
1.350365855
1.369484966
1.372668419
1.379162503
0.8019850696
0.8212313868
)
;

boundaryField
{
    inlet
    {
        type            calculated;
        value           nonuniform 0();
    }
    outlet
    {
        type            calculated;
        value           nonuniform 0();
    }
    bottom
    {
        type            calculated;
        value           nonuniform 0();
    }
    top
    {
        type            calculated;
        value           nonuniform 0();
    }
    obstacle
    {
        type            calculated;
        value           nonuniform List<scalar> 
78
(
0.9502401785
0.9422685798
0.9269354328
0.9075010986
0.8918882278
0.8847772387
0.8781306516
0.8665644553
0.8605575204
0.8609019984
0.8574366911
0.8536944516
0.8522608166
0.852156286
0.8513168391
0.8501698173
0.8481729024
0.8456950663
0.8454284057
0.8456803224
0.8467647726
0.846935783
0.8465254592
0.8453568685
0.8424319523
0.8400321407
0.8384997273
0.8371324215
0.8363881669
0.8382413232
0.8392813381
0.8387632301
0.8378865815
0.8374022114
0.8373198096
0.8381482868
0.8413122597
0.8446475096
0.8465463108
0.8478113958
0.8488054966
0.8496699195
0.8506768327
0.8525694569
0.8556869052
0.8579150772
0.8586847626
0.858318496
0.8575727619
0.8573446267
0.8570735138
0.8570672541
0.8573366628
0.856693973
0.8543204938
0.8519846802
0.8497216299
0.8482062907
0.8467125706
0.8449011507
0.8413243481
0.8386126589
0.8375869748
0.83709684
0.8343862951
0.8297020242
0.8273961646
0.8261153601
0.8247892911
0.8215389957
0.8178566475
0.8153308669
0.8134898544
0.8117492979
0.8097875984
0.8074447918
0.804716773
0.8019850696
)
;
    }
    defaultFaces
    {
        type            empty;
    }
    procBoundary21to15
    {
        type            processor;
        value           nonuniform List<scalar> 
24
(
1.245572275
1.245434095
1.25039643
1.257002001
1.25983758
1.25883252
1.260911923
1.267726274
1.271854889
1.272692633
1.273198887
1.272800667
1.272507137
1.273725965
1.276924156
1.279568807
1.279124783
1.278170573
0.9320293489
1.208473323
1.248992414
1.260492927
1.260019107
1.260019107
)
;
    }