/*--------------------------------*- C++ -*----------------------------------*\
  =========                 |
  \\      /  F ield         | OpenFOAM: The Open Source CFD Toolbox
   \\    /   O peration     | Website:  https://openfoam.org
    \\  /    A nd           | Version:  7
     \\/     M anipulation  |
\*---------------------------------------------------------------------------*/
FoamFile
{
    version     2.0;
    format      ascii;
    class       volScalarField;
    location    "0.2";
    object      p;
}
// * * * * * * * * * * * * * * * * * * * * * * * * * * * * * * * * * * * * * //

dimensions      [1 -1 -2 0 0 0 0];

internalField   nonuniform List<scalar> 
555
(
1
1
1
1
1
1
1
1
1
1
1
1
1
1
1
1
1
1
1
1
1
1
1
1
1
1
1
1
1
1
1
1
1
1
1
1
1
1
1
1
1
1
1
1
1
1
1
1
1
1
1
1
1
1
1
1
1
1
1
1
1
1
1
1
1
1
1
1
1
1
1
1
1
1
1
1
1
1
1
1
1
1
1
1
1
1
1
1
1
1
1
1
1
1
1
1
1
1
1
1
1
1
1
1
1
1
1
1
1
1
1
1
1
1
1
1
1
1
1
1
1
1
1
1
1
1
1
1
1
1
1
1
1
1
1
1
1
1
1
1
1
1
1
1
1
1
1
1
1
1
1
1
1
1
1
1
1
1
1
1
1
1
1
1
1
1
1
1
1
1
1
1
1
1
1
1
1
1
1
1
1
1
1
1
1
1
1
1
1
1
1
1
1
1
1
1
1
1
1
1
1
1
1
1
1
1
1
1
1
1
1
1
1
1
1
1
1
1
1
1
1
1
1
1
1
1
1
1
1
1
1
1
1
1
1
1
1
1
1
1
1
1
1
1
1
1
1
1
1
1
1
1
1
1
1
1
1
1
1
1
1
1
1
1
1
1
1
1
1
1
1
1
1
1
1
1
1
1
1
1
1
1
1
1
1
1
1
1
1
1
1
1
1
1
1
1
1
1
1
1
1
1
1
1
1
1
1
1
1
1
1
1
1
1
1
1
1
1
1
1
1
1
1
1
1
1
1
1
1
1
1
1.000000002
1.000000008
1.000000013
1.000000012
1.000000006
1
1
1
1
1
1
1
1
1
1.000000001
1.000000023
1.000000128
1.000000279
1.000000299
1.000000204
1.00000007
1.000000037
1.000000095
1.000000172
1.000000226
1.000000246
1.000000226
1.000000152
1.000000066
1.000000035
1.000000108
1.000000617
1.000001779
1.000002364
1.000001868
1.000000903
1.000000245
1.000025499
1.000048049
1.000068709
1.000077686
1.000076449
1.000063149
1.000039231
1.000017591
1.000006616
1.000005311
1.000007513
1.00000941
1.000007648
1.000004287
1.000001694
1.000000453
1.002125493
1.003054535
1.003600933
1.003643661
1.003311562
1.002510936
1.001516103
1.000709263
1.00026561
1.000101784
1.000049815
1.000026241
1.000012337
1.000005274
1.000002093
1.000000643
1.031416258
1.036709344
1.037852098
1.035787446
1.030232409
1.022071154
1.013549188
1.006764916
1.002643423
1.000795866
1.000199843
1.000047665
1.000013308
1.000005342
1.000002276
1.000000772
1.129501389
1.132866415
1.127669634
1.113932173
1.092871277
1.068081157
1.043773598
1.023639078
1.009901102
1.002929403
1.000553093
1.000070087
1.000012833
1.000004092
1.000001767
1.00000068
1.23889144
1.231187866
1.212299382
1.18387604
1.149374666
1.112373736
1.07625256
1.044345748
1.020116145
1.006308332
1.001005348
0.9999271024
0.9998308348
0.9998511964
0.9999012733
0.9999522522
1.290261988
1.270399792
1.241410308
1.205733035
1.167200146
1.128402619
1.090853478
1.056370906
1.027759276
1.009151115
0.9996416558
0.9970140453
0.9969431077
0.9972062551
0.9978362937
0.9985945104
1.307614982
1.283055435
1.251591197
1.21501804
1.175976906
1.136767975
1.098651814
1.061046638
1.032242698
1.006741938
0.9886470151
0.982870783
0.9828048547
0.9836979703
0.9857998539
0.9886941405
1.302550357
1.275079953
1.240217842
1.201716682
1.162735798
1.12517073
1.089291979
1.05675806
1.02218432
0.9882325826
0.9629453798
0.9524600157
0.9519083093
0.9531285615
0.9561168239
0.9609057958
1.265647697
1.222199658
1.177935828
1.136509748
1.100429795
1.06919811
1.040988742
1.013516871
0.9839975773
0.9547010261
0.9285137294
0.9125304487
0.9097152432
0.9106862469
0.9135870234
0.9194105871
1.191128123
1.140671758
1.09475258
1.055568602
1.02354925
0.9970779841
0.9744215135
0.9543083599
0.9343834601
0.9126527972
0.8876670853
0.8666937853
0.8597175077
0.8602920471
0.8637513288
0.8723922923
1.105765245
1.056092416
1.014232521
0.982196703
0.956123926
0.9342727042
0.9169544431
0.9029765907
0.8896539877
0.8730175698
0.8509492805
0.8295050828
0.8204157705
0.8215350776
0.8289438272
0.8447475957
1.032043066
0.986487691
0.9462473851
0.9144176512
0.8887549351
0.8691212901
0.855999287
0.8471178645
0.8385126817
0.8254643205
0.8065233053
)
;

boundaryField
{
    inlet
    {
        type            fixedValue;
        value           nonuniform 0();
    }
    outlet
    {
        type            zeroGradient;
    }
    bottom
    {
        type            slip;
    }
    top
    {
        type            slip;
    }
    obstacle
    {
        type            zeroGradient;
    }
    defaultFaces
    {
        type            empty;
    }
    procBoundary4to3
    {
        type            processor;
        value           nonuniform List<scalar> 
30
(
1
1
1
1
1
1
1
1
1
1
1
1
1
1
1
1
1
1
1
1
1
1
1.00000001
1.000010084
1.00118791
1.023193088
1.116294585
1.237923455
1.301373985
1.324980715
)
;
    }
    procBoundary4to5
    {
        type            processor;
        value           nonuniform List<scalar> 
34
(
1
1
1
1
1
1
1
1
1
1
1
1
1
1
1
1
1
1
1
1
1.000000001
1.00000001
1.000000032
1.000000064
1.000000109
1.000000148
1.000000135
0.9999814727
0.9992028982
0.9917742318
0.9675451368
0.9294839468
0.88796146
0.8671057756
)
;
    }
    procBoundary4to9
    {
        type            processor;
        value           nonuniform List<scalar> 5(1.321604038 1.302711395 1.243044141 1.160735177 1.082163894);
    }
    procBoundary4to10
    {
        type            processor;
        value           nonuniform List<scalar> 
17
(
0.7863604186
0.7778292317
0.7814001511
0.7957247821
0.8196425503
0.9582014511
0.9108295413
0.8787349584
0.8564892633
0.8383125316
0.8232773019
0.8125603631
0.8055314798
0.7989938201
0.7907098596
0.7863604186
0.7809790567
)
;
    }
}


// ************************************************************************* //
