/*--------------------------------*- C++ -*----------------------------------*\
  =========                 |
  \\      /  F ield         | OpenFOAM: The Open Source CFD Toolbox
   \\    /   O peration     | Website:  https://openfoam.org
    \\  /    A nd           | Version:  7
     \\/     M anipulation  |
\*---------------------------------------------------------------------------*/
FoamFile
{
    version     2.0;
    format      ascii;
    class       volScalarField;
    location    "0.6";
    object      p;
}
// * * * * * * * * * * * * * * * * * * * * * * * * * * * * * * * * * * * * * //

dimensions      [1 -1 -2 0 0 0 0];

internalField   nonuniform List<scalar> 
22
(
1.000911035
1.008869174
1.040829697
1.110387556
1.007243899
1.035053226
1.086404481
1.120541664
1.089631508
1.123702375
1.122651397
1.140485384
1.138165999
1.11382252
1.144787603
1.119355994
1.047915618
1.120544973
1.032152841
0.9445663666
1.00982698
0.9089984948
)
;

boundaryField
{
    inlet
    {
        type            fixedValue;
        value           nonuniform 0();
    }
    outlet
    {
        type            zeroGradient;
    }
    bottom
    {
        type            slip;
    }
    top
    {
        type            slip;
    }
    obstacle
    {
        type            zeroGradient;
    }
    defaultFaces
    {
        type            empty;
    }
    procBoundary4to3
    {
        type            processor;
        value           nonuniform List<scalar> 6(1.000039005 1.000595618 1.033939699 1.033939699 1.091434956 1.145389579);
    }
    procBoundary4to5
    {
        type            processor;
        value           nonuniform List<scalar> 6(1.178106579 1.154308209 1.112789944 1.053318783 0.9620542588 0.91290609);
    }
    procBoundary4to9
    {
        type            processor;
        value           nonuniform List<scalar> 2(1.168423258 1.129641359);
    }
    procBoundary4to10
    {
        type            processor;
        value           nonuniform List<scalar> 4(0.8792057266 0.8978407779 0.8792057266 0.878933739);
    }
}


// ************************************************************************* //
