/*--------------------------------*- C++ -*----------------------------------*\
  =========                 |
  \\      /  F ield         | OpenFOAM: The Open Source CFD Toolbox
   \\    /   O peration     | Website:  https://openfoam.org
    \\  /    A nd           | Version:  7
     \\/     M anipulation  |
\*---------------------------------------------------------------------------*/
FoamFile
{
    version     2.0;
    format      ascii;
    class       volScalarField;
    location    "3.7";
    object      T;
}
// * * * * * * * * * * * * * * * * * * * * * * * * * * * * * * * * * * * * * //

dimensions      [0 0 0 1 0 0 0];

internalField   nonuniform List<scalar> 
555
(
1.006483302
1.006362156
1.006038245
1.005617644
1.005654824
0.8878565086
0.9157745589
0.9542670213
0.9829272045
1.001567348
1.002307448
1.003684762
1.002637441
1.002629872
1.003613908
1.005232591
1.006231477
1.006758541
1.006808669
1.006791563
1.00674997
0.937150376
0.9755384236
0.988651765
0.9955915706
1.005085118
1.006217372
1.006032493
1.005846682
1.005404983
1.005321396
1.00575237
1.006553769
1.006845028
1.007094969
1.007166071
1.007175456
0.9749683518
0.9946114835
1.001067534
1.001869403
1.00437359
1.005672612
1.006277126
1.00654005
1.006591169
1.006685187
1.006881324
1.00723964
1.007225532
1.007100174
1.007082891
1.007094046
1.001310426
1.004372859
1.006260943
1.006908477
1.006725265
1.006593956
1.006336197
1.006555188
1.00684666
1.007051253
1.00722277
1.007488692
1.007454579
1.007291574
1.007133606
1.00711048
1.005550294
1.006274844
1.007054387
1.007478452
1.007457719
1.007305525
1.006959078
1.006581758
1.00643385
1.006560433
1.00681908
1.007219518
1.007445236
1.00740495
1.00735156
1.007301584
1.005090389
1.005273963
1.005757355
1.006484759
1.007140184
1.007448559
1.007344228
1.007053482
1.006756309
1.006675021
1.006759717
1.007088542
1.007401019
1.007473933
1.007513623
1.007507114
1.006456573
1.005931552
1.005901963
1.0061948
1.006710776
1.007238123
1.007536598
1.007468585
1.007358949
1.007259998
1.007249659
1.007403361
1.007576132
1.00765563
1.007687777
1.007679715
1.0076498
1.007219046
1.006960842
1.007065992
1.007354422
1.007494845
1.0077276
1.007826549
1.007787505
1.007760926
1.007812236
1.007923354
1.00800504
1.008024844
1.008000117
1.007908181
1.008263592
1.008278736
1.008337226
1.008478672
1.008473892
1.008325309
1.008217614
1.008261834
1.008292786
1.008323292
1.008357923
1.008422173
1.008492778
1.008548797
1.008545086
1.008467641
1.008861577
1.009032932
1.009211681
1.009404955
1.009418839
1.00934731
1.009206368
1.009084503
1.009061782
1.009057389
1.00903428
1.009095934
1.009161211
1.00922568
1.009298836
1.009351673
1.009780801
1.009912006
1.010143426
1.010381998
1.010590452
1.01065178
1.010543457
1.010430529
1.010342603
1.010229846
1.01002862
1.00995406
1.009975022
1.010022832
1.010115237
1.010296586
1.011275846
1.011227483
1.011286079
1.011471706
1.011722878
1.011941932
1.011967929
1.011937985
1.011838193
1.011661989
1.011406727
1.011216565
1.0111516
1.011141213
1.011200366
1.011404327
1.012968996
1.012795441
1.012673815
1.012707685
1.012796937
1.012825815
1.012904952
1.013036906
1.013101643
1.013088918
1.01297359
1.012769533
1.01261071
1.012516615
1.012510133
1.012620734
1.014075064
1.013972728
1.013806758
1.013739715
1.013706603
1.013627074
1.013592834
1.013648774
1.013766106
1.013815846
1.013793779
1.013736665
1.013617507
1.013528747
1.013503966
1.013547136
1.01436301
1.014144517
1.014059303
1.014059642
1.014070942
1.014070285
1.014019742
1.013974971
1.014022452
1.014082958
1.014133596
1.014216364
1.014257565
1.014304387
1.014333919
1.014302426
1.015242744
1.014924738
1.014718456
1.014409063
1.014038553
1.013730594
1.013617974
1.013653375
1.013869394
1.014035029
1.014277988
1.014408078
1.014667876
1.014935216
1.015489182
1.01549486
1.015687237
1.015458656
1.015414335
1.01518983
1.014671322
1.014155525
1.013750273
1.01369009
1.013881847
1.014032211
1.01409405
1.013983951
1.014090326
1.014229927
1.014636379
1.014867161
1.015471635
1.015522924
1.015562478
1.015385117
1.014912854
1.014111219
1.013702635
1.013900604
1.013992639
1.014052985
1.013956182
1.013600505
1.013327251
1.013223278
1.013313205
1.013395972
1.013875751
1.01414695
1.014714695
1.014779504
1.014260875
1.013558176
1.013356092
1.013732387
1.013829136
1.013816506
1.013676584
1.013227512
1.012738722
1.012478668
1.012378437
1.012262455
1.012079707
1.01201517
1.012398107
1.012989525
1.013022027
1.012896228
1.012961283
1.013323365
1.013317935
1.01318752
1.012957686
1.012659864
1.012253934
1.01210188
1.012000217
1.011749885
1.010545832
1.010238138
1.010286116
1.010873111
1.011638554
1.012031654
1.012290725
1.012588261
1.012551935
1.012340565
1.012104435
1.011863813
1.011587148
1.011476466
1.011334364
1.010821855
1.009695688
1.009488203
1.009452587
1.009621735
1.01018621
1.010906744
1.011298222
1.011320286
1.01125902
1.011136022
1.011040682
1.01092426
1.010622834
1.010440261
1.010320382
1.00976436
1.009147172
1.008840149
1.008762515
1.00892593
1.009130192
1.009447764
1.009801851
1.009580253
1.009477345
1.009594452
1.009719548
1.009851544
1.009470795
1.009411864
1.009545202
1.010172251
1.009068448
1.008497574
1.008059942
1.008074123
1.00826332
1.008393763
1.008224782
1.007733264
1.007613101
1.007961853
1.008341903
1.008570301
1.008999573
1.009281557
1.009444305
1.009515561
1.008560568
1.008209482
1.007728091
1.007318892
1.007155831
1.00689078
1.006240328
1.005840777
1.006037204
1.006527768
1.00715048
1.007562149
1.00790466
1.008104381
1.008298024
1.008448839
1.007730329
1.007494719
1.00732944
1.006958746
1.005912753
1.005123138
1.004529559
1.00444263
1.004702207
1.005205108
1.00582177
1.006289464
1.006625872
1.006746236
1.006856534
1.007199556
1.006263199
1.00615112
1.006089066
1.005803073
1.005563697
1.004840934
1.004185766
1.003828676
1.00361935
1.003811823
1.004300619
1.004696428
1.00507503
1.005230765
1.005804907
1.005532823
1.004000485
1.003870142
1.003968186
1.004015894
1.003876378
1.003807141
1.003702477
1.003628625
1.003247436
1.002583166
1.002654493
1.003245359
1.003808458
1.0039164
1.003884842
1.003509923
1.002025039
1.001324787
1.001036231
1.001156739
1.001438985
1.001705623
1.001968668
1.002096791
1.002206849
1.002173184
1.001636459
1.001114401
1.001329141
1.001643107
1.001773301
1.001659262
1.001077217
0.9993909396
0.9985017183
0.9982614688
0.9983554635
0.9988288114
0.9991548774
0.9994904942
0.9999353696
1.000441856
1.000579344
1.000363787
0.9995652181
0.9991893345
0.9992703405
0.9993366523
0.999137131
0.9985065042
0.9968186482
0.9962089344
0.9958132775
0.9959096238
0.9963470316
0.9969564538
0.9974897627
0.9978953703
0.998085812
0.9983734378
0.9982977732
0.997842899
0.9968870603
0.9966866569
0.9966538439
0.9964970815
0.9963009981
0.9952557404
0.9948675731
0.9944023046
0.993932173
0.9942326657
0.994521884
0.9946429053
0.9948891
0.9951354375
0.9954839366
0.9958759588
0.9957333431
0.9947183761
0.9940773285
0.9941662092
0.9943113828
0.994443428
0.9934449822
0.9935264683
0.9935448626
0.9930796543
0.9923828596
0.9923205725
0.9921593099
0.9921713563
0.9922412373
0.9924757365
0.9930187133
0.9934759909
0.9932615015
0.9925276242
0.9923326406
0.9925943105
0.9932747613
0.9915883117
0.9920318765
0.9922715503
0.9921678064
0.9911925768
0.9901995608
0.9897944899
0.9896260223
0.9896421683
0.989776455
0.9903686495
0.9910211111
0.991554594
0.9914800753
0.9912233143
0.9914135219
0.9922773733
)
;

boundaryField
{
    inlet
    {
        type            fixedValue;
        value           nonuniform 0();
    }
    outlet
    {
        type            inletOutlet;
        inletValue      uniform 1;
        value           nonuniform List<scalar> 
35
(
1.015382516
1.015155896
1.013786856
1.012496885
1.01180975
1.010665868
1.00948639
1.009772271
1.009430085
1.008413199
1.007335935
1.005718023
1.00363916
1.001123167
0.9985123683
0.9963245061
0.9944223834
0.9932297104
0.9923422341
1.005665543
1.006752322
1.007173433
1.007087111
1.007110922
1.007305354
1.007508215
1.007677874
1.007904705
1.008465193
1.009353563
1.010303025
1.011408173
1.012621612
1.01354844
1.014280828
)
;
    }
    bottom
    {
        type            slip;
    }
    top
    {
        type            slip;
    }
    obstacle
    {
        type            zeroGradient;
    }
    defaultFaces
    {
        type            empty;
    }
    procBoundary11to5
    {
        type            processor;
        value           nonuniform List<scalar> 
17
(
1.005763047
1.005257888
1.004299166
1.004057732
1.004632519
0.8746309796
0.8795601648
0.9022605882
0.9329118347
0.9668559984
0.9811284089
0.9959942525
0.9992430293
1.00175546
1.004357561
1.005771749
1.005771749
)
;
    }
    procBoundary11to10
    {
        type            processor;
        value           nonuniform List<scalar> 
34
(
0.8744397203
0.8963472861
0.9539827736
0.9991560143
1.004728684
1.004187783
1.006721403
1.007733215
1.008020505
1.008653954
1.010050133
1.011555561
1.012966351
1.013897465
1.014608685
1.015621746
1.016012648
1.015458569
1.013922682
1.012438678
1.011049873
1.01002587
1.009684758
1.0096327
1.008872422
1.007823119
1.006552423
1.004401611
1.004401611
1.002702986
1.000146697
0.9973665873
0.995276028
0.9931326893
)
;
    }
    procBoundary11to16
    {
        type            processor;
        value           uniform 0.9912152993;
    }
    procBoundary11to17
    {
        type            processor;
        value           nonuniform List<scalar> 
17
(
0.9903876405
0.9908100809
0.9909510704
0.9909002076
0.9904853963
0.9891218847
0.9881240724
0.987705204
0.9876125883
0.9877506765
0.9884235022
0.9891686705
0.9900547564
0.9904425208
0.9904936788
0.9907487374
0.9918647958
)
;
    }
}


// ************************************************************************* //
