/*--------------------------------*- C++ -*----------------------------------*\
  =========                 |
  \\      /  F ield         | OpenFOAM: The Open Source CFD Toolbox
   \\    /   O peration     | Website:  https://openfoam.org
    \\  /    A nd           | Version:  7
     \\/     M anipulation  |
\*---------------------------------------------------------------------------*/
FoamFile
{
    version     2.0;
    format      ascii;
    class       volScalarField;
    location    "0.4";
    object      p;
}
// * * * * * * * * * * * * * * * * * * * * * * * * * * * * * * * * * * * * * //

dimensions      [1 -1 -2 0 0 0 0];

internalField   nonuniform List<scalar> 
2222
(
0.8899140885
0.8893825156
0.8875300996
0.8852600756
0.9748481899
0.9751946062
0.9732487161
0.9678096793
0.96230279
0.9604074304
0.955390995
0.9450441759
0.9237884897
0.9167091125
0.936577972
0.9307566974
0.9168484422
0.9160799942
0.9206082114
0.9207314722
0.9174414948
0.9101033249
0.9051766147
0.9016320538
0.9024011427
0.9063097752
0.9059802194
0.9043720306
0.9001139876
0.8948090637
0.8928035206
0.892433646
0.8919007751
0.8907355999
0.8899267684
0.8898464409
0.8887779422
0.8865438126
0.9784094059
0.9767916433
0.9747988678
0.9711401212
0.9662750984
0.9624036842
0.9595970824
0.9544979915
0.9439273095
0.9254878779
0.9169905643
0.9405613777
0.9338593319
0.9178592758
0.9163770357
0.920537154
0.9208792367
0.9179938935
0.9104114481
0.9054462462
0.9015890393
0.9020999702
0.9055296748
0.9052518953
0.9038267172
0.9002203144
0.8954149343
0.8925638478
0.8917738093
0.8914072746
0.8906423253
0.8898360865
0.8898045602
0.8889099842
0.8869957789
0.9791101014
0.9769582981
0.9728652945
0.9693113949
0.9669461923
0.9638123887
0.9587173653
0.9521749673
0.9424916544
0.9265693837
0.9182144444
0.941644738
0.9335203612
0.9174414135
0.9157468738
0.9203663369
0.9211639732
0.9185876927
0.91062752
0.9055759549
0.9017114094
0.9021422823
0.9052978662
0.9048003249
0.9033176168
0.900009628
0.8958699461
0.892570192
0.8911757911
0.8905062524
0.8898645394
0.889428444
0.8897602564
0.8886351494
0.886666707
0.97780733
0.973650819
0.9706117901
0.9699458354
0.9685706574
0.9639888657
0.9581611916
0.9500542474
0.9405065894
0.9261548449
0.9183332118
0.9412896149
0.9331328187
0.9168324443
0.9148534945
0.9200054174
0.9212620551
0.9188051525
0.9108879032
0.9054880111
0.9016361863
0.9019992714
0.9053023758
0.9045641515
0.9030906326
0.8998012453
0.8962003528
0.8928684537
0.8907384497
0.8898899748
0.889226149
0.8887617965
0.8887360523
0.8876488237
0.8856630634
0.9721912487
0.9710588349
0.9710483566
0.9720080113
0.9689658182
0.9636914711
0.9569478222
0.9489561274
0.938751187
0.9239951748
0.9177125937
0.9402262431
0.9322806009
0.9161647766
0.9136569795
0.9194660904
0.9211537375
0.9188223138
0.9109469893
0.9053698491
0.9014504148
0.901776581
0.9049771716
0.9047141525
0.9032955731
0.8997311507
0.89658605
0.8929714952
0.8904331697
0.8896685162
0.8889605185
0.8885346368
0.8881436691
0.886810695
0.8848965228
0.9707980449
0.9714437544
0.9735081738
0.9726655561
0.9687156502
0.9621220843
0.9565792397
0.9488617956
0.9381166169
0.9207836379
0.9149736411
0.9371136518
0.9305357911
0.9154772114
0.9124346305
0.9182564478
0.9208717398
0.9186559727
0.910840636
0.9048048819
0.9010658609
0.9008980663
0.9039063445
0.9046417626
0.9033933838
0.900173587
0.8971392001
0.8939124437
0.8914869995
0.8904159703
0.8893183807
0.8885604182
0.8879593945
0.8866255006
0.8847530203
0.9724702917
0.9742808385
0.9748690701
0.9724763348
0.9675465495
0.9609684261
0.9562784024
0.9486790587
0.937593127
0.9181639946
0.9119965514
0.9332090524
0.9291270276
0.914573877
0.9112966822
0.9172958413
0.9196035929
0.9174559781
0.9098734923
0.9038821914
0.900900882
0.8996679726
0.9018652243
0.9043934065
0.9033366919
0.9004937549
0.8977149065
0.8944901215
0.8926421607
0.8917505675
0.8909226981
0.8896491147
0.8881523295
0.8867478363
0.8848406619
0.9767644982
0.9762789254
0.9745877175
0.9713671285
0.9656722694
0.9604914823
0.955619162
0.9476084588
0.9365767582
0.9169036229
0.9114384461
0.9319663705
0.9289084997
0.9143801419
0.9101457954
0.9167415027
0.9187653987
0.9166818942
0.9094343371
0.9034942108
0.9009803884
0.8993381589
0.9005174998
0.9026245263
0.9026491821
0.9005383897
0.8980591692
0.8949993356
0.8932896783
0.892616023
0.892135582
0.8912239166
0.8895912043
0.8876900693
0.8853771997
0.9779804195
0.9762773572
0.9736625999
0.9694798075
0.9647350589
0.9598238519
0.9544325857
0.9458569199
0.9353929497
0.9168476197
0.911501921
0.9320406225
0.9289916328
0.9138192927
0.9103486766
0.9163351839
0.9185750756
0.9166540644
0.9096319206
0.9036553477
0.9012260071
0.8998255972
0.9004589185
0.9009838937
0.9004527314
0.9000222915
0.8980768761
0.8951705755
0.8935094993
0.893049313
0.8928964562
0.8921206962
0.8907520684
0.8888153602
0.978539606
0.9777976414
0.9751207227
0.9720541092
0.9689039247
0.9645571879
0.95939202
0.9533266515
0.9442048584
0.9346953594
0.9174006695
0.9119628349
0.9327771229
0.9293351889
0.9132845786
0.9103735815
0.9159450336
0.9186935178
0.9169383223
0.9101811085
0.9039722165
0.9014009837
0.900705265
0.90082333
0.9007601101
0.8988578956
0.8978686744
0.8969982861
0.894998283
0.8934287263
0.8932033861
0.8931736046
0.8924197547
0.8911747789
0.8893730765
0.9769900802
0.9758656805
0.9733947421
0.9719008876
0.9691122169
0.9646051744
0.9587920072
0.9512820486
0.9430822546
0.9343759011
0.9174348277
0.9132456545
0.9329679044
0.9300667716
0.9131876494
0.9102161694
0.9149611796
0.9186518443
0.917075414
0.9104265837
0.903937967
0.901482831
0.9008717554
0.9014836512
0.9011682014
0.898443168
0.8960119904
0.8941461288
0.8931294925
0.8925713381
0.8929046631
0.893107579
0.8925424784
0.8914341841
0.8897281885
0.9740762126
0.9743752126
0.9736838175
0.9725108845
0.9694857742
0.9643072992
0.9571546507
0.9491695826
0.9419935189
0.9339041355
0.9173796813
0.9134756654
0.9340731067
0.9322961917
0.9143891806
0.9095373978
0.913202329
0.9181543764
0.9168190437
0.9100299853
0.9026354781
0.9006886415
0.9008449171
0.9015600572
0.9017112834
0.8990584232
0.8955556473
0.8921278089
0.8904817241
0.8902612313
0.8912463387
0.8925502853
0.8922046214
0.8911009641
0.8892893649
0.9740951161
0.9747104684
0.9744040174
0.9730917625
0.9694179505
0.9633173386
0.9554409058
0.9473367716
0.940074731
0.9329612991
0.9170387626
0.9133979471
0.9346690947
0.9343189481
0.9156520618
0.9091173552
0.9116888324
0.9166039722
0.9153101905
0.9087762415
0.9017544543
0.898830752
0.8993318918
0.9014909184
0.901851406
0.8991255736
0.8951964855
0.8915858568
0.8892603004
0.8888253622
0.8891812067
0.8904600664
0.8904394475
0.8895208666
0.8881670213
0.975481353
0.9762018331
0.9758064057
0.9730701102
0.968521906
0.961883473
0.9546535127
0.9463217746
0.9381159659
0.9317528136
0.9170210073
0.9128932143
0.9337782284
0.9347835955
0.9167179458
0.9092371894
0.9105635521
0.9156959054
0.9145007257
0.9083057861
0.9019221328
0.8980962923
0.8972569966
0.9000420257
0.9011397577
0.8991291615
0.896092182
0.8918677136
0.8890970016
0.8885575758
0.8886084455
0.8891803775
0.8890594613
0.8882670415
0.8872489558
0.9779838082
0.9776208799
0.9760898298
0.9730135555
0.9670237663
0.9610564764
0.9549102329
0.9458956091
0.9368127819
0.9308707447
0.917197955
0.9117448721
0.9315096893
0.935239715
0.918330283
0.9088534042
0.9095061868
0.9151194261
0.9142610275
0.9084850781
0.9024872847
0.8983976694
0.8964554178
0.8981149561
0.8998020047
0.899112097
0.8966560159
0.8927557736
0.8898404416
0.8888865067
0.8888042335
0.8888864377
0.8884745552
0.8878026215
0.8869277958
0.9786817152
0.9779371678
0.9759471152
0.9720645876
0.9658341951
0.9605168615
0.9552005478
0.9448921993
0.936540129
0.9305039421
0.9175990736
0.9113263322
0.929207167
0.9355212534
0.9199026877
0.9078299074
0.9084049491
0.9142135901
0.9140215324
0.9089757036
0.9033597145
0.899666199
0.8967716999
0.8973771325
0.8980398671
0.8982982212
0.8969753651
0.8934760179
0.8900244444
0.8891713885
0.888900109
0.8889766592
0.8886802162
0.8878063265
0.8868621812
0.9745339487
0.9781241499
0.9768684636
0.9747596592
0.9709573885
0.9657906739
0.9596452992
0.9540263347
0.9432248636
0.9367441464
0.9303901362
0.9184541277
0.911301619
0.9284001294
0.9354088345
0.9226197655
0.9064865453
0.90637503
0.9123301003
0.9128045451
0.9090926243
0.9039243703
0.9006732738
0.8980615682
0.8974590875
0.8973841408
0.8974671725
0.8967380166
0.8937747369
0.8910150377
0.8899519774
0.8897549977
0.8896558458
0.889082464
0.88777263
0.8867038875
0.9729494894
0.9760788031
0.9753012746
0.9740315872
0.9709756905
0.966087019
0.9587169916
0.9513832665
0.9414050001
0.9364169165
0.9301936075
0.9186657566
0.9116682736
0.9280362767
0.9356252574
0.9236708093
0.9050106301
0.9040506937
0.91001724
0.9112852171
0.9085469183
0.9043603273
0.9012127887
0.8989718476
0.8979966288
0.897327899
0.8970850926
0.8962066728
0.8940201594
0.8917533078
0.890741694
0.89046177
0.8901051634
0.8890241575
0.8873431443
0.8863781418
0.9724027694
0.9754452203
0.9750742333
0.9738956923
0.9709783938
0.9660675875
0.9579358415
0.9482627157
0.9384595612
0.9346217372
0.9297535785
0.9190969171
0.9126045149
0.9282027054
0.9360505267
0.924062859
0.9042849908
0.9021685678
0.9080432842
0.9096129164
0.9068995087
0.9033381971
0.9014755925
0.8995204216
0.8982186392
0.8973893017
0.8970691864
0.8962350962
0.8943755251
0.8923910369
0.8915202341
0.8909170305
0.8901677283
0.888425525
0.8867163517
0.8859865944
0.9728657216
0.975692008
0.975313029
0.9738105656
0.9704988209
0.965116865
0.9569269975
0.9469329142
0.9364785062
0.9319352254
0.9287046916
0.9191906439
0.9136842817
0.9288785851
0.9366664016
0.9240506294
0.9049075545
0.9004353851
0.9059007483
0.9078471531
0.9050573046
0.9016637658
0.9002321449
0.8991209492
0.8973299634
0.896811396
0.8969106647
0.8961720254
0.8943675789
0.8929067027
0.8920960642
0.8912559905
0.8899409206
0.8879348156
0.8862640674
0.8856990136
0.9741558074
0.976866467
0.9759959856
0.9739316385
0.9694136041
0.963072261
0.9561330623
0.9467093583
0.9353434058
0.9296426216
0.9271191119
0.9187251277
0.9146127694
0.9292519632
0.9373298701
0.9246938842
0.9044197791
0.898274578
0.9030116918
0.907290735
0.9042956038
0.9015032563
0.8989795552
0.8973660392
0.8950829772
0.8946189699
0.8948518408
0.8937987292
0.8924051661
0.8918293755
0.8915295749
0.8909407732
0.8894939172
0.8877168178
0.8860315286
0.8855584495
0.9751097192
0.977837143
0.9765432062
0.9737716731
0.9676117687
0.9612184375
0.955506503
0.9463161172
0.9346575149
0.928250102
0.9253535235
0.9185147128
0.9146502765
0.928223497
0.9377603334
0.9259501455
0.9030225956
0.8939880977
0.8982403574
0.9069473244
0.9049026545
0.9024379206
0.8989861142
0.8966339906
0.893989284
0.892877715
0.8925833726
0.8911295869
0.8895904033
0.8892151108
0.8892657398
0.8891949477
0.888350961
0.8872560616
0.8857449456
0.8854198545
0.9748961874
0.9775825963
0.9759784531
0.9725699961
0.9660794437
0.9604210209
0.9543693104
0.9446120129
0.9337483903
0.9275338547
0.9239751975
0.9181537564
0.9138085873
0.9272689087
0.9373213563
0.9262422063
0.9004432365
0.8892283285
0.8940888145
0.9063093731
0.9060091217
0.9036858989
0.8995824362
0.8971025114
0.8944219472
0.892533406
0.8917096752
0.8900982797
0.888380094
0.8877140418
0.8873765444
0.8870631134
0.8864013716
0.8859336061
0.8851668183
0.9752810538
0.9732634554
0.9756065301
0.9745070097
0.971011651
0.9657091252
0.9602273682
0.953041265
0.9417658878
0.9327274447
0.9273258592
0.9236879442
0.918587417
0.9127943346
0.9265413491
0.9356615133
0.9236527663
0.8951927738
0.8854713009
0.8913370514
0.9047895527
0.9068851404
0.9046938193
0.900493567
0.8984754763
0.8956802145
0.8929500839
0.8918882424
0.8903413255
0.8885273282
0.8876535011
0.8868530609
0.8859596372
0.8849634634
0.8845807855
0.8843560935
0.9738641594
0.9724407821
0.9743732919
0.9738973683
0.970863734
0.9661959653
0.9600696237
0.9511294024
0.9389491943
0.9320093501
0.9272311813
0.9236553203
0.919165296
0.9121902396
0.9239093773
0.933750143
0.9211845265
0.8909531128
0.8838614576
0.8900252477
0.9031132612
0.9067491384
0.9048523563
0.901014543
0.8992693097
0.8962509039
0.8933174442
0.8924152197
0.8911698121
0.8894141269
0.8883047442
0.8872218173
0.8857238306
0.8842497329
0.8839559739
0.883875145
0.9749383556
0.9734054229
0.9748212483
0.9741748074
0.9710190404
0.9661710973
0.9590536309
0.9487795901
0.9370866556
0.9315143094
0.9271429276
0.9231125882
0.9194409454
0.9126068256
0.9204996373
0.9281138351
0.9146259708
0.8884194684
0.8843645911
0.8903560639
0.902336899
0.9057773909
0.9037480466
0.8997727654
0.8984876142
0.8957363188
0.8934212564
0.8930106715
0.8920659094
0.8904590708
0.8892065568
0.8878548
0.8858809092
0.884001644
0.8836603381
0.8837043763
0.9764008492
0.9747760564
0.9760517817
0.974883968
0.970849349
0.9645997438
0.9567427643
0.9471525723
0.9358805772
0.9309731666
0.9270196352
0.9221170858
0.9194864056
0.9132933175
0.9170979814
0.9202571213
0.9081768445
0.887310366
0.8852374529
0.890796911
0.902535403
0.9054276313
0.9029692904
0.8982754318
0.8964364372
0.8940441613
0.8932061061
0.8933896356
0.8927619348
0.8912996572
0.8899207663
0.888370001
0.8859690311
0.8837397111
0.8833160947
0.8835078104
0.9772007075
0.9755364633
0.9767449261
0.9749396465
0.9697339941
0.9620231576
0.9547261585
0.9461061015
0.9344636576
0.9301090133
0.9267500972
0.9213124189
0.9195069517
0.9135940737
0.9153709301
0.9153576774
0.9056194229
0.8871017624
0.8858555519
0.8917974364
0.9037320414
0.9059687429
0.9029824543
0.8973884578
0.8940306036
0.891905293
0.8921771688
0.8929460135
0.8928166997
0.8916716982
0.890258757
0.8885893161
0.88591405
0.883382759
0.8828506072
0.883111407
0.9766069737
0.9748507612
0.9755875683
0.9731249602
0.967553416
0.9605470853
0.9536064464
0.9447521628
0.9324538141
0.9293645229
0.9266506835
0.9212074193
0.9197869918
0.9136807746
0.9146496123
0.9136076944
0.9047476335
0.8872694591
0.8862938032
0.8932651065
0.9054279147
0.9071879342
0.9037344211
0.8972767564
0.891972953
0.8899733495
0.8904084446
0.8914494826
0.8919921019
0.8913091187
0.8900250727
0.8884081142
0.8856811212
0.8830463165
0.882296695
0.8825268748
0.974429844
0.9746357183
0.9731798977
0.9733081679
0.9709038808
0.9662199556
0.9601017335
0.9525528504
0.9425971698
0.9305930906
0.9291567325
0.9268426051
0.921668897
0.9203537882
0.913993039
0.9143576523
0.912947284
0.9046929164
0.8874637064
0.8863372257
0.8939862541
0.9067592178
0.9086286066
0.9048279031
0.8976687162
0.8908980604
0.8883042391
0.8885811713
0.8893828048
0.890314308
0.8902686181
0.8891440698
0.8876247665
0.8850900374
0.8826435224
0.8817204236
0.8817951645
0.973858529
0.9741359362
0.9728688372
0.9724989664
0.970675172
0.9666174909
0.9603097016
0.9512902957
0.9399367685
0.930123965
0.9296023176
0.927355086
0.9222107105
0.9210787628
0.9144443929
0.914398865
0.913173444
0.904924721
0.8891498023
0.887560754
0.8945534495
0.9076472427
0.909324424
0.9055127906
0.8980880501
0.8909056669
0.8874418455
0.8875800836
0.8881386937
0.8889988945
0.8891076447
0.8880017666
0.8864589724
0.8842020803
0.8820821642
0.8811808264
0.8811823675
0.9749812045
0.9752606119
0.9737299854
0.9729752057
0.9710562059
0.9670126885
0.9600618701
0.9494927673
0.9378347297
0.9301601908
0.9299761651
0.9275790318
0.922529147
0.9216143034
0.9151266444
0.9150367383
0.9138756651
0.9061012315
0.8929981395
0.8908653051
0.8972273653
0.9081903724
0.9088499239
0.9052219675
0.8982105697
0.8911139657
0.8872036685
0.8872837129
0.8879265218
0.8886223288
0.8885058754
0.8873052903
0.8855091418
0.8832565527
0.8814716947
0.8807489725
0.8807502099
0.9762053514
0.9763744489
0.9745051982
0.9734952477
0.9710451077
0.9658663563
0.9575809944
0.946711026
0.9369463969
0.9298940934
0.9297942047
0.9273107446
0.9225319294
0.9218084638
0.9158026872
0.9157182514
0.9157387527
0.9090032471
0.8989574447
0.8974960867
0.9015576083
0.9081560095
0.9078726017
0.904305491
0.8983152897
0.8918295173
0.8878656866
0.8878678908
0.8884381317
0.8888061864
0.8885400162
0.8871487072
0.8851428896
0.8827675711
0.8810072422
0.8804181363
0.880455417
0.9765498151
0.9765602039
0.9742435162
0.9729483949
0.9700741464
0.9634502813
0.9546249858
0.9451966996
0.9367104289
0.929435413
0.9292235138
0.9266403248
0.9219492718
0.9210928725
0.9157235057
0.9158907027
0.9181622201
0.9126982824
0.9072418393
0.9043498078
0.9040814767
0.90798301
0.9070609849
0.9035195036
0.898500097
0.8930135196
0.8887920526
0.8887433603
0.8892053199
0.8893796252
0.8891624007
0.887472841
0.88512347
0.8825305878
0.8805582225
0.879950102
0.8800415915
0.975798192
0.9755841885
0.9726694893
0.9711183535
0.9677015096
0.9605536245
0.9531168158
0.9449060076
0.9355597533
0.9288119319
0.9284784107
0.9260447838
0.9214288938
0.9199708923
0.9151452909
0.9159009493
0.9203987013
0.9177037445
0.9141920363
0.908611256
0.9061282663
0.9081663417
0.9070189388
0.9035902609
0.8989497711
0.8938144382
0.8908467111
0.8908738043
0.8913536487
0.8909384289
0.8898261461
0.8880817962
0.8852921317
0.8824915251
0.8802098216
0.8792772297
0.8793883755
0.9744960158
0.9741648637
0.9710176172
0.969405224
0.9661831752
0.9600285276
0.9525965392
0.9439124301
0.9337277442
0.9285780988
0.9285610524
0.9264081208
0.9216862489
0.9198131965
0.9155247162
0.9163755703
0.9222985026
0.9226930669
0.9168187885
0.9096092948
0.9076635749
0.9086884047
0.9075102103
0.904165036
0.8993728782
0.8936968836
0.8913584928
0.8913730576
0.8918396517
0.8914272626
0.8905149283
0.8885052139
0.885457036
0.8823726416
0.8796586956
0.8782698847
0.8784097972
0.9751593591
0.974398104
0.9739357777
0.9707477357
0.9696373968
0.9663430594
0.9602879505
0.9518381552
0.9413683727
0.9318323204
0.9292422887
0.9294383523
0.9273920862
0.9225351642
0.9204592884
0.916051894
0.9170028466
0.9239029723
0.9262302085
0.9185779238
0.9098353983
0.908596835
0.9088924544
0.9075826376
0.9042537299
0.8990372151
0.8932676668
0.8913018754
0.8913648629
0.8918270629
0.8916027172
0.8906449246
0.8883313151
0.8852569006
0.88215984
0.8789890746
0.8773254411
0.9761773633
0.9752885548
0.9746794328
0.971296775
0.9702097899
0.9668821105
0.9601448728
0.9504547232
0.938765832
0.9314142789
0.9304959226
0.9308217916
0.9284553285
0.9231928378
0.9215227121
0.9174872958
0.9185058436
0.9265430955
0.9269175589
0.9177939446
0.9085008331
0.9081036976
0.908105718
0.9065894125
0.9029748437
0.8972406676
0.8920894128
0.8907805352
0.8911099244
0.891414905
0.8910626655
0.8899230832
0.8876647464
0.8849599142
0.8817936192
0.8785632103
0.8770639679
0.9775845129
0.9765645881
0.975676654
0.9717088237
0.9702797312
0.9665833625
0.9595264236
0.948520004
0.9376943345
0.9311870139
0.9308936969
0.931190557
0.9282064771
0.922805772
0.9211265827
0.9185839046
0.9202719166
0.927967706
0.9269284338
0.9169755589
0.9067264916
0.9063817487
0.9060475927
0.9043959722
0.9004267317
0.8948447408
0.8905404989
0.8896013385
0.8904294492
0.8909779573
0.8906827264
0.8893087185
0.8868205308
0.8845126409
0.8820556339
0.8778052157
0.8768871459
0.9780571677
0.9767881679
0.9755133671
0.9711039461
0.9694389378
0.9653730438
0.9578545701
0.948425035
0.9376943132
0.9306963448
0.9303519355
0.9303194657
0.9270650233
0.921630478
0.9195834784
0.9181571792
0.9202125731
0.9275200091
0.9262388799
0.9155329754
0.9048100183
0.9043781688
0.9038888673
0.9021649074
0.8985730598
0.8931753257
0.889216387
0.8884998292
0.8897158554
0.8905334626
0.8902344489
0.8886914949
0.8860241913
0.8839962562
0.8819399572
0.8782595011
0.8776473021
0.9772999536
0.9759541593
0.9743036303
0.9691198916
0.9670428742
0.9627870825
0.956082319
0.947773865
0.9379655574
0.930121729
0.9294402011
0.9290743068
0.9257786172
0.920579368
0.9173147176
0.9160107941
0.9186195499
0.926051112
0.9241134558
0.9116255623
0.9019479972
0.9013626821
0.9022557666
0.9010862396
0.8973686688
0.8918934349
0.888024111
0.8875457035
0.8889558205
0.8903846425
0.8901415162
0.888236901
0.8851883476
0.8834907745
0.8817204955
0.8782689129
0.8776225074
0.9767428116
0.9745543921
0.9725823037
0.9673621371
0.9655722496
0.9611309261
0.9544509663
0.9474827194
0.9376688906
0.9300263837
0.9291831019
0.928678459
0.9253486817
0.9200981992
0.9156653823
0.913878988
0.9154585039
0.9213590298
0.9200362992
0.9111699506
0.9022467206
0.9012583506
0.9026618221
0.9013348582
0.8970248745
0.89113508
0.887108194
0.8868829148
0.8884596029
0.8901458256
0.8899934038
0.888248286
0.8852039034
0.8834785399
0.8817711924
0.8786974302
0.8775218989
0.9775540469
0.9760669162
0.9743915609
0.9721999008
0.9674605906
0.9650823315
0.9600195107
0.9535945151
0.9463136039
0.936495748
0.9303642158
0.92947906
0.9290491289
0.9260502205
0.9210331165
0.9150507038
0.9123632732
0.9133094415
0.9189572827
0.9180424715
0.910201445
0.9024069383
0.9017644106
0.9035816701
0.902451905
0.8983824249
0.8916774546
0.8875293697
0.887462591
0.8884534805
0.889625656
0.889579394
0.8879783884
0.8853719172
0.8836394044
0.8821618899
0.8793377425
0.8775810929
0.9781856616
0.9766871065
0.9749743142
0.9726482315
0.968505101
0.9653062086
0.9597181469
0.9522766226
0.944002631
0.9348363266
0.9310414796
0.9307857488
0.9301047672
0.9270555114
0.9220041699
0.9153330667
0.9130351183
0.9127378029
0.9180287651
0.9169634034
0.9094756488
0.9031753169
0.9030694909
0.9048317035
0.9033018165
0.8998054785
0.8935337496
0.8885921802
0.8882810602
0.8887396701
0.8891386186
0.8889987758
0.8873950195
0.8853559273
0.8839654152
0.8826382911
0.8799814782
0.8778033531
0.9794162119
0.9776317973
0.9757128685
0.9731217103
0.9686483509
0.9651230539
0.9591114221
0.9507704633
0.941576787
0.9335846994
0.9321917724
0.932523438
0.930601675
0.9273036815
0.9222347023
0.9159283787
0.9147124985
0.9131729377
0.917438474
0.9160407139
0.9080892068
0.9022919885
0.9026212902
0.9047813036
0.9035598399
0.9007103886
0.8953291015
0.8901186828
0.8896067001
0.8892916132
0.8887610479
0.888011363
0.8864594864
0.8850790042
0.8842015898
0.8829107216
0.8802713126
0.8780867423
0.979330056
0.9771801171
0.9750249772
0.972293925
0.9674368151
0.9640289595
0.9578567144
0.9490273737
0.9393894526
0.932954166
0.932362485
0.9323088842
0.9296738608
0.9262153001
0.9216837266
0.9168508039
0.9158368752
0.914673935
0.9174687634
0.9153098884
0.9062629536
0.9005964263
0.9011011918
0.9037433604
0.9026003066
0.9004344985
0.8959581254
0.8912881139
0.8908453877
0.8899870541
0.8884747417
0.8866397883
0.8851282327
0.8846392872
0.8844597954
0.883215808
0.8805068864
0.8784122133
0.9786580924
0.9762990407
0.9738318428
0.9707797141
0.9656797412
0.9619961481
0.9558606714
0.947562072
0.9385755572
0.9323291793
0.9317878481
0.9310570941
0.9282094867
0.9245602407
0.9204047938
0.9169512757
0.9152822654
0.9142983071
0.9160527481
0.9136542237
0.9044031918
0.8988923457
0.8990135
0.9014212186
0.9009429318
0.8995556893
0.8962514675
0.8924425261
0.8918644716
0.8907496634
0.8888064368
0.88561757
0.8842130151
0.8840076403
0.8842281608
0.8832240561
0.8806152535
0.8785257877
0.9779682309
0.9755646243
0.9728496821
0.9694735434
0.9641896085
0.9602299187
0.9543135855
0.9467993577
0.938910754
0.9323845637
0.9316110954
0.9302723513
0.9273974967
0.9234994777
0.9194033779
0.9167206384
0.9139613493
0.9122438501
0.9132643308
0.911060601
0.9023895381
0.8969909278
0.8962573556
0.8985888429
0.8990497094
0.8981656421
0.8956362469
0.8925144597
0.8921454607
0.8911116654
0.8891124733
0.8853430332
0.8841125173
0.8837569616
0.8840485975
0.883309492
0.880836062
0.8786258862
0.977495518
0.9752133357
0.9724389514
0.9688260245
0.963520044
0.9594341051
0.9536645905
0.9469674964
0.9397731257
0.932847291
0.9320781383
0.9304165594
0.9276334487
0.9237030988
0.9193779928
0.9165044269
0.9127820274
0.9102751479
0.9104716367
0.9080803785
0.8998779919
0.8953420296
0.8939318832
0.8954875253
0.8974108023
0.896936211
0.8944842881
0.8919655799
0.8918317256
0.890965952
0.88892616
0.8854736426
0.8840963764
0.8837315343
0.8844309386
0.8840516617
0.8817020166
0.979175232
0.9779152255
0.9757104714
0.9727418272
0.9689425254
0.963227377
0.9589379101
0.9531929378
0.9467186037
0.9392145333
0.9326463547
0.9321061946
0.930500979
0.9280555476
0.9243438221
0.9198770869
0.9165425178
0.9124607378
0.9087039086
0.9077453177
0.9053534108
0.8974891008
0.8942188012
0.8921346817
0.8929353718
0.8944070331
0.8941990612
0.8925884841
0.8911193441
0.8911592397
0.8903428194
0.8882456694
0.8852525397
0.8841802692
0.8839138618
0.8848861389
0.8848731351
0.8827250562
0.9802082832
0.978651166
0.9761806134
0.9728907076
0.9687239012
0.9625064429
0.958279278
0.9524399164
0.9451080329
0.9378192962
0.9322768935
0.9320572825
0.9309091914
0.9280105061
0.9244056822
0.9200710271
0.9171218121
0.9131602768
0.9080878041
0.9066340094
0.9040737904
0.8969356164
0.8939773197
0.8915749272
0.891170348
0.8932236088
0.8931688282
0.8914589133
0.8899640159
0.8897861305
0.88856443
0.886573784
0.8849261589
0.8842896434
0.8842431293
0.8853300272
0.885416598
0.8834608379
0.9800601686
0.9783356313
0.9756129171
0.9719593758
0.9675183522
0.9602979645
0.9554217076
0.9499327434
0.9430336032
0.9357971768
0.9328793288
0.9327020323
0.930094416
0.9267480349
0.923838075
0.9200878565
0.917425309
0.9141703212
0.90925788
0.9067641071
0.9043187979
0.8973799573
0.8944043391
0.8918293438
0.8907330803
0.8922875535
0.892491118
0.8915457449
0.8900161949
0.8892624265
0.8871949135
0.8847338873
0.8847388755
0.8844059084
0.8844837916
0.8856607875
0.8857504142
0.8840690491
0.9796697343
0.9772789951
0.9737751106
0.9698257507
0.9654263904
0.9581373357
0.9536347976
0.9486943301
0.9419407699
0.935591064
0.9326433632
0.9317288294
0.9291050502
0.9244814547
0.921855481
0.9194147852
0.9176227908
0.9145476597
0.9099324395
0.9080702157
0.9055774001
0.8989657873
0.8956102583
0.8927758548
0.8912218748
0.8918512779
0.8920809197
0.8924058533
0.8909706808
0.8894396592
0.8865188251
0.8839069571
0.8843774964
0.8845789967
0.884885391
0.8861430525
0.8862458919
0.8847178457
0.978551826
0.9759789861
0.9725849114
0.9687954344
0.9646102051
0.9571234613
0.9533416958
0.9490446563
0.9423942688
0.9363034092
0.9333285936
0.9318060488
0.9287621762
0.9232568135
0.9206143512
0.9185839434
0.9167323139
0.913956106
0.9100313127
0.9091172962
0.9073557192
0.901643379
0.8979667127
0.8944324827
0.8923322949
0.8926769784
0.8928457864
0.8933589836
0.8919177379
0.8899238625
0.8863215415
0.8836840157
0.8838400549
0.8844455616
0.8851198185
0.8865140963
0.886399347
0.8846982821
0.9776166264
0.9752383235
0.9721441572
0.9684531611
0.964148035
0.9560895139
0.9536348262
0.9498241722
0.9432871651
0.9369442586
0.9338819134
0.9322126975
0.9290626235
0.9230024709
0.9201172772
0.9182314116
0.9158500457
0.911961703
0.908458598
0.9089093622
0.9093517388
0.9048162562
0.9008365883
0.8967901815
0.8940728457
0.8943268057
0.8946587987
0.89417726
0.8925513525
0.8900525237
0.886158477
0.8834965868
0.8835771254
0.8844314001
0.8855137264
0.8871113124
0.8866343313
0.8847543814
0.9787264815
0.9774007541
0.9751922463
0.9721706463
0.9679357275
0.9627899442
0.9541394229
0.9529552899
0.9493976248
0.9430799482
0.9366308787
0.9335314664
0.9318048766
0.9287075324
0.9225515097
0.9193776006
0.9180026929
0.9156194385
0.9104376082
0.9075960891
0.9087171245
0.9107506958
0.9089160326
0.9039916882
0.8984665041
0.8965220661
0.8964792108
0.8967737031
0.8950602827
0.8926730655
0.8899131854
0.8854838155
0.8831176303
0.8833311764
0.8845610493
0.8860952849
0.8876721051
0.8870817264
0.8849147929
0.9800522097
0.9785019815
0.9761151898
0.9723842011
0.9674384499
0.9614193439
0.9533696754
0.9521283776
0.9486503983
0.9420425717
0.9351873831
0.9327209684
0.9309676399
0.9280987787
0.9225807151
0.9197948441
0.9184672379
0.9155157916
0.908527299
0.9067958295
0.9088235984
0.912282921
0.910978544
0.9047248464
0.8988267942
0.8983655273
0.898402571
0.898071751
0.8957027687
0.892516538
0.889097531
0.8847132216
0.8834325628
0.8837184282
0.8850118243
0.8869453655
0.888355178
0.8874875137
0.8849507972
0.9816717419
0.9793354781
0.9759075693
0.9714517795
0.9660497429
0.9596083929
0.9518177382
0.9511466962
0.947277573
0.9397439951
0.9327639683
0.9319248783
0.9307576008
0.9280305752
0.9221017225
0.9200104709
0.9185912225
0.9153961658
0.9085859725
0.9062664293
0.9088742218
0.9135310373
0.9121834589
0.904756897
0.8982523063
0.8982292777
0.8986685606
0.8980995925
0.8956088536
0.8921113844
0.8880498066
0.8841119154
0.8839094469
0.8841603846
0.8855696452
0.8879273909
0.8890612107
0.8879321597
0.8848941417
0.9803591503
0.9771736486
0.9722115426
0.9682457839
0.9631382507
0.9565353761
0.9493686111
0.9495000232
0.9453655233
0.9383602384
0.9328777847
0.9322459129
0.9309607904
0.9271757093
0.9201337808
0.9191063449
0.9180601021
0.9151012807
0.9083111059
0.9061473137
0.9095364636
0.9144558597
0.9125091175
0.9042443135
0.8971466373
0.8968665452
0.8977605199
0.8973895096
0.8949627646
0.8909198286
0.8868988872
0.883182089
0.8835338482
0.8838216012
0.885496038
0.8881942959
0.8892863945
0.8884140523
0.8855776366
0.9769491398
0.9741826965
0.9710519916
0.9680587573
0.962907335
0.9559546999
0.94928894
0.9490512688
0.9450055079
0.938445782
0.9336147479
0.9328753472
0.9305731041
0.9252145755
0.9190712298
0.9191074429
0.9181339745
0.9151619795
0.9079777892
0.9063949295
0.9104502572
0.9146394575
0.9120262223
0.9030116568
0.8956585403
0.8956103535
0.897126805
0.8971007857
0.8948567265
0.890187425
0.8852803362
0.8826182887
0.8830341644
0.884380915
0.8863793289
0.8886231986
0.8899402897
0.8888760838
0.8862157304
0.9768493075
0.9742608527
0.971519155
0.9684927435
0.9627880234
0.9559872611
0.9504413996
0.9500756031
0.9451649415
0.9385628823
0.9338106213
0.9327082368
0.9288969209
0.9232576527
0.9187005496
0.9190841726
0.9177177864
0.9145609806
0.907154312
0.9065370359
0.9107878964
0.9139400524
0.9096205674
0.8989343285
)
;

boundaryField
{
    inlet
    {
        type            fixedValue;
        value           nonuniform 0();
    }
    outlet
    {
        type            zeroGradient;
    }
    bottom
    {
        type            slip;
    }
    top
    {
        type            slip;
    }
    obstacle
    {
        type            zeroGradient;
    }
    defaultFaces
    {
        type            empty;
    }
    procBoundary16to10
    {
        type            processor;
        value           nonuniform List<scalar> 
35
(
0.889381835
0.8886047355
0.8869520533
0.8851630301
0.9681881765
0.9734422484
0.9737933105
0.9703932675
0.9634172662
0.9601316624
0.9555313128
0.9455292386
0.9237284292