/*--------------------------------*- C++ -*----------------------------------*\
  =========                 |
  \\      /  F ield         | OpenFOAM: The Open Source CFD Toolbox
   \\    /   O peration     | Website:  https://openfoam.org
    \\  /    A nd           | Version:  7
     \\/     M anipulation  |
\*---------------------------------------------------------------------------*/
FoamFile
{
    version     2.0;
    format      ascii;
    class       volScalarField;
    location    "0.2";
    object      p;
}
// * * * * * * * * * * * * * * * * * * * * * * * * * * * * * * * * * * * * * //

dimensions      [1 -1 -2 0 0 0 0];

internalField   nonuniform List<scalar> 
2222
(
0.8783904168
0.8467698337
0.8386489334
0.8468372513
0.8355282947
0.822836152
0.8286590813
0.8419492991
0.8542106431
0.8625552391
0.8679494921
0.8714262616
0.8664831945
0.8605355809
0.8571372842
0.8627289369
0.8677393462
0.8823936565
0.3301787991
0.4815363551
0.8095311822
0.9135105909
0.9132150457
0.8820829123
0.8456810928
0.8432360122
0.8419866583
0.8283259716
0.8252215121
0.8329333743
0.8392815001
0.8483366884
0.8545590837
0.8599817588
0.8662388302
0.865443714
0.8645374037
0.8609699674
0.8637480381
0.8668815662
0.8798049593
0.287693172
0.3434006678
0.643003465
0.8767276725
0.8951962434
0.8690263679
0.8489179617
0.8537047346
0.8379308355
0.8274225832
0.8359974364
0.8386908114
0.8389856201
0.8417491006
0.8489072905
0.8577810766
0.865911651
0.8680423249
0.8668468674
0.8624330744
0.8641100007
0.8658637772
0.8750253612
0.2811487907
0.2825463777
0.4575633884
0.7435619766
0.8540691053
0.8640659658
0.865407675
0.8599446416
0.8364969068
0.8354158582
0.845254361
0.8399968062
0.8324183218
0.8370924996
0.8473111101
0.8612698348
0.8705390243
0.871535471
0.8681653453
0.8636889617
0.860557021
0.8620667665
0.8697347897
0.2790198302
0.2790235515
0.3163839037
0.609452774
0.818802481
0.8827212055
0.8821905121
0.8662973487
0.8409990131
0.8469137277
0.8442188902
0.8326783562
0.8279654805
0.8347423823
0.8493612302
0.8663691341
0.8732915659
0.8733094483
0.867623945
0.8611151997
0.8569946046
0.8598312365
0.8681016043
0.2782350534
0.2797697717
0.2772569699
0.4343916427
0.7828073834
0.8935980587
0.8909691449
0.8557323023
0.8475912822
0.850321427
0.8379458904
0.8246577935
0.8256522267
0.8365285516
0.8513169763
0.867699348
0.873976622
0.8723491741
0.8636051848
0.8582857219
0.8557787071
0.8603508017
0.8687345398
0.885796163
0.2781354966
0.279979961
0.2759546349
0.2927287228
0.60529955
0.8698062548
0.891037927
0.8556281275
0.8622024437
0.8502370729
0.8281705141
0.8230300343
0.8322223162
0.838735588
0.8518832512
0.8638740876
0.8667495628
0.8656722387
0.8615198738
0.8584860819
0.8570420264
0.8622761395
0.8683877949
0.8821970142
0.2783232494
0.2795719246
0.277973885
0.2733448204
0.3753602414
0.719754912
0.8572536339
0.8597976303
0.8673535676
0.8397732369
0.8282204533
0.8324347118
0.8368167349
0.8413325897
0.8480473046
0.8539374176
0.859952034
0.8630560716
0.8630292322
0.8613261447
0.8602200222
0.8627631712
0.8671751534
0.8769974117
0.2794028001
0.279556376
0.2776272001
0.2744625666
0.2827924801
0.5434690546
0.8045750027
0.8754619875
0.8680853387
0.8306849218
0.8357821363
0.842510149
0.840886814
0.8370860547
0.8382878609
0.8470292352
0.8590592031
0.8657908623
0.8676699567
0.8652942384
0.8628326656
0.8620499556
0.8644709513
0.872050372
0.2798692522
0.2798247272
0.2764801365
0.2773895831
0.2740711491
0.3834716049
0.7452873755
0.8746944144
0.8585569528
0.8331794202
0.8489738041
0.8488222069
0.835514556
0.8284609056
0.8350541278
0.8480685605
0.8624392222
0.8708743755
0.871936868
0.8674858049
0.8624309882
0.858579508
0.8608630713
0.8700076764
0.2800007947
0.2797875929
0.2766140272
0.2775061068
0.2736116548
0.2844627936
0.5720942938
0.826030078
0.8345559741
0.845158009
0.8574054812
0.8442114726
0.8278216748
0.8268826513
0.8361063254
0.850724077
0.8660053135
0.873954206
0.872072108
0.8654615575
0.8586957449
0.8556373083
0.8602111737
0.8702980393
0.2800588689
0.2788899982
0.2773122793
0.2763809078
0.2756423665
0.2737798786
0.3676275295
0.6792395379
0.8210844716
0.8618513181
0.8602461289
0.8329443618
0.8270173142
0.8276213889
0.8384436607
0.8525976863
0.866280394
0.8709889489
0.8661566715
0.8614224576
0.8569601112
0.8560613735
0.8613860973
0.8711810617
0.8858206536
0.2799248929
0.2781378246
0.2780438797
0.2762636303
0.275858573
0.2736098051
0.2899976462
0.5629385422
0.8279826037
0.8659971388
0.8428703879
0.8307294118
0.8304767041
0.8357841622
0.8409511946
0.8514357385
0.8599617651
0.8614385208
0.8615632983
0.861097301
0.8587560498
0.8581605738
0.8630804647
0.8704142047
0.8807504153
0.2792159362
0.2780872885
0.2783005554
0.2766618758
0.2750519389
0.2749795765
0.2764776718
0.4190726053
0.7783105667
0.8553577688
0.8214713784
0.8328631331
0.8424922816
0.8417991656
0.8409695207
0.8432058021
0.8485170886
0.8574126774
0.8632637232
0.8635740271
0.8613764317
0.8601456806
0.8632786748
0.8658072301
0.8749272003
0.2773607013
0.2785046771
0.2782348041
0.2764988714
0.2751152417
0.2756072991
0.2745285376
0.2942842803
0.5839792843
0.7770805772
0.8142104395
0.8459468101
0.8496395762
0.8402941638
0.8320527517
0.8337185318
0.8454814582
0.8593704739
0.8663904181
0.8687602822
0.8648646935
0.8612135287
0.8599322845
0.8619872415
0.8720529479
0.275882516
0.2793418111
0.2780853645
0.2763118296
0.2754513978
0.2749390835
0.2747771995
0.2763800433
0.405664931
0.6952023777
0.8283449257
0.8521818881
0.8481992609
0.8288526789
0.8247477477
0.8336150529
0.8484161992
0.8666212302
0.8717267829
0.8712992457
0.86601812
0.8589075853
0.8568440223
0.8605743853
0.8713326207
0.2754285517
0.2795010801
0.2778497706
0.2761077368
0.2757911538
0.2743057889
0.2767692526
0.2757336728
0.3064242435
0.6079127586
0.8220326415
0.8537909345
0.8298285781
0.8241624774
0.8262285349
0.8378439905
0.8550362119
0.8683708525
0.8734346604
0.8679693092
0.8612821667
0.8556806155
0.8547282122
0.8599133439
0.8697591586
0.2753432659
0.2794783647
0.277475035
0.2762690115
0.275631844
0.2744389477
0.2758753771
0.2742598145
0.2774979955
0.4423151115
0.7507092291
0.8244477202
0.8212910195
0.8274392567
0.837507833
0.8472191142
0.85518397
0.8637581152
0.864324369
0.8608956341
0.8573123613
0.8542098043
0.8549300717
0.862431863
0.8698579639
0.2756042869
0.2793684306
0.2768069927
0.2764940617
0.275520689
0.2743446844
0.274657057
0.2752846831
0.2745591486
0.3113929251
0.5966034899
0.7800573459
0.8201955171
0.8454797372
0.8474488856
0.8484298032
0.85231217
0.852356044
0.854339302
0.858117723
0.857116164
0.8555610549
0.8581118718
0.8630147542
0.8688123946
0.8817365096
0.2757053987
0.2790389707
0.276344209
0.276471718
0.275369269
0.2743738645
0.2745479516
0.2749294785
0.2731715734
0.2777447523
0.4670612681
0.7494198535
0.8359267367
0.8524155612
0.8501723018
0.8465906516
0.8387864005
0.8433515196
0.8518196071
0.8586333225
0.8618161687
0.8601309869
0.8603002752
0.8623377059
0.8649562772
0.8764757591
0.2756443887
0.2776782048
0.2762058321
0.2762723113
0.2752589139
0.274339457
0.2746741478
0.2743303541
0.2743076263
0.2725038765
0.3225824275
0.6550127212
0.8279179034
0.8531442912
0.8468252621
0.8319631042
0.8296904613
0.8415766275
0.8545454129
0.8660980051
0.8676458494
0.8621470178
0.8598788218
0.8585011828
0.8615981059
0.8719960742
0.2752544357
0.2757425858
0.2767099964
0.2759624539
0.2751082727
0.2741628908
0.2745131261
0.2738737247
0.2743709285
0.2716764618
0.275740188
0.4563887864
0.7581122754
0.8395607818
0.8228251757
0.8218038922
0.8283805856
0.8468948313
0.8656448766
0.8711051257
0.8670191683
0.8605314195
0.8565415293
0.8554502431
0.8594850471
0.8702111277
0.2740733912
0.275094418
0.2770012204
0.2755697762
0.2749688768
0.2738967875
0.2740455941
0.2736610725
0.2732388448
0.2724368847
0.2717204347
0.3204281148
0.6081209908
0.7829082885
0.8053922958
0.822304177
0.838218511
0.8594241514
0.8676995663
0.8687421472
0.8627694422
0.8564410233
0.8535258823
0.8534722347
0.8610332916
0.8719583829
0.2728163112
0.2751074649
0.2770030969
0.2749104588
0.2747813682
0.2738451621
0.2738177295
0.2734552709
0.2729314507
0.2722845093
0.2716298881
0.2771754694
0.4793303949
0.7313852809
0.8142641225
0.8414302443
0.8520483146
0.8603697092
0.8637668688
0.8594091725
0.8560140462
0.8537832209
0.8516982122
0.8563599349
0.8629612247
0.8717257573
0.2719953496
0.2761466727
0.2768728228
0.2741854386
0.274552848
0.2739100741
0.2737879437
0.2733799547
0.2728398195
0.2718857734
0.271942024
0.27193487
0.3287232065
0.6641138931
0.8269370279
0.8498869489
0.8511728328
0.8553864402
0.8472671826
0.8503968004
0.8531985494
0.8526190046
0.8558991558
0.8606826391
0.8626748933
0.8696770961
0.8832834331
0.2712954066
0.276592395
0.2765422943
0.2736268917
0.2742831165
0.2739878689
0.2738146802
0.2732893044
0.2727925057
0.272060373
0.2718797197
0.2714719997
0.2761162032
0.4764804801
0.7881220053
0.8457222394
0.8502486551
0.8364747468
0.8375406065
0.8471634945
0.8540041803
0.8603506913
0.8614553989
0.860469636
0.8607902971
0.8645262735
0.8793723859
0.270647431
0.2765959393
0.2756758925
0.2734081984
0.2739554553
0.2738513194
0.2737086416
0.2732469291
0.2726027224
0.2720146194
0.2712480837
0.2712312225
0.2715577881
0.3252263096
0.6289769059
0.8180061476
0.831231261
0.8248064379
0.8348940217
0.8511447032
0.8644157411
0.8670766565
0.8612818923
0.8579848458
0.8563635467
0.8601288182
0.8733865742
0.2705007434
0.2764840288
0.2744518857
0.2737516006
0.2735155768
0.273672466
0.2735906374
0.2731806076
0.2724205132
0.2718498714
0.2708663198
0.2709705063
0.2711077738
0.2776085413
0.4737011133
0.7200759476
0.799984628
0.8223612658
0.8445896698
0.8642509072
0.8702579201
0.8658534797
0.8567297065
0.8531930228
0.8534221025
0.8575934231
0.868720879
0.2708386194
0.2761008564
0.2738574606
0.2738046573
0.2730985159
0.2735165681
0.2734862684
0.2730727471
0.2721783408
0.2713410487
0.2703384845
0.2706126893
0.2711760972
0.2722399266
0.3528549423
0.6394868988
0.7855899817
0.8400410428
0.8601830344
0.8698560111
0.8681451605
0.8584741585
0.8521229929
0.850522804
0.8535523028
0.8594793464
0.8676436175
0.2708633349
0.274622335
0.2736996671
0.2736369567
0.2724909437
0.2732936368
0.2733319001
0.2728584393
0.2716851664
0.2710524614
0.2702922441
0.2704561994
0.2713239242
0.2715276589
0.2825331672
0.5428183211
0.7971115908
0.8537985243
0.8635936329
0.8654781617
0.8555041009
0.8501279893
0.8498937229
0.8520875872
0.8582623363
0.8633550533
0.8691617573
0.2706200512
0.2715291558
0.2738870292
0.2733324812
0.2718645748
0.2727993074
0.2728454824
0.2723066648
0.2714213458
0.2709139886
0.2703141289
0.2704633522
0.2710597014
0.2709304842
0.271818163
0.3733502442
0.7264194065
0.8468452711
0.8609075633
0.848341613
0.8430439017
0.847829515
0.8529330452
0.8593333934
0.8610660446
0.8642591312
0.8694269092
0.2699778593
0.2698696967
0.274220938
0.2726915577
0.2711703016
0.2722792076
0.2724283439
0.271953041
0.2713108789
0.2707548358
0.2701809191
0.2698618714
0.2701487104
0.270636069
0.2709095126
0.2883540766
0.5458056594
0.8006186085
0.8416419418
0.8313200877
0.841499992
0.8525592666
0.8626693954
0.8624264019
0.8613478489
0.8629677519
0.8683850392
0.8800649194
0.26956106
0.2695455606
0.27432425
0.2722236761
0.2709454721
0.2719866909
0.2722958996
0.271920111
0.2713511911
0.2705206975
0.2699463277
0.2693125554
0.2696710621
0.2702560685
0.2711103033
0.2714976188
0.4002490648
0.6788649543
0.8019354781
0.8264193298
0.8489796647
0.8656340237
0.8666654027
0.8612790958
0.8562304572
0.8557464238
0.8646755296
0.8788190924
0.269300155
0.2698936505
0.2743454879
0.2719873438
0.2707210933
0.2718085889
0.2723484077
0.2720916062
0.2715340773
0.2703300179
0.2698050499
0.2690841783
0.2694480442
0.2700773498
0.2713282676
0.2706162461
0.3060277801
0.5884012835
0.7780173255
0.8427244642
0.8649534621
0.8704340203
0.8647134421
0.8529736612
0.8489873937
0.8497995797
0.8573600353
0.8732192047
0.2685446725
0.2717284519
0.2742726915
0.2719101244
0.2707446522
0.271665058
0.2723977112
0.2722021168
0.2716940892
0.270186833
0.2696867341
0.2689444312
0.2693501686
0.2698776778
0.2709457508
0.2705368592
0.2726628201
0.4765534195
0.7810033181
0.8615345068
0.872083474
0.8710647471
0.8529789092
0.8469932162
0.8472663659
0.8489420139
0.8547771724
0.8653513526
0.2664079741
0.2724891685
0.2741574402
0.2719888514
0.2705592733
0.271300862
0.2723529736
0.2722245613
0.2717692332
0.2700684278
0.2696169644
0.2688637493
0.2691861874
0.2696966934
0.2700500329
0.270715557
0.2695515764
0.3225290966
0.6852324738
0.8550132388
0.8709001132
0.8545193616
0.8453382547
0.8468129594
0.8516916997
0.8555093705
0.8560522935
0.862287387
0.2652473852
0.2725079251
0.2734696478
0.2719617196
0.2702558875
0.2706761039
0.2719125892
0.2718588369
0.2717516814
0.2699534604
0.2696692671
0.2688040144
0.2689826165
0.269168692
0.269668653
0.2704335486
0.2693959722
0.2732393859
0.4851326173
0.7874366057
0.8485512407
0.8369148737
0.844983154
0.8565331324
0.8609185101
0.8617247016
0.8616514864
0.8645162021
0.2650752632
0.2723031918
0.2716681451
0.2718691024
0.2700905485
0.2701028654
0.2713758867
0.2714198307
0.2718197432
0.2698041762
0.2696446525
0.2687413515
0.2685791902
0.268732024
0.2695881809
0.2698704429
0.2702245256
0.2694590514
0.3479863345
0.6486680792
0.8041534834
0.8326918525
0.858548009
0.866638718
0.8630941388
0.8625685319
0.8633647448
0.8693796841
0.8808215601
0.265539544
0.2699522895
0.2708649665
0.2717632307
0.2695806307
0.2697649616
0.2712335522
0.27131621
0.2716599728
0.2696150086
0.2696032531
0.2686009148
0.2682693252
0.2684987246
0.2695164015
0.2696739429
0.2700667558
0.2692212394
0.2779571931
0.5481582923
0.7786716811
0.8534402388
0.8706087414
0.8690840126
0.8623578155
0.8605145203
0.8627744819
0.8694235303
0.8798847345
0.2662811325
0.2657028179
0.2707388538
0.271921034
0.2693021569
0.2694623581
0.2710729748
0.2712678623
0.271851736
0.2695161822
0.2694951871
0.2684743216
0.2680683946
0.2683453631
0.2693089538
0.2696791964
0.2695203701
0.2692429799
0.2694926878
0.3958533997
0.7579430286
0.8634605541
0.8737188278
0.8657314204
0.8504566512
0.8480924068
0.8536806633
0.8677264229
0.8765509704
0.2662980017
0.2640458884
0.2707988425
0.2724245001
0.2693221458
0.2693044945
0.2709620303
0.2711808665
0.2718880877
0.2695268957
0.2693360342
0.268454877
0.2679373603
0.2681839743
0.2690346256
0.2694780854
0.2692340029
0.2691207462
0.2686292011
0.2824460679
0.5988471062
0.8461471532
0.8689126092
0.8438159661
0.8403031443
0.84179884
0.8457079714
0.8569253775
0.8669870621
0.266151066
0.2638023633
0.271645775
0.2724610214
0.2705280344
0.2690791773
0.2704711083
0.2708986349
0.2720213557
0.2693147429
0.2692229305
0.2684082796
0.2678389401
0.2680515935
0.2687071047
0.2690911955
0.2690324239
0.2689517281
0.26858298
0.2689091788
0.3958445401
0.7225304627
0.8287599842
0.8311350943
0.8384880127
0.841812318
0.8432552226
0.8487010581
0.8619576601
0.2659907536
0.2637967446
0.2720131295
0.2723333359
0.2717826219
0.2690990542
0.2697504703
0.270303736
0.2718576882
0.269290602
0.2692063457
0.2684881039
0.2678236586
0.2678345878
0.2682170854
0.2688322395
0.2689979511
0.2688268783
0.2687263659
0.2687178766
0.2917495258
0.5882434001
0.788632688
0.8386248916
0.8554636069
0.8581130586
0.8511531406
0.8480007238
0.8604514982
0.2648151744
0.2645822007
0.272027983
0.2720996493
0.2720088087
0.2688861165
0.2691855079
0.2700167148
0.271822137
0.2690344292
0.2693657016
0.2685754298
0.2677721977
0.26755541
0.2680398345
0.2687207408
0.2689808697
0.2688903762
0.268824422
0.2686728623
0.2698539341
0.456078358
0.7665403793
0.8601144293
0.8673727918
0.8668784672
0.8624239876
0.8570182097
0.8674539682
0.2619038437
0.2662535343
0.2719467662
0.2716313721
0.2719018354
0.2686371289
0.2689808714
0.2700165822
0.271938005
0.2693768412
0.2694214848
0.2686096556
0.2676658771
0.2674635082
0.2680033406
0.2688065899
0.2691882389
0.269135223
0.2688093206
0.2686147269
0.2685553621
0.3032218091
0.6684407329
0.8537012657
0.8668879314
0.8663463488
0.8629638898
0.8660693783
0.8716803507
0.8853606805
0.2604763872
0.2668156345
0.2712858257
0.2713990896
0.2717220802
0.268446476
0.2689363711
0.2700732031
0.2721550561
0.2696975658
0.2693681009
0.2685578061
0.2676681264
0.2674612753
0.2680905883
0.2690386935
0.2692157326
0.2692277003
0.2687832134
0.2685094571
0.2683973611
0.2699704317
0.4615411639
0.7874173595
0.8559674673
0.8568000037
0.8602879114
0.8653018338
0.8701431108
0.8825233949
0.2604043071
0.2667137714
0.2680279616
0.2713134239
0.271899772
0.2684990729
0.2689322034
0.2700380774
0.2724599755
0.2698025197
0.2691692281
0.2684822211
0.2677408598
0.2676101124
0.2684686137
0.2690301551
0.2690881734
0.269155592
0.268759423
0.2684999255
0.2683952032
0.2684112761
0.3217148312
0.6316710359
0.8009713471
0.8283788147
0.8414388077
0.8595178768
0.8609746907
0.869262799
0.2617411662
0.2653752339
0.2655306536
0.2720949673
0.2729604704
0.2691384088
0.2688947719
0.2697562159
0.2725048882
0.2698180495
0.2690629967
0.2686112998
0.2679761064
0.2679921488
0.2686545839
0.2689044477
0.2689238495
0.2690867856
0.2687539468
0.2685524296
0.2685092345
0.2684263391
0.272978528
0.5149967729
0.7514858054
0.8149654074
0.8305983642
0.8414538513
0.8492172257
0.8593304791
0.2652282177
0.2624118405
0.2651609754
0.2727025128
0.2737258835
0.2699223233
0.2688882302
0.269522029
0.2718476036
0.2697505547
0.269170537
0.2689219815
0.268430698
0.2681659582
0.2686035513
0.2687478675
0.2688521848
0.2690956617
0.2688411404
0.268917563
0.2688229699
0.2685236188
0.2691019069
0.3680013248
0.7177992029
0.8265990249
0.8324532801
0.8348375836
0.845201852
0.8564571025
0.2665037273
0.2609466236
0.2652491123
0.2725973925
0.2739577625
0.270319853
0.2690624466
0.269459269
0.2716086363
0.2698336181
0.2693088063
0.2690920612
0.268661661
0.2681876544
0.268353892
0.2686956614
0.2688906209
0.2693601799
0.2692270084
0.2691999411
0.2690510358
0.2689092369
0.268841064
0.2809466708
0.5870370682
0.824188371
0.853619408
0.8390002405
0.8502918199
0.8648113938
0.2667359674
0.260844599
0.2653963241
0.2724084243
0.2740271436
0.2705175142
0.2692003791
0.2694669201
0.2716143348
0.2700240806
0.2694867634
0.2691758499
0.2687898617
0.2681315013
0.2683299394
0.2687726542
0.2693234405
0.2697353672
0.269506704
0.2692731183
0.2691214837
0.2690691227
0.2691153663
0.2697709555
0.4000415257
0.7678281388
0.8597337852
0.8603675732
0.8646121103
0.8778712936
0.2668674762
0.2609574516
0.2661678439
0.2721126019
0.2741493765
0.2706555458
0.2691270885
0.2695368856
0.2717397177
0.2703777968
0.2696189833
0.2692094755
0.2688516205
0.2681745257
0.2683766009
0.2693868614
0.2696074937
0.2698702768
0.2696226065
0.2692060511
0.2690729223
0.2690689747
0.2692178392
0.2693030446
0.3025614846
0.5974751732
0.8467874628
0.8678514019
0.8684624733
0.8787627619
0.8881266195
0.2659273904
0.2611833704
0.2680526875
0.2718669597
0.2747669207
0.2709892376
0.2691658005
0.2697121868
0.2719358974
0.2710137561
0.2697777766
0.2692341695
0.2689362937
0.2683360202
0.2688790724
0.2698821971
0.2696824525
0.2698924102
0.2695929336
0.2692595759
0.269116684
0.2690552382
0.2691891924
0.2693409542
0.2713700875
0.4662904223
0.7489250864
0.865631168
0.8690708655
0.8721144781
0.8864377779
0.2625970355
0.262181524
0.2688457407
0.2713979802
0.2757233483
0.2722928208
0.269678384
0.2700093986
0.2720639724
0.271561282
0.2700172644
0.2692872318
0.2690950563
0.269037838
0.269634317
0.2700030086
0.2696490712
0.269883755
0.2696512791
0.2694157398
0.2692502718
0.2691379497
0.2692460717
0.2693661553
0.2697829849
0.3433650429
0.6405056138
0.8310416409
0.8511574254
0.8483618672
0.8728866215
0.2610317195
0.2648884554
0.2688835191
0.2708679286
0.2760011505
0.2730832716
0.2703901318
0.2701545195
0.2713312224
0.2717611107
0.2704238977
0.2694976123
0.2695167736
0.2695198453
0.2697945136
0.2699566724
0.269615672
0.2699530108
0.2698515974
0.2699416585
0.2697278992
0.2695613314
0.2694944739
0.2696740227
0.2697592307
0.2774267698
0.5570583026
0.7584461862
0.8219593172
0.8392602907
0.8577454836
0.2610961955
0.2662659963
0.2671079063
0.270692207
0.2760308553
0.2732809274
0.2705895947
0.2700858474
0.2711492824
0.2717123211
0.2705937532
0.2699658376
0.2698479247
0.2696416779
0.2696359666
0.2699150082
0.2696994138
0.2702741784
0.2703504133
0.2703239466
0.2701017285
0.2700600052
0.2700611322
0.2702777524
0.2702617518
0.2709139016
0.4050185951
0.7127082794
0.8164931012
0.8427630809
0.8528366334
0.2621760084
0.2664439562
0.2628891232
0.2705520305
0.2759506469
0.2732573164
0.2706256439
0.2702814813
0.2712993988
0.2718763288
0.2708336834
0.2702550224
0.270016074
0.2696002308
0.2694750516
0.269950507
0.2701547553
0.2707533046
0.2706784954
0.2704399562
0.2702580982
0.2702680357
0.2703419435
0.2705301934
0.2706608906
0.2704473913
0.2946430692
0.6462950173
0.8338390571
0.866125869
0.8595956659
0.2672493605
0.2659691137
0.2610673046
0.2705166738
0.2759486944
0.2732473357
0.2708353916
0.270559947
0.2714912786
0.2719625553
0.2712886931
0.2703958518
0.270076821
0.2696000534
0.2694700469
0.2705154672
0.2707505283
0.2709643693
0.2707952153
0.2704469632
0.2702989065
0.2703177518
0.2704226141
0.2706107684
0.2707511061
0.2706046465
0.2723061886
0.4664454606
0.8005278713
0.8774409471
0.878912436
0.2709764718
0.2642599675
0.2607237473
0.2705730295
0.2759509696
0.2735539686
0.2715329889
0.2708380551
0.2717106229
0.2722503819
0.2718849785
0.2706405535
0.2701471926
0.2696671461
0.2697313604
0.2712023148
0.2710087487
0.2710531993
0.2708468171
0.2706000001
0.2704351063
0.270376082
0.2704357109
0.2706029648
0.2707350454
0.2705934749
0.2706442092
0.3255487283
0.6719575792
0.8688431191
0.8834772568
0.2717009126
0.2629888494
0.2607232719
0.2707808165
0.2761557512
0.2748771212
0.2724195087
0.2711186399
0.2719198824
0.2724439209
0.272167178
0.2710790391
0.2703967764
0.2701455254
0.2705255445
0.2714331588
0.2710994536
0.2710999585
0.2709546525
0.2709976846
0.2706884479
0.2705625996
0.2705801892
0.2707176496
0.2708480353
0.2707979606
0.2708498402
0.275532582
0.5149735801
0.7897918164
0.8796918326
0.895125536
0.2718233972
0.2629662566
0.2611386674
0.2706999422
0.276284037
0.2763103112
0.2729218021
0.271441754
0.2721076733
0.2725697905
0.2724585708
0.2714483483
0.2709025251
0.2707946545
0.2709017714
0.2714894814
0.2711372624
0.2711861158
0.2712554392
0.2715641106
0.2712095537
0.2709933243
0.27099211
0.2710743454
0.2712832325
0.2714009244
0.2711340443
0.2716244864
0.3855695621
0.6806858613
0.8451930672
0.8962267539
0.2718413841
0.2631566102
0.2639733107
0.2707139772
0.2759327297
0.2770442529
0.2733750039
0.2718124136
0.2722652842
0.2726773258
0.2725324293
0.2716474075
0.2712009052
0.271054241
0.2709129233
0.2715203162
0.2712221161
0.2716372951
0.2718528148
0.2718584154
0.2715534524
0.2714632599
0.2714763918
0.2715064478
0.2717793004
0.2718251708
0.2716237039
0.2715696226
0.2853545855
0.6016343749
0.7870907563
0.8802328038
0.2679673785
0.2636757773
0.2667324771
0.2711805906
0.2754567361
0.2775705243
0.2738192732
0.2721960976
0.2724148443
0.2726785092
0.2726464519
0.2718175544
0.2714240522
0.2711486152
0.2707991799
0.2716268858
0.2716708599
0.2722761398
0.2722021074
0.2719442071
0.2717447776
0.2716906963
0.2716838907
0.2717461023
0.2719783329
0.2720156507
0.2718149768
0.271630513
0.2726532248
0.4487441987
0.7547538579
0.833830344
0.2635383274
0.2652128129
0.2671318973
0.2715113392
0.2754770465
0.2778424007
0.2740785623
0.2724178502
0.272610055
0.2727395913
0.2730446314
0.2721583074
0.2715221382
0.2712169171
0.2708580438
0.2720407023
0.2723121667
0.272540069
0.2723253468
0.2719849833
0.2718397583
0.2717986952
0.2717825848
0.271837745
0.2719909206
0.2720449117
0.2718788921
0.2719652527
0.2719150983
0.3053408777
0.6957507305
0.8100866772
0.2627767999
0.2686734938
0.2667689998
0.2700605237
0.2754074717
0.277926589
0.2742875024
0.272606631
0.2728831801
0.2730856636
0.2734772115
0.2726915335
0.2718303348
0.2713251421
0.2709124237
0.2724159709
0.2726336073
0.2726570489
0.2724081946
0.2721029393
0.2719204281
0.2718430807
0.2718291545
0.2718961249
0.2720955509
0.2721714859
0.2720173722
0.2720969748
0.2722359128
0.2745507598
0.505942956
0.8165006944
0.2632215815
0.2704422154
0.263770232
0.268364352
0.2752910674
0.2779612061
0.2746360459
0.2729040655
0.2732409366
0.2732752888
0.2736621542
0.2729491532
0.2720254953
0.2715184001
0.271217621
0.2726490367
0.2728582923
0.2726681503
0.2724379842
0.2724673587
0.2721537369
0.2719778805
0.2719907744
0.2720065284
0.2722340917
0.2725558196
0.2725791575
0.272608021
0.2726421883
0.2724832891
0.3468263499
0.7490714006
0.2673244896
0.2704278599
0.2611002909
0.2679876655
0.2748507886
0.2779330944
0.2754509716
0.2737728929
0.2738820022
0.2734187087
0.2738054981
0.273116121
0.2723350012
0.2719155749
0.2715658073
0.2727695692
0.2729710095
0.2728352526
0.272738718
0.272966257
0.2725463829
0.2723005351
0.27234925
0.2723503167
0.2725937298
0.2729008655
0.2729439241
0.2728898571
0.2728266948
0.2725680088
0.2805129847
0.5689983847
0.8621635116
0.2735516153
0.2702367155
0.2606745403
0.2678043622
0.2747573864
0.2781346466
0.2760949971
0.2744652877
0.2742521452
0.2734853185
0.2739625155
0.2732554181
0.2725278628
0.2721491675
0.2716850771
0.2728101166
0.2731272886
0.2730052452
0.2732139447
0.2731685611
0.2727894627
0.2726074355
0.2727162705
0.272731464
0.2729142325
0.2732378376
0.273105398
0.2729308076
0.2729101044
0.2725929028
0.2727637718
0.4089562707
0.7521254151
0.2760406915
0.2695401401
0.2605291599
0.2677747384
0.2744572804
0.2785508617
0.2763879156
0.2747310986
0.2748283306
0.273528768
0.2741765505
0.2734790629
0.2727321262
0.272329008
0.2716821277
0.2728392792
0.2732850253
0.2735008047
0.2734913859
0.2732117921
0.2728752623
0.2727266019
0.2728820788
0.2729126588
0.2730633471
0.2733466868
0.2731347386
0.2730734695
0.2730823089
0.2729730614
0.272904277
0.3002862912
0.6096718425
0.2765245206
0.2673735199
0.2604613594
0.2685706584
0.2751397779
0.2790622158
0.2764595525
0.2748627103
0.2749835108
0.2736711449
0.2744408651
0.2737756305
0.2730539585
0.2724765249
0.2716633803
0.2730093729
0.2736615634
0.2737386368
0.2735867715
0.273236905
0.2729721138
0.2728087084
0.2729622594
0.2730136695
0.2731521004
0.2734369692
0.2732525456
0.2731001816
0.2732486819
0.2733607889
0.2730429809
0.2744873061
0.502190805
0.2765277324
0.2661342344
0.2624476761
0.2688266092
0.2756794811
0.2792937167
0.2764772627
0.2749175342
0.2750966787
0.2740834358
0.274640155
0.274013251
0.2733032878
0.2726160057
0.2716863269
0.2731320049
0.27385352
0.2738629117
0.2736031378
0.27330662
0.2730444039
0.2728646058
0.2730097473
0.2730445885
0.2731588466
0.27345037
0.2733211078
0.2732720773
0.2735849602
0.2735612475
0.273218812
0.2732829293
0.3516196352
0.273690498
0.2663530889
0.2660256243
0.2684315006
0.2757805407
0.2792066546
0.2764058484
0.2749010636
0.2754638023
0.274784246
0.2747537556
0.2741477848
0.2734915284
0.2727634693
0.2717448645
0.2732970499
0.2739981548
0.2739284487
0.2736033877
0.273501493
0.2733662931
0.2730865385
0.273089086
0.2731107611
0.2732233351
0.2735382775
0.2736623978
0.2735419724
0.2737159509
0.2736288019
0.2732854243
0.2731192317
0.2834716357
0.2669664808
0.2667481972
0.2673529778
0.2674238099
0.2754825687
0.2789940834
0.2761079788
0.2745183866
0.2761577813
0.2753712332
0.2747751369
0.2742125636
0.2736057868
0.272967239
0.2718628577
0.2734431382
0.2740848622
0.2739044015
0.2736735942
0.2738234181
0.2736366898
0.2734086558
0.2733564485
0.2733432207
0.2734275456
0.2737752054
0.2739167536
0.273661967
0.2737408413
0.2737023897
0.2734232304
0.2732450406
0.2746651554
0.2633798969
0.2682312392
0.267227972
0.2640427448
0.2748286183
0.2788258934
0.2761524689
0.2743317829
0.2765479267
0.2756612564
0.2746937666
0.2741876458
0.2736528797
0.2731450248
0.2719025298
0.2734044761
0.2740562394
0.2738271309
0.2738595044
0.273926166
0.2737082804
0.2735251694
0.273593742
0.2736192355
0.273639055
0.2738732775
0.2739774408
0.2736809187
0.273471283
0.2736987885
0.2736814252
0.2735770492
0.2736387314
0.2631221425
0.2721022673
0.2668472476
0.2614303966
0.2743848231
0.2789590584
0.2766940715
0.2744655643
0.2766959512
0.2757433615
0.2746452076
0.2741530959
0.2736560654
0.2732333324
0.2717797989
0.2732448467
0.2738362785
0.2738593202
0.2740081052
0.2739246993
0.2736985273
0.2735438836
0.2736516901
0.2736969882
0.2736823685
0.2738692578
0.2739704944
0.2734994195
0.2733691308
0.273717478
0.2738447714
0.2736911188
0.2736296566
0.2841959966
0.2649577091
0.2746464262
0.2657875384
0.2602786715
0.2740371766
0.2793745284
0.2772232095
0.2747352431
0.2767372183
0.2757895115
0.2746809568
0.2742979163
0.2737517991
0.2732520822
0.2716192433
0.2730986515
0.2737624868
0.273991334
0.274022412
0.2738526248
0.273578397
0.273400075
0.273628496
0.2736900249
0.2736232998
0.2736548528
0.2737806675
0.2733441314
0.2733663317
0.2737932737
0.2738641885
0.2737115945
0.2735617582
0.2754142931
0.2711179297
0.274769328
0.2647976692
0.2598196132
0.2737698112
0.2794556517
0.2775318786
0.274709109
0.2764167558
0.2759839254
0.2751738599
0.2743565229
0.2738611792
0.2732268497
0.2714349288
0.272983436
0.2738029524
0.27402206
0.2739390732
0.2734177255
0.2732623597
0.273106718
0.2733960846
0.2735877437
0.2732936568
0.2732348308
0.2734360787
0.2732933489
0.2734616849
0.273790919
0.2738396175
0.2736069604
0.2734639727
0.2744148487
0.2751372263
0.2745731224
0.2644879797
0.2597892852
0.2734923291
0.2792750816
0.2777025577
0.2738621618
0.2754401983
0.2763920192
0.2754923672
0.2743118667
0.2738651815
0.2731659191
0.2714394498
0.2729883774
0.2737995988
0.2739711281
0.2734228962
0.2731727268
0.273146133
0.2729845521
0.273121547
0.2732878739
0.2730982119
0.27309984
0.2733289883
0.2733729087
0.273442203
)
;

boundaryField
{
    inlet
    {
        type            fixedValue;
        value           nonuniform 0();
    }
    outlet
    {
        type            zeroGradient;
    }
    bottom
    {
        type            slip;
    }
    top
    {
        type            slip;
    }
    obstacle
    {
        type            zeroGradient;
    }
    defaultFaces
    {
        type            empty;
    }
    procBoundary21to15
    {
        type            processor;
        value           nonuniform List<scalar> 
23
(
0.8747499469
0.8498032967
0.8432741365
0.8481254194
0.8449586801
0.8300566532
0.8286435953
0.8410251441
0.8564249932
0.8684428639