/*--------------------------------*- C++ -*----------------------------------*\
  =========                 |
  \\      /  F ield         | OpenFOAM: The Open Source CFD Toolbox
   \\    /   O peration     | Website:  https://openfoam.org
    \\  /    A nd           | Version:  7
     \\/     M anipulation  |
\*---------------------------------------------------------------------------*/
FoamFile
{
    version     2.0;
    format      ascii;
    class       volScalarField;
    location    "1.9";
    object      rho;
}
// * * * * * * * * * * * * * * * * * * * * * * * * * * * * * * * * * * * * * //

dimensions      [1 -3 0 0 0 0 0];

internalField   nonuniform List<scalar> 
2222
(
2.321644726
2.29912955
2.291119277
2.294582529
2.298541029
2.285488267
2.26237278
2.240354422
2.223803931
2.21032431
2.191892758
2.174443551
2.153841805
2.131871398
2.109461405
2.093762239
2.078314654
2.058798112
2.037502295
2.019097026
2.004182896
1.992658186
1.985413626
1.975914055
1.969409406
1.969982973
1.964355724
1.94393275
1.927524739
1.913204528
1.895960866
1.882912283
1.880016516
1.866033024
2.313942909
2.294563259
2.291059838
2.297768459
2.299972597
2.284935984
2.260411985
2.23933419
2.223706595
2.212127862
2.195047023
2.177666744
2.155770094
2.132852423
2.10874729
2.090883343
2.073509533
2.054472129
2.035248532
2.018827684
2.006421713
1.996840834
1.991172827
1.983580338
1.976774489
1.975592979
1.968574203
1.94749824
1.929197701
1.914249639
1.897117611
1.883883418
1.880930081
1.86862646
2.303818029
2.289232982
2.291651063
2.301832864
2.299335396
2.28269586
2.257650097
2.237485638
2.223166115
2.21409577
2.198300449
2.179433242
2.156331673
2.132555421
2.107403847
2.087629429
2.069190922
2.050273607
2.032212085
2.018400302
2.009430193
2.000649351
1.996094304
1.988294049
1.980466954
1.979242558
1.972305633
1.950954492
1.931428283
1.915531562
1.89773713
1.884672057
1.881449102
1.870436141
2.295952828
2.291109854
2.298151847
2.304516661
2.297093345
2.278636591
2.253735127
2.234800744
2.222952335
2.215439591
2.199808576
2.179989794
2.156357817
2.131816632
2.105390807
2.083791924
2.064765738
2.045106274
2.02989731
2.018937265
2.011920118
2.004611038
2.000079436
1.991312903
1.983422138
1.982431551
1.974831554
1.952820334
1.932589188
1.91606375
1.898208779
1.885243556
1.881891375
1.872181172
2.294187239
2.297567306
2.30773942
2.305476347
2.2927373
2.27374666
2.248576111
2.232266598
2.222883305
2.216806669
2.200968383
2.180636878
2.156438881
2.130473474
2.102691158
2.079441764
2.059214689
2.041302885
2.029491615
2.020473135
2.015412886
2.00832862
2.003584838
1.994830196
1.987290447
1.985663099
1.976131752
1.953574041
1.932866064
1.916596981
1.899168737
1.886270533
1.882798013
1.874294782
2.292104661
2.310785832
2.315448898
2.306188072
2.28802545
2.267331194
2.243877211
2.23055944
2.222819806
2.217656077
2.202578522
2.181733507
2.156573636
2.128389886
2.100018664
2.075740098
2.054737865
2.040042051
2.029943537
2.023590927
2.019776298
2.01161069
2.007639761
1.9994704
1.991048595
1.987274377
1.976683693
1.954063879
1.932814093
1.917428864
1.900359543
1.887506602
1.884174583
1.877026159
2.297749101
2.322529193
2.318829876
2.304911463
2.28378001
2.261487103
2.241490028
2.229537663
2.222416132
2.218065701
2.204167759
2.183449286
2.156844522
2.126185903
2.096356506
2.070448152
2.051188095
2.039261142
2.0307971
2.02700862
2.023766293
2.015650876
2.011737264
2.003369173
1.993152426
1.987812287
1.977228093
1.954869649
1.932991431
1.918378821
1.90152003
1.888950665
1.886279792
1.880077325
2.302593855
2.328382781
2.320994796
2.303134823
2.279423949
2.258327649
2.240271592
2.228682347
2.221331117
2.216899326
2.204559338
2.184480248
2.156843915
2.124595009
2.092834006
2.065170435
2.047884906
2.037540219
2.032254646
2.030695812
2.02775431
2.019624897
2.015291611
2.006120205
1.994843279
1.987910701
1.977143311
1.955744436
1.933415321
1.919592601
1.903041682
1.891115493
1.888911973
1.882752213
2.306353594
2.330033637
2.320650884
2.300405601
2.275470453
2.256063734
2.239253541
2.227603458
2.219720387
2.214267288
2.203540622
2.183919245
2.155593001
2.121996768
2.089058595
2.061386781
2.043570792
2.03460908
2.031841241
2.033100024
2.031801994
2.023306657
2.018675407
2.008453893
1.995776314
1.988117419
1.976796532
1.956320902
1.934040942
1.921362539
1.906007112
1.894701944
1.89128571
1.884889369
2.252075689
2.309986616
2.332143027
2.319098381
2.295699643
2.272315776
2.253818698
2.238187386
2.226171
2.217875497
2.211782304
2.201583609
2.181879563
2.152969754
2.119086602
2.085494472
2.056762169
2.039389853
2.032854708
2.032894383
2.037550156
2.03616744
2.027149459
2.022067864
2.010384952
1.997693795
1.988875198
1.976532727
1.956592433
1.934997576
1.924697104
1.911388995
1.898267545
1.893455229
1.887243308
2.249871428
2.315827991
2.33377272
2.316825725
2.288873269
2.269431772
2.250760669
2.236933434
2.224626572
2.216009284
2.209414778
2.198384498
2.178048638
2.149379366
2.115854229
2.081864577
2.052613418
2.037832309
2.032489395
2.035358429
2.04204388
2.039399362
2.029823279
2.025537831
2.013645263
2.000198378
1.989773473
1.976587585
1.957119765
1.93716539
1.93014392
1.916673569
1.90098996
1.896361902
1.890918632
2.246888419
2.3190813
2.331937636
2.310995101
2.283820464
2.267137641
2.247383858
2.23598467
2.223660837
2.214446026
2.206670603
2.193996951
2.173826818
2.145131812
2.111262235
2.078167717
2.050841464
2.037240197
2.033025088
2.037387677
2.043616499
2.041232471
2.032284383
2.02984916
2.018176602
2.002261543
1.990394245
1.976829035
1.958622582
1.941506517
1.935271658
1.920576975
1.904268555
1.901199446
1.897114326
2.242896169
2.318310255
2.326147908
2.302263183
2.280412984
2.264549909
2.245690109
2.235522392
2.223423933
2.213604992
2.204322816
2.190394697
2.169791105
2.140064788
2.107141088
2.075456039
2.050402041
2.037889801
2.034997088
2.03860368
2.043981813
2.040536964
2.034223291
2.032900732
2.021331606
2.003644596
1.990733676
1.977403485
1.961922753
1.946669216
1.938635353
1.923572098
1.909124697
1.908402694
1.904712884
2.239750415
2.315035485
2.316606789
2.294319007
2.277912499
2.261966441
2.244974225
2.234780373
2.223494903
2.213241616
2.202957483
2.187948248
2.165905812
2.13612798
2.103954621
2.073654828
2.051375125
2.039740475
2.038174305
2.040672508
2.043508112
2.041543471
2.034888718
2.034279901
2.022514071
2.004302561
1.990888434
1.978771827
1.965366205
1.94977124
1.940230436
1.926378585
1.915702634
1.916275349
1.910314561
2.238524859
2.307672004
2.30298722
2.288213633
2.275823796
2.259127342
2.244475088
2.233288305
2.22363245
2.212597915
2.20152864
2.185050183
2.162025097
2.132209573
2.100133733
2.071827915
2.052073558
2.043290884
2.042764388
2.043913919
2.045553657
2.04322677
2.035594996
2.034350128
2.022694181
2.004405543
1.991090089
1.980089554
1.966912662
1.951493895
1.941387503
1.930476344
1.922491467
1.921546922
1.913792864
2.238863526
2.292758975
2.288785356
2.282369747
2.273102457
2.257634211
2.244576305
2.232243879
2.223073376
2.210595203
2.198541709
2.180812248
2.157234188
2.126736208
2.096663688
2.070110238
2.053948842
2.047714356
2.048278751
2.049379922
2.049532005
2.044703145
2.036591774
2.034943659
2.023511081
2.004941286
1.991404226
1.980946206
1.968148558
1.952395099
1.942826576
1.936206713
1.926681034
1.923847238
1.916500683
2.239937118
2.274385935
2.27956311
2.277314853
2.270226349
2.25709206
2.245099448
2.232109825
2.220452048
2.206047311
2.193508789
2.176080082
2.151653339
2.121920037
2.094577582
2.069504363
2.056173779
2.052705179
2.054618602
2.056725571
2.054805623
2.046177689
2.037821626
2.035338951
2.023974306
2.005444643
1.991620796
1.981438726
1.969011982
1.953718232
1.944808114
1.940792769
1.928709987
1.925575698
1.919627446
2.23530894
2.258962815
2.273602331
2.272495025
2.267692402
2.257303298
2.24649808
2.231518166
2.216176026
2.201319017
2.189629431
2.171778356
2.146247159
2.118718208
2.093716355
2.070278672
2.059008017
2.057269041
2.059687915
2.06316315
2.060163068
2.047250152
2.039253774
2.035369349
2.023683455
2.005328226
1.991387917
1.981912201
1.970673692
1.955925781
1.947286642
1.942843988
1.930426477
1.927901152
1.924175142
2.223374749
2.246501782
2.269092828
2.26604626
2.266525676
2.258622266
2.247361203
2.228964906
2.214067214
2.2005008
2.187695637
2.167331295
2.141985204
2.116139662
2.092317239
2.072146916
2.062635625
2.061027104
2.064495004
2.067953715
2.064547905
2.048535664
2.040639898
2.035240465
2.02300106
2.004444222
1.991431814
1.983347826
1.97303453
1.959046479
1.949771761
1.94428244
1.932864916
1.931611655
1.92896295
2.213939386
2.237891412
2.26356262
2.259396403
2.266429797
2.259565844
2.246851185
2.225712046
2.214387121
2.201140506
2.185180207
2.162777958
2.137972495
2.112698239
2.091756177
2.074585856
2.06631387
2.065618281
2.070566748
2.071913075
2.067415349
2.051371992
2.042004131
2.034524474
2.021297409
2.003526773
1.992389305
1.985318209
1.975644464
1.961731273
1.952085108
1.946312586
1.937260659
1.936862763
1.93066045
2.213818991
2.233916978
2.254350628
2.255845408
2.266805633
2.259684351
2.244290723
2.224913106
2.215154588
2.200119767
2.180411894
2.157451309
2.132166
2.109812191
2.091976206
2.077833843
2.070930295
2.071963793
2.075479624
2.073870214
2.068486977
2.054573539
2.042786056
2.033578
2.019806617
2.003744508
1.993448232
1.987591436
1.978290742
1.964114794
1.954660728
1.950386888
1.944399474
1.940758491
1.931163953
2.215101371
2.231793276
2.236636214
2.253070991
2.266185287
2.258432464
2.241826168
2.226142034
2.213963285
2.193467757
2.172857865
2.150179142
2.12717295
2.108182517
2.092917695
2.081826499
2.077096034
2.077288654
2.077685458
2.074549605
2.070114634
2.05755724
2.043410098
2.032831897
2.019559426
2.004304909
1.99408786
1.98937443
1.980977236
1.966980126
1.959087488
1.957527473
1.950691665
1.941516921
1.930626336
2.216238152
2.230729325
2.219727151
2.249756329
2.262648129
2.255364871
2.242148659
2.227921577
2.207390003
2.181889936
2.164153545
2.143623143
2.125184046
2.108362264
2.095065519
2.087074611
2.082447196
2.07973395
2.078143862
2.076479237
2.073476285
2.06093213
2.043835157
2.032145417
2.019677847
2.004406907
1.994046496
1.990057954
1.983033672
1.970977944
1.965995577
1.963389895
1.95262131
1.941614793
1.929455088
1.626143345
2.216569739
2.223848023
2.214554093
2.243922759
2.256143015
2.253673098
2.244892599
2.226976672
2.195854098
2.174770231
2.156966728
2.139904193
2.123494388
2.108888306
2.098870563
2.093171012
2.086511245
2.08202625
2.080112825
2.080699893
2.076796677
2.061691631
2.043332064
2.031190971
2.019252318
2.003919495
1.993628345
1.990671764
1.985729256
1.976245168
1.971915549
1.966243861
1.953907321
1.941782967
1.92969314
1.60627091
2.218536732
2.207421354
2.214645939
2.234787665
2.250849329
2.25426681
2.247069886
2.221207865
2.190112792
2.170872224
2.151624189
2.136441988
2.121064949
2.110833246
2.104578288
2.099905629
2.091450579
2.086024599
2.085466655
2.084526436
2.077067188
2.060949319
2.04241452
2.029814552
2.018072863
2.003698385
1.994409226
1.992343073
1.989315836
1.981570674
1.97531976
1.968246974
1.954713265
1.942667267
1.930403131
1.580907258
2.22022051
2.20237449
2.218438985
2.229520034
2.247357175
2.255986034
2.246059358
2.214593538
2.188446396
2.167528569
2.147319169
2.132067209
2.11969091
2.113399301
2.110594696
2.10776163
2.098104358
2.090768555
2.090120835
2.085256078
2.0763296
2.059194658
2.04116809
2.028381626
2.016802054
2.003706286
1.995532991
1.994350209
1.992931062
1.984530685
1.977466077
1.969796469
1.955965059
1.944433622
1.932649075
1.548124819
2.217688176
2.206277173
2.223379632
2.228175556
2.244971869
2.254641028
2.24058944
2.211590538
2.188485273
2.163368871
2.142882064
2.128749157
2.119996666
2.116853106
2.117458633
2.114966432
2.10286935
2.093750149
2.09135661
2.08479761
2.073732671
2.056950185
2.039621829
2.027239233
2.015900415
2.003586418
1.99652805
1.995427064
1.994942407
1.98626506
1.978701636
1.971202594
1.958017589
1.947137742
1.935869033
1.509732925
2.211706903
2.214331326
2.226322773
2.22797067
2.240170877
2.248633702
2.233989605
2.209221289
2.185414121
2.157403865
2.137678236
2.126508416
2.121604123
2.121744843
2.124862876
2.118771072
2.105125831
2.096060619
2.092558123
2.084109795
2.071343272
2.055102432
2.038272798
2.026389272
2.015383714
2.00333042
1.997101868
1.996034561
1.995818699
1.987030364
1.980203958
1.973235004
1.960876684
1.950964975
1.937659164
1.469688947
2.21057424
2.227968589
2.223205582
2.224474758
2.230986443
2.241012983
2.229593311
2.206949724
2.17829104
2.148649521
2.131039326
2.124752648
2.12416296
2.127970042
2.128765436
2.120129884
2.105958119
2.098864982
2.094962389
2.084153034
2.070298456
2.054575589
2.037733055
2.02576529
2.015177037
2.003260237
1.997401143
1.9960812
1.9957448
1.987441415
1.981600935
1.975724456
1.965247738
1.954002843
1.938794396
1.428249711
2.217325943
2.23500058
2.21282563
2.211283409
2.220603729
2.235333767
2.227374329
2.202291714
2.168555415
2.138126969
2.124350241
2.122390464
2.127125532
2.13257655
2.130567112
2.121711902
2.108433066
2.102850283
2.098874176
2.085926895
2.071133953
2.055801643
2.038126734
2.025616032
2.015333318
2.003517784
1.997001422
1.995961986
1.995181617
1.987858592
1.983233662
1.97872008
1.968071949
1.955559489
1.939474662
1.382599976
2.2213911
2.235441821
2.204595236
2.198048886
2.214682478
2.230511009
2.224737396
2.194567675
2.156036952
2.131876042
2.122529342
2.124271205
2.131430428
2.136363816
2.132863611
2.124024285
2.112404732
2.107482045
2.10390362
2.090711056
2.074983698
2.057949042
2.038834967
2.02586892
2.016030917
2.004141083
1.996844987
1.996640841
1.995231173
1.988647168
1.984516399
1.979748816
1.969346485
1.956553249
1.939493079
1.334681863
2.215398764
2.228519305
2.20339056
2.196984247
2.211859762
2.224738836
2.219419973
2.183098886
2.145622839
2.12936047
2.12307255
2.128100918
2.137102665
2.14040942
2.135943377
2.128406431
2.11702115
2.111458077
2.108582529
2.095833212
2.078595539
2.059568635
2.039809496
2.026774569
2.017475299
2.005203378
1.997475974
1.997687865
1.995825459
1.989605209
1.984848919
1.980165205
1.970053078
1.956806667
1.938992534
1.295635249
2.200190522
2.216613236
2.205436412
2.200814282
2.209974022
2.216741374
2.210009094
2.170064513
2.141266445
2.128878529
2.125689839
2.133939382
2.143028147
2.145202445
2.140232492
2.1335219
2.119889987
2.115076984
2.112399588
2.098629984
2.08021644
2.06097143
2.04202185
2.029412173
2.020047921
2.006796262
1.998371705
1.998996272
1.997098828
1.990871685
1.984886725
1.979920582
1.969739372
1.956081922
1.939485797
1.269362114
2.178090294
2.211742011
2.209732024
2.210311079
2.208607678
2.205829049
2.194255816
2.160500854
2.138534649
2.130093464
2.130658056
2.140822865
2.150079318
2.14926189
2.1429034
2.135569652
2.122355053
2.119760915
2.11608275
2.100545003
2.081729246
2.063880386
2.04746172
2.034786837
2.023807592
2.008880453
1.999657175
2.000906223
1.999444191
1.99233238
1.98448188
1.978784959
1.968490179
1.956220782
1.940949762
1.248922975
2.153013448
2.213031155
2.218061249
2.213070629
2.203827274
2.190695166
2.175485879
2.153809475
2.137205279
2.133648997
2.138165487
2.150439771
2.156147504
2.151867266
2.145434746
2.137417783
2.126214142
2.126076055
2.121126303
2.103626146
2.084933758
2.069999618
2.054562275
2.040141494
2.027662973
2.011410927
2.001890019
2.003989278
2.002458934
1.993575374
1.984224311
1.978061597
1.968753344
1.957465733
1.942609732
1.228096335
2.13389439
2.218296498
2.220977255
2.208220194
2.188616522
2.172252248
2.160274348
2.147934092
2.137393507
2.140342295
2.150325688
2.160625234
2.158685102
2.15367482
2.147219677
2.140949263
2.131976534
2.129769521
2.121411012
2.104981655
2.08943861
2.074762507
2.057949816
2.04288125
2.031088021
2.014757972
2.00593751
2.007671802
2.004323673
1.994192339
1.984415405
1.978555495
1.96974168
1.95914588
1.944783524
1.206110989
2.118683141
2.231806743
2.21870729
2.190059763
2.166621869
2.157670552
2.148574148
2.141886392
2.139956216
2.150685007
2.162343258
2.163809727
2.159487987
2.154145335
2.148287072
2.144229914
2.136620519
2.131233913
2.119863973
2.103494067
2.089534182
2.075615801
2.059535157
2.04495276
2.03473387
2.019421516
2.01153175
2.010686193
2.00516216
1.994369303
1.984442189
1.979631509
1.971652526
1.962131395
1.946875883
1.124639796
1.186227973
2.102347459
2.236185936
2.207702346
2.175986085
2.158158068
2.148975391
2.138124095
2.136210028
2.144012737
2.162730872
2.169244593
2.165116822
2.158234786
2.152056625
2.149655133
2.146730961
2.139110491
2.131756704
2.118166957
2.102087792
2.089072241
2.076023691
2.060734622
2.04723161
2.038970135
2.024410639
2.016161054
2.012780087
2.006196282
1.993708878
1.985556801
1.981323048
1.974513896
1.964424132
1.948240585
1.123146506
1.170338624
2.082304316
2.232824955
2.201040313
2.173932215
2.157390852
2.141220573
2.128895116
2.131047032
2.145102546
2.169128965
2.172646787
2.165064427
2.157365674
2.150472713
2.151050489
2.148378593
2.140374199
2.131684208
2.117777902
2.101485525
2.088471808
2.076001887
2.062384925
2.050161629
2.043203359
2.028197886
2.019037216
2.014290761
2.007024176
1.994961808
1.987457181
1.983545695
1.97647544
1.96575442
1.949638338
1.120974752
1.157567071
2.057010868
2.221401058
2.19895108
2.174806792
2.158000124
2.13241998
2.120659797
2.127023821
2.145739697
2.169938778
2.175392509
2.167492561
2.159061214
2.152178869
2.15273857
2.149032313
2.139889585
2.131401973
2.117990568
2.101390943
2.088486356
2.076789879
2.064843946
2.053498778
2.046500023
2.031086674
2.02123797
2.01574967
2.008159487
1.996285198
1.989912404
1.986266234
1.978241044
1.966825889
1.951248162
1.117977177
1.14644639
2.024659201
2.213658414
2.198375208
2.174822554
2.152507615
2.122157089
2.114468867
2.123660047
2.145480417
2.171530291
2.179417658
2.172126226
2.163190065
2.156001322
2.155271168
2.149569131
2.138644793
2.13048015
2.118018808
2.101966822
2.089019742
2.078155999
2.067338374
2.055289476
2.048036413
2.033323587
2.023302135
2.017605338
2.009817843
1.998053735
1.992610964
1.989538791
1.980189634
1.966477234
1.953520539
1.11492839
1.137586676
1.988127746
2.210193212
2.199841662
2.169259338
2.139244271
2.110045641
2.110303321
2.120731189
2.144457556
2.171642107
2.182104509
2.175880784
2.168075089
2.161300749
2.158598885
2.149875001
2.136584944
2.128541572
2.117549803
2.102600246
2.089877459
2.079503321
2.068893283
2.056244693
2.048793039
2.035460836
2.025620865
2.020070109
2.012224856
2.000681121
1.995831824
1.992068927
1.981500167
1.967823813
1.958087842
1.111971455
1.130902671
1.955655594
2.207769042
2.197178122
2.15643942
2.121201767
2.0990293
2.108501422
2.116984883
2.144024565
2.169494967
2.179209431
2.176468302
2.170676186
2.164862177
2.160521728
2.150120707
2.135288374
2.126907286
2.116653159
2.103022499
2.090779171
2.080480628
2.069942918
2.057096497
2.049983845
2.038693356
2.028549152
2.022741094
2.015382805
2.004798435
1.998874266
1.993455045
1.980479171
1.97004044
1.965035602
1.10949441
1.125372176
1.930940026
2.204094095
2.190234116
2.142159017
2.110686881
2.094177225
2.108927977
2.11793391
2.147687501
2.168037783
2.173982303
2.174824154
2.171505863
2.16572955
2.161635076
2.150401827
2.134626121
2.125655329
2.115645693
2.103288742
2.091637457
2.081446229
2.07081912
2.058575448
2.052058873
2.041806507
2.029938075
2.024747881
2.018895191
2.009223375
2.000731879
1.993733777
1.979956892
1.973882086
1.971854711
1.107118893
1.12004203
1.908079828
2.198383346
2.177721162
2.135182889
2.107396575
2.09405905
2.109103687
2.120324595
2.14894358
2.165946376
2.170505329
2.172505401
2.169888741
2.167647222
2.162173845
2.149999001
2.133849493
2.124837372
2.115080897
2.103586788
2.092398907
2.08234303
2.072183821
2.060920529
2.053384799
2.042239835
2.030176304
2.025412199
2.021395592
2.012162175
2.001629098
1.992188588
1.981170071
1.978317766
1.976809085
1.105044977
1.115266114
1.881426832
2.189729238
2.166258125
2.131328687
2.107026064
2.098432276
2.105498651
2.122036102
2.147702175
2.161979132
2.167835922
2.171444231
2.169186882
2.169071389
2.16196772
2.14783076
2.132483654
2.124491041
2.115137886
2.103975187
2.092823441
2.082462477
2.073853607
2.062816125
2.053591689
2.042131049
2.029973843
2.025270426
2.022789407
2.014017736
2.001698645
1.990188295
1.983192053
1.982504086
1.980558381
1.103591784
1.111181711
1.848710559
2.179000173
2.154476104
2.128439154
2.106663838
2.103903279
2.101525114
2.124735702
2.144565292
2.15757316
2.166981757
2.172944836
2.171246652
2.168762809
2.158968557
2.142671632
2.130283437
2.124164868
2.114947006
2.105030718
2.0932969
2.083603844
2.0754823
2.063867835
2.053507721
2.041410663
2.029409372
2.025300672
2.024295995
2.015332844
2.000493602
1.990404963
1.986081943
1.986889086
1.984448274
1.10287023
1.108031455
1.814687215
2.168046609
2.142595817
2.122125686
2.105649201
2.110302087
2.108901778
2.127268854
2.140274556
2.152857312
2.167266174
2.176553256
2.173917053
2.166571796
2.152266285
2.136914918
2.128072695
2.124822472
2.117336269
2.105073191
2.093450068
2.085341786
2.07687042
2.064623855
2.052862389
2.040637826
2.029582294
2.025972058
2.026394802
2.016095552
1.999092196
1.991398934
1.990234361
1.992472562
1.988068278
1.10195087
1.105112178
1.786016619
2.157603522
2.132391515
2.114273557
2.110132392
2.117687152
2.119559092
2.129044782
2.134905136
2.149252385
2.167974639
2.179782911
2.175734568
2.162689538
2.147408786
2.133934129
2.127066553
2.125582146
2.118194867
2.106583275
2.09581427
2.08762459
2.078119222
2.065119467
2.05182966
2.041112481
2.03073083
2.028322114
2.028068001
2.016306718
1.999349453
1.994457898
1.996687139
1.998283721
1.989449088
1.101052017
1.099387655
1.101460236
1.763765378
2.147113566
2.1200767
2.10568571
2.116922592
2.128581065
2.131090614
2.13038669
2.132439877
2.148457708
2.168695137
2.181536395
2.175062234
2.159697871
2.146624052
2.132461789
2.126705734
2.126119235
2.118639787
2.108607688
2.099171713
2.090180919
2.079188153
2.064740775
2.052163394
2.042940298
2.034510502
2.032228499
2.028921902
2.016158377
2.000628694
2.000200308
2.003758947
2.000644466
1.989777234
1.097524047
1.095656825
1.097386692
1.744218922
2.136236896
2.104081317
2.104288141
2.127667539
2.141495704
2.137922562
2.130823218
2.133709314
2.150227262
2.168943175
2.179664387
2.169585985
2.157758714
2.146173617
2.131033109
2.126250879
2.125290801
2.120268945
2.111760096
2.102735034
2.092550453
2.079777647
2.063544543
2.053657589
2.047354265
2.040303962
2.035051912
2.029231991
2.017124754
2.004967717
2.007397137
2.006756858
2.000079866
1.989558103
1.092514606
1.091491265
1.093796683
1.723997147
2.121507347
2.095151625
2.107899983
2.142790947
2.148233892
2.140565426
2.131702764
2.13649705
2.152385451
2.167966097
2.174439213
2.162881026
2.155489329
2.144840529
2.128772378
2.124215712
2.125502021
2.12283687
2.114746555
2.10549916
2.094209372
2.078561782
2.064583385
2.056557207
2.051364733
2.043748354
2.036858336
2.030060585
2.019380337
2.012554511
2.012588806
2.005821398
1.998557773
1.989297926
1.087150006
1.08722914
1.090488076
1.69879369
2.10175057
2.092893394
2.116498597
2.154702912
2.149090802
2.140523597
2.132590971
2.139616478
2.152818144
2.163805547
2.16800391
2.158259694
2.152548523
2.14209328
2.125319388
2.122193523
2.12680056
2.124680693
2.11661997
2.107056675
2.09401869
2.077164034
2.066865033
2.05952492
2.053712388
2.045765774
2.038242661
2.031891589
2.024869414
2.020898182
2.015156105
2.004968561
1.997674235
1.988667292
1.082383297
1.082862685
1.08647592
1.665492635
2.075768841
2.095547302
2.129766676
2.158452068
2.144529825
2.136724801
2.132020392
2.141010316
2.150670185
2.156831365
2.161942225
2.153682627
2.149115347
2.138570673
2.123478879
2.122235199
2.127773732
2.125598238
2.117498184
2.106936948
2.0905554
2.077863255
2.069273026
2.06160863
2.055508017
2.046928783
2.040046757
2.03571154
2.034222616
2.026819968
2.016031288
2.004803665
1.997551325
1.987874324
1.077386587
1.077873037
1.081239297
1.630534222
2.053744403
2.101862535
2.141606423
2.159578628
2.139044244
2.133245347
2.132672166
2.142116146
2.148177297
2.149909323
2.155454373
2.147818886
2.145308177
2.136016875
2.123527427
2.122713261
2.12811764
2.125822423
2.117125258
2.10315881
2.088042715
2.07946195
2.07102779
2.063122885
2.056315517
2.048330133
2.043662679
2.043567146
2.041729325
2.028528245
2.016654388
2.00551677
1.997994452
1.986439103
1.071017075
1.07172705
1.074912679
1.603659786
2.046870301
2.109083409
2.149576324
2.15724413
2.139673927
2.134649234
2.136322882
2.143272749
2.146716414
2.145066263
2.147682352
2.140685769
2.140816408
2.134379788
2.124319563
2.123281404
2.128186221
2.125028612
2.11371926
2.098792082
2.088251774
2.080500189
2.072073168
2.063551649
2.057957479
2.051716756
2.050928896
2.05170269
2.044455825
2.029297483
2.017699067
2.00707608
1.997726818
1.984021666
1.062999135
1.064066189
1.067330905
1.580747002
2.046747698
2.112580291
2.151752357
2.151950966
2.143668649
2.140816388
2.141289888
2.143964465
2.145459348
2.141325421
2.140157097
2.134101151
2.136108993
2.133339848
2.125803938
2.12416653
2.127546506
2.121638856
2.108443913
2.097326758
2.088407278
2.080777968
2.072179066
2.064597313
2.0614464
2.05829382
2.058196729
2.055207323
2.045878609
2.030772232
2.019615723
2.008105072
1.99664795
1.981292252
1.052640857
1.054344665
1.058234031
1.552616891
2.045041977
2.109311624
2.142423301
2.149005119
2.148901268
2.147950664
2.145996224
2.143641852
2.142383723
2.136794272
2.133409555
2.128404731
2.131548575
2.131891629
2.127208098
2.124468274
2.12574551
2.11686184
2.105656596
2.096261789
2.087874486
2.080401072
2.070958414
2.067097595
2.066655233
2.063773755
2.06129555
2.057179274
2.04786552
2.034192846
2.022423131
2.008587237
1.995374618
1.979861465
1.040617275
1.043141985
1.046978096
1.517081798
2.037264405
2.100386477
2.124257295
2.140910882
2.150390165
2.153037535
2.149436746
2.140643764
2.136937475
2.130806932
2.127074527
2.123194982
2.128224859
2.13155865
2.127931441
2.125892335
2.124701818
2.115196669
2.105255308
2.09562077
2.08733639
2.078181733
2.07033586
2.069504099
2.069738391
2.065906612
2.063541671
2.059641701
2.051703496
2.038773298
2.023748303
2.008448411
1.995053315
1.979336673
1.0268929
1.029733129
1.033768378
1.480878999
2.022638209
2.099427545
2.112431845
2.13326163
2.147246926
2.153576186
2.148119013
2.138638945
2.132849722
2.12436859
2.12000518
2.117581193
2.126115673
2.131151546
2.128184337
2.127005105
2.124492879
2.115709595
2.105630446
2.095467994
2.085143272
2.074239817
2.070793155
2.07132521
2.071378873
2.067421297
2.066415168
2.063531423
2.056104746
2.040467526
2.023932727
2.00845156
1.995014176
1.979290159
1.013044412
1.016212745
1.017960912
1.433847891
2.007826728
2.108097059
2.113553849
2.128140434
2.142441388
2.14989632
2.146918935
2.140705499
2.131166562
2.117792993
2.111511305
2.112293261
2.124122874
2.13037398
2.127955174
2.128042964
2.126137089
2.117497949
2.106510003
2.09439368
2.079626202
2.072579069
2.071812647
2.07272523
2.071468338
2.069966644
2.070309933
2.066821342
2.057372743
2.040868388
2.024115151
2.008777639
1.995538128
1.980228205
0.9977550481
1.000561024
1.00374145
1.009675948
1.436307453
2.030156102
2.114410506
2.117380237
2.121857487
2.138612539
2.14915587
2.149160303
2.142643559
2.127402727
2.109117151
2.100226106
2.107094467
2.122483522
2.128753305
2.126845746
2.128563572
2.127794561
)
;

boundaryField
{
    inlet
    {
        type            calculated;
        value           nonuniform 0();
    }
    outlet
    {
        type            calculated;
        value           nonuniform List<scalar> 
61
(
1.866100598
1.868683702
1.870468496
1.872168932
1.87421451
1.876877366
1.879930562
1.882662722
1.884821414
1.887130564
1.890674828
1.896741343
1.904525903
1.910417662
1.913968123
1.916582222
1.919526085
1.923866584
1.928814669
1.930728934
1.931277955
1.93083561
1.92954913
1.929705541
1.93033902
1.932437022
1.935790172
1.937707904
1.938876773
1.939623858
1.939715478
1.939166738
1.939515597
1.940965793
1.942602614
1.94471639
1.946918444
1.948295222
1.949684013
1.951273626
1.953406222
1.95775378
1.964694729
1.971650568
1.976706555
1.980444891
1.984272629
1.988048308
1.989544176
1.989891596
1.989590652
1.989262305
1.988629243
1.987864889
1.9865109
1.984181488
1.981404615
1.979849559
1.979279657
1.97917704
1.980184516
)
;
    }
    bottom
    {
        type            calculated;
        value           nonuniform 0();
    }
    top
    {
        type            calculated;
        value           nonuniform 0();
    }
    obstacle
    {
        type            calculated;
        value           nonuniform 0();
    }
    defaultFaces
    {
        type            empty;
    }
    procBoundary17to11
    {
        type            processor;
        value           nonuniform List<scalar> 
34
(
2.327860377
2.301778042
2.292329087
2.291680932
2.294713629
2.285133053
2.264863352
2.241278186
2.224326788
2.209673053
2.190317857
2.171945442
2.151572313
2.130872812
2.110473678
2.095678289
2.081254945
2.063039821
2.039986875
2.019216579
2.001890635
1.988789184
1.980717004
1.969243455
1.961199397
1.963104881
1.959778157
1.940881774
1.926737866
1.913176832
1.89494334
1.881557521
1.878070199
1.861998051
)
;
    }
    procBoundary17to16
    {
        type            processor;
        value           nonuniform List<scalar> 
66
(
2.334564369
2.324003423
2.314704279
2.308367088
2.298677741
2.285214179
2.266948987
2.256401548
2.253459391
2.253459391
1.920638356
1.884270459
1.844135596
1.809902007
1.788455105
1.775080971
1.765866348
1.753541857
1.729774916
1.682116365
1.662736124
1.659133171
1.652951625
1.641824257
1.641824257
1.130335269
1.131940397
1.13358959
1.134624358
1.135022677
1.134037858
1.130324873
1.126314093
1.123309906
1.122397639
1.123192495
1.124234698
1.125105692
1.125211712
1.125211712
1.123907213
1.122428618
1.120752263
1.117912408
1.114145516
1.110602951
1.107950712
1.105838889
1.104279232
1.10335653
1.103235622
1.102867355
1.102867355
1.099265399
1.096849905
1.092321008
1.087225039
1.082418155
1.077348957
1.07101033
1.062946592
1.052233126
1.039124965
1.024719814
1.010504027
1.010504027
)
;
    }
    procBoundary17to22
    {
        type            processor;
        value           uniform 0.9970832052;
    }