/*--------------------------------*- C++ -*----------------------------------*\
  =========                 |
  \\      /  F ield         | OpenFOAM: The Open Source CFD Toolbox
   \\    /   O peration     | Website:  https://openfoam.org
    \\  /    A nd           | Version:  7
     \\/     M anipulation  |
\*---------------------------------------------------------------------------*/
FoamFile
{
    version     2.0;
    format      ascii;
    class       volScalarField;
    location    "4";
    object      T;
}
// * * * * * * * * * * * * * * * * * * * * * * * * * * * * * * * * * * * * * //

dimensions      [0 0 0 1 0 0 0];

internalField   nonuniform List<scalar> 
2222
(
1
1
1
1
1
1
1
1
1
1
1
1
1
1
1
1
1
1
1
1
1
1
1
1
1
1
1
1
1
1
1
1
1
1
1
1
1
1
1
1
1
1
1
1
1
1
1
1
1
1
1
1
1
1
1
1
1
1
1
1
1
1
1
1
1
1
1
1
1
1
1
1
1
1
1
1
1
1
1
1
1
1
1
1
1
1
1
1
1
1
1
1
1
1
1
1
1
1
1
1
1
1
1
1
1
1
1
1
1
1
1
1
1
1
1
1
1
1
1
1
1
1
1
1
1
1
1
1
1
1
1
1
1
1
1
1
1
1
1
1
1
1
1
1
1
1
1
1
1
1
1
1
1
1
1
1
1
1
1
1
1
1
1
1
1
1
1
1
1
1
1
1
1
1
1
1
1
1
1
1
1
1
1
1
1
1
1
1
1
1
1
1
1
1
1
1
1
1
1
1
1
1
1
1
1
1
1
1
1
1
1
1
1
1
1
1
1
1
1
1
1
1
1
1
1
1
1
1
1
1
1
1
1
1
1
1
1
1
1
1
1
1
1
1
1
1
1
1
1
1
1
1
1
1
1
1
1
1
1
1
1
1
1
1
1
1
1
1
1
1
1
1
1
1
1
1
1
1
1
1
1
1
1
1
1
1
1
1
1
1
1
1
1
1
1
1
1
1
1
1
1
1
1
1
1
1
1
1
1
1
1
1
1
1
1
1
1
1
1
1
1
1
1
1
1
1
1
1
1
1
1
1
1
1
1
1
1
1
1
1
1
1
1
1
1
1
1
1
1
1
1
1
1
1
1
1
1
1
1
1
1
1
1
1
1
1
1
1
1
1
1
1
1
1
1
1
1
1
1
1
1
1
1
1
1
1
1
1
1
1
1
1
1
1
1
1
1
1
1
1
1
1
1
1
1
1
1
1
1
1
1
1
1
1
1
1
1
1
1
1
1
1
1
1
1
1
1
1
1
1
1
1
1
1
1
1
1
1
1
1
1
1
1
1
1
0.9999999998
1
1
1
1
1
1
1
1
1
1
1
1
1
1
1
1
1
1
1
1
1
1
1
1
1
1
1
1
1
1
1
1
1
1
1
1
1
1
1
1
1
1
1
1
1
1
1
1
1
1
1
1
1
1
1
1
1
1
1
1
1
1
1
1
1
1
0.9999999957
1
1
1
1
1
1
1
1
1
1
1
1
1
1
1
1
1
1
1
1
1
1
1
1
1
1
1
1
1
1
1
1
1
1
1
1
1
1
1
1
1
1
1
1
1
1
1
1
1
1
1
1
1
1
1
1
1
1
1
1
1
1
1
1
1.000000003
1.000000089
0.999999984
1
1
1
1
1
1
1
1
1
1
1
1
1
1
1
1
1
1
1
1
1
1
1
1
1
1
1
1
1
1
1
1
1
1
1
1
1
1
1
1
1
1
1
1
1
1
1
1
1
1
1
1
1
1
1
1
1
1
1
1.000000001
1.000000006
1.000000032
1.000000155
1.000000703
1.000002478
1.000017245
1.000006774
1
1
1
1
1
1
1
1
1
1
1
1
1
1
1
1
1
1
1
1
1
1
1
1
1
1
1
1
1
1
1
1
1
1
1
1
1
1
1
1
1
1
1
1
1
1
1
1
1
1
1
1
1
1
1
1.000000002
1.000000011
1.000000057
1.000000268
1.000001121
1.000004257
1.000014364
1.000044782
1.000124661
1.000316774
1.000815185
1.001265136
1
1
1
1
1
1
1
1
1
1
1
1
1
1
1
1
1
1
1
1
1
1
1
1
1
1
1
1
1
1
1
1
1
1
1
1
1
1
1
1
1
1
1
1
1
1
1
1
1
1
1.000000001
1.000000004
1.00000002
1.000000103
1.000000463
1.000001844
1.000006764
1.000021855
1.000066393
1.00017509
1.000447609
1.000983134
1.002110565
1.003949185
1.007237189
1.01192628
1.017457101
1
1
1
1
1
1
1
1
1
1
1
1
1
1
1
1
1
1
1
1
1
1
1
1
1
1
1
1
1
1
1
1
1
1
1
1
1
1
1
1
1
1
1
1
1
1
1.000000001
1.000000007
1.000000039
1.000000186
1.000000798
1.000003086
1.000010776
1.000033478
1.000097427
1.000250097
1.000613194
1.001312416
1.002721324
1.004945972
1.008815363
1.013887509
1.021318294
1.029573979
1.039898437
1.050748913
1.060681889
1
1
1
1
1
1
1
1
1
1
1
1
1
1
1
1
1
1
1
1
1
1
1
1
1
1
1
1
1
1
1
1
1
1
1
1
1
1
1
1
1
1
1.000000002
1.000000014
1.000000074
1.000000339
1.000001382
1.000005096
1.000017288
1.000051174
1.000144138
1.000357615
1.000840996
1.001738825
1.003501649
1.006212249
1.010701491
1.016398539
1.024477047
1.033547604
1.04419706
1.054668825
1.065216934
1.075155836
1.084094026
1.091852682
1.09704492
1
1
1
1
1
1
1
1
1
1
1
1
1
1
1
1
1
1
1
1
1
1
1
1
1
1
1
1
1
1
1
1
1
1
1
1
1
1.000000001
1.000000005
1.000000029
1.00000014
1.000000613
1.000002415
1.00000843
1.000027395
1.000078733
1.000211828
1.000508423
1.001155474
1.002326946
1.004462508
1.007747993
1.012971775
1.019348479
1.027776747
1.037788592
1.048924712
1.058795433
1.068492195
1.078654005
1.086531353
1.093601142
1.098039932
1.102026304
1.104258751
1.10650622
1.107809596
1
1
1
1
1
1
1
1
1
1
1
1
1
1
1
1
1
1
1
1
1
1
1
1
1
1
1
1
1
1
1
1
1
1.000000002
1.000000011
1.000000057
1.000000265
1.000001096
1.00000418
1.000014029
1.000043016
1.00012182
1.00031226
1.000712929
1.001584796
1.003075769
1.005675562
1.009778223
1.015443633
1.022681539
1.032235146
1.04222759
1.052746076
1.063535842
1.074056299
1.083204882
1.089999397
1.096312435
1.102274947
1.107214101
1.109779212
1.112092033
1.113394025
1.11393869
1.114341411
1.115160423
1.115360127
1
1
1
1
1
1
1
1
1
1
1
1
1
1
1
1
1
1
1
1
1
1
1
1
1
1
1
1
1.000000001
1.000000004
1.000000022
1.000000112
1.000000504
1.000001989
1.000007125
1.000023291
1.000068286
1.000182589
1.000459562
1.001012051
1.002121137
1.004125269
1.007193486
1.011969527
1.018649818
1.026222433
1.036628258
1.047693911
1.056845431
1.067715957
1.077899381
1.085732671
1.092669302
1.097845704
1.101077116
1.104621176
1.106849975
1.108648885
1.109705787
1.110308984
1.111324043
1.112993559
1.114328283
1.115198515
1.115701602
1.116275382
1.116461378
1
1
1
1
1
1
1
1
1
1
1
1
1
1
1
1
1
1
1
1
1
1
1
1
1.000000001
1.000000009
1.000000047
1.00000022
1.000000932
1.000003578
1.000012121
1.000037828
1.000109312
1.00027503
1.000658889
1.001449265
1.002828008
1.005372435
1.009257784
1.014398961
1.022322569
1.031115104
1.040577207
1.052387198
1.062711483
1.072968149
1.082723709
1.089638026
1.096075696
1.102987098
1.106818397
1.109633804
1.112554591
1.113628342
1.113985752
1.114874101
1.115727679
1.115876442
1.115644781
1.115041341
1.114587159
1.114248995
1.114203832
1.114300396
1.114462431
1.114651522
1.114928234
1
1
1
1
1
1
1
1
1
1
1
1
1
1
1
1
1
1
1
1
1.000000003
1.000000019
1.000000096
1.000000433
1.000001732
1.000006302
1.00002081
1.000061188
1.00016856
1.000419857
1.000937667
1.002011359
1.00387588
1.006816633
1.011664901
1.017743465
1.025689972
1.036509112
1.04593384
1.05636744
1.068055563
1.0767334
1.086196845
1.092909267
1.096869607
1.102432568
1.105548036
1.106685227
1.108818353
1.110423503
1.110710828
1.111677983
1.113505722
1.114726201
1.115258551
1.11597101
1.116857853
1.116845385
1.116706415
1.116525742
1.116338612
1.116063941
1.115609966
1.115203838
1.114763826
1.114480583
1.114415658
1
1
1
1
1
1
1
1
1
1
1
1
1
1
1
1.000000001
1.000000007
1.000000041
1.000000193
1.000000829
1.000003201
1.000010915
1.000034828
1.000100158
1.000256267
1.000625945
1.001358589
1.002712075
1.005230166
1.008813364
1.014184048
1.022048728
1.030229717
1.040423147
1.052073481
1.062188813
1.07332023
1.082402269
1.089278604
1.09769593
1.102949046
1.106784835
1.110976265
1.112719861
1.113492295
1.115066169
1.116098687
1.116084764
1.116163969
1.116142695
1.115792363
1.115142473
1.11472042
1.114551436
1.114586967
1.114751041
1.115023575
1.115142079
1.115208209
1.115247408
1.115240905
1.115222305
1.115147338
1.115024432
1.114953604
1.114846951
1.1147084
1
1
1
1
1
1
1
1
1
1
1
1.000000003
1.000000016
1.000000085
1.000000388
1.000001566
1.000005792
1.000019238
1.000057293
1.000159976
1.00039703
1.00090296
1.001946773
1.003721112
1.006740194
1.011439533
1.017329815
1.02593721
1.036140455
1.045295806
1.057057888
1.068187259
1.077045621
1.08690515
1.092693647
1.097535863
1.103719497
1.105613222
1.107452223
1.110046536
1.11067194
1.111257538
1.11263811
1.113987556
1.114874727
1.115686889
1.11690434
1.117224302
1.117244472
1.117154684
1.116965802
1.116714102
1.116382958
1.115942799
1.115559447
1.115091365
1.114741486
1.114570188
1.114408776
1.114353703
1.114353619
1.114385872
1.1144654
1.114589477
1.114743611
1.114788013
1.114767148
1
1
1
1
1
1
1.000000001
1.000000007
1.000000037
1.000000177
1.000000768
1.000002976
1.000010261
1.00003329
1.000095259
1.000245859
1.000607646
1.001313902
1.002675857
1.005154697
1.008679995
1.014302036
1.0218523
1.030122163
1.041057713
1.052085067
1.062699846
1.073964505
1.082485207
1.090597316
1.098861287
1.103471866
1.107749969
1.112024379
1.113271983
1.114457254
1.116350721
1.116732274
1.116725101
1.116866883
1.116774132
1.116330217
1.11569941
1.11516406
1.114884414
1.114923643
1.115225649
1.115366678
1.115485385
1.115515393
1.115417533
1.115300069
1.11529754
1.115277426
1.115162598
1.115050725
1.1149274
1.114744197
1.1145599
1.114464997
1.114397616
1.114406043
1.114433107
1.114494154
1.114567345
1.114603283
1.114628795
1
1
1.000000003
1.000000015
1.00000008
1.000000366
1.00000149
1.000005549
1.000018424
1.000055424
1.000155861
1.000385533
1.000889917
1.001938412
1.003688678
1.00674566
1.011434069
1.017380421
1.026319701
1.036212677
1.045825985
1.058078051
1.068713363
1.078582442
1.08759407
1.093160698
1.099535804
1.104659105
1.106315317
1.108804706
1.110796217
1.11131873
1.112155547
1.113580874
1.1147576
1.115606214
1.11654123
1.117610253
1.117943254
1.117902515
1.117745065
1.11749691
1.117209654
1.116844226
1.116333398
1.115855963
1.115282863
1.114872754
1.114634969
1.114448503
1.114362465
1.114346042
1.11436505
1.114460263
1.114589421
1.114682609
1.11473923
1.114745857
1.114744378
1.114752988
1.11472806
1.114725421
1.114746947
1.11479268
1.114828413
1.114827953
1.114815369
1.00000017
1.000000745
1.000002891
1.000010135
1.000032948
1.000093343
1.000245262
1.000605744
1.001303829
1.002703561
1.00517208
1.008682092
1.01455094
1.022145807
1.030578877
1.041893674
1.052836788
1.063849968
1.075133165
1.083633566
1.092517597
1.099967702
1.104657159
1.109566956
1.113094443
1.114315631
1.116047037
1.117587962
1.117591264
1.117619886
1.117659235
1.117498592
1.117070726
1.116447492
1.115840412
1.115422396
1.115430494
1.115666648
1.115781663
1.115813825
1.115701803
1.115526085
1.115502904
1.115546502
1.115466417
1.115213146
1.115012679
1.114914948
1.114773258
1.114620712
1.114508153
1.114409351
1.114410234
1.114444843
1.114513364
1.114537615
1.114560523
1.114613697
1.114699631
1.114783398
1.114865544
1.114938432
1.115027617
1.115053761
1.115050153
1.11504622
1.115043676
1.000055696
1.000155791
1.00038703
1.000913615
1.001959206
1.003732806
1.006919328
1.011555234
1.017770067
1.027192953
1.036656828
1.046707163
1.059583413
1.069918427
1.080308285
1.089186289
1.094679428
1.101586337
1.105892599
1.107661053
1.110328569
1.111790676
1.112403226
1.113461633
1.114773106
1.115873143
1.116673223
1.117801285
1.118495368
1.118694855
1.118624271
1.118433563
1.118194388
1.117886648
1.117423895
1.116773603
1.116140022
1.115420322
1.114961675
1.114636197
1.11442004
1.114408216
1.114434173
1.114483327
1.114522978
1.114539258
1.11458294
1.11467891
1.114761694
1.114810217
1.114834393
1.114835969
1.114837385
1.114854167
1.114873605
1.114863607
1.114857489
1.114890537
1.114967979
1.115056361
1.115112132
1.115124589
1.115124801
1.115121158
1.115117977
1.115125079
1.115143818
1.002804194
1.005221935
1.008955679
1.015181475
1.022495381
1.031444855
1.043168666
1.05398441
1.065789385
1.076962929
1.085215937
1.094898703
1.10192424
1.106558743
1.111815171
1.114651606
1.115781152
1.117794782
1.118965453
1.118891396
1.11882497
1.118742442
1.118553023
1.11803676
1.117345364
1.116653471
1.116142108
1.116254032
1.116347962
1.116312718
1.116128799
1.115868548
1.115709913
1.115737803
1.115762249
1.115644899
1.115334504
1.115079269
1.114881541
1.114713194
1.114569329
1.114497608
1.114469641
1.114464899
1.114492606
1.114496569
1.114521107
1.11456759
1.114644708
1.114752457
1.114907688
1.115039395
1.11514868
1.115200854
1.115199923
1.115188981
1.115188192
1.115201408
1.115238467
1.115285268
1.115300082
1.115293812
1.115267629
1.11522387
1.115188924
1.115184144
1.115194138
1.02822268
1.037228166
1.048544577
1.061559133
1.071705522
1.082734763
1.090730917
1.096505125
1.104194506
1.107562859
1.109653947
1.11250784
1.113226394
1.113746102
1.114912605
1.116184975
1.117273971
1.118089931
1.119232613
1.119627775
1.119639837
1.119519495
1.119245901
1.118956441
1.118603049
1.118028507
1.117282929
1.116341131
1.115563986
1.115066495
1.114570721
1.11434285
1.114341967
1.11443663
1.114593074
1.114629866
1.114614125
1.114607147
1.114618516
1.114664288
1.114753695
1.114874234
1.114990998
1.11504813
1.115043773
1.115007688
1.114987544
1.114999738
1.115024263
1.115075961
1.115165204
1.115248482
1.115257747
1.115256353
1.115244589
1.115233212
1.115235556
1.115248532
1.115280485
1.115328747
1.115352392
1.115350264
1.115339985
1.11532206
1.115308862
1.115308934
1.115314768
1.078866672
1.08771622
1.098202414
1.10432707
1.10904081
1.114255821
1.116512664
1.118055377
1.120325248
1.120815916
1.120722816
1.120601809
1.120299162
1.119723378
1.118965673
1.118229834
1.117480231
1.117179532
1.117203545
1.117246797
1.117122245
1.116731684
1.116136837
1.115884642
1.115899796
1.115817248
1.11550525
1.115242934
1.115049077
1.114820498
1.114566048
1.114317735
1.114289503
1.114319471
1.114391509
1.114434626
1.114483358
1.114576638
1.11468237
1.114797255
1.114928721
1.115081995
1.115245009
1.115382271
1.115424007
1.115427136
1.115422443
1.115408429
1.115398142
1.115397014
1.115405229
1.115405043
1.115385746
1.115348523
1.115306266
1.115271931
1.115264921
1.115271755
1.115292961
1.115327236
1.115346331
1.115348778
1.115349183
1.115349187
1.115354462
1.11536616
1.115389776
1.109653114
1.111866128
1.114378428
1.114908768
1.115682611
1.116859381
1.117897412
1.118886693
1.119732667
1.120789154
1.120912659
1.120844419
1.120635091
1.120212756
1.119821587
1.119346449
1.118633428
1.117857103
1.117145603
1.116238066
1.115453635
1.114629898
1.114146137
1.11413439
1.114228382
1.114326119
1.114412476
1.114478612
1.114537175
1.114646081
1.114721007
1.114793537
1.114916765
1.115039849
1.115114476
1.115129913
1.115110831
1.11507731
1.115082437
1.115113503
1.115163149
1.115238065
1.115306757
1.115353276
1.115375198
1.115387217
1.115404349
1.115432779
1.115464749
1.115487133
1.115492148
1.115492408
1.115489484
1.115480203
1.115466704
1.115447564
1.115435978
1.11543662
1.115444123
1.115451593
1.115452154
1.115448647
1.115437037
1.115424172
1.115424075
1.115431559
1.11544496
1.122805665
1.122582616
1.122341947
1.121960691
1.121355289
1.120426861
1.11928903
1.118249492
1.117606274
1.117650117
1.117636542
1.11750156
1.116962457
1.116602167
1.116432331
1.116119304
1.115632128
1.115141867
1.114703903
1.11437677
1.114157017
1.113957323
1.113945988
1.113995549
1.114119282
1.114177711
1.114246373
1.11446556
1.1147589
1.114927407
1.115005612
1.115092139
1.115212248
1.115312202
1.115349329
1.115383898
1.115433177
1.115457865
1.115457216
1.115454306
1.115461096
1.115478332
1.115485739
1.115484603
1.115481838
1.115474424
1.115475115
1.115494515
1.115521449
1.115548784
1.115571681
1.115578802
1.115581207
1.11557138
1.115559215
1.115574654
1.115588375
1.115587994
1.115582764
1.115570652
1.115560106
1.115548275
1.115531994
1.115511204
1.115493047
1.115490058
1.115494632
1.12282237
1.122590121
1.122331325
1.121991601
1.121436439
1.120795186
1.12006799
1.119025022
1.117771667
1.116523612
1.115734648
1.114990513
1.114360492
1.114382447
1.114406082
1.114344449
1.114237014
1.11413343
1.114093977
1.114201671
1.114420617
1.114700092
1.114923496
1.115026888
1.115065025
1.115036182
1.115024594
1.115094684
1.115261509
1.115348815
1.115394202
1.115446493
1.115525251
1.115569444
1.11558208
1.115602209
1.1156308
1.115655992
1.115668776
1.115668822
1.115666678
1.11565503
1.115636363
1.115615286
1.115595417
1.115581387
1.115578492
1.115585939
1.115599394
1.115615456
1.115629609
1.115633689
1.115633504
1.115623946
1.115624224
1.115638637
1.115659237
1.115672281
1.115679414
1.115687675
1.115692044
1.115687874
1.115675257
1.115660746
1.115644107
1.115636434
1.115638329
1.118060974
1.117892505
1.117574214
1.117183813
1.116680851
1.116335093
1.115997871
1.115434424
1.114617062
1.114051537
1.113733383
1.113391965
1.113250325
1.113333383
1.11345295
1.113558761
1.113684287
1.113868553
1.11419356
1.114674212
1.1152022
1.115690899
1.116014636
1.116071819
1.116064444
1.115977975
1.115795145
1.115681765
1.115672538
1.115681969
1.115689109
1.115685474
1.115685011
1.115662499
1.115592003
1.11556819
1.115585277
1.115625541
1.115687884
1.115733484
1.115748515
1.115761646
1.115765165
1.115752199
1.115737108
1.115738167
1.11574584
1.115761913
1.115771737
1.115774012
1.115770444
1.115750428
1.115722854
1.115704905
1.11570251
1.115706083
1.11572443
1.115751857
1.115765168
1.115769784
1.115771392
1.115767832
1.115758955
1.115755492
1.115760759
1.115772037
1.115775568
1.115002677
1.114956055
1.115009672
1.114982842
1.114898288
1.11489088
1.115000391
1.115093195
1.115039882
1.114851078
1.114816562
1.114925645
1.115236892
1.115488498
1.115619428
1.115694186
1.115738872
1.115767962
1.115780979
1.115782012
1.115803477
1.115879536
1.115987714
1.116029667
1.11601989
1.115989216
1.115920305
1.115824143
1.115791503
1.115792425
1.115820263
1.115871671
1.11588656
1.115878085
1.115854814
1.115817508
1.115797897
1.115797527
1.115815604
1.115862471
1.115899857
1.115901169
1.115887542
1.115854433
1.115808962
1.115787618
1.11578313
1.115786228
1.115803774
1.115821368
1.115822326
1.115818061
1.115807866
1.115795569
1.115791063
1.115791617
1.115805673
1.115835892
1.115851078
1.115850439
1.115849537
1.115873219
1.115943055
1.116013757
1.116031736
1.116017334
1.11597416
1.115940215
1.115934848
1.115939037
1.115982893
1.116066122
1.116089443
1.116063048
1.116006721
1.115932637
1.115892861
1.115881877
1.115881979
1.115925645
1.115994872
1.115999565
1.115969736
1.115912738
1.115857481
1.115839576
1.115833068
1.115834181
1.115865759
1.11589752
1.115889747
1.115866468
1.115837365
1.115817436
1.11580876
1.115805029
1.115814422
1.115847253
1.115866637
1.115861485
1.115850537
)
;

boundaryField
{
    inlet
    {
        type            fixedValue;
        value           nonuniform 0();
    }
    outlet
    {
        type            inletOutlet;
        inletValue      nonuniform 0();
        value           nonuniform 0();
    }
    bottom
    {
        type            slip;
    }
    top
    {
        type            slip;
    }
    obstacle
    {
        type            zeroGradient;
    }
    defaultFaces
    {
        type            empty;
    }
    procBoundary14to7
    {
        type            processor;
        value           nonuniform List<scalar> 2(1 1);
    }
    procBoundary14to8
    {
        type            processor;
        value           nonuniform List<scalar> 
70
(
1
1
1
1
1
1
1
1
1
1
1
1
1
1
1
1
1
1
1
1
1
1
1
1
1
1
1
1
1
1
1
1
1
1
1
1
1
1
1
1
1
1
1
1
1
1
1
1
1
1
1
1
1
1
1
1
1
1
1
1
1
1
1
1
1
1
1
1
1
1
)
;
    }
    procBoundary14to9
    {
        type            processor;
        value           nonuniform List<scalar> 
32
(
1
1
1
1
1.000000004
1.000000582
1.000036786
1.000985595
1.010366371
1.043573235
1.08645503
1.109752672
1.111680298
1.114736852
1.11609328
1.115059935
1.114375249
1.114456943
1.114711935
1.11480562
1.114881896
1.115072392
1.115187413
1.115261721
1.115348409
1.115414777
1.115466639
1.115488266
1.11549104
1.114151375
1.102282097
1.049218171
)
;
    }
    procBoundary14to13
    {
        type            processor;
        value           nonuniform List<scalar> 
31
(
1
1
1
1
1
1
1
1
1
1
1
1
1
1
1
1
1
1
1
1
1
1
1.000000035
1.000018229
1.001336094
1.018741312
1.068266712
1.107328525
1.12273577
1.122294451
1.118268605
)
;
    }
    procBoundary14to20
    {
        type            processor;
        value           nonuniform List<scalar> 
28
(
1.115906221
1.115406245
1.114887088
1.114783393
1.114886198
1.115150426
1.115178207
1.115178207
1.113492888
1.113892741
1.114486484
1.115089909
1.115614853
1.116054088
1.116455143
1.116777548
1.116874561
1.116819226
1.116703934
1.116589416
1.116518999
1.116416221
1.116267846
1.116103801
1.115960629
1.115884832
1.115856853
1.115856853
)
;
    }
}


// ************************************************************************* //
