/*--------------------------------*- C++ -*----------------------------------*\
  =========                 |
  \\      /  F ield         | OpenFOAM: The Open Source CFD Toolbox
   \\    /   O peration     | Website:  https://openfoam.org
    \\  /    A nd           | Version:  7
     \\/     M anipulation  |
\*---------------------------------------------------------------------------*/
FoamFile
{
    version     2.0;
    format      ascii;
    class       volScalarField;
    location    "0.7";
    object      rho;
}
// * * * * * * * * * * * * * * * * * * * * * * * * * * * * * * * * * * * * * //

dimensions      [1 -3 0 0 0 0 0];

internalField   nonuniform List<scalar> 
558
(
1.076090831
1.055700637
1.028615807
1.000537628
0.9917618113
0.9833174599
0.9841695167
0.9914680447
1.439574212
1.373237457
1.331362889
1.295212495
1.243926866
1.207011289
1.182979461
1.146980609
1.117689643
1.104573468
1.081103574
1.049627189
1.027160285
1.013622613
0.9986096502
0.988082094
1.504028601
1.442090688
1.385328275
1.34947748
1.30101386
1.257497914
1.232565439
1.201428195
1.162333574
1.139953743
1.119974008
1.088832829
1.062297312
1.046835287
1.026424492
1.001765828
1.562431266
1.507719245
1.444778511
1.403030624
1.361342609
1.311467571
1.278281111
1.25062581
1.209268765
1.176173635
1.156491237
1.130377614
1.106264813
1.087281712
1.070092763
1.043782937
1.61659473
1.56798546
1.507180448
1.455146506
1.416277164
1.365938052
1.324865687
1.294802887
1.260649058
1.221984327
1.198231432
1.17595227
1.143398016
1.119813904
1.100793337
1.078261355
1.669805704
1.620110492
1.567557778
1.51045517
1.467523528
1.423350958
1.373903615
1.341461961
1.309752158
1.268195753
1.236462354
1.212355632
1.184043166
1.157733943
1.139723617
1.119460739
1.719092669
1.669200949
1.621526529
1.565570815
1.516846765
1.477316821
1.427570875
1.386109774
1.353250264
1.317516579
1.279244723
1.252090446
1.224271172
1.19426421
1.176200733
1.155906116
1.759139748
1.715638822
1.669064097
1.620719782
1.56561584
1.524943035
1.482171039
1.434536385
1.39857722
1.362937862
1.324785963
1.295206546
1.264508086
1.231852748
1.205762588
1.189564565
1.788498932
1.75522387
1.712334715
1.668820448
1.617412629
1.571329953
1.529887548
1.485321897
1.44369584
1.408210438
1.367794795
1.333673307
1.306597742
1.27454976
1.243736493
1.223180722
1.805597553
1.784927351
1.751196415
1.710042101
1.666828958
1.617290778
1.57617568
1.533685301
1.489346914
1.453393267
1.41316456
1.375692182
1.345113408
1.314924537
1.283461405
1.258031059
1.811945168
1.803053751
1.781602204
1.747971269
1.709367936
1.664324881
1.620355413
1.57840737
1.536844448
1.495267837
1.458410085
1.419234797
1.384668494
1.353932036
1.319125252
1.294526328
1.81230619
1.809803196
1.800218052
1.778234498
1.746370867
1.70793127
1.66359673
1.622588793
1.580763232
1.539762294
1.50008351
1.461795899
1.426141299
1.393203907
1.35937849
1.331137356
1.807399187
1.808205894
1.807086714
1.797306946
1.776403062
1.744415748
1.706632388
1.664332964
1.622837982
1.583716066
1.541808674
1.503847855
1.466787716
1.432409872
1.396987034
1.366358743
1.773351871
1.808458673
1.807642305
1.804072906
1.794423019
1.773741058
1.743767095
1.704392419
1.664700972
1.623428068
1.585568587
1.542739247
1.507895612
1.473575087
1.435452438
1.403074343
1.724158063
1.788170818
1.799215414
1.802432833
1.800835067
1.792323652
1.772999195
1.742064116
1.704064706
1.663187559
1.626588347
1.583528945
1.545637949
1.511382317
1.475800024
1.441043933
1.596744064
1.692658806
1.778028501
1.802653267
1.801250928
1.798494401
1.790320757
1.771147097
1.740112247
1.702220644
1.664672632
1.625481883
1.585011459
1.549168443
1.51303358
1.474851979
1.47857077
1.593500476
1.722684176
1.776404319
1.790307016
1.798604776
1.797649024
1.789936966
1.769946194
1.738583835
1.702353345
1.663027482
1.624049927
1.586803403
1.55233972
1.512071351
1.421193316
1.487109016
1.594386957
1.692475466
1.778012275
1.798419409
1.796517738
1.79634698
1.78903112
1.768843417
1.737356511
1.700732874
1.661330538
1.622249233
1.588231668
1.550671385
1.403720562
1.424450595
1.478526913
1.595146128
1.720558239
1.768559075
1.785286235
1.797714208
1.796829803
1.788323488
1.766333961
1.735674471
1.698050506
1.659996176
1.622970684
1.584665531
1.400442119
1.404205327
1.421353627
1.486496297
1.590809841
1.696407458
1.778736542
1.794489818
1.793887628
1.794559046
1.786345413
1.764952267
1.73214604
1.69578784
1.658592525
1.621867161
1.400039872
1.400473903
1.403807712
1.423566976
1.478989681
1.596189546
1.716804044
1.758117254
1.782327984
1.797076254
1.795996862
1.785687977
1.762442434
1.729966465
1.693004153
1.657496422
1.400007032
1.4000401
1.400467027
1.404013995
1.42203705
1.483970368
1.588322289
1.698373807
1.773224333
1.793076974
1.794699185
1.793842824
1.782915793
1.758980625
1.726495649
1.691077112
1.400005122
1.400006894
1.400043629
1.400459499
1.404014215
1.422470145
1.479014604
1.596677217
1.699173413
1.756753387
1.787574442
1.79406214
1.791674277
1.779773897
1.755420112
1.723674182
1.400005043
1.400005111
1.400007263
1.40004093
1.400495222
1.403907567
1.422508793
1.482602107
1.582646903
1.698948051
1.77636717
1.789260318
1.790785408
1.787168682
1.774358654
1.751330852
1.40000504
1.400005042
1.400005132
1.400006988
1.400047686
1.400454714
1.40436963
1.421439025
1.482456422
1.59004998
1.696991026
1.754256856
1.779782353
1.787282086
1.784429298
1.773310607
1.40000504
1.40000504
1.400005043
1.400005117
1.400007496
1.400042611
1.400545262
1.403885104
1.424013434
1.480019679
1.580630795
1.711368942
1.765331443
1.782673636
1.786734822
1.78444434
1.40000504
1.40000504
1.400005042
1.400005136
1.400007162
1.400050548
1.40047473
1.404588179
1.421532937
1.483848612
1.596541695
1.684394112
1.749986848
1.781318053
1.782282251
1.40000504
1.40000504
1.40000504
1.400005043
1.400005122
1.400007523
1.400043974
1.400566706
1.403938024
1.42497293
1.48010745
1.585709285
1.708127167
1.765605844
1.780989676
1.40000504
1.40000504
1.40000504
1.40000504
1.400005042
1.400005127
1.400007207
1.400049483
1.400484154
1.404638314
1.421864453
1.485950794
1.590751585
1.67764458
1.760787975
1.40000504
1.40000504
1.40000504
1.40000504
1.40000504
1.400005042
1.400005119
1.400007331
1.400042922
1.400555926
1.403848899
1.424878495
1.477694477
1.585994567
1.710660772
1.40000504
1.40000504
1.40000504
1.40000504
1.40000504
1.40000504
1.400005042
1.400005116
1.400007084
1.400045927
1.400456577
1.404448575
1.420985004
1.483980998
1.585393119
1.40000504
1.40000504
1.40000504
1.40000504
1.40000504
1.40000504
1.40000504
1.400005042
1.400005117
1.400007094
1.400040594
1.400522737
1.403639257
1.423880429
1.474460858
1.40000504
1.40000504
1.40000504
1.40000504
1.40000504
1.40000504
1.40000504
1.40000504
1.400005042
1.400005113
1.400007068
1.400044461
1.400437568
1.404197777
1.420037774
1.40000504
1.40000504
1.40000504
1.40000504
1.40000504
1.40000504
1.40000504
1.40000504
1.40000504
1.400005042
1.400005124
1.400007119
1.400040459
1.400491585
1.403535238
1.40000504
1.40000504
1.40000504
1.40000504
1.40000504
1.40000504
1.40000504
1.40000504
1.40000504
1.40000504
1.400005043
1.400005119
1.400007107
1.400043726
1.400435708
1.40000504
1.40000504
1.40000504
1.40000504
1.40000504
1.40000504
1.40000504
1.40000504
1.40000504
1.40000504
1.40000504
1.400005042
1.400005124
1.400007029
1.400040808
)
;

boundaryField
{
    inlet
    {
        type            calculated;
        value           nonuniform 0();
    }
    outlet
    {
        type            calculated;
        value           nonuniform 0();
    }
    bottom
    {
        type            calculated;
        value           nonuniform 0();
    }
    top
    {
        type            calculated;
        value           nonuniform List<scalar> 
15
(
1.40000504
1.40000504
1.40000504
1.40000504
1.40000504
1.40000504
1.40000504
1.40000504
1.40000504
1.40000504
1.40000504
1.400005042
1.400005124
1.400007029
1.400040808
)
;
    }
    obstacle
    {
        type            calculated;
        value           nonuniform 0();
    }
    defaultFaces
    {
        type            empty;
    }
    procBoundary34to27
    {
        type            processor;
        value           nonuniform List<scalar> 4(1.492907517 1.553998392 1.614353256 1.67207352);
    }
    procBoundary34to28
    {
        type            processor;
        value           nonuniform List<scalar> 
17
(
1.041299447
1.021924354
0.9939105468
0.9824375385
0.9776405249
0.9791099591
0.9939812077
1.060361397
1.368533818
1.308057609
1.274675971
1.233774065
1.186236153
1.166097293
1.14171552
1.103154699
1.103154699
)
;
    }
    procBoundary34to29
    {
        type            processor;
        value           uniform 1.024932296;
    }
    procBoundary34to33
    {
        type            processor;
        value           nonuniform List<scalar> 
32
(
1.721716373
1.761721125
1.790614105
1.807730051
1.814017219
1.813606721
1.810707222
1.793151148
1.694967024
1.590373561
1.486042653
1.424845576
1.40439262
1.400498517
1.400040752
1.400006832
1.400005105
1.400005042
1.40000504
1.40000504
1.40000504
1.40000504
1.40000504
1.40000504
1.40000504
1.40000504
1.40000504
1.40000504
1.40000504
1.40000504
1.40000504
1.40000504
)
;
    }
    procBoundary34to35
    {
        type            processor;
        value           nonuniform List<scalar> 
35
(
0.9901367683
0.9932960486
1.021829648
1.054617197
1.093568289
1.128644757
1.166114083
1.200202581
1.235031621
1.270136304
1.305905923
1.341940833
1.37496612
1.412588323
1.448933499
1.481366447
1.519025886
1.553130065
1.586242122
1.621332336
1.654612057
1.689261984
1.723221173
1.752720217
1.773496979
1.781842721
1.784669926
1.783076892
1.754542438
1.675446108
1.5810563
1.479936221
1.422373778
1.403975214
1.400458064
)
;
    }
}


// ************************************************************************* //
