/*--------------------------------*- C++ -*----------------------------------*\
  =========                 |
  \\      /  F ield         | OpenFOAM: The Open Source CFD Toolbox
   \\    /   O peration     | Website:  https://openfoam.org
    \\  /    A nd           | Version:  7
     \\/     M anipulation  |
\*---------------------------------------------------------------------------*/
FoamFile
{
    version     2.0;
    format      ascii;
    class       volVectorField;
    location    "0.2";
    object      U;
}
// * * * * * * * * * * * * * * * * * * * * * * * * * * * * * * * * * * * * * //

dimensions      [0 1 -1 0 0 0 0];

internalField   nonuniform List<vector> 
138
(
(3.08380009 0.06630598996 0)
(3.067242588 0.1120834087 0)
(3.031803559 0.1302247991 0)
(3.004285789 0.1256852583 0)
(2.995826378 0.1194528524 0)
(2.981425279 0.1016119638 0)
(3.093318935 0.07123556142 0)
(3.103368198 0.1334237298 0)
(3.109534184 0.1931076698 0)
(3.072408897 0.1993879758 0)
(3.035135028 0.1738589498 0)
(3.011608889 0.1502280477 0)
(2.990096518 0.1323908574 0)
(2.969033409 0.1023212853 0)
(3.109558984 0.1320711528 0)
(3.100466359 0.1727510252 0)
(3.091955369 0.1863324385 0)
(3.065496236 0.1879669767 0)
(3.026729628 0.1552907948 0)
(2.996929045 0.1168974576 0)
(2.969660377 0.08839680564 0)
(2.951882704 0.06427834195 0)
(3.140748966 0.3022690486 0)
(3.129829714 0.2884939815 0)
(3.098678152 0.2457733345 0)
(3.053333577 0.1654075527 0)
(3.005606293 0.07809551634 0)
(2.98257936 0.03798312732 0)
(2.951779398 0.02092933811 0)
(2.945271085 0.02201352039 0)
(3.136569245 0.2826940617 0)
(3.117603 0.2813570531 0)
(3.069939972 0.1724849819 0)
(3.030642008 0.07741455635 0)
(2.978926334 0.00678283992 0)
(2.966935135 0.002863411888 0)
(2.956397304 0.009155260676 0)
(2.948056647 0.0180270356 0)
(3.115114218 0.3033594712 0)
(3.080885499 0.1595636691 0)
(3.048533508 0.07208215361 0)
(2.984665465 0.0003444037738 0)
(2.968427428 -0.008342166805 0)
(2.958274504 -0.008151113916 0)
(2.952149072 0.0005038282675 0)
(2.949594302 0.0090509976 0)
(3.052656728 0.155462676 0)
(3.030406981 0.06525126693 0)
(2.991572552 0.004792812493 0)
(2.965001081 -0.00813735986 0)
(2.959017177 -0.01104222852 0)
(2.953015666 -0.009651051021 0)
(2.94999037 -0.003825727733 0)
(2.949081719 0.003179261737 0)
(2.927009621 -0.07017291125 0)
(2.905102863 -0.03367205624 0)
(2.933627156 -0.01520916446 0)
(2.945557315 -0.01219552632 0)
(2.946397417 -0.01053014588 0)
(2.946223876 -0.006369748233 0)
(2.946014052 -0.002863305336 0)
(2.946734504 0.000773638136 0)
(2.853443022 -0.04795216013 0)
(2.882596367 -0.02247108947 0)
(2.916805211 -0.003277661749 0)
(2.933583444 -0.001008857193 0)
(2.938071424 -0.001130651578 0)
(2.941951861 -0.0004694415404 0)
(2.943675439 -0.001510419434 0)
(2.945647885 -0.001732722527 0)
(2.874268653 -0.05338607625 0)
(2.88312805 -0.02338085768 0)
(2.922082573 -0.002047743451 0)
(2.938399399 0.001459245674 0)
(2.941096817 0.0009115831725 0)
(2.943858737 0.0009023795663 0)
(2.945151764 -0.0005070461128 0)
(2.946225943 -0.0007729894106 0)
(2.893834577 -0.04733958064 0)
(2.902888818 -0.02770340097 0)
(2.931966768 -0.003904895957 0)
(2.945203196 0.001346650324 0)
(2.947788321 0.001979931895 0)
(2.948051119 0.001162126136 0)
(2.947767766 -0.001278587742 0)
(2.947301776 -0.001629107063 0)
(2.90699254 -0.0506178517 0)
(2.930007537 -0.02691551167 0)
(2.94827401 -0.007015942565 0)
(2.952518124 -0.00123834749 0)
(2.95397638 0.001725173162 0)
(2.951866198 0.0009245707771 0)
(2.949681035 -0.00174136992 0)
(2.948087596 -0.002012533345 0)
(2.933567667 -0.05043313943 0)
(2.958666006 -0.02438151359 0)
(2.96493292 -0.007660812187 0)
(2.964304589 -0.003289202005 0)
(2.961148722 0.0005905523138 0)
(2.955722816 0.0004906971206 0)
(2.951008238 -0.002631806791 0)
(2.948423394 -0.002731732967 0)
(2.959174537 -0.05022398328 0)
(2.987957597 -0.0209496172 0)
(2.980613231 -0.006935001722 0)
(2.977120536 -0.003496513927 0)
(2.969510499 -0.000276268597 0)
(2.959910732 0.0002609837339 0)
(2.951539957 -0.003253190476 0)
(2.948164454 -0.003043730316 0)
(2.954644466 -0.0225350076 0)
(2.998101108 -0.04892572934 0)
(3.016195238 -0.01883167979 0)
(2.9976604 -0.004585702846 0)
(2.990681065 -0.002054195819 0)
(2.978454532 -0.0001506689969 0)
(2.963892775 -4.820377336e-05 0)
(2.951866104 -0.003574002332 0)
(2.947534412 -0.003237849249 0)
(3.02550371 -0.03214637703 0)
(3.051100778 -0.04104035247 0)
(3.04296192 -0.01387775135 0)
(3.016967312 -0.003068505558 0)
(3.004504815 -0.001413962341 0)
(2.987122171 0.0001628615623 0)
(2.96726008 -2.880613327e-05 0)
(2.951656585 -0.003147537714 0)
(2.946729066 -0.0031061846 0)
(3.097846029 -0.03098299089 0)
(3.092334403 -0.03140973608 0)
(3.063741143 -0.01021159157 0)
(3.035593319 -0.001209438769 0)
(3.015858445 0.0003930160429 0)
(2.992629286 0.0004406621019 0)
(2.969654957 8.639175619e-07 0)
(2.950859221 -0.002413196147 0)
(2.945660303 -0.001768961022 0)
(3.155011772 -0.02995164148 0)
)
;

boundaryField
{
    inlet
    {
        type            fixedValue;
        value           nonuniform 0();
    }
    outlet
    {
        type            inletOutlet;
        inletValue      nonuniform 0();
        value           nonuniform 0();
    }
    bottom
    {
        type            slip;
    }
    top
    {
        type            slip;
    }
    obstacle
    {
        type            slip;
    }
    defaultFaces
    {
        type            empty;
    }
    procBoundary10to4
    {
        type            processor;
        value           nonuniform List<vector> 9((3.061807441 -0.003152692078 0) (3.057876469 0.05721869006 0) (3.034674078 0.1058787158 0) (3.007816787 0.1179625421 0) (3.002341623 0.114545085 0) (2.993503155 0.1016021953 0) (3.060109125 -0.04988826318 0) (3.081006674 0.01775533705 0) (3.081006674 0.01775533705 0));
    }
    procBoundary10to5
    {
        type            processor;
        value           uniform (2.971507522 0.07563434723 0);
    }
    procBoundary10to9
    {
        type            processor;
        value           nonuniform List<vector> 
12
(
(3.064500891 -0.0173668742 0)
(3.105169217 0.1207473358 0)
(3.135364624 0.2347694801 0)
(3.143075264 0.2795949329 0)
(3.123589331 0.352437919 0)
(3.050610094 0.2858319789 0)
(2.96647795 0.07220203577 0)
(2.927333168 -0.003912454587 0)
(2.905688354 -0.01883231217 0)
(2.883151276 -0.02161219802 0)
(2.873110696 -0.02087911967 0)
(2.884295226 -0.01562829455 0)
)
;
    }
    procBoundary10to11
    {
        type            processor;
        value           nonuniform List<vector> 
17
(
(2.95924643 0.0727080506 0)
(2.948743617 0.04707629092 0)
(2.945825822 0.0251881291 0)
(2.948128072 0.01818997897 0)
(2.95214986 0.01307846714 0)
(2.95308365 0.008166876398 0)
(2.951593874 0.004207875159 0)
(2.950537799 0.002672020864 0)
(2.950844056 0.003030089446 0)
(2.951333978 0.002542826743 0)
(2.951570746 0.002002894432 0)
(2.951777482 0.001301523602 0)
(2.952409945 0.001195434375 0)
(2.953191331 0.000684782705 0)
(2.953809897 0.0009071963577 0)
(2.954285818 0.001121096668 0)
(2.944551087 -0.0009491394138 0)
)
;
    }
    procBoundary10to15
    {
        type            processor;
        value           nonuniform List<vector> 6((2.909415057 -0.01472858298 0) (2.909415057 -0.01472858298 0) (2.899940232 -0.009121476835 0) (2.979018727 -0.01843291296 0) (3.066223563 -0.01979557567 0) (3.143010093 -0.01935952952 0));
    }
    procBoundary10to16
    {
        type            processor;
        value           nonuniform List<vector> 9((3.12071535 -0.02839573228 0) (3.078920025 -0.008937199123 0) (3.049710932 0.0002542146642 0) (3.023553114 0.001331787099 0) (2.995704511 0.001175334835 0) (2.971204125 -3.064913719e-05 0) (2.949799257 -0.001925167508 0) (3.12071535 -0.02839573228 0) (3.194575017 -0.03077651501 0));
    }
}


// ************************************************************************* //
