/*--------------------------------*- C++ -*----------------------------------*\
  =========                 |
  \\      /  F ield         | OpenFOAM: The Open Source CFD Toolbox
   \\    /   O peration     | Website:  https://openfoam.org
    \\  /    A nd           | Version:  7
     \\/     M anipulation  |
\*---------------------------------------------------------------------------*/
FoamFile
{
    version     2.0;
    format      ascii;
    class       volScalarField;
    location    "0.6";
    object      T;
}
// * * * * * * * * * * * * * * * * * * * * * * * * * * * * * * * * * * * * * //

dimensions      [0 0 0 1 0 0 0];

internalField   nonuniform List<scalar> 
2222
(
1.100874574
1.100777395
1.098065476
1.095607145
1.09342831
1.092864643
1.093916795
1.095923013
1.097100544
1.096958081
1.096555126
1.096066324
1.095967081
1.096500399
1.097450675
1.097550809
1.097091793
1.096116184
0.9644565294
1.055549272
1.08942441
1.097108586
1.098508155
1.09831718
1.096333376
1.09399575
1.092191796
1.090841098
1.090801744
1.093444118
1.095301284
1.095535465
1.095242969
1.094855946
1.094539522
1.094626459
1.095676656
1.096420574
1.096418181
1.09636591
1.095529563
0.9457094831
1.020707999
1.069466379
1.09095979
1.094500094
1.092446383
1.089318875
1.088246563
1.087347773
1.087665988
1.089968765
1.091887551
1.092556241
1.092590208
1.092618808
1.092461396
1.092466863
1.093090908
1.093830878
1.09409228
1.094489841
1.094769748
1.09462194
0.9370720736
0.9929223499
1.051913827
1.083182881
1.089956395
1.087744571
1.08374948
1.082038855
1.082590312
1.085212435
1.087275754
1.088181699
1.088553287
1.088855015
1.089073733
1.089745916
1.09033601
1.090577055
1.090669787
1.090882678
1.091700805
1.092433115
1.092537187
0.9315536478
0.9767335255
1.040499885
1.076508144
1.083391565
1.081294504
1.079019984
1.078144041
1.079745245
1.081417007
1.082104541
1.082709992
1.083373127
1.084452469
1.085605742
1.086430994
1.086800332
1.086714454
1.086576641
1.086995255
1.088109511
1.088932275
1.089053522
0.9274669387
0.960698139
1.025810115
1.067809759
1.075909196
1.074312701
1.073942518
1.075523455
1.076574645
1.076469206
1.076004003
1.076422955
1.077298368
1.079635331
1.081406262
1.082162248
1.082324529
1.08224575
1.082183349
1.082746082
1.083881424
1.084430938
1.084445031
1.084041954
0.9222063005
0.9462142536
0.99652779
1.047723153
1.068327837
1.070216838
1.07167509
1.072316931
1.072021467
1.071122526
1.070504845
1.070479711
1.072227821
1.07457633
1.075969753
1.076480198
1.07661766
1.07681633
1.07723825
1.078439252
1.079199427
1.079249008
1.079083979
1.078594569
0.9179967004
0.9351734494
0.9715328944
1.029383812
1.062800196
1.06915968
1.069272052
1.068188613
1.066807287
1.065299062
1.065180902
1.065821102
1.067963287
1.069217812
1.069912173
1.070277567
1.070554685
1.071038522
1.071962492
1.073077691
1.073800104
1.073915596
1.073426392
1.072870702
0.9153633202
0.9275831362
0.9595777017
1.018682103
1.059057922
1.066934304
1.066703153
1.064721138
1.061341137
1.060427655
1.060497024
1.062205125
1.06343808
1.064012355
1.064060873
1.06438657
1.064848146
1.065529738
1.066287995
1.067061995
1.067342906
1.067876323
1.067950995
1.067563726
0.9117881902
0.9200222799
0.9441829539
1.000112821
1.047407034
1.062181675
1.062305933
1.058670963
1.056806641
1.056068756
1.057098604
1.058133968
1.058684097
1.058814449
1.058811755
1.059160359
1.059814474
1.060312461
1.060620439
1.060730382
1.061107678
1.061842056
1.06248129
1.06239164
0.9094820065
0.915075385
0.926951257
0.9690539818
1.025445625
1.054708095
1.053468041
1.052379194
1.051688722
1.052064639
1.052921457
1.0532401
1.053142963
1.052734797
1.053451988
1.054401277
1.055040094
1.055262018
1.055155845
1.054830868
1.055209282
1.056286831
1.057026929
1.057040252
0.9082023713
0.912040237
0.9195586114
0.9461752559
1.000900092
1.038715518
1.045321754
1.045753755
1.046759028
1.047505776
1.047680806
1.047547337
1.046700961
1.047058523
1.048204178
1.049061866
1.049465186
1.049233089
1.048979493
1.049133159
1.049910343
1.051011376
1.051478214
1.051372991
1.051000787
0.9064739164
0.9086440766
0.9154115023
0.9341370944
0.9817498215
1.023489851
1.03814063
1.041050971
1.041575674
1.041695089
1.041531949
1.040654003
1.040508328
1.041413168
1.042558227
1.043262842
1.043025646
1.042840612
1.042978494
1.043505961
1.044520465
1.045406706
1.045802297
1.04569227
1.045188102
0.9052167233
0.9060933242
0.9083996396
0.9204674246
0.9621441835
1.009167891
1.030405728
1.034839217
1.035940426
1.035561849
1.034312165
1.034080721
1.034634042
1.035901752
1.036605982
1.036336564
1.036189145
1.036548259
1.036912813
1.037657149
1.038647882
1.039491557
1.039916952
1.039836792
1.039308326
0.9046654809
0.9052731217
0.9031155424
0.9069428178
0.936892295
0.9893940636
1.021652023
1.029020333
1.029482043
1.028059645
1.02756866
1.028074527
1.029186216
1.030102806
1.029893418
1.029526775
1.029897447
1.030323669
1.030921422
1.031569892
1.032482295
1.033204692
1.033709683
1.033766346
1.032920334
0.9046439814
0.9046183341
0.9006684883
0.9005589017
0.9170783257
0.9634225964
1.008989109
1.021751439
1.021592549
1.021320316
1.02154108
1.022638853
1.023523489
1.023768032
1.023236795
1.023519392
1.02415719
1.02469692
1.025085926
1.025641977
1.026050664
1.026458311
1.026881072
1.02685175
1.026197966
0.9040759903
0.9037824493
0.8981134432
0.8961424291
0.9064023301
0.9447098445
0.9910959997
1.011801111
1.014295127
1.015316794
1.016174705
1.017214837
1.017738576
1.017185516
1.017320494
1.018093633
1.018870835
1.019236257
1.019361009
1.019493844
1.019687727
1.020009133
1.020358969
1.020278805
1.019892169
0.9040454231
0.903497876
0.8965720807
0.8899895366
0.8962864331
0.9303573284
0.9774434929
1.002829415
1.008606202
1.009802017
1.010970285
1.011870516
1.011431178
1.011354272
1.012104313
1.013087308
1.013590337
1.013539245
1.013548383
1.013694202
1.014052203
1.014316151
1.014637523
1.014543621
1.014267791
0.9049767838
0.9034516047
0.8963675238
0.8861222263
0.8852912687
0.9095088343
0.9610836635
0.9950049615
1.004260435
1.005839929
1.006282062
1.006309465
1.005923647
1.006461171
1.00751043
1.008125556
1.008038588
1.008137522
1.00837859
1.008644281
1.009075931
1.009325225
1.009720334
1.009625662
1.009339416
1.009225882
0.9059436651
0.9036925043
0.8967656995
0.8844728588
0.8788470913
0.8904599663
0.9341382613
0.9801596528
0.999071055
1.002160391
1.002091591
1.001413195
1.001646161
1.002524459
1.003301337
1.003280669
1.003200729
1.003513414
1.003899716
1.004220156
1.00460135
1.004912463
1.005435987
1.005464307
1.005175155
1.004912351
0.9067276634
0.9042037449
0.8968613704
0.8832259047
0.8752489723
0.8809309649
0.910128388
0.9591693104
0.9922453211
0.998569703
0.9976831437
0.9977111673
0.9983438651
0.9992000844
0.9993162539
0.9991022272
0.9992836091
0.9997174832
1.000028505
1.000227053
1.000467991
1.000973337
1.001740619
1.002059692
1.001772378
1.001354726
0.9065401531
0.904483692
0.8966108353
0.8817930508
0.8704143499
0.8743761658
0.8994429317
0.9452109096
0.9820368277
0.9938826186
0.9939491153
0.9947839757
0.9956336329
0.9960603868
0.9957374705
0.9957578871
0.9962759839
0.9967447302
0.9968934033
0.9968772201
0.9970212463
0.997827383
0.9988568488
0.9993525878
0.9990573227
0.9986534762
0.9061709411
0.9046853274
0.8968852134
0.881535614
0.8666970105
0.8649897542
0.8889777014
0.936453982
0.9738662864
0.9889098163
0.9907757186
0.9923902867
0.9930728046
0.9928740919
0.9926975444
0.9931557374
0.9939608677
0.9943737588
0.9944488579
0.994487521
0.9949055849
0.9959444074
0.9968949586
0.9973052799
0.9969749707
0.9967073008
0.9063148566
0.9049490761
0.8972149503
0.8819931906
0.8647804234
0.8581583799
0.8713318578
0.9195537327
0.9676610507
0.9851489302
0.9886428166
0.9903394546
0.9905816533
0.9901597927
0.9905826268
0.9914783841
0.9921905771
0.9924774045
0.9927074763
0.9929974419
0.9936471666
0.994779272
0.9954934958
0.9957182518
0.99533059
0.9951230066
0.9064574888
0.9051878954
0.8982219894
0.8822136634
0.8638735593
0.8550832952
0.8603461279
0.8937356085
0.9506630484
0.9814689413
0.9870528122
0.988724285
0.9888426038
0.9888970822
0.9897642421
0.9905880251
0.9908642592
0.9910591455
0.991511099
0.9920390935
0.9927380346
0.9937664433
0.9942025907
0.9947416024
0.9942950294
0.9941708733
0.9942657549
0.9068773185
0.9056192849
0.8989865727
0.8828510401
0.8634995628
0.8527413475
0.8555712616
0.8776456947
0.9275273604
0.9723018638
0.9851817608
0.9876836253
0.9879433346
0.9887305908
0.9895330076
0.9898779156
0.9898740466
0.9901700835
0.9907930378
0.9914357976
0.9920719372
0.9928731073
0.9933918037
0.9940778525
0.9937045491
0.9936497847
0.9937783478
0.9083435965
0.9058974713
0.8990254053
0.8830083548
0.8631262199
0.8500755542
0.8509887094
0.8703038332
0.9131250441
0.9587277998
0.9820408891
0.9864204245
0.9876826055
0.9887891003
0.9892568492
0.9890895308
0.9892224217
0.9898351967
0.9905397442
0.9911279209
0.9918248638
0.9924069563
0.9929447673
0.9938183169
0.9936295825
0.9934898961
0.9935893433
0.9087487198
0.9058371275
0.8988759888
0.8829430118
0.8626558027
0.847946174
0.8448089086
0.8599113836
0.9030025004
0.9503864809
0.9770619378
0.9854315463
0.9877848788
0.9886653729
0.988576216
0.9885151314
0.9890257037
0.9898709511
0.9905376125
0.9911156161
0.9916766948
0.9922271288
0.9929866028
0.9939352996
0.9938229408
0.9934633191
0.9935117019
0.908589161
0.9055422755
0.8982543059
0.8826629964
0.8619000911
0.8460696176
0.8411194466
0.8486870739
0.8860344107
0.9436234686
0.9745788973
0.9854185918
0.987940909
0.9883381275
0.9880955704
0.9885932322
0.9892615162
0.9900395391
0.990554936
0.991139642
0.9916175489
0.9923432135
0.9932268959
0.9937996278
0.993538786
0.9930387057
0.9929562227
0.9080415038
0.9046794415
0.8975787383
0.8823478182
0.8615273794
0.8448280156
0.8389469287
0.8434565423
0.8692201873
0.9272356462
0.9736612802
0.9858661704
0.9879764326
0.9882825596
0.9884383782
0.9891296888
0.989800106
0.9900642928
0.9905005664
0.9911856164
0.991806831
0.9923863756
0.9929437955
0.9932107229
0.9931044148
0.9926123514
0.9925415894
0.9073681163
0.9040902593
0.8970068238
0.8821772352
0.8617614151
0.8442144999
0.8372289836
0.8405229825
0.8592259874
0.9060402073
0.9620837049
0.9838081571
0.9879245869
0.9885544993
0.9893923072
0.9900514282
0.9901893173
0.9902398237
0.9908289399
0.9915136336
0.9918383493
0.992204329
0.9927019773
0.993106783
0.9932665725
0.9927842823
0.9927730218
0.9068382478
0.9035093166
0.8964816479
0.8824270946
0.8625199322
0.844020668
0.8359347001
0.8369525294
0.8516690364
0.8913334661
0.9433677308
0.9768371145
0.987088589
0.989606819
0.990654331
0.9908626918
0.9905806607
0.9908788508
0.991474148
0.9918996693
0.9920932712
0.9926137598
0.9932068162
0.9937859577
0.9940287376
0.9935034285
0.9934586691
0.9934196499
0.9063528167
0.9028919175
0.8961855006
0.8822768354
0.8625461529
0.8440584892
0.8347945541
0.8337277211
0.8428569564
0.8783588537
0.9314181669
0.96898125
0.9860494749
0.9908467354
0.9918250387
0.9914280078
0.9912956071
0.9917012869
0.9922881758
0.9926343574
0.9929706991
0.9934976363
0.9938937717
0.994627367
0.9949607923
0.994384367
0.9943222099
0.9941963087
0.906237493
0.9026425584
0.8955935393
0.88168968
0.8622478464
0.8437919132
0.8339799739
0.8322461275
0.8377366454
0.8642696928
0.9204561526
0.9659865501
0.9872673745
0.992203713
0.9924136059
0.9919972004
0.9922724931
0.9928520907
0.9932876836
0.9936294368
0.993970982
0.9944277928
0.9948485767
0.9954006576
0.995820835
0.995385208
0.9953472999
0.9953138372
0.9065840906
0.9026729456
0.8949012765
0.8810044883
0.861845749
0.8434315332
0.83324159
0.8314128721
0.8357013271
0.8550894664
0.9037460684
0.9634481991
0.9884538322
0.9931440652
0.9927581057
0.9933046743
0.993823148
0.9940918299
0.9941349442
0.9946087406
0.9951098791
0.9956608571
0.9962631028
0.9968173271
0.9970815552
0.9965998879
0.9965269775
0.9965598325
0.9073663952
0.9024605155
0.8942908606
0.8803212934
0.8613260924
0.8431279043
0.8323856104
0.8303216614
0.8336116368
0.8489596402
0.8885890067
0.9499290692
0.9863936192
0.9930981106
0.9941065517
0.9951312041
0.9953639985
0.9950546743
0.9954123612
0.9961329558
0.9966933951
0.9972305853
0.9977440544
0.9982792497
0.9984026936
0.9979231444
0.9977554741
0.9977492161
0.9078730565
0.9021483508
0.8934918582
0.8794692379
0.8607406054
0.8430003236
0.8318923877
0.829221645
0.8310345736
0.8420978463
0.8763557445
0.9311809146
0.9765377273
0.9918164195
0.9957955768
0.997136621
0.9966441057
0.9966726551
0.9971245528
0.9978438247
0.998356331
0.9988144593
0.9990541059
0.9992720778
0.9992904048
0.9988209897
0.99860941
0.9985942005
0.9079814935
0.9017643222
0.892541168
0.8786979621
0.8603369438
0.8431226105
0.8317969524
0.8287281666
0.8297274311
0.8369450072
0.8632199075
0.9171280075
0.9654181638
0.9906130185
0.9981892255
0.9990073921
0.9983058043
0.99841808
0.9989148679
0.9993126259
0.9995927859
0.9998781843
0.9999953519
1.000232931
1.000550388
1.000192125
0.9999725541
0.9999540175
1.000069999
0.9080400688
0.9014657378
0.8918704322
0.8782407024
0.8603746322
0.8437383298
0.8323035293
0.8286676654
0.8293182286
0.8345844783
0.8535887059
0.9016673144
0.9592989066
0.9911116835
1.000198213
1.000253127
1.000031672
1.00035274
1.000600322
1.00062878
1.000741605
1.000999769
1.001247011
1.001748815
1.002220882
1.001927562
1.001664058
1.001664746
1.001749211
0.9078851309
0.901485452
0.8915581158
0.8779024373
0.8604677799
0.8438990938
0.8328517341
0.8289778647
0.8291327782
0.8333395623
0.8479626821
0.8863681349
0.9499633537
0.9908330813
1.001090594
1.001358569
1.001980286
1.002216211
1.002020031
1.002017332
1.002102298
1.002214412
1.002647503
1.00323713
1.003980409
1.00385748
1.003478312
1.003389176
1.003492274
0.9079942182
0.9016402547
0.8914488443
0.8776693255
0.8602338885
0.843778959
0.8329807899
0.828978778
0.8287226557
0.831911284
0.8435926853
0.8762243446
0.9344612245
0.9875137218
1.000920392
1.002722483
1.003887936
1.003529984
1.003040696
1.003068259
1.003339423
1.003544417
1.003974046
1.004918568
1.005904717
1.005774844
1.005151012
1.005006384
1.005008831
0.9082012207
0.9019464301
0.8914324997
0.8773541662
0.859766705
0.8435315632
0.8330215634
0.8288994568
0.8284117241
0.8307443225
0.8392451717
0.8656536545
0.9206040239
0.9763473544
0.9989070352
1.004351152
1.00512599
1.004058566
1.00389554
1.004213642
1.00464331
1.004899717
1.00555545
1.006622872
1.007306233
1.007009715
1.006273174
1.006154015
1.006186007
0.9087962449
0.9028577837
0.8915286975
0.8770462661
0.8591835524
0.8431244357
0.8330787319
0.828733546
0.8282056727
0.8303228612
0.836615307
0.855086787
0.9034110084
0.9627556844
0.9961744689
1.004942892
1.00560034
1.004797689
1.004882884
1.005300709
1.005800482
1.006329398
1.006762168
1.007577947
1.008175575
1.007857672
1.007056626
1.006881687
1.006844908
0.9102890664
0.9038931243
0.891812575
0.876770304
0.8585216708
0.8425394192
0.8330853639
0.8286478242
0.8275467756
0.8297737468
0.8353331796
0.8493909686
0.8854123881
0.9482299531
0.991163655
1.004808391
1.005682711
1.005546792
1.005822095
1.006436351
1.006733364
1.007045032
1.007512153
1.008157578
1.008586227
1.00833265
1.007578593
1.007427077
1.007472325
0.911361057
0.9046122716
0.892268744
0.8764251287
0.8576894454
0.841734582
0.8328512164
0.828591211
0.8270743079
0.8292698199
0.8342254602
0.8461166408
0.8750060958
0.9294834155
0.9830580288
1.0036605
1.006353967
1.007049023
1.007032671
1.007308144
1.00730623
1.007431434
1.00784757
1.008338824
1.00879905
1.008792747
1.008106067
1.008006362
1.008054149
1.008130484
0.9119921668
0.9053240822
0.892865268
0.8762375562
0.8569512456
0.8408771018
0.8325070793
0.8285554409
0.8270648935
0.8291834026
0.8336102123
0.8428693163
0.8675799583
0.9153999123
0.9731902495
1.001354197
1.007740621
1.008610314
1.008041033
1.007626947
1.007586828
1.007690886
1.008049994
1.008590077
1.009121073
1.009382956
1.008995283
1.00878944
1.00876958
1.00881852
0.9122122408
0.9060204343
0.8935511485
0.8762189048
0.8563224468
0.8401300322
0.8321499135
0.828597979
0.8273377346
0.8293260897
0.8333448475
0.8402277153
0.8582105747
0.9058758783
0.9656509273
1.000202568
1.008871783
1.009243844
1.008456771
1.007812294
1.007713044
1.007812727
1.008266054
1.008828629
1.009642501
1.010392853
1.009968717
1.009459096
1.009349575
1.009328733
0.9126472817
0.9067212576
0.8941800652
0.876343125
0.8558034252
0.8394932602
0.832006336
0.8290612101
0.8280741324
0.8297550776
0.8332925651
0.8389023399
0.8513196983
0.8891388239
0.9557505173
0.9986563342
1.008816014
1.009500716
1.008600333
1.008243721
1.008102436
1.008409742
1.008884891
1.009493689
1.010907271
1.011271057
1.010471084
1.009809926
1.009694032
1.00969984
0.9131612439
0.9077670751
0.8949826892
0.8766832124
0.8554217505
0.8389224479
0.8318417311
0.8292672093
0.8284020461
0.8299355098
0.8333897585
0.8382924981
0.8480193118
0.8738575444
0.9331099459
0.9876191139
1.006378996
1.009409993
1.0089224
1.008864844
1.009005101
1.009358179
1.00978638
1.010524364
1.011658927
1.011720271
1.010753845
1.009999287
1.009895857
1.00996375
0.9140278855
0.9095347624
0.8959345779
0.8771612993
0.8550972702
0.8383302698
0.831527551
0.8292289327
0.8284710693
0.8299645181
0.8333098924
0.8379031314
0.8458848747
0.8661878017
0.9103740269
0.9683618885
1.000344866
1.008698769
1.009433755
1.009653008
1.009967187
1.010077357
1.010261174
1.010824881
1.011564121
1.011758701
1.010922121
1.01020875
1.010126329
1.010257646
0.9150507586
0.9111072323
0.897303007
0.8776489156
0.8548023584
0.8377630707
0.8311237918
0.8290491551
0.8284147118
0.8299288315
0.8332360937
0.8376281195
0.8436688625
0.8602605036
0.9004053828
0.9552278885
0.9960943168
1.008876918
1.010438825
1.010462599
1.010311674
1.010252984
1.010299628
1.010671568
1.011390503
1.011732715
1.01115217
1.010571339
1.010515139
1.010657336
0.915637807
0.9124024148
0.8989157601
0.8782238501
0.8546383335
0.8372521179
0.8305691727
0.8287887669
0.8283288763
0.8299932265
0.8332896899
0.8375540172
0.8423757483
0.8539385318
0.8914362186
0.9502116229
0.9969141533
1.009960427
1.0111317
1.01058676
1.010095792
1.009934208
1.009987156
1.010398895
1.011106639
1.011843008
1.011603958
1.011085417
1.011017962
1.011007241
1.01091612
0.9158780596
0.9135721029
0.9003427288
0.8784100127
0.8542881187
0.8367794921
0.8300108569
0.8285187191
0.8283448831
0.830088548
0.8334798308
0.8376626476
0.8419415041
0.8498485563
0.8760884174
0.9396027022
0.9920012848
1.009383251
1.010945067
1.01027919
1.009684801
1.009616333
1.009733898
1.010154644
1.011065427
1.012270898
1.012120808
1.011515165
1.01123556
1.011088271
1.010946521
0.916306145
0.9146896323
0.901519225
0.8788446983
0.8539598538
0.8362741304
0.8295495011
0.8281763719
0.8286594615
0.8307190872
0.8341694996
0.8380888424
0.8417663791
0.8476424053
0.8650665525
0.9151825999
0.977233957
1.006068911
1.01024444
1.009740357
1.009514941
1.009567883
1.009730602
1.010219555
1.011332529
1.012761534
1.012403544
1.011497279
1.011101142
1.01098931
1.010944483
0.9167083847
0.9160925705
0.902625595
0.8790311532
0.8537060043
0.8359414587
0.8291958286
0.827874546
0.8287120222
0.8312384295
0.8346697156
0.8383340586
0.8414921265
0.8460721521
0.859248987
0.8961441693
0.9561331869
0.9966027016
1.008602488
1.009584282
1.009715655
1.009985169
1.010325051
1.010793119
1.011988139
1.012924763
1.012251
1.011245935
1.010892029
1.010899595
1.011065066
0.9173071805
0.9174429641
0.9034603385
0.8790525089
0.8535817768
0.835792359
0.8289374786
0.8276328791
0.8285413436
0.8313322112
0.8348590068
0.8384931999
0.8414447464
0.8446862316
0.8546952183
0.8873145593
0.9411373774
0.9878387538
1.007549298
1.010145529
1.010492954
1.010707746
1.010946896
1.011389431
1.012340631
1.012730961
1.011978757
1.01101165
1.010863008
1.011080531
1.011497982
0.9177878583
0.9181629548
0.9038773261
0.8789388657
0.853532257
0.8357639665
0.828814485
0.8274743563
0.828367759
0.8313231172
0.8348955248
0.8385079518
0.841358257
0.843697921
0.8504186675
0.8772325366
0.9333313186
0.9863231384
1.008388967
1.011175642
1.011136814
1.010969077
1.010961958
1.01139157
1.012169491
1.012428519
1.012009898
1.011207618
1.011260599
1.011707748
1.01189411
0.9183106685
0.9183825413
0.9040208543
0.87909913
0.8535430689
0.8358785442
0.8287973415
0.8274076453
0.8282589769
0.8313264437
0.8348626409
0.8383451577
0.8410915577
0.8432979021
0.8478949842
0.8656215187
0.9187664124
0.9797801101
1.00739191
1.011367841
1.010928474
1.010731618
1.01074689
1.011189776
1.011780658
1.012470933
1.01248998
1.011885907
1.012032071
1.012282798
1.011980059
0.9183488574
0.918329573
0.9039775233
0.8795678804
0.8538511804
0.8363731175
0.8289293429
0.8272909012
0.8281701873
0.8313150167
0.8349552759
0.8382800049
0.840830194
0.8429346724
0.8465317421
0.8589602458
0.8990361621
0.9645113794
1.003989443
1.010868069
1.010533923
1.010232457
1.010508317
1.010915034
1.01155825
1.012413566
1.01322296
1.012597434
1.012341089
1.012142106
1.011893906
0.9179979237
0.9179374606
0.9035543136
0.8795392682
0.85410337
0.8366163894
0.8291142727
0.8272242734
0.8281524401
0.8314046205
0.8351325719
0.8382935515
0.8406737492
0.8426539786
0.845514477
0.8547136833
0.885408723
0.9445165987
0.9922068077
1.007737761
1.009643821
1.009907096
1.010298626
1.01066784
1.011393741
1.012713422
1.013662209
1.012649925
1.012155212
1.011839764
1.011558544
1.011103792
0.9170726687
0.9170840657
0.9029142064
0.879237182
0.8543887463
0.8367588243
0.8293253444
0.8272654406
0.8282187941
0.8315008332
0.8354117597
0.8383580891
0.8407650893
0.8428309972
0.8447766328
0.8512250542
0.8759846411
0.9268741687
0.9784860188
1.003941156
1.009161844
1.00972878
1.010230258
1.010657166
1.011557296
1.013229097
1.013512799
1.012404252
1.011792511
1.011504543
1.011406275
1.011061785
0.9148484531
0.9160039569
0.9022632584
0.8789491987
0.8544296207
0.837148121
0.8295703657
0.8274286519
0.8283551635
0.8317169719
0.8358616875
0.8388200915
0.8412882681
0.8429747153
0.8443547173
0.8484488291
0.865891911
0.9149882015
0.9707071084
1.00172241
1.00967679
1.010222616
1.010661825
1.011128782
1.012033824
1.013272039
1.01319424
1.012021704
1.011441757
1.01140844
1.011648623
1.01133505
0.9128841586
0.9152462658
0.9012135916
0.8783613619
0.8543267781
0.8375575816
0.829838577
0.8277092372
0.8284958512
0.8319539574
0.83626147
0.8393679553
0.8414831214
0.8428901293
0.8440725129
0.8467682132
0.8586495989
0.8989936114
0.9633904512
1.002205116
1.010661172
1.010798763
1.011111391
1.011485836
1.012175869
1.013018991
1.012724979
1.011577327
1.011336681
1.011566232
1.012134045
1.011763718
0.9119147665
0.9144093718
0.9000220727
0.8775804671
0.8543161471
0.8376779145
0.8301894742
0.8280729679
0.8287641115
0.8321433857
0.8365119349
0.8396492396
0.8415083839
0.8427581173
0.8438041577
0.8456756752
0.8539883464
0.8854133795
0.9491829204
0.9990685906
1.010298695
1.010971523
1.011138332
1.011400509
1.011952376
1.012576994
1.012534404
1.011551794
1.011487486
1.011878373
1.012253066
1.011928654
0.9115918493
0.913755488
0.8989266183
0.8766895649
0.853997886
0.8377400519
0.8306023738
0.8284610684
0.8291254142
0.8323960161
0.8367069845
0.8397783881
0.8414367766
0.8426666826
0.8436779513
0.8450872836
0.8506168064
0.8750145518
0.9313092233
0.9867552232
1.008761103
1.010588528
1.010731352
1.010905738
1.011569752
1.012150576
1.012836464
1.012072963
1.011713581
1.011877092
1.012116413
1.01181593
0.9112468492
0.9131823599
0.8979200004
0.8757780795
0.8534655567
0.8377560361
0.8309174505
0.8288675011
0.8294964935
0.8326630859
0.8369355668
0.8399085978
0.8414293853
0.842639382
0.843623831
0.8448533766
0.848668164
0.8655261362
0.9149034424
0.973093049
1.002923097
1.009066813
1.009965979
1.010537715
1.011277971
1.012394505
1.01346351
1.012606867
1.011687431
1.011708547
1.011984707
1.011594912
0.9103056428
0.9124668486
0.8969445464
0.8748054796
0.852893986
0.8376829866
0.8311032781
0.8293407579
0.8298565027
0.8329155032
0.8371356815
0.8401001267
0.8416084736
0.84286709
0.8438669098
0.8447659191
0.8472944693
0.8582684769
0.8981381674
0.9600888466
0.9971418613
1.007751508
1.009665986
1.010316514
1.011348718
1.012807878
1.013744059
1.012522001
1.011504532
1.011476138
1.011898268
1.011522701
1.011480627
0.9088751485
0.911312467
0.8962717823
0.8738196278
0.8523939903
0.8374725059
0.8312153101
0.829739098
0.8302075877
0.8332269813
0.8373464807
0.8403529765
0.8422010935
0.8434223299
0.8442038322
0.844665905
0.8462936615
0.8537315132
0.8819734851
0.9445805577
0.9919977161
1.00750192
1.009922297
1.010661656
1.011803535
1.012970651
1.01359541
1.012283937
1.011311125
1.011340233
1.012061635
1.011795892
1.011906104
0.9079456106
0.9105712527
0.8957645494
0.8729544012
0.8516984211
0.8371238796
0.8313507346
0.8299687387
0.830515009
0.8335973803
0.8376432685
0.8407492694
0.842662418
0.8436959845
0.8443708113
0.8448869952
0.8458239211
0.8509716042
0.8728807525
0.9259969989
0.985344382
1.008206896
1.010282166
1.011062878
1.011863588
1.012615827
1.013165289
1.01184493
1.011210835
1.011388117
1.012366952
1.012081993
1.012003297
0.9072639913
0.9104213949
0.895876673
0.8716981058
0.8506165359
0.8366111201
0.8311191487
0.8300427043
0.8307250952
0.833970384
0.8379644841
0.8411326465
0.8428691619
0.8437878873
0.8444298923
0.8450169294
0.8459707246
0.8494214345
0.866327888
0.9121263455
0.9750043027
1.006813653
1.010084145
1.010792618
1.011633616
1.011959701
1.012697092
1.011579008
1.011247286
1.011562415
1.012475538
1.01199597
1.011784408
0.9065268543
0.9096865832
0.8959730642
0.8705358262
0.8491795123
0.8357674043
0.8308481119
0.8300718372
0.8308553936
0.8343249393
0.8382705897
0.8413893435
0.8430154563
0.8438559149
0.8444742173
0.8451813427
0.8457677765
0.8478950274
0.8592862078
0.8994640261
0.9610180778
0.9997698111
1.009105022
1.010410886
1.010672462
1.011558506
1.012461263
1.011644438
1.011342565
1.011547592
1.01222525
1.01165251
1.011417788
0.9059322343
0.9083034852
0.8961404706
0.8692543032
0.847427069
0.8349112059
0.8305665351
0.8300958174
0.8311159136
0.8346719469
0.8385303083
0.8414680468
0.8431986647
0.8439734245
0.8446477466
0.8452573142
0.8455935176
0.846657605
0.8538540957
0.8841714205
0.9445634947
0.9900485259
1.005970482
1.009766818
1.01007187
1.011360704
1.012678726
1.012240491
1.011247288
1.01129177
1.0118565
1.011268428
1.010963971
0.9057253929
0.9072007915
0.8956949498
0.8679472772
0.8457441051
0.8340343364
0.8301383532
0.8300232091
0.8316616618
0.8349542874
0.838765948
0.8416242604
0.8434634356
0.8443215737
0.8449386492
0.8452327677
0.845491462
0.8462469926
0.8511888284
0.8722137057
0.9274964234
0.9803652918
1.002727589
1.008700708
1.009945443
1.01184984
1.013168575
1.012622036
1.011006071
1.010955362
1.011615701
1.011053758
1.010703015
0.9056624232
0.9064407758
0.8952314521
0.8667203841
0.8443309158
0.8331471364
0.8295188183
0.8299775266
0.8319298471
0.8352480253
0.8390390182
0.8417881895
0.8436746644
0.844584674
0.8450298104
0.8451968252
0.8454354998
0.8460600281
0.8495865839
0.866417119
0.9094610536
0.9719785321
1.000595419
1.00855883
1.010659867
1.012252876
1.013261778
1.012679818
1.010749794
1.010601793
1.011412071
1.01090189
1.010523523
0.9056606686
0.9059444102
0.8949729978
0.8659260324
0.8429572457
0.8319073048
0.8290730976
0.8300383405
0.8320116415
0.835518482
0.8392709558
0.8419071942
0.8437789791
0.8446471765
0.8450148258
0.8452747023
0.8456261931
0.8458255179
0.8480386715
0.860432391
0.898662535
0.9594118129
0.9994211035
1.009381952
1.011229322
1.012273349
1.013024963
1.012512984
1.010519318
1.010336161
1.011345708
1.01099119
1.01077116
1.011011477
0.9057810615
0.9057183858
0.8948739784
0.8651514137
0.8414804964
0.8307983271
0.8286920478
0.8299289028
0.8320727301
0.8359271915
0.8394638762
0.8419422706
0.8436899574
0.8446802536
0.845111212
0.8455601804
0.8458505114
0.8459921509
0.8468625338
0.8543189071
0.8884957236
0.9466349383
0.996213251
1.00940879
1.011288208
1.011650634
1.012434046
1.012278115
1.010307499
1.01014243
1.011342574
1.011128215
1.010993841
1.011372159
0.906149135
0.9055208982
0.8950143702
0.8643319496
0.8401214272
0.8299365925
0.828257949
0.829582169
0.8323870301
0.8364779947
0.8396556846
0.8419227582
0.8436512898
0.844813171
0.8453690527
0.8457332363
0.8459241844
0.8459826916
0.8463773525
0.8509350365
0.8741300856
0.9357268583
0.9876149589
1.008378507
1.010939048
1.01031461
1.012036215
1.012017397
1.010041064
1.009859287
1.011191702
1.01093328
1.010798608
1.011229907
0.90686803
0.9053751207
0.8950116686
0.8646493577
0.8393283297
0.8292854294
0.8277678174
0.8292144801
0.833150337
0.8368373516
0.8398530535
0.8419156189
0.8436435908
0.8449472273
0.8455223393
0.8457850342
0.8459744286
0.8459816482
0.84619225
0.8493877535
0.8652528343
0.9152591545
0.9763313819
1.002730785
1.008686426
1.009778224
1.011723757
0.9077971129
0.9053192414
)
;

boundaryField
{
    inlet
    {
        type            fixedValue;
        value           nonuniform 0();
    }
    outlet
    {
        type            inletOutlet;
        inletValue      nonuniform 0();
        value           nonuniform 0();
    }
    bottom
    {
        type            slip;
    }
    top
    {
        type            slip;
    }
    obstacle
    {
        type            zeroGradient;
    }
    defaultFaces
    {
        type            empty;
    }
    procBoundary21to15
    {
        type            processor;
        value           nonuniform List<scalar> 
24
(
1.101777138
1.099631165
1.098809574
1.096552858
1.095238808
1.095164682
1.095649397
1.09610253
1.097042466
1.097589261
1.097261623
1.096891412
1.096734865
1.09680533
1.097585643
1.097888423
1.097537323
1.096535756
0.9821678344
1.097413844
1.106596271
1.106409384
1.102426266
1.102426266
)
;
    }
    procBoundary21to22
    {
        type            processor;
        value           nonuniform List<scalar> 
69
(
1.094858996
1.094218062
1.093637663
1.091988187
1.088668768
1.088668768
1.083390524
1.078043742
1.072414407
1.067081497
1.062022332
1.056742916
1.056742916
1.050341192
1.04438764
1.038385268
1.031994239
1.025710897
1.019713817
1.014202115
1.014202115
1.009022331
1.004561795
1.00090926
0.9981923948
0.9962181596
0.9949402206
0.9949402206
0.9940781402
0.9937832945
0.9936829988
0.9935470468
0.9929249136
0.992499143
0.9928527497
0.9928527497
0.9931934912
0.9940298666
0.9951717087
0.9964690764
0.9977203831
0.9986516275
0.9986516275
0.9999840638
1.001652349
1.003428689
1.004938014