/*--------------------------------*- C++ -*----------------------------------*\
  =========                 |
  \\      /  F ield         | OpenFOAM: The Open Source CFD Toolbox
   \\    /   O peration     | Website:  https://openfoam.org
    \\  /    A nd           | Version:  7
     \\/     M anipulation  |
\*---------------------------------------------------------------------------*/
FoamFile
{
    version     2.0;
    format      ascii;
    class       volScalarField;
    location    "3";
    object      p;
}
// * * * * * * * * * * * * * * * * * * * * * * * * * * * * * * * * * * * * * //

dimensions      [1 -1 -2 0 0 0 0];

internalField   nonuniform List<scalar> 
22
(
0.9975468953
0.9960165412
0.9763337171
0.9901062255
0.9982043322
0.9967774185
0.9760641963
0.9857001854
0.9939324871
0.9959654057
0.9752147942
0.9836912965
0.9893122138
0.9956984745
0.979319567
0.9865937405
0.9914312494
0.9975749527
0.9809536242
0.9877877027
0.9930224344
0.9971278059
)
;

boundaryField
{
    inlet
    {
        type            fixedValue;
        value           nonuniform 0();
    }
    outlet
    {
        type            zeroGradient;
    }
    bottom
    {
        type            slip;
    }
    top
    {
        type            slip;
    }
    obstacle
    {
        type            zeroGradient;
    }
    defaultFaces
    {
        type            empty;
    }
    procBoundary23to17
    {
        type            processor;
        value           nonuniform List<scalar> 5(0.9953517361 0.9971904683 0.9761848959 0.9895255961 0.9895255961);
    }
    procBoundary23to22
    {
        type            processor;
        value           nonuniform List<scalar> 5(1.019200838 1.017002669 1.011851087 1.015486003 1.015461652);
    }
    procBoundary23to29
    {
        type            processor;
        value           nonuniform List<scalar> 4(0.9828278348 0.9882526284 0.9929619958 0.9951387513);
    }
}


// ************************************************************************* //
