/*--------------------------------*- C++ -*----------------------------------*\
  =========                 |
  \\      /  F ield         | OpenFOAM: The Open Source CFD Toolbox
   \\    /   O peration     | Website:  https://openfoam.org
    \\  /    A nd           | Version:  7
     \\/     M anipulation  |
\*---------------------------------------------------------------------------*/
FoamFile
{
    version     2.0;
    format      ascii;
    class       volVectorField;
    location    "0.4";
    object      U;
}
// * * * * * * * * * * * * * * * * * * * * * * * * * * * * * * * * * * * * * //

dimensions      [0 1 -1 0 0 0 0];

internalField   nonuniform List<vector> 
2222
(
(3 -5.742628887e-15 0)
(3 -6.439618379e-15 0)
(3 -6.830131977e-15 0)
(3 -7.124883761e-15 0)
(3 -3.175340084e-15 0)
(3 5.295304674e-16 0)
(3 5.326438613e-15 0)
(3 1.104850659e-14 0)
(3 1.29895479e-14 0)
(3 1.487174988e-14 0)
(3 1.475129482e-14 0)
(3 1.487871453e-14 0)
(3 1.715782585e-14 0)
(3 1.516268872e-14 0)
(3 1.234429997e-14 0)
(3 9.761009026e-15 0)
(3 3.165852564e-15 0)
(3 -3.799328879e-16 0)
(3 2.110341391e-15 0)
(3 1.094394125e-14 0)
(3 1.479112354e-14 0)
(3 1.447158685e-14 0)
(3 1.167656557e-14 0)
(3 9.458419762e-15 0)
(3 6.114976057e-15 0)
(3 4.855894704e-15 0)
(3 7.376321948e-16 0)
(3 -5.959120446e-15 0)
(3 -7.717751448e-15 0)
(3 -9.030475135e-15 0)
(3 -1.175441604e-14 0)
(3 -1.478131923e-14 0)
(3 -1.80479055e-14 0)
(3 -1.681774736e-14 0)
(3 6.685041371e-16 0)
(3 9.216453397e-16 0)
(3 -1.512865041e-17 0)
(3 2.492007179e-16 0)
(3 -1.115931478e-15 0)
(3 -1.097828356e-15 0)
(3 2.393423881e-16 0)
(3 -3.248789521e-16 0)
(3 3.782351495e-16 0)
(3 7.343858243e-16 0)
(3 4.422159892e-15 0)
(3 6.306358302e-15 0)
(3 7.605915821e-15 0)
(3 5.003330928e-15 0)
(3 7.332809953e-15 0)
(3 7.782488946e-15 0)
(3 6.057206448e-15 0)
(3 3.94041252e-15 0)
(3 1.78521497e-15 0)
(3 1.01145889e-15 0)
(3 -6.298068674e-16 0)
(3 -2.201534394e-15 0)
(3 -9.873164301e-16 0)
(3 -6.35774384e-16 0)
(3 -1.887185994e-15 0)
(3 -3.294760715e-15 0)
(3 -5.674830555e-15 0)
(3 -9.171504085e-15 0)
(3 -1.257137544e-14 0)
(3 -1.80569839e-14 0)
(3 -1.891202953e-14 0)
(3 -1.90564737e-14 0)
(3 -1.395514501e-14 0)
(3 -7.292398858e-15 0)
(3 -1.68920582e-15 0)
(3 -3.289435837e-16 0)
(3 -2.614822747e-16 0)
(3 2.087972198e-15 0)
(3 3.915944422e-15 0)
(3 6.033451291e-15 0)
(3 8.280315759e-15 0)
(3 1.027376843e-14 0)
(3 9.713142825e-15 0)
(3 1.509389905e-14 0)
(3 1.944190426e-14 0)
(3 2.455929187e-14 0)
(3 2.216781543e-14 0)
(3 1.90852959e-14 0)
(3 1.184362876e-14 0)
(3 3.922021895e-15 0)
(3 3.02525389e-15 0)
(3 3.419608247e-15 0)
(3 3.31441887e-15 0)
(3 5.811121061e-15 0)
(3 8.261637067e-15 0)
(3 9.908893513e-15 0)
(3 9.360388551e-15 0)
(3 6.933827417e-15 0)
(3 3.30689688e-15 0)
(3 -4.276930851e-16 0)
(3 -9.880797918e-15 0)
(3 -1.144014101e-14 0)
(3 -1.24163224e-14 0)
(3 -1.252521305e-14 0)
(3 -1.216474535e-14 0)
(3 -1.40664452e-14 0)
(3 -1.218488917e-14 0)
(3 1.811615302e-15 0)
(3 2.132387607e-15 0)
(3 2.815664984e-15 0)
(3 4.275995918e-15 0)
(3 4.834813092e-15 0)
(3 5.163659641e-15 0)
(3 7.314103467e-15 0)
(3 4.258504374e-15 0)
(3 3.316002852e-15 0)
(3 6.076994908e-15 0)
(3 6.691385172e-15 0)
(3 6.767453918e-15 0)
(3 6.45807014e-15 0)
(3 7.220659552e-15 0)
(3 7.420672446e-15 0)
(3 7.67461569e-15 0)
(3 5.864102502e-15 0)
(3 4.964739484e-15 0)
(3 2.579727193e-15 0)
(3 -8.96877751e-16 0)
(3 -2.319939479e-16 0)
(3 3.465648685e-16 0)
(3 3.355663976e-15 0)
(3 6.587018443e-15 0)
(3 5.454408905e-15 0)
(3 5.109255389e-15 0)
(3 4.640510004e-15 0)
(3 2.252123554e-15 0)
(3 -3.921637479e-15 0)
(3 -4.503552282e-15 0)
(3 -5.318472507e-15 0)
(3 -5.516358769e-15 0)
(3 -7.528027333e-15 0)
(3 -7.987516734e-15 0)
(3 -6.141647433e-15 0)
(3 -4.68905324e-15 0)
(3 -1.386924473e-15 0)
(3 -2.687000463e-16 0)
(3 -1.604636845e-15 0)
(3 4.820613738e-16 0)
(3 -2.022157333e-16 0)
(3 5.074057388e-15 0)
(3 7.926984794e-15 0)
(3 1.467002208e-14 0)
(3 1.623764377e-14 0)
(3 1.526591541e-14 0)
(3 1.526599053e-14 0)
(3 1.377098727e-14 0)
(3 8.312478909e-15 0)
(3 5.461713611e-15 0)
(3 9.031678443e-16 0)
(3 -3.571577044e-16 0)
(3 -1.317249537e-15 0)
(3 -4.989658142e-15 0)
(3 -3.233985078e-15 0)
(3 -1.049839528e-15 0)
(3 -2.642871056e-15 0)
(3 -4.501342464e-15 0)
(3 -7.755117502e-15 0)
(3 -8.243042142e-15 0)
(3 -9.226534146e-15 0)
(3 -5.797563277e-15 0)
(3 -3.593475911e-15 0)
(3 1.4741713e-15 0)
(3 -1.118599854e-15 0)
(3 -2.454260423e-15 0)
(3 -2.809112093e-15 0)
(3 -3.32864625e-16 0)
(3 -7.684049779e-16 0)
(3 4.059020989e-15 0)
(3 4.669292528e-15 0)
(3 5.822670197e-15 0)
(3 5.204022262e-15 0)
(3 2.723325136e-15 0)
(3 4.316689807e-16 0)
(3 1.807495589e-15 0)
(3 4.921066917e-15 0)
(3 3.49985592e-15 0)
(3 2.070627062e-15 0)
(3 1.87786104e-15 0)
(3 2.337996503e-15 0)
(3 1.58588767e-15 0)
(3 3.671737894e-16 0)
(3 5.81660288e-16 0)
(3 6.529974023e-16 0)
(3 -8.344750499e-17 0)
(3 -4.588401e-15 0)
(3 -7.572369771e-15 0)
(3 -9.74260241e-15 0)
(3 -7.928972846e-15 0)
(3 -4.399085542e-15 0)
(3 -2.572705231e-15 0)
(3 -2.993067807e-15 0)
(3 -8.423572133e-15 0)
(3 -1.008057255e-14 0)
(3 -1.056277281e-14 0)
(3 -9.340677009e-15 0)
(3 -7.800693977e-15 0)
(3 -1.00105532e-14 0)
(3 -1.100605577e-14 0)
(3 -7.975527027e-15 0)
(3 -4.136678163e-15 0)
(3 -3.185300599e-15 0)
(3 -3.040130733e-15 0)
(3 -1.420145518e-15 0)
(3 -1.042196349e-15 0)
(3 -6.816025841e-16 0)
(3 -2.24025529e-15 0)
(3 3.539528506e-15 0)
(3 8.874061048e-15 0)
(3 1.024345298e-14 0)
(3 8.508972138e-15 0)
(3 4.832217887e-15 0)
(3 2.206229183e-15 0)
(3 1.007656485e-15 0)
(3 1.298986526e-15 0)
(3 1.482428525e-15 0)
(3 1.062955363e-15 0)
(3 5.162330072e-16 0)
(3 -6.657756747e-16 0)
(3 -4.86305311e-15 0)
(3 -7.263760672e-15 0)
(3 -8.33520981e-15 0)
(3 -4.152957216e-15 0)
(3 -2.508930034e-15 0)
(3 -3.733894333e-15 0)
(3 -6.067194829e-15 0)
(3 2.990921845e-16 0)
(3 2.090184792e-15 0)
(3 5.968989227e-15 0)
(3 7.680765898e-15 0)
(3 7.31470851e-15 0)
(3 4.05720551e-15 0)
(3 3.793892457e-15 0)
(3 -2.913743264e-15 0)
(3 -2.765673021e-15 0)
(3 -2.043047317e-16 0)
(3 1.739907155e-16 0)
(3 -1.278645937e-15 0)
(3 -1.45113407e-15 0)
(3 -1.854012161e-15 0)
(3 -3.755633817e-15 0)
(3 -4.112290645e-15 0)
(3 -3.520368086e-15 0)
(3 -4.436122032e-15 0)
(3 -5.325099115e-15 0)
(3 -5.696322694e-15 0)
(3 -6.800159617e-15 0)
(3 -6.957346825e-15 0)
(3 -6.582629912e-15 0)
(3 -5.534399636e-15 0)
(3 -2.960179207e-15 0)
(3 -4.6018088e-15 0)
(3 -4.661584194e-15 0)
(3 -6.68472737e-15 0)
(3 -2.011467748e-15 0)
(3 -2.796885891e-15 0)
(3 -2.834372182e-15 0)
(3 1.375368368e-15 0)
(3 1.132260374e-15 0)
(3 -4.204601763e-15 0)
(3 -5.053903959e-15 0)
(3 1.392062922e-15 0)
(3 1.787518547e-15 0)
(3 -2.496308504e-16 0)
(3 -2.402243525e-15 0)
(3 -1.659795801e-15 0)
(3 -1.719130561e-15 0)
(3 -2.296586786e-15 0)
(3 -7.908992235e-16 0)
(3 -2.48945018e-15 0)
(3 -3.108843439e-15 0)
(3 -1.777681877e-15 0)
(3 5.978572092e-16 0)
(3 -1.726903135e-16 0)
(3 8.934966504e-16 0)
(3 2.15506078e-15 0)
(3 1.654002154e-15 0)
(3 -4.150311571e-15 0)
(3 -1.119944378e-15 0)
(3 7.34480242e-16 0)
(3 -2.24828832e-15 0)
(3 -1.97573847e-15 0)
(3 -2.220526369e-15 0)
(3 -1.335262298e-15 0)
(3 6.643519823e-16 0)
(3 9.64168812e-16 0)
(3 -1.858780113e-15 0)
(3 -6.284417522e-15 0)
(3 -9.825021188e-15 0)
(3 -1.342113247e-14 0)
(3 -1.141997877e-14 0)
(3 -9.246391367e-15 0)
(3 -3.151596792e-15 0)
(3 7.407450658e-15 0)
(3 9.434684396e-15 0)
(3 8.182084085e-15 0)
(3 5.282799723e-15 0)
(3 4.649157473e-15 0)
(3 1.118589006e-14 0)
(3 1.244658195e-14 0)
(3 -1.978698164e-16 0)
(3 4.906371226e-16 0)
(3 4.349211775e-16 0)
(3 1.64223282e-16 0)
(3 -6.24736419e-16 0)
(3 -9.677154113e-16 0)
(3 -4.648150383e-16 0)
(3 -1.629356562e-15 0)
(3 -5.599421086e-15 0)
(3 -9.09306164e-15 0)
(3 -9.461317249e-15 0)
(3 -8.941642387e-15 0)
(3 -1.074043955e-14 0)
(3 -1.018519334e-14 0)
(3 -8.538970973e-15 0)
(3 -6.612767421e-15 0)
(3 -3.414247406e-15 0)
(3 -6.994929293e-16 0)
(3 -1.554436785e-15 0)
(3 2.034872376e-15 0)
(3 4.134991056e-15 0)
(3 9.216018333e-15 0)
(3 1.14772187e-14 0)
(3 9.342591509e-15 0)
(3 1.215331106e-14 0)
(3 1.386088271e-14 0)
(3 1.414367905e-14 0)
(3 1.259747907e-14 0)
(3 1.21371402e-14 0)
(3 1.052027363e-14 0)
(3 6.965313992e-15 0)
(3 6.516211797e-15 0)
(3 4.176721392e-15 0)
(3 1.479249361e-18 0)
(3 -2.635978973e-15 0)
(3 -3.100526546e-15 0)
(3 -4.680289076e-15 0)
(3 -5.482868651e-15 0)
(3 -6.021090376e-15 0)
(3 -3.340077007e-15 0)
(3 -4.204191106e-15 0)
(3 -4.387833019e-15 0)
(3 -6.171567262e-15 0)
(3 -8.541928183e-15 0)
(3 -1.071460143e-14 0)
(3 -1.566278381e-14 0)
(3 -1.788026374e-14 0)
(3 -1.563556825e-14 0)
(3 -1.088723867e-14 0)
(3 -9.219657369e-15 0)
(3 -1.503728548e-14 0)
(3 -1.464159474e-14 0)
(3 -6.279283978e-15 0)
(3 -1.816479062e-15 0)
(3 -1.56458872e-16 0)
(3 -7.901873228e-16 0)
(3 -9.847774884e-15 0)
(3 -1.03180125e-14 0)
(3 -7.18542599e-15 0)
(3 2.288662796e-15 0)
(3 8.180151648e-15 0)
(3 9.500817614e-15 0)
(3 8.636968076e-15 0)
(3 5.126312483e-15 0)
(3 5.83899128e-15 0)
(3 1.010810745e-14 0)
(3 1.647389295e-14 0)
(3 1.060555715e-15 0)
(3 2.471953443e-15 0)
(3 2.397476499e-15 0)
(3 5.875629179e-16 0)
(3 1.051096376e-15 0)
(3 -3.471260112e-16 0)
(3 1.480787407e-15 0)
(3 1.442272475e-15 0)
(3 -6.370849994e-16 0)
(3 -1.624087683e-15 0)
(3 -2.182464982e-15 0)
(3 -2.003634675e-15 0)
(3 -2.793359618e-15 0)
(3 -2.825199182e-15 0)
(3 -2.028418163e-15 0)
(3 4.187775014e-16 0)
(3 2.546851213e-15 0)
(3 4.816836381e-15 0)
(3 9.340581074e-15 0)
(3 1.203783589e-14 0)
(3 1.431636901e-14 0)
(3 1.328777832e-14 0)
(3 1.24670753e-14 0)
(3 1.435932359e-14 0)
(3 1.472607695e-14 0)
(3 1.735806492e-14 0)
(3 1.757429087e-14 0)
(3 1.480926045e-14 0)
(3 8.41483032e-15 0)
(3 6.553120757e-15 0)
(3 8.008689008e-15 0)
(3 8.510688947e-15 0)
(3 5.903611568e-15 0)
(3 3.921704031e-15 0)
(3 3.425018041e-15 0)
(3 1.332806788e-15 0)
(3 3.302986747e-16 0)
(3 -1.403905209e-15 0)
(3 -2.761309126e-15 0)
(3 -4.347457417e-15 0)
(3 -4.895732697e-15 0)
(3 -5.529368451e-15 0)
(3 -8.113030415e-15 0)
(3 -1.169396114e-14 0)
(3 -1.220568106e-14 0)
(3 -1.2188626e-14 0)
(3 -1.363468239e-14 0)
(3 -1.245946905e-14 0)
(3 -1.133075396e-14 0)
(3 -1.230238675e-14 0)
(3 -1.550801765e-14 0)
(3 -1.695893163e-14 0)
(3 -1.295990982e-14 0)
(3 -8.521019639e-15 0)
(3 1.204605122e-15 0)
(3 4.432900208e-15 0)
(3 2.326338825e-15 0)
(3 2.100966864e-15 0)
(3 2.67293473e-15 0)
(3 2.380965406e-15 0)
(3 3.430690625e-15 0)
(3 3.735166578e-15 0)
(3 1.806174436e-15 0)
(3 -3.372126166e-16 0)
(3 1.265585237e-15 0)
(3 2.87709605e-15 0)
(3 1.160210158e-14 0)
(3 -5.871061091e-16 0)
(3 -1.563498067e-15 0)
(3 -2.624970826e-15 0)
(3 -2.776931024e-15 0)
(3 -4.38663283e-16 0)
(3 -6.674008124e-16 0)
(3 -3.394337857e-16 0)
(3 7.416889574e-16 0)
(3 2.052367445e-15 0)
(3 6.148301614e-15 0)
(3 6.511998657e-15 0)
(3 5.189262334e-15 0)
(3 3.667322859e-15 0)
(3 2.118839678e-16 0)
(3 -1.095971103e-15 0)
(3 -1.640796266e-16 0)
(3 1.292766287e-15 0)
(3 6.59944959e-15 0)
(3 9.62021489e-15 0)
(3 9.847974717e-15 0)
(3 1.072445959e-14 0)
(3 1.169799734e-14 0)
(3 1.078363479e-14 0)
(3 8.741774697e-15 0)
(3 8.360558829e-15 0)
(3 7.269631208e-15 0)
(3 1.024845074e-14 0)
(3 1.27918627e-14 0)
(3 1.171359101e-14 0)
(3 1.273842055e-14 0)
(3 1.258361004e-14 0)
(3 1.482851364e-14 0)
(3 1.532891989e-14 0)
(3 1.657102042e-14 0)
(3 1.375508893e-14 0)
(3 1.23356657e-14 0)
(3 1.220367642e-14 0)
(3 1.071858872e-14 0)
(3 7.671731397e-15 0)
(3 3.955374394e-15 0)
(3 1.456682259e-15 0)
(3 -2.012154795e-15 0)
(3 -5.084946657e-15 0)
(3 -5.9363539e-15 0)
(3 -5.507607298e-15 0)
(3 -7.375542277e-15 0)
(3 -7.901951535e-15 0)
(3 -1.091662021e-14 0)
(3 -1.388588854e-14 0)
(3 -1.386052996e-14 0)
(3 -1.365229713e-14 0)
(3 -1.240715161e-14 0)
(3 -9.292504441e-15 0)
(3 -6.188687266e-15 0)
(3 -4.247090179e-16 0)
(3 5.097837515e-15 0)
(3 1.209087834e-14 0)
(3 1.365775505e-14 0)
(3 1.242363363e-14 0)
(3 8.634237196e-15 0)
(3 4.834941851e-15 0)
(3 4.502657372e-15 0)
(3 6.159743809e-15 0)
(3 7.241452772e-15 0)
(3 3.271865332e-15 0)
(3 1.788719683e-15 0)
(3 3.328456583e-15 0)
(3 -1.964081167e-16 0)
(3 -1.888902238e-15 0)
(3 -2.41617836e-15 0)
(3 -1.615773378e-15 0)
(3 -1.49873063e-15 0)
(3 7.852044899e-16 0)
(3 3.283476823e-17 0)
(3 -2.275819645e-16 0)
(3 1.891921239e-15 0)
(3 5.616166291e-15 0)
(3 6.583972966e-15 0)
(3 5.658542065e-15 0)
(3 3.393759177e-15 0)
(3 9.881719657e-17 0)
(3 -1.972354357e-15 0)
(3 -4.575340374e-15 0)
(3 -4.62218135e-15 0)
(3 -4.417156471e-15 0)
(3 -5.856689397e-15 0)
(3 -3.280187301e-15 0)
(3 -1.409268602e-15 0)
(3 2.097451079e-15 0)
(3 4.689765452e-15 0)
(3 3.498595785e-15 0)
(3 3.924603856e-15 0)
(3 3.080816451e-15 0)
(3 2.646712563e-15 0)
(3 3.598048272e-15 0)
(3 6.692391292e-15 0)
(3 1.191858885e-14 0)
(3 1.336874372e-14 0)
(3 1.851675416e-14 0)
(3 1.722835717e-14 0)
(3 1.297029871e-14 0)
(3 1.108881129e-14 0)
(3 1.212263511e-14 0)
(3 1.321210121e-14 0)
(3 1.498387101e-14 0)
(3 1.447434178e-14 0)
(3 1.29642203e-14 0)
(3 9.144979953e-15 0)
(3 4.703229739e-15 0)
(3 1.720579116e-15 0)
(3 2.00753705e-15 0)
(3 2.771872359e-15 0)
(3 -3.6505991e-17 0)
(3 -1.800123911e-15 0)
(3 -5.783537379e-15 0)
(3 -9.085555711e-15 0)
(3 -8.729867196e-15 0)
(3 -5.952710049e-15 0)
(3 -4.211056704e-15 0)
(3 -9.581550475e-16 0)
(3 6.447174784e-16 0)
(3 3.587543893e-15 0)
(3 1.037930747e-14 0)
(3 1.571787702e-14 0)
(3 1.91467994e-14 0)
(3 1.84561734e-14 0)
(3 1.684160413e-14 0)
(3 1.070559767e-14 0)
(3 7.89496865e-15 0)
(3 5.915545027e-15 0)
(3 7.216444261e-16 0)
(3 -2.02815976e-15 0)
(3 -5.587776141e-15 0)
(3 -9.258140972e-15 0)
(3 5.341842457e-16 0)
(3 9.442924444e-16 0)
(3 1.678100339e-15 0)
(3 2.671936663e-15 0)
(3 9.625114145e-16 0)
(3 1.438516201e-15 0)
(3 1.383861184e-15 0)
(3 -4.878620395e-16 0)
(3 -7.793501122e-16 0)
(3 -8.189029984e-16 0)
(3 -8.346891096e-16 0)
(3 -7.932515167e-16 0)
(3 -7.203400403e-16 0)
(3 -4.131946736e-16 0)
(3 -2.826284128e-16 0)
(3 -2.717167243e-15 0)
(3 -7.729514111e-15 0)
(3 -1.198378863e-14 0)
(3 -1.272702931e-14 0)
(3 -1.14591567e-14 0)
(3 -1.244318194e-14 0)
(3 -1.20851197e-14 0)
(3 -8.314316034e-15 0)
(3 -9.076146056e-15 0)
(3 -9.688304259e-15 0)
(3 -8.585420794e-15 0)
(3 -7.387973739e-15 0)
(3 -4.498372587e-15 0)
(3 1.960279522e-15 0)
(3 7.203088934e-15 0)
(3 1.331953962e-14 0)
(3 1.438172735e-14 0)
(3 1.56907617e-14 0)
(3 1.446081279e-14 0)
(3 1.214750627e-14 0)
(3 8.122260268e-15 0)
(3 7.593011142e-15 0)
(3 7.635658482e-15 0)
(3 9.954001542e-15 0)
(3 6.463893263e-15 0)
(3 7.723419978e-15 0)
(3 8.953329468e-15 0)
(3 8.06845648e-15 0)
(3 8.194252563e-15 0)
(3 6.739840335e-15 0)
(3 7.587989721e-15 0)
(3 5.238639753e-15 0)
(3 5.676403042e-15 0)
(3 6.304146952e-15 0)
(3 4.657687114e-15 0)
(3 5.753041874e-15 0)
(3 7.671347255e-15 0)
(3 6.771378475e-15 0)
(3 7.616165809e-15 0)
(3 8.938447808e-15 0)
(3 1.303399922e-14 0)
(3 1.744142515e-14 0)
(3 1.998936732e-14 0)
(3 1.886325261e-14 0)
(3 1.691434536e-14 0)
(3 1.307866635e-14 0)
(3 7.532791768e-15 0)
(3 -8.704003277e-16 0)
(3 -3.692847161e-15 0)
(3 -7.41002361e-15 0)
(3 -1.123378949e-14 0)
(3 -1.274702274e-14 0)
(3 -7.032317689e-16 0)
(3 1.623012287e-16 0)
(3 1.352455328e-15 0)
(3 1.370667843e-15 0)
(3 -2.870277236e-16 0)
(3 -2.287944886e-15 0)
(3 -2.281104331e-15 0)
(3 -1.427147623e-15 0)
(3 -2.800747896e-15 0)
(3 -4.17420636e-15 0)
(3 -3.612082755e-15 0)
(3 -2.03702144e-15 0)
(3 7.950774128e-16 0)
(3 7.573769562e-16 0)
(3 2.555889947e-16 0)
(3 -1.261609359e-15 0)
(3 -3.082074942e-15 0)
(3 -5.801342104e-15 0)
(3 -8.630040453e-15 0)
(3 -1.276964921e-14 0)
(3 -1.522805666e-14 0)
(3 -1.917142807e-14 0)
(3 -1.730818021e-14 0)
(3 -1.722428541e-14 0)
(3 -2.112386615e-14 0)
(3 -2.09128964e-14 0)
(3 -1.637995887e-14 0)
(3 -1.122024355e-14 0)
(3 -6.479328617e-15 0)
(3 -4.240222506e-15 0)
(3 1.962762327e-15 0)
(3 1.02708965e-14 0)
(3 1.10520055e-14 0)
(3 1.201374848e-14 0)
(3 1.054243868e-14 0)
(3 1.224569995e-14 0)
(3 1.150787435e-14 0)
(3 8.987078899e-15 0)
(3 4.363380788e-15 0)
(3 2.936098338e-15 0)
(3 2.58395031e-15 0)
(3 5.036451837e-15 0)
(3 6.295993509e-15 0)
(3 7.035246589e-15 0)
(3 8.391390857e-15 0)
(3 1.140579556e-14 0)
(3 1.486852585e-14 0)
(3 1.670614556e-14 0)
(3 1.530698519e-14 0)
(3 1.070395033e-14 0)
(3 9.239615252e-15 0)
(3 9.537675753e-15 0)
(3 1.043782719e-14 0)
(3 9.964744055e-15 0)
(3 9.436890598e-15 0)
(3 9.477268716e-15 0)
(3 1.101779455e-14 0)
(3 1.31551466e-14 0)
(3 1.359999374e-14 0)
(3 1.379370823e-14 0)
(3 1.164508032e-14 0)
(3 4.031719982e-15 0)
(3 -4.785431272e-15 0)
(3 -4.548644831e-15 0)
(3 -5.191467356e-15 0)
(3 -5.254623013e-15 0)
(3 -5.620482893e-15 0)
(3 -3.048564235e-17 0)
(3 -1.012635542e-15 0)
(3 -1.370311839e-15 0)
(3 -3.068625888e-15 0)
(3 -3.11747588e-15 0)
(3 -1.859692563e-15 0)
(3 -1.208079052e-15 0)
(3 2.05148774e-15 0)
(3 1.385649711e-15 0)
(3 -9.074504749e-16 0)
(3 -3.504599428e-15 0)
(3 -5.193243775e-15 0)
(3 -2.907022467e-15 0)
(3 -3.316752514e-15 0)
(3 -5.698613372e-15 0)
(3 -5.293295634e-15 0)
(3 -5.108269441e-15 0)
(3 -5.72813627e-15 0)
(3 -7.11103844e-15 0)
(3 -8.54240504e-15 0)
(3 -8.792427326e-15 0)
(3 -1.008852608e-14 0)
(3 -1.385676712e-14 0)
(3 -1.559131728e-14 0)
(3 -1.831813006e-14 0)
(3 -1.781936891e-14 0)
(3 -1.700651256e-14 0)
(3 -1.397861751e-14 0)
(3 -9.844405349e-15 0)
(3 -1.138417162e-14 0)
(3 -1.018361616e-14 0)
(3 -2.138020611e-15 0)
(3 2.729290316e-15 0)
(3 7.154191902e-15 0)
(3 7.967965982e-15 0)
(3 7.050133257e-15 0)
(3 5.054371014e-15 0)
(3 3.285847013e-15 0)
(3 1.676963589e-15 0)
(3 2.018562686e-15 0)
(3 -4.705651065e-16 0)
(3 -1.971843733e-15 0)
(3 -3.973540892e-16 0)
(3 2.756145836e-15 0)
(3 5.721870045e-15 0)
(3 7.554143479e-15 0)
(3 1.04179187e-14 0)
(3 1.12633157e-14 0)
(3 9.784576518e-15 0)
(3 1.08631574e-14 0)
(3 1.273034229e-14 0)
(3 1.183592955e-14 0)
(3 1.157819569e-14 0)
(3 9.544832314e-15 0)
(3 7.600790035e-15 0)
(3 6.53710837e-15 0)
(3 7.42973844e-15 0)
(3 8.593583755e-15 0)
(3 1.042130936e-14 0)
(3 1.083122257e-14 0)
(3 9.863464257e-15 0)
(3 5.817184949e-15 0)
(3 7.178988163e-16 0)
(3 -2.463530872e-15 0)
(3 -4.151333234e-16 0)
(3 1.964406124e-15 0)
(3 1.852828152e-15 0)
(3 3.883296557e-16 0)
(3 -1.333162383e-15 0)
(3 -9.92765391e-16 0)
(3 -4.127529722e-16 0)
(3 3.52041219e-16 0)
(3 9.896398852e-16 0)
(3 1.484904797e-15 0)
(3 -1.541804513e-16 0)
(3 3.49599431e-16 0)
(3 -4.650341287e-16 0)
(3 -2.058209693e-15 0)
(3 -3.382530343e-15 0)
(3 -4.968183019e-15 0)
(3 -6.494982487e-15 0)
(3 -7.967203268e-15 0)
(3 -9.091456042e-15 0)
(3 -9.525815903e-15 0)
(3 -1.022333204e-14 0)
(3 -7.836309927e-15 0)
(3 -5.813212997e-15 0)
(3 -5.808877458e-15 0)
(3 -7.155382985e-15 0)
(3 -8.554639386e-15 0)
(3 -9.072154584e-15 0)
(3 -7.754940505e-15 0)
(3 -4.551300755e-15 0)
(3 -4.503949077e-15 0)
(3 -4.023506695e-15 0)
(3 -3.197254751e-15 0)
(3 -4.774896719e-15 0)
(3 -7.943627447e-15 0)
(3 -9.447710167e-15 0)
(3 -5.569736049e-15 0)
(3 -7.672383774e-16 0)
(3 4.754092528e-15 0)
(3 3.643733489e-15 0)
(3 2.357788013e-15 0)
(3 7.355030192e-16 0)
(3 1.541495975e-15 0)
(3 2.946100969e-15 0)
(3 3.59475537e-15 0)
(3 8.416261352e-16 0)
(3 9.752195271e-16 0)
(3 1.395129924e-15 0)
(3 1.585806529e-15 0)
(3 3.604036051e-15 0)
(3 5.906059137e-15 0)
(3 6.22355426e-15 0)
(3 6.711077532e-15 0)
(3 9.996913162e-15 0)
(3 1.125023535e-14 0)
(3 1.295939363e-14 0)
(3 9.430006015e-15 0)
(3 8.904447798e-15 0)
(3 7.613472259e-15 0)
(3 6.382330559e-15 0)
(3 5.125510304e-15 0)
(3 6.491151725e-15 0)
(3 9.967738295e-15 0)
(3 9.959698725e-15 0)
(3 9.835314335e-15 0)
(3 8.518411982e-15 0)
(3 6.479440906e-15 0)
(3 7.015948337e-15 0)
(3 4.799153463e-15 0)
(3 3.747799704e-15 0)
(3 5.128293013e-15 0)
(3 1.106732768e-15 0)
(3 1.836666203e-15 0)
(3 3.138314692e-15 0)
(3 4.684906171e-15 0)
(3 5.910662104e-15 0)
(3 4.362070362e-15 0)
(3 2.941924642e-15 0)
(3 7.978162038e-16 0)
(3 1.448457055e-15 0)
(3 4.598649604e-16 0)
(3 3.795930891e-16 0)
(3 -1.881575923e-16 0)
(3 1.253939877e-16 0)
(3 -1.67829062e-16 0)
(3 1.144345688e-15 0)
(3 1.671504674e-17 0)
(3 -2.380432291e-15 0)
(3 -3.446403216e-15 0)
(3 -5.868511269e-15 0)
(3 -7.404506286e-15 0)
(3 -8.029014385e-15 0)
(3 -8.289712545e-15 0)
(3 -7.381544036e-15 0)
(3 -7.604965285e-15 0)
(3 -7.088498728e-15 0)
(3 -6.334130639e-15 0)
(3 -7.94303151e-15 0)
(3 -1.076774359e-14 0)
(3 -1.054104119e-14 0)
(3 -9.143370978e-15 0)
(3 -6.335682736e-15 0)
(3 -5.388957126e-15 0)
(3 -4.87869276e-15 0)
(3 -3.399250357e-15 0)
(3 -1.868169672e-15 0)
(3 3.058313116e-16 0)
(3 1.131785532e-15 0)
(3 6.425721177e-16 0)
(3 1.625833481e-15 0)
(3 1.902964511e-15 0)
(3 2.182194552e-15 0)
(3 1.077633838e-15 0)
(3 -2.443675754e-15 0)
(3 -6.971367689e-15 0)
(3 -8.283817702e-15 0)
(3 -8.105600535e-15 0)
(3 -5.916444675e-15 0)
(3 -1.931957685e-15 0)
(3 1.188463014e-15 0)
(3 2.700428952e-15 0)
(3 5.69625935e-15 0)
(3 8.510616049e-15 0)
(3 6.921110199e-15 0)
(3 6.766846357e-15 0)
(3 6.075736209e-15 0)
(3 4.90709961e-15 0)
(3 1.626134174e-15 0)
(3 1.010144931e-15 0)
(3 3.279459495e-15 0)
(3 6.441625427e-15 0)
(3 9.588537726e-15 0)
(3 1.435672251e-14 0)
(3 1.520429864e-14 0)
(3 1.756528171e-14 0)
(3 1.722926012e-14 0)
(3 1.25299026e-14 0)
(3 1.184940051e-14 0)
(3 3.497243711e-16 0)
(3 2.370509369e-15 0)
(3 6.772704063e-16 0)
(3 2.054952854e-15 0)
(3 1.331988075e-15 0)
(3 1.541126991e-15 0)
(3 5.173837633e-16 0)
(3 6.007683935e-16 0)
(3 6.935435834e-16 0)
(3 -2.965502892e-16 0)
(3 -2.793155669e-16 0)
(3 -2.932323643e-15 0)
(3 -1.275876601e-15 0)
(3 1.574293803e-15 0)
(3 6.011033706e-15 0)
(3 6.078255291e-15 0)
(3 4.054913183e-15 0)
(3 4.503884919e-15 0)
(3 2.895719622e-15 0)
(3 -1.049214271e-16 0)
(3 -1.740386092e-15 0)
(3 -9.099610957e-16 0)
(3 -8.243543924e-16 0)
(3 4.237569888e-18 0)
(3 -1.6574629e-15 0)
(3 -5.01168929e-15 0)
(3 -4.118164032e-15 0)
(3 -3.026414084e-15 0)
(3 -4.763046307e-15 0)
(3 -4.853214396e-15 0)
(3 -5.48947314e-15 0)
(3 -8.147954605e-15 0)
(3 -1.02179743e-14 0)
(3 -1.213519285e-14 0)
(3 -1.192842087e-14 0)
(3 -1.272138283e-14 0)
(3 -1.288619535e-14 0)
(3 -1.22134978e-14 0)
(3 -8.750867807e-15 0)
(3 -8.611770166e-15 0)
(3 -7.753207248e-15 0)
(3 -6.652178191e-15 0)
(3 -6.701623091e-15 0)
(3 -5.825349184e-15 0)
(3 -8.40811792e-15 0)
(3 -1.341611313e-14 0)
(3 -1.409810232e-14 0)
(3 -1.209725156e-14 0)
(3 -9.688943584e-15 0)
(3 -5.680321284e-15 0)
(3 -6.308622962e-15 0)
(3 -6.729211758e-15 0)
(3 -5.078392752e-15 0)
(3 -3.478706656e-15 0)
(3 -3.860880656e-15 0)
(3 -2.461361037e-15 0)
(3 -1.573949135e-15 0)
(3 -3.263379191e-15 0)
(3 -3.105730507e-15 0)
(3 -2.32445096e-15 0)
(3 4.096522012e-15 0)
(3 1.526697639e-14 0)
(3 2.320698866e-14 0)
(3 2.407447548e-14 0)
(3 2.348678499e-14 0)
(3 2.3087504e-14 0)
(3 2.174639433e-14 0)
(3 -1.109790714e-15 0)
(3 -1.640732957e-15 0)
(3 -2.685212848e-15 0)
(3 -4.711995607e-15 0)
(3 -4.736003661e-15 0)
(3 -3.439588577e-15 0)
(3 -2.958755277e-15 0)
(3 -3.160497155e-15 0)
(3 -4.015210558e-15 0)
(3 -3.451628649e-15 0)
(3 -2.777913624e-15 0)
(3 -3.562331774e-15 0)
(3 -2.832870954e-15 0)
(3 -1.003379245e-15 0)
(3 -1.084137726e-16 0)
(3 3.452373976e-15 0)
(3 4.817560579e-15 0)
(3 3.451464977e-15 0)
(3 4.607308042e-15 0)
(3 4.285944722e-15 0)
(3 3.416045564e-16 0)
(3 -8.844860183e-17 0)
(3 1.588733086e-15 0)
(3 5.894541576e-15 0)
(3 7.880899371e-15 0)
(3 6.913943974e-15 0)
(3 7.371747578e-15 0)
(3 8.364700087e-15 0)
(3 6.418964837e-15 0)
(3 4.12597061e-15 0)
(3 1.717648779e-15 0)
(3 -2.208858453e-15 0)
(3 -6.85603753e-15 0)
(3 -1.079122955e-14 0)
(3 -1.310209022e-14 0)
(3 -1.116883241e-14 0)
(3 -1.031565904e-14 0)
(3 -9.343544677e-15 0)
(3 -9.77787483e-15 0)
(3 -8.221852318e-15 0)
(3 -6.951840554e-15 0)
(3 -6.014886529e-15 0)
(3 -5.753638317e-15 0)
(3 -6.531158186e-15 0)
(3 -8.872970887e-15 0)
(3 -9.681489771e-15 0)
(3 -7.86097031e-15 0)
(3 -1.002261587e-14 0)
(3 -1.143365155e-14 0)
(3 -1.131745685e-14 0)
(3 -1.309159264e-14 0)
(3 -1.236714032e-14 0)
(3 -8.394758351e-15 0)
(3 -3.265026943e-15 0)
(3 -8.574400323e-16 0)
(3 1.561668609e-16 0)
(3 1.557028897e-15 0)
(3 1.263540667e-15 0)
(3 -1.914752307e-15 0)
(3 -1.74527432e-15 0)
(3 -1.948047523e-15 0)
(3 5.046070404e-15 0)
(3 1.632382904e-14 0)
(3 2.085930744e-14 0)
(3 2.11561174e-14 0)
(3 2.023205886e-14 0)
(3 1.771042971e-14 0)
(3 -1.553804674e-15 0)
(3 -1.758769178e-15 0)
(3 -1.195423709e-15 0)
(3 -1.996359852e-15 0)
(3 -2.970848253e-16 0)
(3 -1.159280516e-16 0)
(3 -6.875499743e-17 0)
(3 -2.096077704e-15 0)
(3 -3.623976875e-15 0)
(3 -2.417667635e-15 0)
(3 -1.263536889e-15 0)
(3 -5.65273445e-16 0)
(3 -1.476251324e-15 0)
(3 -2.782556491e-15 0)
(3 -7.843729267e-15 0)
(3 -5.617511287e-15 0)
(3 -3.263689798e-15 0)
(3 -1.498339182e-15 0)
(3 -9.851412334e-16 0)
(3 8.465518594e-16 0)
(3 -1.490968669e-15 0)
(3 -1.419173961e-15 0)
(3 2.048165439e-15 0)
(3 1.990602598e-15 0)
(3 6.060655695e-15 0)
(3 9.253060089e-15 0)
(3 9.339795679e-15 0)
(3 8.377144317e-15 0)
(3 5.041523997e-15 0)
(3 2.556493887e-15 0)
(3 -2.013105833e-15 0)
(3 -4.614561056e-15 0)
(3 -6.086965676e-15 0)
(3 -7.620342176e-15 0)
(3 -8.157530514e-15 0)
(3 -4.500565734e-15 0)
(3 -2.891516105e-15 0)
(3 -4.398645436e-15 0)
(3 -8.436231177e-15 0)
(3 -9.783803263e-15 0)
(3 -9.233138443e-15 0)
(3 -1.00497211e-14 0)
(3 -1.054393623e-14 0)
(3 -9.59591399e-15 0)
(3 -7.881084011e-15 0)
(3 -5.884035236e-15 0)
(3 -4.548039993e-15 0)
(3 -7.251143925e-15 0)
(3 -8.783436793e-15 0)
(3 -1.019682302e-14 0)
(3 -9.685174716e-15 0)
(3 -8.047767901e-15 0)
(3 -5.77441793e-15 0)
(3 -2.763868755e-15 0)
(3 1.005472196e-16 0)
(3 -7.033706602e-17 0)
(3 -1.517246858e-15 0)
(3 -2.674077289e-15 0)
(3 -1.245832538e-15 0)
(3 -2.089642415e-15 0)
(3 -6.850276035e-15 0)
(3 -7.667650228e-15 0)
(3 -5.242235648e-15 0)
(3 1.79465187e-15 0)
(3 3.834690267e-15 0)
(3 7.263638676e-15 0)
(3 8.591884104e-15 0)
(3 -2.575730237e-16 0)
(3 -6.289494057e-18 0)
(3 3.532729578e-15 0)
(3 2.174808023e-15 0)
(3 9.831198701e-16 0)
(3 1.406516577e-15 0)
(3 1.570680727e-15 0)
(3 2.395745459e-15 0)
(3 2.24526386e-15 0)
(3 1.046884801e-15 0)
(3 -9.383190756e-16 0)
(3 -7.239516162e-16 0)
(3 -7.654208832e-16 0)
(3 -5.160164673e-15 0)
(3 -6.286489968e-15 0)
(3 -6.462115617e-15 0)
(3 -5.834796014e-15 0)
(3 -2.505012711e-15 0)
(3 -7.922714169e-16 0)
(3 3.304492891e-16 0)
(3 1.98232189e-15 0)
(3 1.43283619e-15 0)
(3 5.281666522e-16 0)
(3 -4.214893847e-16 0)
(3 -1.118242312e-15 0)
(3 7.63019126e-16 0)
(3 -1.105892721e-15 0)
(3 -6.389791479e-15 0)
(3 -7.467392545e-15 0)
(3 -7.114351198e-15 0)
(3 -6.776356048e-15 0)
(3 -6.499283468e-15 0)
(3 -6.236028657e-15 0)
(3 -6.115191149e-15 0)
(3 -6.71052045e-15 0)
(3 -9.337108027e-15 0)
(3 -8.240792616e-15 0)
(3 -8.426885694e-15 0)
(3 -8.996662356e-15 0)
(3 -1.206430399e-14 0)
(3 -1.084253433e-14 0)
(3 -8.892822884e-15 0)
(3 -8.879364111e-15 0)
(3 -7.528728763e-15 0)
(3 -4.965095892e-15 0)
(3 -2.130335935e-15 0)
(3 -4.005582136e-15 0)
(3 -3.937014629e-15 0)
(3 -3.213912837e-15 0)
(3 -7.834250821e-16 0)
(3 6.834058818e-16 0)
(3 9.303238522e-16 0)
(3 2.393707512e-15 0)
(3 -2.51679862e-16 0)
(3 1.055557679e-17 0)
(3 -1.022153808e-16 0)
(3 -9.096465423e-16 0)
(3 -6.789369495e-16 0)
(3 4.422979728e-16 0)
(3 -1.923547485e-15 0)
(3 -7.855058239e-15 0)
(3 -1.167563263e-14 0)
(3 -1.422723202e-14 0)
(3 -9.575482847e-15 0)
(3 -8.765813578e-15 0)
(3 -5.069666706e-15 0)
(3 -3.358933078e-15 0)
(3 1.773902552e-15 0)
(3 1.361043654e-15 0)
(3 2.987192395e-15 0)
(3 2.422478591e-15 0)
(3 2.614249927e-15 0)
(3 4.209268189e-15 0)
(3 4.973973988e-15 0)
(3 6.528692492e-15 0)
(3 5.751205519e-15 0)
(3 4.340062984e-15 0)
(3 1.635219841e-15 0)
(3 2.743722769e-15 0)
(3 2.527496861e-15 0)
(3 2.125747151e-15 0)
(3 2.04855229e-15 0)
(3 1.497357106e-15 0)
(3 1.759242294e-15 0)
(3 2.812138918e-15 0)
(3 2.714871586e-15 0)
(3 3.449399056e-15 0)
(3 6.887848173e-15 0)
(3 6.049053726e-15 0)
(3 -5.938305641e-16 0)
(3 -6.365840235e-17 0)
(3 -6.621724276e-16 0)
(3 -6.152073381e-16 0)
(3 -3.241118364e-15 0)
(3 -5.612817836e-15 0)
(3 -6.114326083e-15 0)
(3 -6.689453922e-15 0)
(3 -6.878011789e-15 0)
(3 -8.498468113e-15 0)
(3 -7.833267075e-15 0)
(3 -5.365021932e-15 0)
(3 -3.693266072e-15 0)
(3 -6.349961302e-15 0)
(3 -7.903700518e-15 0)
(3 -6.580917274e-15 0)
(3 -5.848265401e-15 0)
(3 -3.418373301e-15 0)
(3 -5.24823876e-15 0)
(3 -4.62121412e-15 0)
(3 -2.996697237e-15 0)
(3 -1.806368209e-15 0)
(3 -1.326750208e-15 0)
(3 -2.711032496e-15 0)
(3 -6.233128041e-15 0)
(3 -4.883880975e-15 0)
(3 -3.030904927e-15 0)
(3 -5.431146041e-16 0)
(3 5.188154291e-16 0)
(3 4.911361444e-15 0)
(3 5.956994416e-15 0)
(3 5.884484237e-15 0)
(3 6.809499197e-15 0)
(3 6.821682407e-15 0)
(3 6.805034038e-15 0)
(3 6.127695441e-15 0)
(3 2.044984978e-15 0)
(3 -1.088297831e-15 0)
(3 -7.537358294e-15 0)
(3 -1.242471829e-14 0)
(3 -1.150417876e-14 0)
(3 -8.272352522e-15 0)
(3 -6.406746978e-15 0)
(3 1.180257375e-15 0)
(3 2.682560867e-15 0)
(3 7.294779198e-16 0)
(3 2.196350553e-15 0)
(3 2.674371806e-15 0)
(3 5.229952693e-15 0)
(3 6.514308895e-15 0)
(3 4.86834564e-15 0)
(3 3.542668298e-15 0)
(3 3.182120245e-15 0)
(3 4.299224819e-15 0)
(3 5.564622349e-15 0)
(3 6.021080944e-15 0)
(3 5.776910383e-15 0)
(3 8.55646514e-15 0)
(3 8.814856735e-15 0)
(3 8.726403612e-15 0)
(3 9.599532931e-15 0)
(3 9.517049157e-15 0)
(3 1.019096579e-14 0)
(3 1.052659961e-14 0)
(3 9.085309155e-15 0)
(3 7.17552041e-15 0)
(3 8.561341425e-15 0)
(3 4.28956431e-15 0)
(3 3.173120063e-15 0)
(3 6.272073971e-16 0)
(3 -1.398649281e-15 0)
(3 -2.549285989e-15 0)
(3 -1.492593846e-15 0)
(3 -2.246596243e-15 0)
(3 -1.87370118e-15 0)
(3 -3.261256922e-15 0)
(3 -3.002739396e-15 0)
(3 -3.989292506e-17 0)
(3 -2.341107273e-15 0)
(3 -2.326300553e-15 0)
(3 -2.543079831e-15 0)
(3 -1.087599942e-15 0)
(3 3.475791491e-15 0)
(3 7.108469266e-15 0)
(3 6.060761204e-15 0)
(3 4.215441652e-15 0)
(3 2.867525887e-15 0)
(3 4.183012289e-15 0)
(3 2.159800518e-15 0)
(3 -4.470008651e-16 0)
(3 -6.362129027e-15 0)
(3 -1.088060789e-14 0)
(3 -1.233149011e-14 0)
(3 -1.086219323e-14 0)
(3 -7.080695652e-15 0)
(3 -2.366203201e-15 0)
(3 1.504770518e-15 0)
(3 5.142761069e-15 0)
(3 5.859469052e-15 0)
(3 5.112728918e-15 0)
(3 4.59080053e-15 0)
(3 4.124085675e-15 0)
(3 2.076094614e-15 0)
(3 -2.207534333e-15 0)
(3 -5.494657429e-15 0)
(3 -7.954049914e-15 0)
(3 -5.991072689e-15 0)
(3 -6.305359993e-15 0)
(3 -8.640013018e-15 0)
(3 -8.358174457e-15 0)
(3 -8.212369288e-15 0)
(3 -7.016038782e-15 0)
(3 -9.803902963e-16 0)