/*--------------------------------*- C++ -*----------------------------------*\
  =========                 |
  \\      /  F ield         | OpenFOAM: The Open Source CFD Toolbox
   \\    /   O peration     | Website:  https://openfoam.org
    \\  /    A nd           | Version:  7
     \\/     M anipulation  |
\*---------------------------------------------------------------------------*/
FoamFile
{
    version     2.0;
    format      ascii;
    class       volScalarField;
    location    "0.2";
    object      rho;
}
// * * * * * * * * * * * * * * * * * * * * * * * * * * * * * * * * * * * * * //

dimensions      [1 -3 0 0 0 0 0];

internalField   nonuniform List<scalar> 
558
(
1.19256129
1.183721845
1.173246928
1.162732867
1.159843231
1.167870826
1.187179195
1.214917892
1.429416667
1.384348672
1.344054209
1.311919333
1.285846118
1.265788052
1.252357295
1.243241256
1.234299626
1.220563521
1.200449502
1.178912806
1.169811436
1.173647738
1.189023077
1.21450992
1.501707433
1.453454008
1.412397349
1.380781808
1.354885445
1.3330119
1.315551338
1.301355369
1.287696416
1.270479458
1.247459081
1.224961908
1.215446831
1.216651752
1.224500191
1.24115424
1.583798558
1.535858709
1.491787825
1.453817923
1.422529121
1.396449544
1.373935709
1.353763247
1.333580034
1.311367486
1.285636466
1.263918726
1.256696338
1.257305135
1.260920197
1.269909614
1.654277833
1.613752115
1.572100933
1.532740981
1.498154346
1.467948874
1.440386743
1.41325422
1.383791644
1.354254913
1.327644695
1.311335278
1.308462021
1.309458089
1.312431525
1.318392096
1.688888888
1.663665348
1.631362908
1.595337171
1.55850474
1.522644394
1.487994479
1.456196623
1.422018712
1.388111691
1.362661061
1.35207553
1.351516612
1.352748509
1.355764587
1.360597656
1.693737908
1.671280258
1.642223127
1.608099564
1.571306161
1.533952158
1.497195772
1.4604741
1.432058987
1.406697164
1.388593436
1.382799036
1.382731693
1.38362609
1.385731778
1.388633753
1.677835106
1.659648606
1.632783728
1.599397554
1.562993642
1.525935637
1.489632281
1.455896339
1.427628932
1.409127638
1.399637682
1.397009831
1.396938604
1.397201436
1.397831392
1.398590754
1.630163198
1.623036586
1.605414176
1.578690346
1.545954392
1.510451926
1.475377028
1.444051902
1.420053665
1.406301778
1.401008925
1.399931575
1.399835307
1.399855655
1.399905759
1.399956886
1.526282105
1.529654395
1.52473387
1.511627817
1.491364577
1.467284426
1.443449458
1.423547849
1.409889233
1.402932988
1.400557946
1.400075104
1.400017864
1.400009124
1.400006801
1.400005716
1.431022281
1.436252777
1.437409898
1.435406564
1.42997471
1.421940975
1.413503928
1.406757478
1.402646875
1.400800981
1.400204924
1.400052703
1.400018346
1.400010382
1.400007316
1.400005812
1.402119388
1.40304326
1.403588183
1.403632481
1.403304047
1.402509233
1.401518762
1.400713802
1.400270607
1.400106836
1.400054863
1.400031283
1.400017378
1.400010314
1.400007133
1.400005684
1.40003052
1.400053035
1.40007367
1.400082643
1.40008141
1.400068139
1.400044254
1.400022629
1.400011656
1.400010351
1.400012554
1.400014452
1.400012689
1.400009328
1.400006734
1.400005494
1.400005077
1.400005135
1.400005212
1.400005267
1.400005287
1.400005266
1.400005192
1.400005107
1.400005075
1.400005149
1.400005657
1.40000682
1.400007405
1.400006908
1.400005943
1.400005285
1.40000504
1.40000504
1.40000504
1.40000504
1.40000504
1.40000504
1.40000504
1.40000504
1.40000504
1.400005042
1.400005063
1.400005168
1.400005319
1.400005339
1.400005244
1.400005111
1.40000504
1.40000504
1.40000504
1.40000504
1.40000504
1.40000504
1.40000504
1.40000504
1.40000504
1.40000504
1.40000504
1.400005043
1.400005048
1.400005053
1.400005052
1.400005047
1.40000504
1.40000504
1.40000504
1.40000504
1.40000504
1.40000504
1.40000504
1.40000504
1.40000504
1.40000504
1.40000504
1.40000504
1.40000504
1.40000504
1.40000504
1.40000504
1.40000504
1.40000504
1.40000504
1.40000504
1.40000504
1.40000504
1.40000504
1.40000504
1.40000504
1.40000504
1.40000504
1.40000504
1.40000504
1.40000504
1.40000504
1.40000504
1.40000504
1.40000504
1.40000504
1.40000504
1.40000504
1.40000504
1.40000504
1.40000504
1.40000504
1.40000504
1.40000504
1.40000504
1.40000504
1.40000504
1.40000504
1.40000504
1.40000504
1.40000504
1.40000504
1.40000504
1.40000504
1.40000504
1.40000504
1.40000504
1.40000504
1.40000504
1.40000504
1.40000504
1.40000504
1.40000504
1.40000504
1.40000504
1.40000504
1.40000504
1.40000504
1.40000504
1.40000504
1.40000504
1.40000504
1.40000504
1.40000504
1.40000504
1.40000504
1.40000504
1.40000504
1.40000504
1.40000504
1.40000504
1.40000504
1.40000504
1.40000504
1.40000504
1.40000504
1.40000504
1.40000504
1.40000504
1.40000504
1.40000504
1.40000504
1.40000504
1.40000504
1.40000504
1.40000504
1.40000504
1.40000504
1.40000504
1.40000504
1.40000504
1.40000504
1.40000504
1.40000504
1.40000504
1.40000504
1.40000504
1.40000504
1.40000504
1.40000504
1.40000504
1.40000504
1.40000504
1.40000504
1.40000504
1.40000504
1.40000504
1.40000504
1.40000504
1.40000504
1.40000504
1.40000504
1.40000504
1.40000504
1.40000504
1.40000504
1.40000504
1.40000504
1.40000504
1.40000504
1.40000504
1.40000504
1.40000504
1.40000504
1.40000504
1.40000504
1.40000504
1.40000504
1.40000504
1.40000504
1.40000504
1.40000504
1.40000504
1.40000504
1.40000504
1.40000504
1.40000504
1.40000504
1.40000504
1.40000504
1.40000504
1.40000504
1.40000504
1.40000504
1.40000504
1.40000504
1.40000504
1.40000504
1.40000504
1.40000504
1.40000504
1.40000504
1.40000504
1.40000504
1.40000504
1.40000504
1.40000504
1.40000504
1.40000504
1.40000504
1.40000504
1.40000504
1.40000504
1.40000504
1.40000504
1.40000504
1.40000504
1.40000504
1.40000504
1.40000504
1.40000504
1.40000504
1.40000504
1.40000504
1.40000504
1.40000504
1.40000504
1.40000504
1.40000504
1.40000504
1.40000504
1.40000504
1.40000504
1.40000504
1.40000504
1.40000504
1.40000504
1.40000504
1.40000504
1.40000504
1.40000504
1.40000504
1.40000504
1.40000504
1.40000504
1.40000504
1.40000504
1.40000504
1.40000504
1.40000504
1.40000504
1.40000504
1.40000504
1.40000504
1.40000504
1.40000504
1.40000504
1.40000504
1.40000504
1.40000504
1.40000504
1.40000504
1.40000504
1.40000504
1.40000504
1.40000504
1.40000504
1.40000504
1.40000504
1.40000504
1.40000504
1.40000504
1.40000504
1.40000504
1.40000504
1.40000504
1.40000504
1.40000504
1.40000504
1.40000504
1.40000504
1.40000504
1.40000504
1.40000504
1.40000504
1.40000504
1.40000504
1.40000504
1.40000504
1.40000504
1.40000504
1.40000504
1.40000504
1.40000504
1.40000504
1.40000504
1.40000504
1.40000504
1.40000504
1.40000504
1.40000504
1.40000504
1.40000504
1.40000504
1.40000504
1.40000504
1.40000504
1.40000504
1.40000504
1.40000504
1.40000504
1.40000504
1.40000504
1.40000504
1.40000504
1.40000504
1.40000504
1.40000504
1.40000504
1.40000504
1.40000504
1.40000504
1.40000504
1.40000504
1.40000504
1.40000504
1.40000504
1.40000504
1.40000504
1.40000504
1.40000504
1.40000504
1.40000504
1.40000504
1.40000504
1.40000504
1.40000504
1.40000504
1.40000504
1.40000504
1.40000504
1.40000504
1.40000504
1.40000504
1.40000504
1.40000504
1.40000504
1.40000504
1.40000504
1.40000504
1.40000504
)
;

boundaryField
{
    inlet
    {
        type            calculated;
        value           nonuniform 0();
    }
    outlet
    {
        type            calculated;
        value           nonuniform 0();
    }
    bottom
    {
        type            calculated;
        value           nonuniform 0();
    }
    top
    {
        type            calculated;
        value           nonuniform List<scalar> 
15
(
1.40000504
1.40000504
1.40000504
1.40000504
1.40000504
1.40000504
1.40000504
1.40000504
1.40000504
1.40000504
1.40000504
1.40000504
1.40000504
1.40000504
1.40000504
)
;
    }
    obstacle
    {
        type            calculated;
        value           nonuniform 0();
    }
    defaultFaces
    {
        type            empty;
    }
    procBoundary34to27
    {
        type            processor;
        value           nonuniform List<scalar> 4(1.478474319 1.55453562 1.632668112 1.688607337);
    }
    procBoundary34to28
    {
        type            processor;
        value           nonuniform List<scalar> 
17
(
1.15393496
1.152511254
1.152627461
1.153613255
1.156868937
1.171493243
1.19901969
1.233020802
1.355373711
1.307333078
1.274595019
1.251976626
1.233417553
1.217934171
1.206818686
1.199475076
1.199475076
)
;
    }
    procBoundary34to29
    {
        type            processor;
        value           uniform 1.245923362;
    }
    procBoundary34to33
    {
        type            processor;
        value           nonuniform List<scalar> 
32
(
1.706273701
1.709517869
1.687891744
1.6288971
1.513434086
1.422924123
1.401187612
1.400015124
1.40000505
1.40000504
1.40000504
1.40000504
1.40000504
1.40000504
1.40000504
1.40000504
1.40000504
1.40000504
1.40000504
1.40000504
1.40000504
1.40000504
1.40000504
1.40000504
1.40000504
1.40000504
1.40000504
1.40000504
1.40000504
1.40000504
1.40000504
1.40000504
)
;
    }
    procBoundary34to35
    {
        type            processor;
        value           nonuniform List<scalar> 
35
(
1.244533727
1.264580402
1.28601429
1.328670183
1.367298476
1.391728002
1.399201963
1.399986314
1.400005174
1.400005188
1.400005149
1.400005104
1.400005072
1.400005051
1.400005042
1.40000504
1.40000504
1.40000504
1.40000504
1.40000504
1.40000504
1.40000504
1.40000504
1.40000504
1.40000504
1.40000504
1.40000504
1.40000504
1.40000504
1.40000504
1.40000504
1.40000504
1.40000504
1.40000504
1.40000504
)
;
    }
}


// ************************************************************************* //
