/*--------------------------------*- C++ -*----------------------------------*\
  =========                 |
  \\      /  F ield         | OpenFOAM: The Open Source CFD Toolbox
   \\    /   O peration     | Website:  https://openfoam.org
    \\  /    A nd           | Version:  7
     \\/     M anipulation  |
\*---------------------------------------------------------------------------*/
FoamFile
{
    version     2.0;
    format      ascii;
    class       volVectorField;
    location    "2.4";
    object      U;
}
// * * * * * * * * * * * * * * * * * * * * * * * * * * * * * * * * * * * * * //

dimensions      [0 1 -1 0 0 0 0];

internalField   nonuniform List<vector> 
138
(
(3 -6.748840239e-16 0)
(3 -6.594335549e-16 0)
(3 -7.847077318e-16 0)
(3 5.379740509e-16 0)
(3 4.916777006e-16 0)
(3 5.769929254e-16 0)
(3 -2.256473042e-17 0)
(3 -2.648094249e-15 0)
(3 -2.891554024e-15 0)
(3 -1.476836569e-15 0)
(3 -9.465046848e-16 0)
(3 4.431155021e-16 0)
(3 2.941964135e-15 0)
(3 2.458844984e-15 0)
(3 1.783233111e-15 0)
(3 -1.743063329e-16 0)
(3 3.546796179e-16 0)
(3 1.725708019e-15 0)
(3 1.242408832e-15 0)
(3 3.675904641e-15 0)
(3 3.782969043e-15 0)
(3 2.048533957e-15 0)
(3 -9.708693252e-16 0)
(3 -4.36217857e-15 0)
(3 -4.03136653e-15 0)
(3 -3.793321874e-15 0)
(3 -3.435380791e-15 0)
(3 -2.996734535e-16 0)
(3 1.996226072e-15 0)
(3 3.381444236e-15 0)
(3 2.727448831e-15 0)
(3 1.319241949e-15 0)
(3 9.983149949e-16 0)
(3 1.680604383e-15 0)
(3 2.699515599e-15 0)
(3 2.409863849e-15 0)
(3 1.916671017e-15 0)
(3 8.91360363e-16 0)
(3 -1.64373676e-15 0)
(3 -1.720896971e-15 0)
(3 -1.572381582e-15 0)
(3 -1.334071436e-15 0)
(3 -4.692874402e-16 0)
(3 -1.218645706e-15 0)
(3 -2.244369088e-15 0)
(3 -3.558286321e-15 0)
(3 -2.829054114e-15 0)
(3 1.32556923e-16 0)
(3 -1.472424868e-16 0)
(3 -6.899614956e-16 0)
(3 1.166485291e-15 0)
(3 3.340527561e-15 0)
(3 2.653475335e-15 0)
(3 3.619625789e-15 0)
(3 3.408193476e-15 0)
(3 4.03614249e-15 0)
(3 5.108231007e-15 0)
(3 3.935094304e-15 0)
(3 3.98799941e-15 0)
(3 4.003728341e-16 0)
(3 -3.928667648e-15 0)
(3 -7.068393854e-15 0)
(3 -6.451143854e-15 0)
(3 -4.613407164e-15 0)
(3 5.256876811e-16 0)
(3 7.724526784e-16 0)
(3 3.242270919e-16 0)
(3 1.52924451e-15 0)
(3 9.781213492e-16 0)
(3 8.747281511e-16 0)
(3 3.124646378e-15 0)
(3 5.988432553e-15 0)
(3 7.183853247e-15 0)
(3 6.05450927e-15 0)
(3 5.132216995e-15 0)
(3 4.600702603e-15 0)
(3 4.599478213e-15 0)
(3 5.906947557e-15 0)
(3 4.348873089e-15 0)
(3 -1.644306187e-16 0)
(3 4.348739667e-16 0)
(3 -4.576772471e-16 0)
(3 -2.407624036e-15 0)
(3 -5.139160321e-15 0)
(3 -6.009066549e-15 0)
(3 -6.249948061e-15 0)
(3 -4.187522402e-15 0)
(3 -2.449589314e-15 0)
(3 -8.228239836e-16 0)
(3 2.42033767e-15 0)
(3 3.842167547e-15 0)
(3 5.849670746e-15 0)
(3 6.78780993e-15 0)
(3 9.433674155e-15 0)
(3 8.607023524e-15 0)
(3 8.912682764e-15 0)
(3 2.59081615e-16 0)
(3 -1.820019976e-15 0)
(3 -1.650717321e-15 0)
(3 -8.233795702e-16 0)
(3 -1.001230801e-15 0)
(3 -1.211122757e-15 0)
(3 -2.541100842e-15 0)
(3 -3.164072175e-15 0)
(3 -3.914110002e-15 0)
(3 -4.395992629e-15 0)
(3 -2.347224291e-15 0)
(3 -2.04104034e-15 0)
(3 1.48877785e-16 0)
(3 1.763209603e-15 0)
(3 5.591628756e-15 0)
(3 8.032143179e-15 0)
(3 8.546701151e-16 0)
(3 2.701257786e-15 0)
(3 1.86277283e-15 0)
(3 2.780812971e-15 0)
(3 4.521426261e-15 0)
(3 4.747822019e-15 0)
(3 2.297747413e-15 0)
(3 4.247835998e-16 0)
(3 -4.541593908e-15 0)
(3 -7.290544282e-15 0)
(3 -5.702070068e-15 0)
(3 -3.460350215e-15 0)
(3 -8.86119642e-16 0)
(3 1.263124938e-15 0)
(3 4.142606533e-15 0)
(3 5.693260398e-15 0)
(3 4.085618484e-16 0)
(3 1.749870544e-15 0)
(3 2.535216168e-15 0)
(3 6.871260427e-16 0)
(3 5.92075077e-16 0)
(3 -1.873357316e-16 0)
(3 -2.896083934e-16 0)
(3 -7.719841095e-16 0)
(3 -6.787438768e-16 0)
(3 9.960766977e-17 0)
)
;

boundaryField
{
    inlet
    {
        type            fixedValue;
        value           uniform (3 0 0);
    }
    outlet
    {
        type            inletOutlet;
        inletValue      nonuniform 0();
        value           nonuniform 0();
    }
    bottom
    {
        type            slip;
    }
    top
    {
        type            slip;
    }
    obstacle
    {
        type            slip;
    }
    defaultFaces
    {
        type            empty;
    }
    procBoundary0to1
    {
        type            processor;
        value           nonuniform List<vector> 8((3 -7.572942864e-16 0) (3 1.776303403e-17 0) (3 9.873902074e-16 0) (3 -2.559455093e-15 0) (3 -6.339285029e-16 0) (3 7.670762854e-15 0) (3 1.088779749e-14 0) (3 7.707696641e-15 0));
    }
    procBoundary0to6
    {
        type            processor;
        value           nonuniform List<vector> 
17
(
(3 -2.811851105e-16 0)
(3 1.281275734e-15 0)
(3 1.106338002e-15 0)
(3 1.786936142e-15 0)
(3 -1.906654509e-16 0)
(3 -2.499165675e-16 0)
(3 -5.698517575e-16 0)
(3 -3.476366101e-15 0)
(3 -2.930449086e-15 0)
(3 -2.582029128e-15 0)
(3 -2.793878038e-15 0)
(3 -1.53847318e-15 0)
(3 -1.210356305e-15 0)
(3 6.850707845e-16 0)
(3 4.389694679e-15 0)
(3 -2.811851105e-16 0)
(3 5.046332174e-15 0)
)
;
    }
}


// ************************************************************************* //
