/*--------------------------------*- C++ -*----------------------------------*\
  =========                 |
  \\      /  F ield         | OpenFOAM: The Open Source CFD Toolbox
   \\    /   O peration     | Website:  https://openfoam.org
    \\  /    A nd           | Version:  7
     \\/     M anipulation  |
\*---------------------------------------------------------------------------*/
FoamFile
{
    version     2.0;
    format      ascii;
    class       volScalarField;
    location    "2.9";
    object      T;
}
// * * * * * * * * * * * * * * * * * * * * * * * * * * * * * * * * * * * * * //

dimensions      [0 0 0 1 0 0 0];

internalField   nonuniform List<scalar> 5(0.9588996267 0.9575809963 0.9783345809 1.052647318 0.9933506676);

boundaryField
{
    inlet
    {
        type            fixedValue;
        value           nonuniform 0();
    }
    outlet
    {
        type            inletOutlet;
        inletValue      nonuniform 0();
        value           nonuniform 0();
    }
    bottom
    {
        type            slip;
    }
    top
    {
        type            slip;
    }
    obstacle
    {
        type            zeroGradient;
    }
    defaultFaces
    {
        type            empty;
    }
    procBoundary27to21
    {
        type            processor;
        value           uniform 0.9674591832;
    }
    procBoundary27to26
    {
        type            processor;
        value           uniform 1.094006633;
    }
    procBoundary27to28
    {
        type            processor;
        value           nonuniform List<scalar> 4(0.9898742144 0.9898742144 1.02501729 0.9991417021);
    }
    procBoundary27to33
    {
        type            processor;
        value           nonuniform List<scalar> 2(1.027992004 1.017281858);
    }
}


// ************************************************************************* //
