/*--------------------------------*- C++ -*----------------------------------*\
  =========                 |
  \\      /  F ield         | OpenFOAM: The Open Source CFD Toolbox
   \\    /   O peration     | Website:  https://openfoam.org
    \\  /    A nd           | Version:  7
     \\/     M anipulation  |
\*---------------------------------------------------------------------------*/
FoamFile
{
    version     2.0;
    format      ascii;
    class       volScalarField;
    location    "1.1";
    object      T;
}
// * * * * * * * * * * * * * * * * * * * * * * * * * * * * * * * * * * * * * //

dimensions      [0 0 0 1 0 0 0];

internalField   nonuniform List<scalar> 
22
(
1.016217355
1.023100176
1.000003331
1.000016103
1.000062027
1.00018796
1.000495993
1.001256218
1.001913231
1.000000005
1.00000011
1.000000742
1.000003532
1.000029293
1.000024364
0.9999999994
0.9999999993
1
0.9999999983
1.000000178
1.000000047
0.9999999998
)
;

boundaryField
{
    inlet
    {
        type            fixedValue;
        value           nonuniform 0();
    }
    outlet
    {
        type            inletOutlet;
        inletValue      nonuniform 0();
        value           nonuniform 0();
    }
    bottom
    {
        type            slip;
    }
    top
    {
        type            slip;
    }
    obstacle
    {
        type            zeroGradient;
    }
    defaultFaces
    {
        type            empty;
    }
    procBoundary26to20
    {
        type            processor;
        value           nonuniform List<scalar> 8(1.058454984 1.072190367 1.00061264 1.001513171 1.003229154 1.006017343 1.010320843 1.010320843);
    }
    procBoundary26to25
    {
        type            processor;
        value           nonuniform List<scalar> 4(1.000000409 0.9999999986 0.9999999986 0.9999999994);
    }
    procBoundary26to27
    {
        type            processor;
        value           nonuniform List<scalar> 3(1.066516987 1.027316499 1.004125426);
    }
    procBoundary26to31
    {
        type            processor;
        value           uniform 0.9999999999;
    }
    procBoundary26to32
    {
        type            processor;
        value           nonuniform List<scalar> 7(0.9999999997 0.9999999997 0.9999999993 0.9999999995 0.9999999996 0.9999999997 1);
    }
    procBoundary26to33
    {
        type            processor;
        value           uniform 1.000253121;
    }
}


// ************************************************************************* //
