/*--------------------------------*- C++ -*----------------------------------*\
  =========                 |
  \\      /  F ield         | OpenFOAM: The Open Source CFD Toolbox
   \\    /   O peration     | Website:  https://openfoam.org
    \\  /    A nd           | Version:  7
     \\/     M anipulation  |
\*---------------------------------------------------------------------------*/
FoamFile
{
    version     2.0;
    format      ascii;
    class       volVectorField;
    location    "2.5";
    object      U;
}
// * * * * * * * * * * * * * * * * * * * * * * * * * * * * * * * * * * * * * //

dimensions      [0 1 -1 0 0 0 0];

internalField   nonuniform List<vector> 
2222
(
(3 -1.536657262e-14 0)
(3 -1.720639861e-14 0)
(3 -1.235764953e-14 0)
(3 -8.188105555e-15 0)
(3 -6.960057234e-15 0)
(3 -5.859034494e-15 0)
(3 -5.336849757e-15 0)
(3 -2.325685326e-15 0)
(3 -1.904148103e-15 0)
(3 4.561455146e-15 0)
(3 3.920620603e-15 0)
(3 1.846914592e-15 0)
(3 -2.170905115e-15 0)
(3 -7.089433596e-15 0)
(3 -3.556878223e-15 0)
(3 1.807277616e-16 0)
(3 -6.507890382e-17 0)
(3 -3.846006052e-16 0)
(3 3.134895503e-15 0)
(3 4.793519674e-15 0)
(3 6.970702237e-15 0)
(3 1.211577375e-14 0)
(3 1.947384149e-14 0)
(3 -5.140731119e-16 0)
(3 1.367714534e-16 0)
(3 6.668229336e-17 0)
(3 2.847240409e-15 0)
(3 3.290489671e-15 0)
(3 3.429831326e-15 0)
(3 2.598288862e-15 0)
(3 9.533177045e-16 0)
(3 1.773506168e-15 0)
(3 1.53209747e-15 0)
(3 2.494454161e-15 0)
(3 1.734692102e-15 0)
(3 1.739398933e-15 0)
(3 5.100131961e-15 0)
(3 7.015891078e-15 0)
(3 6.053256266e-15 0)
(3 5.635623769e-15 0)
(3 2.325237694e-15 0)
(3 2.587203405e-15 0)
(3 2.824489147e-15 0)
(3 3.315588284e-15 0)
(3 1.875763162e-15 0)
(3 2.989167022e-16 0)
(3 -2.143184213e-15 0)
(3 -5.357350707e-15 0)
(3 -5.26515395e-15 0)
(3 -4.491464745e-15 0)
(3 -5.198420253e-15 0)
(3 -3.683214638e-15 0)
(3 -2.218911104e-15 0)
(3 -7.472157948e-16 0)
(3 8.599013968e-16 0)
(3 1.06455538e-15 0)
(3 3.85603847e-18 0)
(3 8.427505565e-16 0)
(3 -1.880593981e-16 0)
(3 -3.122426341e-15 0)
(3 -5.837494043e-15 0)
(3 -8.656595296e-15 0)
(3 -8.78812304e-15 0)
(3 -7.478528334e-15 0)
(3 -5.368906525e-15 0)
(3 -7.868637243e-15 0)
(3 -1.26580375e-14 0)
(3 -1.577090352e-14 0)
(3 -1.528893374e-14 0)
(3 -1.414183962e-14 0)
(3 -1.014882002e-14 0)
(3 -1.969630767e-15 0)
(3 -8.614805088e-16 0)
(3 -3.055350332e-15 0)
(3 -4.401522675e-15 0)
(3 -4.655608458e-15 0)
(3 -4.675879823e-15 0)
(3 -4.890461113e-15 0)
(3 -5.456257597e-15 0)
(3 -3.383496768e-15 0)
(3 -4.072237515e-15 0)
(3 -2.344920093e-15 0)
(3 9.048019177e-16 0)
(3 3.230585102e-15 0)
(3 3.882324492e-15 0)
(3 2.990590294e-15 0)
(3 4.886391691e-15 0)
(3 5.494653128e-15 0)
(3 6.858835198e-15 0)
(3 7.452815837e-15 0)
(3 -7.158573718e-16 0)
(3 1.102768294e-15 0)
(3 4.487572498e-16 0)
(3 8.87093504e-16 0)
(3 1.188580401e-15 0)
(3 1.038878166e-15 0)
(3 1.330240886e-15 0)
(3 3.957639176e-16 0)
(3 2.640313924e-15 0)
(3 4.597513084e-15 0)
(3 4.436302436e-15 0)
(3 6.797486745e-15 0)
(3 8.547646946e-15 0)
(3 8.280167875e-15 0)
(3 9.380121822e-15 0)
(3 7.643116398e-15 0)
(3 4.993231328e-15 0)
(3 2.885164895e-15 0)
(3 2.499163006e-15 0)
(3 3.945331498e-15 0)
(3 2.085022912e-15 0)
(3 -2.780137008e-16 0)
(3 -2.839366421e-15 0)
(3 -4.839526246e-15 0)
(3 -7.995775107e-15 0)
(3 -8.428088895e-15 0)
(3 -5.849902328e-15 0)
(3 -1.004079081e-15 0)
(3 -3.503425336e-16 0)
(3 -3.323261828e-15 0)
(3 -6.173386527e-15 0)
(3 -7.928700125e-15 0)
(3 -7.768980897e-15 0)
(3 -6.428486004e-15 0)
(3 -5.322106741e-15 0)
(3 -3.675649403e-15 0)
(3 -2.929383644e-15 0)
(3 -3.281916897e-15 0)
(3 -2.549567652e-15 0)
(3 -1.168725123e-15 0)
(3 2.116087222e-15 0)
(3 3.85480971e-15 0)
(3 -3.512692894e-15 0)
(3 -9.572579589e-15 0)
(3 -1.065620382e-14 0)
(3 -1.278830965e-14 0)
(3 -1.436528253e-14 0)
(3 -1.262399318e-14 0)
(3 -9.344139916e-15 0)
(3 -5.168965749e-15 0)
(3 -3.451401234e-15 0)
(3 -4.657514435e-15 0)
(3 -4.997127345e-15 0)
(3 -6.056276071e-15 0)
(3 -6.51091162e-15 0)
(3 -7.294057258e-15 0)
(3 -5.349544752e-15 0)
(3 -3.119109386e-16 0)
(3 1.553121137e-15 0)
(3 2.325485163e-15 0)
(3 4.784968988e-15 0)
(3 5.450903634e-15 0)
(3 3.302694302e-15 0)
(3 5.119965504e-15 0)
(3 7.224444561e-15 0)
(3 6.099201412e-15 0)
(3 2.595668993e-15 0)
(3 1.564056102e-15 0)
(3 1.333543808e-15 0)
(3 -4.839330532e-16 0)
(3 -2.325050415e-15 0)
(3 -1.932334919e-15 0)
(3 -1.59660775e-15 0)
(3 -6.929948035e-16 0)
(3 1.596427137e-16 0)
(3 1.45077673e-15 0)
(3 1.153734893e-15 0)
(3 2.013605105e-15 0)
(3 4.229043285e-15 0)
(3 5.662410144e-15 0)
(3 2.503480231e-15 0)
(3 1.815592934e-15 0)
(3 7.126898416e-16 0)
(3 -5.638574698e-16 0)
(3 -9.735676304e-16 0)
(3 -2.614718525e-16 0)
(3 2.679938007e-17 0)
(3 -1.966493509e-15 0)
(3 -3.454535148e-15 0)
(3 -2.967421355e-15 0)
(3 -5.073496487e-15 0)
(3 -5.880058758e-15 0)
(3 -7.434291215e-15 0)
(3 -7.682674252e-15 0)
(3 -3.122637733e-15 0)
(3 -1.475047354e-15 0)
(3 -2.190186372e-15 0)
(3 -5.137232333e-15 0)
(3 -5.87997482e-15 0)
(3 -5.817005772e-15 0)
(3 -6.008110453e-15 0)
(3 -4.990980689e-15 0)
(3 -2.315171831e-15 0)
(3 -7.125885894e-16 0)
(3 1.887695296e-15 0)
(3 2.100340593e-15 0)
(3 4.936035161e-15 0)
(3 1.231924327e-14 0)
(3 1.299228818e-14 0)
(3 1.181500075e-14 0)
(3 5.271518987e-15 0)
(3 2.186191449e-15 0)
(3 -5.242611667e-15 0)
(3 -8.763990882e-15 0)
(3 -9.383041882e-15 0)
(3 -9.629094289e-15 0)
(3 -9.044919074e-15 0)
(3 -1.540057405e-15 0)
(3 1.877049553e-15 0)
(3 3.038658561e-15 0)
(3 1.354624076e-15 0)
(3 1.446807194e-15 0)
(3 2.447798985e-15 0)
(3 2.221745654e-15 0)
(3 2.014123284e-15 0)
(3 1.657599504e-15 0)
(3 1.973003121e-15 0)
(3 2.607473579e-15 0)
(3 4.859687332e-15 0)
(3 1.057490536e-14 0)
(3 1.184491884e-14 0)
(3 9.76489354e-15 0)
(3 8.503647636e-15 0)
(3 5.649285728e-15 0)
(3 1.570182617e-16 0)
(3 -6.538140649e-16 0)
(3 6.972601449e-16 0)
(3 1.776580293e-16 0)
(3 -1.307974931e-15 0)
(3 -8.800384961e-16 0)
(3 -2.709207504e-16 0)
(3 -6.754023445e-17 0)
(3 -4.324929854e-16 0)
(3 -1.352727109e-15 0)
(3 8.114046337e-16 0)
(3 -1.008684984e-15 0)
(3 -3.204496833e-15 0)
(3 -5.28464453e-15 0)
(3 -8.178758692e-15 0)
(3 -1.047882467e-14 0)
(3 -9.148768719e-15 0)
(3 -8.444851177e-15 0)
(3 -6.458480662e-15 0)
(3 -7.945118298e-15 0)
(3 -6.788777591e-15 0)
(3 -5.784876542e-15 0)
(3 -4.466926544e-15 0)
(3 -3.078102652e-15 0)
(3 -4.363760569e-15 0)
(3 -4.86749939e-15 0)
(3 -2.479505189e-15 0)
(3 9.445415548e-16 0)
(3 2.693568363e-15 0)
(3 2.007311969e-15 0)
(3 2.415459942e-15 0)
(3 4.537846407e-15 0)
(3 5.066587104e-15 0)
(3 3.214528291e-15 0)
(3 1.980318607e-15 0)
(3 1.744179245e-15 0)
(3 1.449790287e-15 0)
(3 2.854006679e-15 0)
(3 3.906766444e-15 0)
(3 6.990673167e-15 0)
(3 1.294877969e-14 0)
(3 1.731699211e-14 0)
(3 1.722084953e-14 0)
(3 1.583060667e-14 0)
(3 1.468088937e-14 0)
(3 9.069024119e-15 0)
(3 3.238963712e-15 0)
(3 -5.258031453e-15 0)
(3 -9.535218091e-15 0)
(3 -9.539288693e-15 0)
(3 -9.137410689e-16 0)
(3 9.034717739e-15 0)
(3 1.452457586e-14 0)
(3 1.407528894e-14 0)
(3 1.324100977e-14 0)
(3 1.310546071e-14 0)
(3 1.129362428e-14 0)
(3 7.957597751e-15 0)
(3 4.465707581e-15 0)
(3 4.205480565e-15 0)
(3 6.498775842e-15 0)
(3 1.060305711e-14 0)
(3 1.446169573e-14 0)
(3 1.185708746e-14 0)
(3 9.520700117e-15 0)
(3 8.682549429e-15 0)
(3 9.311228934e-15 0)
(3 -1.070202106e-15 0)
(3 -8.97344124e-16 0)
(3 2.040677636e-17 0)
(3 1.254685253e-15 0)
(3 1.595878483e-15 0)
(3 2.347660899e-15 0)
(3 4.194664564e-15 0)
(3 4.768104437e-15 0)
(3 5.073699438e-15 0)
(3 3.751764565e-15 0)
(3 2.134751496e-15 0)
(3 -3.294367476e-15 0)
(3 -1.060319971e-14 0)
(3 -1.08614397e-14 0)
(3 -1.235489904e-14 0)
(3 -1.281289203e-14 0)
(3 -1.173376883e-14 0)
(3 -9.858067882e-15 0)
(3 -6.034490915e-15 0)
(3 -4.834400909e-15 0)
(3 -4.060036224e-15 0)
(3 -1.850602084e-15 0)
(3 4.140080934e-16 0)
(3 4.127551627e-15 0)
(3 6.527517857e-15 0)
(3 8.487436057e-15 0)
(3 1.255786894e-14 0)
(3 1.277350826e-14 0)
(3 1.150553649e-14 0)
(3 1.080139263e-14 0)
(3 8.921968633e-15 0)
(3 5.298773156e-15 0)
(3 4.239659381e-15 0)
(3 6.067297325e-15 0)
(3 6.117096266e-15 0)
(3 5.785023313e-15 0)
(3 6.187628076e-15 0)
(3 4.961341627e-15 0)
(3 7.367009529e-15 0)
(3 8.380529642e-15 0)
(3 1.00881726e-14 0)
(3 1.068716574e-14 0)
(3 1.056473033e-14 0)
(3 1.009380446e-14 0)
(3 7.763120695e-15 0)
(3 3.402729748e-16 0)
(3 -5.738733585e-15 0)
(3 -1.288975304e-14 0)
(3 -1.193288059e-14 0)
(3 -1.033756698e-14 0)
(3 -6.111597803e-15 0)
(3 2.554468416e-15 0)
(3 9.039087558e-15 0)
(3 1.344642844e-14 0)
(3 1.652451057e-14 0)
(3 1.651719355e-14 0)
(3 1.553601948e-14 0)
(3 1.083374434e-14 0)
(3 7.552942628e-15 0)
(3 6.475069107e-15 0)
(3 8.236066499e-15 0)
(3 1.021008949e-14 0)
(3 1.264029648e-14 0)
(3 1.14294116e-14 0)
(3 1.003552462e-14 0)
(3 9.590214485e-15 0)
(3 7.549258435e-15 0)
(3 2.976715494e-16 0)
(3 3.852386628e-17 0)
(3 -1.481716944e-15 0)
(3 -1.319321547e-15 0)
(3 -1.080334568e-15 0)
(3 8.125370237e-16 0)
(3 1.475668226e-15 0)
(3 3.83294505e-15 0)
(3 3.471901372e-15 0)
(3 3.191952291e-15 0)
(3 1.996113515e-15 0)
(3 -7.03549555e-16 0)
(3 -3.158638911e-15 0)
(3 -3.544530646e-15 0)
(3 -3.3747328e-15 0)
(3 -2.60971812e-15 0)
(3 -2.880128943e-15 0)
(3 -2.522614939e-15 0)
(3 -2.040488617e-15 0)
(3 7.022083072e-16 0)
(3 2.105165394e-15 0)
(3 3.953223545e-15 0)
(3 6.478893836e-15 0)
(3 1.217086928e-14 0)
(3 1.686087411e-14 0)
(3 2.013431029e-14 0)
(3 2.197715003e-14 0)
(3 1.762928173e-14 0)
(3 1.567469925e-14 0)
(3 1.345722006e-14 0)
(3 1.050034899e-14 0)
(3 8.966550015e-15 0)
(3 5.070313139e-15 0)
(3 7.314714501e-15 0)
(3 8.661951834e-15 0)
(3 9.488460084e-15 0)
(3 1.027973331e-14 0)
(3 1.035499423e-14 0)
(3 1.023386503e-14 0)
(3 8.931741706e-15 0)
(3 3.664274429e-15 0)
(3 3.414509517e-15 0)
(3 7.36585433e-16 0)
(3 -2.030271537e-15 0)
(3 -8.930920617e-15 0)
(3 -1.085566029e-14 0)
(3 -9.499161906e-15 0)
(3 -5.746023287e-15 0)
(3 -2.113266445e-15 0)
(3 -1.768740884e-15 0)
(3 -4.398338251e-15 0)
(3 -4.530832389e-15 0)
(3 -2.871562324e-16 0)
(3 3.912828982e-16 0)
(3 1.901600606e-15 0)
(3 3.783245897e-15 0)
(3 2.355417724e-15 0)
(3 2.261457897e-15 0)
(3 -2.771076435e-16 0)
(3 -2.16978389e-15 0)
(3 -3.909144199e-15 0)
(3 -4.071942676e-15 0)
(3 -2.34534571e-15 0)
(3 2.590409523e-15 0)
(3 4.837636345e-15 0)
(3 4.951562601e-15 0)
(3 6.321388297e-15 0)
(3 1.974895075e-16 0)
(3 -7.948731994e-16 0)
(3 -2.558165943e-15 0)
(3 -3.591579961e-15 0)
(3 -3.325965027e-15 0)
(3 -3.176149489e-15 0)
(3 -3.535979809e-15 0)
(3 -2.788031171e-15 0)
(3 -3.693717014e-15 0)
(3 -2.127766651e-15 0)
(3 -4.327372725e-16 0)
(3 2.584700767e-15 0)
(3 4.340479767e-15 0)
(3 5.221920856e-15 0)
(3 4.864794673e-15 0)
(3 5.594600512e-15 0)
(3 6.536177275e-15 0)
(3 5.156030744e-15 0)
(3 1.931022203e-15 0)
(3 7.865848645e-16 0)
(3 1.186126941e-15 0)
(3 1.293031964e-15 0)
(3 3.148149724e-15 0)
(3 4.383788895e-15 0)
(3 7.860187249e-15 0)
(3 1.318414326e-14 0)
(3 1.374153516e-14 0)
(3 1.480166763e-14 0)
(3 1.374624523e-14 0)
(3 1.389941145e-14 0)
(3 1.606226785e-14 0)
(3 1.350639862e-14 0)
(3 1.137699281e-14 0)
(3 1.103253832e-14 0)
(3 1.200917839e-14 0)
(3 1.065636073e-14 0)
(3 1.172581168e-14 0)
(3 1.156894282e-14 0)
(3 1.210723125e-14 0)
(3 8.667818434e-15 0)
(3 5.043174981e-15 0)
(3 2.291400857e-16 0)
(3 -1.622470054e-15 0)
(3 -2.400758186e-15 0)
(3 -1.781633193e-15 0)
(3 -5.632086404e-16 0)
(3 1.706062584e-15 0)
(3 7.457489181e-15 0)
(3 8.249271813e-15 0)
(3 7.583116075e-15 0)
(3 5.433570828e-15 0)
(3 5.384223874e-16 0)
(3 -2.673799602e-15 0)
(3 -4.083678159e-15 0)
(3 -5.941086796e-15 0)
(3 -6.517590256e-15 0)
(3 -6.632543806e-15 0)
(3 -5.239669234e-15 0)
(3 -5.241212457e-15 0)
(3 -6.750496987e-15 0)
(3 -7.929471037e-15 0)
(3 -1.102453069e-14 0)
(3 -1.115261352e-14 0)
(3 -7.502575565e-15 0)
(3 -3.062238094e-15 0)
(3 -8.660011151e-17 0)
(3 2.624844459e-15 0)
(3 -1.176695994e-15 0)
(3 -2.067942433e-15 0)
(3 -1.168539053e-15 0)
(3 -3.761673569e-16 0)
(3 -5.554464001e-16 0)
(3 -2.835033204e-15 0)
(3 -5.025933383e-15 0)
(3 -5.712580547e-15 0)
(3 -5.024398082e-15 0)
(3 -1.833646746e-15 0)
(3 1.6253554e-15 0)
(3 6.33299238e-15 0)
(3 8.517252403e-15 0)
(3 7.745972645e-15 0)
(3 5.994006138e-15 0)
(3 7.941218114e-15 0)
(3 8.177875786e-15 0)
(3 7.73120496e-15 0)
(3 7.881345733e-15 0)
(3 7.138949596e-15 0)
(3 6.069772073e-15 0)
(3 5.000748981e-15 0)
(3 4.853810876e-15 0)
(3 2.441388129e-15 0)
(3 1.069287669e-15 0)
(3 5.278630033e-15 0)
(3 6.923683744e-15 0)
(3 1.132728463e-14 0)
(3 1.409901139e-14 0)
(3 1.640360794e-14 0)
(3 1.613383412e-14 0)
(3 1.51660139e-14 0)
(3 1.379593093e-14 0)
(3 9.101323094e-15 0)
(3 9.650757586e-15 0)
(3 5.476365499e-15 0)
(3 3.477059222e-15 0)
(3 1.231339336e-15 0)
(3 -4.305982278e-15 0)
(3 -7.786951043e-15 0)
(3 -7.346085144e-15 0)
(3 -5.11888853e-15 0)
(3 -2.215708157e-15 0)
(3 4.096529437e-15 0)
(3 7.963467366e-15 0)
(3 1.052357233e-14 0)
(3 1.131589237e-14 0)
(3 1.086380854e-14 0)
(3 1.125498053e-14 0)
(3 1.012464898e-14 0)
(3 7.932269594e-15 0)
(3 6.515598999e-15 0)
(3 -2.736180773e-16 0)
(3 -5.434004424e-15 0)
(3 -6.306345615e-15 0)
(3 -7.697607063e-15 0)
(3 -6.550800102e-15 0)
(3 -9.079139796e-15 0)
(3 -8.390424209e-15 0)
(3 -7.060190919e-15 0)
(3 -6.029522954e-15 0)
(3 -7.680906747e-15 0)
(3 -7.535162704e-15 0)
(3 -6.64882987e-15 0)
(3 -4.758347446e-15 0)
(3 -3.798715979e-15 0)
(3 -4.365210163e-15 0)
(3 3.464673432e-16 0)
(3 -5.430920942e-16 0)
(3 3.470625342e-16 0)
(3 3.687795547e-15 0)
(3 3.662352147e-15 0)
(3 1.85780226e-15 0)
(3 2.049552336e-16 0)
(3 -1.385695887e-15 0)
(3 -8.032009597e-16 0)
(3 -2.667266959e-15 0)
(3 1.904894734e-15 0)
(3 3.166292033e-15 0)
(3 1.862399729e-15 0)
(3 5.489737682e-16 0)
(3 1.271850453e-16 0)
(3 2.09664892e-15 0)
(3 2.313814735e-15 0)
(3 5.521643092e-15 0)
(3 6.817236011e-15 0)
(3 9.941813942e-15 0)
(3 1.104588034e-14 0)
(3 9.407534857e-15 0)
(3 7.470403923e-15 0)
(3 4.564895952e-15 0)
(3 2.831532232e-15 0)
(3 4.028181117e-15 0)
(3 5.275354024e-15 0)
(3 1.019423644e-14 0)
(3 1.403917e-14 0)
(3 1.873471068e-14 0)
(3 1.874470992e-14 0)
(3 2.063028369e-14 0)
(3 1.917572522e-14 0)
(3 1.374734389e-14 0)
(3 1.076775417e-14 0)
(3 5.28886267e-15 0)
(3 -3.045897948e-15 0)
(3 -1.244898471e-14 0)
(3 -1.579073913e-14 0)
(3 -1.439153061e-14 0)
(3 -8.689322062e-15 0)
(3 -3.340399661e-15 0)
(3 3.577645741e-15 0)
(3 9.772059229e-15 0)
(3 1.606906364e-14 0)
(3 2.105514457e-14 0)
(3 2.047880574e-14 0)
(3 1.63399298e-14 0)
(3 1.188257816e-14 0)
(3 7.875091621e-15 0)
(3 2.698784799e-15 0)
(3 -2.544267319e-15 0)
(3 -6.597619209e-15 0)
(3 -8.490568657e-15 0)
(3 -6.384866001e-15 0)
(3 -6.104728789e-15 0)
(3 -7.426997559e-15 0)
(3 -9.565287129e-15 0)
(3 -6.878399431e-15 0)
(3 -1.935714102e-15 0)
(3 -1.210465023e-15 0)
(3 -1.518746003e-15 0)
(3 -2.718505426e-15 0)
(3 -5.316664454e-15 0)
(3 -6.708975719e-15 0)
(3 -6.385207083e-15 0)
(3 -8.251345432e-15 0)
(3 3.01658161e-16 0)
(3 2.763686055e-15 0)
(3 3.901692463e-15 0)
(3 2.620206465e-15 0)
(3 3.610218181e-15 0)
(3 4.877912285e-15 0)
(3 6.376326071e-15 0)
(3 4.227473382e-15 0)
(3 9.862836097e-16 0)
(3 -6.951014158e-16 0)
(3 -9.29585527e-16 0)
(3 -3.504992609e-15 0)
(3 -4.039853982e-15 0)
(3 -3.004120533e-15 0)
(3 -1.218504984e-15 0)
(3 -1.867088846e-15 0)
(3 -1.258735772e-15 0)
(3 7.780087857e-16 0)
(3 1.003255139e-16 0)
(3 2.500713657e-15 0)
(3 4.114448144e-15 0)
(3 5.337989665e-15 0)
(3 4.055911429e-15 0)
(3 5.956294441e-15 0)
(3 7.340170675e-15 0)
(3 7.606081114e-15 0)
(3 8.722566699e-15 0)
(3 8.986983655e-15 0)
(3 9.444636383e-15 0)
(3 1.104971021e-14 0)
(3 1.484378921e-14 0)
(3 1.561387577e-14 0)
(3 1.490974508e-14 0)
(3 1.329255743e-14 0)
(3 9.688225015e-15 0)
(3 3.428672894e-15 0)
(3 2.324011509e-15 0)
(3 -1.671746822e-15 0)
(3 -4.693156557e-15 0)
(3 -3.633719352e-15 0)
(3 -2.617672625e-15 0)
(3 1.213511622e-15 0)
(3 6.006476764e-15 0)
(3 1.091738446e-14 0)
(3 1.474380827e-14 0)
(3 1.736976965e-14 0)
(3 1.764553627e-14 0)
(3 1.784904744e-14 0)
(3 1.33773928e-14 0)
(3 7.056749611e-15 0)
(3 -9.946515321e-16 0)
(3 -9.368098193e-15 0)
(3 -1.129127627e-14 0)
(3 -1.033687828e-14 0)
(3 -8.173941881e-15 0)
(3 -6.004371025e-15 0)
(3 -6.875117544e-15 0)
(3 -4.158549647e-15 0)
(3 5.8615906e-16 0)
(3 3.536988804e-15 0)
(3 3.087578667e-15 0)
(3 2.291083043e-15 0)
(3 6.451993828e-16 0)
(3 -2.208364391e-15 0)
(3 -5.553991957e-15 0)
(3 -8.820408983e-15 0)
(3 -9.537702894e-15 0)
(3 -2.221512296e-16 0)
(3 2.803781007e-15 0)
(3 8.867468744e-16 0)
(3 -2.416936351e-15 0)
(3 -4.389815689e-16 0)
(3 2.994078009e-16 0)
(3 1.263341983e-15 0)
(3 7.266545364e-16 0)
(3 -1.410269164e-15 0)
(3 -3.318769859e-15 0)
(3 -5.250813121e-15 0)
(3 -5.612117418e-15 0)
(3 -3.2351931e-15 0)
(3 2.063982439e-16 0)
(3 1.962590624e-15 0)
(3 5.121449e-16 0)
(3 -1.255171637e-15 0)
(3 -2.451572369e-15 0)
(3 -3.322542201e-15 0)
(3 -4.217707413e-15 0)
(3 -3.612020372e-15 0)
(3 -1.006728383e-15 0)
(3 3.388821903e-15 0)
(3 4.453627889e-15 0)
(3 4.635596695e-15 0)
(3 5.540688599e-15 0)
(3 6.268607545e-15 0)
(3 6.160015188e-15 0)
(3 5.532685252e-15 0)
(3 7.186345873e-15 0)
(3 9.596476158e-15 0)
(3 9.199877254e-15 0)
(3 9.18257902e-15 0)
(3 1.012820664e-14 0)
(3 8.780502211e-15 0)
(3 7.841643161e-15 0)
(3 9.581692524e-15 0)
(3 1.23896721e-14 0)
(3 1.239291157e-14 0)
(3 9.573533532e-15 0)
(3 4.660675702e-15 0)
(3 4.890609064e-15 0)
(3 5.859024616e-15 0)
(3 8.608536837e-15 0)
(3 9.118638989e-15 0)
(3 1.101084448e-14 0)
(3 1.273532234e-14 0)
(3 1.237517627e-14 0)
(3 1.149292439e-14 0)
(3 3.12965921e-15 0)
(3 -2.848483795e-15 0)
(3 -5.630629994e-15 0)
(3 -7.157236709e-15 0)
(3 -7.488081875e-15 0)
(3 -7.126478937e-15 0)
(3 -4.479845101e-15 0)
(3 -1.916560683e-15 0)
(3 -1.953252744e-15 0)
(3 -2.116677129e-15 0)
(3 -2.461987806e-15 0)
(3 -2.434144234e-15 0)
(3 -2.244522431e-15 0)
(3 -7.862354815e-16 0)
(3 2.184594505e-16 0)
(3 -1.172729074e-15 0)
(3 -3.643000805e-15 0)
(3 -5.521923943e-15 0)
(3 6.293298527e-16 0)
(3 2.851742488e-16 0)
(3 -2.355320461e-15 0)
(3 -3.844445461e-15 0)
(3 -4.810170895e-15 0)
(3 -4.664242795e-15 0)
(3 -4.779303598e-15 0)
(3 -6.633360538e-15 0)
(3 -6.454552208e-15 0)
(3 -6.437994744e-15 0)
(3 -6.306842341e-15 0)
(3 -6.936925405e-15 0)
(3 -6.988983492e-15 0)
(3 -6.194339722e-15 0)
(3 -4.97304286e-15 0)
(3 -3.947646996e-15 0)
(3 -1.302672826e-15 0)
(3 -1.786490041e-15 0)
(3 -5.459237911e-15 0)
(3 -2.223497287e-15 0)
(3 -8.192183766e-16 0)
(3 2.317881403e-16 0)
(3 2.20726285e-15 0)
(3 1.486270929e-15 0)
(3 9.089687832e-16 0)
(3 -1.73089045e-15 0)
(3 -1.49878804e-16 0)
(3 1.763794705e-15 0)
(3 4.253015969e-15 0)
(3 4.537869952e-15 0)
(3 4.131429938e-15 0)
(3 6.003089827e-15 0)
(3 7.104899687e-15 0)
(3 8.119829973e-15 0)
(3 9.212556437e-15 0)
(3 1.304902285e-14 0)
(3 1.320823908e-14 0)
(3 1.485632e-14 0)
(3 1.633222944e-14 0)
(3 1.4972359e-14 0)
(3 1.540297306e-14 0)
(3 1.030562913e-14 0)
(3 6.760813104e-15 0)
(3 3.366587528e-15 0)
(3 -9.681722504e-16 0)
(3 1.103651164e-15 0)
(3 4.271584024e-15 0)
(3 3.519970187e-15 0)
(3 2.45778949e-15 0)
(3 1.801809745e-15 0)
(3 1.362097916e-15 0)
(3 3.526121968e-15 0)
(3 4.67190267e-15 0)
(3 4.910990371e-15 0)
(3 3.449273666e-15 0)
(3 3.158004489e-15 0)
(3 4.490849163e-15 0)
(3 4.641251096e-15 0)
(3 2.209942637e-15 0)
(3 -1.501421665e-15 0)
(3 -3.27617752e-15 0)
(3 -5.708318142e-15 0)
(3 -9.026320545e-15 0)
(3 -9.133071194e-15 0)
(3 -7.788498588e-15 0)
(3 -5.599150712e-15 0)
(3 -5.813871902e-15 0)
(3 -2.130068e-16 0)
(3 -4.85422766e-16 0)
(3 -9.099575937e-17 0)
(3 2.334685817e-16 0)
(3 -1.813645509e-15 0)
(3 -2.60027211e-15 0)
(3 -2.173699979e-15 0)
(3 -2.341097588e-15 0)
(3 -1.24974155e-15 0)
(3 -5.930432407e-16 0)
(3 -1.489220976e-15 0)
(3 -3.647291549e-15 0)
(3 -6.114974491e-15 0)
(3 -7.184133629e-15 0)
(3 -7.381352392e-15 0)
(3 -6.015427554e-15 0)
(3 -1.580767174e-15 0)
(3 3.843469656e-15 0)
(3 4.548713828e-15 0)
(3 5.515893598e-15 0)
(3 4.961386301e-15 0)
(3 3.18759186e-15 0)
(3 2.817542295e-15 0)
(3 -3.329243439e-15 0)
(3 -3.906909068e-15 0)
(3 -5.209273705e-15 0)
(3 -3.448591488e-15 0)
(3 -5.044636681e-15 0)
(3 -4.232498619e-15 0)
(3 -7.920476775e-15 0)
(3 -7.203573674e-15 0)
(3 -4.607654238e-15 0)
(3 -2.517371846e-15 0)
(3 -2.69825942e-15 0)
(3 -8.045105997e-16 0)
(3 -9.532830101e-16 0)
(3 -1.761726841e-15 0)
(3 4.151284844e-16 0)
(3 5.24498933e-15 0)
(3 9.677045624e-15 0)
(3 1.176304414e-14 0)
(3 9.058186791e-15 0)
(3 2.04671381e-15 0)
(3 -3.533016534e-15 0)
(3 -3.281408926e-15 0)
(3 -2.204903076e-15 0)
(3 1.236002238e-15 0)
(3 4.45417431e-15 0)
(3 4.555114129e-15 0)
(3 7.394789582e-15 0)
(3 6.751646369e-15 0)
(3 7.154344758e-15 0)
(3 1.006843095e-14 0)
(3 1.029795488e-14 0)
(3 9.025955764e-15 0)
(3 8.678531038e-15 0)
(3 9.71828586e-15 0)
(3 1.399854455e-14 0)
(3 1.208899187e-14 0)
(3 8.171706334e-15 0)
(3 3.70980856e-15 0)
(3 -1.177853049e-15 0)
(3 -7.383419895e-15 0)
(3 -8.991799718e-15 0)
(3 -8.853227707e-15 0)
(3 -9.934897327e-15 0)
(3 -1.156184401e-14 0)
(3 -4.325538997e-16 0)
(3 -1.816491862e-16 0)
(3 2.009632387e-15 0)
(3 5.531425257e-15 0)
(3 4.879503652e-15 0)
(3 2.194127598e-15 0)
(3 1.560164776e-15 0)
(3 2.952871044e-15 0)
(3 4.176923857e-15 0)
(3 4.463911499e-15 0)
(3 2.782066906e-15 0)
(3 2.389083671e-15 0)
(3 -1.373701721e-15 0)
(3 -1.844269533e-15 0)
(3 -1.337421567e-16 0)
(3 3.385534375e-15 0)
(3 4.482318686e-15 0)
(3 8.892875176e-15 0)
(3 1.391991997e-14 0)
(3 1.013402704e-14 0)
(3 8.852017891e-15 0)
(3 4.073117396e-15 0)
(3 1.158982131e-15 0)
(3 -7.077396928e-16 0)
(3 -5.498906837e-15 0)
(3 -6.969397156e-15 0)
(3 -1.024324783e-14 0)
(3 -1.378302275e-14 0)
(3 -1.883390144e-14 0)
(3 -2.390238068e-14 0)
(3 -2.384484574e-14 0)
(3 -2.118860677e-14 0)
(3 -1.717441558e-14 0)
(3 -1.337806699e-14 0)
(3 -1.034058706e-14 0)
(3 -9.798215518e-15 0)
(3 -7.413393085e-15 0)
(3 -1.339353179e-15 0)
(3 8.907402647e-16 0)
(3 4.374710674e-15 0)
(3 9.664973741e-16 0)
(3 -3.88297221e-15 0)
(3 -6.39973065e-15 0)
(3 -6.112762221e-15 0)
(3 -2.466373674e-15 0)
(3 -1.869989419e-15 0)
(3 -7.964760034e-16 0)
(3 2.680725577e-15 0)
(3 6.558861716e-15 0)
(3 1.156303548e-14 0)
(3 1.011259782e-14 0)
(3 9.54936728e-15 0)
(3 1.131320033e-14 0)
(3 1.238164582e-14 0)
(3 1.054794807e-14 0)
(3 9.398577277e-15 0)
(3 1.187117819e-14 0)
(3 1.276813453e-14 0)
(3 1.043811642e-14 0)
(3 7.210655772e-15 0)
(3 3.06117235e-15 0)
(3 -6.201275172e-16 0)
(3 -3.471849126e-15 0)
(3 -5.692197068e-15 0)
(3 -9.998960735e-15 0)
(3 -1.519066667e-14 0)
(3 -1.675974011e-14 0)
(3 9.172405888e-16 0)
(3 -7.511704154e-17 0)
(3 8.622792369e-16 0)
(3 2.948424685e-15 0)
(3 3.116177062e-15 0)
(3 3.790180011e-15 0)
(3 2.89910547e-15 0)
(3 4.621479626e-15 0)
(3 7.276364117e-15 0)
(3 6.974646848e-15 0)
(3 6.59476959e-15 0)
(3 7.175728778e-15 0)
(3 5.396704018e-15 0)
(3 5.297850334e-15 0)
(3 1.07125318e-14 0)
(3 1.099038639e-14 0)
(3 1.175128314e-14 0)
(3 8.604878443e-15 0)
(3 7.84103728e-15 0)
(3 3.756199564e-15 0)
(3 2.38811472e-15 0)
(3 2.137337618e-15 0)
(3 -1.987242625e-15 0)
(3 3.787555127e-17 0)
(3 -1.081959085e-15 0)
(3 -5.000056125e-15 0)
(3 -1.021103058e-14 0)
(3 -1.222819483e-14 0)
(3 -1.732777673e-14 0)
(3 -1.810363655e-14 0)
(3 -1.672843494e-14 0)
(3 -1.547766964e-14 0)
(3 -1.414906375e-14 0)
(3 -8.663134074e-15 0)
(3 -3.789164465e-15 0)
(3 2.257945654e-16 0)
(3 3.078541618e-15 0)
(3 2.845899838e-15 0)
(3 -2.090127656e-15 0)
(3 -3.58536611e-15 0)
(3 -8.317173256e-15 0)
(3 -1.069216217e-14 0)
(3 -9.233593886e-15 0)
(3 -7.64527291e-15 0)
(3 -6.999788991e-15 0)
(3 -6.001110609e-15 0)
(3 -5.497583829e-15 0)
(3 -2.255776486e-15 0)
(3 4.645271928e-15 0)
(3 1.21415293e-14 0)
(3 1.853418405e-14 0)
(3 1.837140262e-14 0)
(3 1.655321156e-14 0)
(3 1.484811412e-14 0)
(3 1.275130764e-14 0)
(3 9.34152652e-15 0)
(3 7.578294536e-15 0)
(3 5.830768398e-15 0)
(3 2.794497343e-15 0)
(3 -2.010701279e-15 0)
(3 -4.083209e-15 0)
(3 -6.045203926e-15 0)
(3 -8.142271159e-15 0)
(3 -9.544057567e-15 0)
(3 -1.353337929e-14 0)
(3 -1.668526818e-14 0)
(3 -1.642386855e-14 0)
(3 4.239004701e-16 0)
(3 5.271358488e-16 0)
(3 -6.428751986e-16 0)
(3 -2.900500136e-15 0)
(3 -1.909208839e-15 0)
(3 -3.784579308e-16 0)
(3 4.427839483e-16 0)
(3 2.615277229e-15 0)
(3 2.602449138e-15 0)
(3 4.538298321e-15 0)
(3 4.905402331e-15 0)
(3 5.480277435e-15 0)
(3 7.220089621e-15 0)
(3 8.2945059e-15 0)
(3 8.25066527e-15 0)
(3 7.38891817e-15 0)
(3 5.100375987e-15 0)
(3 4.65779787e-15 0)
(3 3.623212183e-15 0)
(3 3.876816799e-15 0)
(3 1.07897049e-15 0)
(3 1.801784394e-15 0)
(3 2.949768233e-15 0)
(3 3.192890119e-15 0)
(3 3.38442921e-15 0)
(3 6.722403522e-17 0)
(3 -1.615183552e-15 0)
(3 -1.915775777e-15 0)
(3 -3.136659375e-15 0)
(3 -5.833339744e-15 0)
(3 -8.163499012e-15 0)
(3 -1.113407676e-14 0)
(3 -1.244556727e-14 0)
(3 -1.211872054e-14 0)
(3 -9.743925795e-15 0)
(3 -7.882826623e-15 0)
(3 -7.05955747e-15 0)
(3 -8.915089686e-15 0)
(3 -6.169323604e-15 0)
(3 -1.04958656e-14 0)
(3 -8.18980134e-15 0)
(3 -4.866924245e-15 0)
(3 -3.452275984e-15 0)
(3 -2.475477945e-15 0)
(3 -4.222342733e-15 0)
(3 -3.0779223e-15 0)
(3 -1.512358725e-15 0)
(3 2.7635994e-15 0)
(3 6.779928888e-15 0)
(3 1.466726773e-14 0)
(3 2.074000228e-14 0)
(3 1.917933793e-14 0)
(3 1.56378351e-14 0)
(3 1.488769581e-14 0)
(3 1.61336713e-14 0)
(3 1.336976757e-14 0)
(3 5.099367987e-15 0)
(3 -4.820612848e-15 0)
(3 -1.084317741e-14 0)
(3 -1.069281558e-14 0)
(3 -8.401613133e-15 0)
(3 -5.243551268e-15 0)
(3 -6.95490032e-15 0)
(3 -9.392516027e-15 0)
(3 -9.212616905e-15 0)
(3 -9.715682854e-15 0)
(3 -9.491227675e-15 0)
(3 -6.799035821e-16 0)
(3 1.25614636e-16 0)
(3 -5.400068329e-16 0)
(3 -1.349014284e-15 0)
(3 -1.121226782e-15 0)
(3 -9.451747392e-17 0)
(3 -1.240207326e-15 0)
(3 -1.041131367e-15 0)
(3 -1.154553686e-15 0)
(3 -1.928868904e-15 0)
(3 -1.87139845e-15 0)
(3 -1.534213556e-15 0)
(3 1.002203082e-15 0)
(3 2.38588632e-15 0)
(3 1.25990091e-15 0)
(3 7.353598413e-16 0)
(3 -1.234193593e-15 0)
(3 9.826863494e-16 0)
(3 2.451420037e-15 0)
(3 3.558427655e-15 0)
(3 4.108071762e-15 0)
(3 5.835904849e-15 0)
(3 1.171726452e-14 0)
(3 1.404020103e-14 0)
(3 1.44997664e-14 0)
(3 1.362050672e-14 0)
(3 1.177401363e-14 0)
(3 1.166499311e-14 0)
(3 1.256904612e-14 0)
(3 8.299186585e-15 0)
(3 4.221662838e-15 0)
(3 1.836115257e-15 0)
(3 -1.409941472e-15 0)
(3 -3.539541169e-15 0)
(3 -7.692232964e-15 0)
(3 -1.351790804e-14 0)
(3 -1.132069994e-14 0)
(3 -9.466262574e-15 0)
(3 -4.957410441e-15 0)
(3 -1.050466675e-14 0)
(3 -9.805840868e-15 0)
(3 -8.644488563e-15 0)
(3 -5.474506063e-15 0)
(3 -7.924039674e-16 0)
(3 2.415630815e-15 0)
(3 2.563103383e-15 0)
(3 1.926722108e-15 0)
(3 2.704668247e-15 0)
(3 4.288498842e-15 0)
(3 1.218069869e-14 0)
(3 1.343349536e-14 0)
(3 1.11120536e-14 0)
(3 1.247550383e-14 0)
(3 1.541549663e-14 0)
(3 1.598247562e-14 0)
(3 1.306760718e-14 0)
(3 3.525367002e-15 0)
(3 1.560232619e-15 0)
(3 -1.092089839e-15 0)
(3 -2.766048446e-15 0)
(3 -2.450353992e-15 0)
(3 -6.901936162e-15 0)
(3 -6.981771969e-15 0)
(3 -8.054865031e-15 0)
(3 -6.869243882e-15 0)
(3 -6.701093914e-15 0)
(3 -2.897580882e-15 0)
(3 -6.165539531e-16 0)
(3 -7.350046174e-16 0)
(3 -6.121799363e-16 0)
(3 4.764272546e-16 0)
(3 5.975819868e-17 0)
(3 -5.65587949e-16 0)
(3 -9.835567539e-16 0)
(3 -4.013852033e-15 0)
(3 -4.06161108e-15 0)
(3 -5.767455063e-15 0)
(3 -4.60905347e-15 0)
(3 -3.036492078e-15 0)
(3 -3.486184274e-15 0)
(3 -2.570358909e-15 0)
(3 -1.733545382e-15 0)
(3 -1.230111483e-15 0)
(3 6.554655943e-16 0)
(3 1.757837004e-15 0)
(3 1.460424734e-15 0)
(3 2.545633424e-15 0)
(3 6.546001959e-15 0)
(3 9.266286353e-15 0)
(3 7.693086546e-15 0)
(3 9.207065569e-15 0)
(3 1.286608903e-14 0)
(3 1.54182799e-14 0)
(3 1.496153291e-14 0)
(3 1.417376887e-14 0)
(3 1.085953e-14 0)
(3 6.711061346e-15 0)
(3 6.866230079e-15 0)
(3 9.107989417e-15 0)
(3 1.040179853e-14 0)
(3 7.122147221e-15 0)
(3 1.187541865e-15 0)
(3 -5.116934297e-15 0)
(3 -8.592487449e-15 0)
(3 -1.100851664e-14 0)
(3 -1.31081581e-14 0)
(3 -8.206054485e-15 0)
(3 -1.001621941e-14 0)
(3 -1.074658715e-14 0)
(3 -8.501118493e-15 0)
(3 -9.288967e-15 0)
(3 -5.576600848e-15 0)
(3 -4.840775964e-15 0)
(3 -3.705891068e-15 0)
(3 -4.641088989e-15 0)
(3 -4.378431902e-15 0)
(3 2.798152631e-15 0)
(3 1.602318969e-15 0)
(3 5.920942277e-15 0)
(3 7.603716791e-15 0)
(3 1.06830025e-14 0)
(3 1.089017339e-14 0)
(3 9.737477704e-15 0)
(3 5.056584728e-15 0)
(3 3.717141664e-15 0)
(3 2.811706497e-15 0)
(3 -1.516818698e-15 0)
(3 -1.837778666e-15 0)
(3 -3.746643576e-15 0)
(3 -5.657452383e-15 0)
(3 -3.484728398e-15 0)
(3 -2.988670846e-15 0)
(3 -2.287916054e-16 0)
(3 6.371921832e-15 0)
(3 9.547527375e-16 0)
(3 -1.266252059e-15 0)
(3 -1.094055847e-16 0)
(3 -6.395405988e-16 0)
(3 -2.299060117e-15 0)
(3 -5.075341665e-15 0)
(3 -7.91306332e-15 0)
(3 -9.68777016e-15 0)
(3 -9.510776479e-15 0)
(3 -8.283196854e-15 0)
(3 -6.366183195e-15 0)
(3 -4.31570189e-15 0)
(3 -2.769792424e-15 0)
(3 -1.187166009e-15 0)
(3 -4.596968621e-16 0)
(3 -1.305709235e-16 0)
(3 4.441312904e-16 0)
(3 9.164619376e-17 0)
(3 9.70678893e-16 0)
(3 4.164535071e-15 0)
(3 3.403974005e-15 0)
(3 4.698208392e-15 0)
(3 3.475177081e-15 0)
(3 4.393280789e-15 0)
(3 5.295049227e-15 0)
(3 1.097281092e-14 0)
(3 1.260207261e-14 0)
(3 1.179569191e-14 0)
(3 1.050793876e-14 0)
(3 8.713250362e-15 0)
(3 8.551693409e-15 0)
(3 8.524990477e-15 0)
(3 8.624246749e-15 0)
(3 3.021659867e-15 0)
(3 -5.424780649e-15 0)
(3 -6.868589942e-15 0)
(3 -1.277150066e-14 0)
(3 -1.531836563e-14 0)
(3 -1.429490948e-14 0)
(3 -1.084435705e-14 0)
(3 -9.873789429e-15 0)
(3 -1.257447392e-14 0)
(3 -1.249974467e-14 0)
(3 -1.282354266e-14 0)
(3 -1.229928247e-14 0)
(3 -1.169893112e-14 0)
(3 -1.105039249e-14 0)
(3 -1.177131562e-14 0)
(3 -8.403687984e-15 0)
(3 -6.747631122e-15 0)
(3 -2.752433342e-15 0)
(3 3.854683592e-15 0)
(3 9.358531402e-15 0)
(3 9.166381032e-15 0)
(3 7.960147215e-15 0)
(3 7.717833321e-15 0)
(3 6.601828961e-15 0)
(3 6.131699697e-15 0)
(3 7.687556525e-15 0)
(3 5.985863147e-15 0)
(3 3.166959345e-15 0)
(3 2.449752817e-15 0)
(3 5.367936842e-15 0)
(3 5.912678653e-15 0)
(3 7.520922458e-15 0)
(3 1.061035423e-14 0)
(3 1.192479008e-14 0)
(3 2.280720609e-16 0)
(3 -1.970369402e-15 0)
(3 -5.255415597e-16 0)
(3 -1.31928619e-15 0)
(3 -2.208204532e-15 0)
(3 -2.649423386e-15 0)
(3 -1.601929931e-15 0)
(3 -2.143471444e-15 0)
(3 -3.612810879e-15 0)
(3 -2.127324181e-15 0)
(3 -3.134464351e-15 0)
(3 -2.344852805e-15 0)
(3 -4.517656084e-16 0)
(3 6.944594226e-17 0)
(3 5.125060816e-16 0)