/*--------------------------------*- C++ -*----------------------------------*\
  =========                 |
  \\      /  F ield         | OpenFOAM: The Open Source CFD Toolbox
   \\    /   O peration     | Website:  https://openfoam.org
    \\  /    A nd           | Version:  7
     \\/     M anipulation  |
\*---------------------------------------------------------------------------*/
FoamFile
{
    version     2.0;
    format      ascii;
    class       volScalarField;
    location    "1.3";
    object      p;
}
// * * * * * * * * * * * * * * * * * * * * * * * * * * * * * * * * * * * * * //

dimensions      [1 -1 -2 0 0 0 0];

internalField   nonuniform List<scalar> 
2222
(
0.9921867983
0.9837015005
0.9795915459
0.9788307256
0.9821979757
0.9934175412
0.9977541956
0.9975914568
0.9981445701
0.9991479881
0.9994370388
0.998863219
0.9982881417
0.9963450965
0.9958988294
0.9968497789
0.9979424015
0.9988725183
0.6554972936
0.893713733
0.9662379628
1.002640579
1.003006272
0.9944498894
0.9841651378
0.9767392022
0.9771869345
0.985639089
0.9929394967
0.9955595795
0.9968326498
0.9980475371
0.9987722676
0.9989838104
0.9982581908
0.9970617537
0.9963483881
0.9952743773
0.9970797423
0.9992968673
0.9993577841
0.6352009506
0.8371484104
0.9524441371
0.9962060651
0.9936370669
0.9862612921
0.9818791023
0.9800050135
0.9842781465
0.987204343
0.9887223546
0.9897637957
0.9924873758
0.9956010391
0.9967851689
0.9968402009
0.9961709466
0.9956185548
0.9957554573
0.9970162715
1.000043868
1.000344662
0.9988225013
0.6192581021
0.7734807687
0.9305890722
0.9881615269
0.9853484781
0.979838839
0.978805096
0.9856143953
0.9894391266
0.9865402233
0.9841267604
0.9854058954
0.9891520988
0.992776388
0.9946602323
0.9946393737
0.9945037888
0.9952759917
0.9969610487
1.000227408
1.002137695
1.00104998
0.9985790344
0.6041219544
0.7176277897
0.8788504972
0.9758594309
0.9848980706
0.9808018723
0.981976784
0.9869514921
0.9868692516
0.9846006062
0.9810851023
0.9823585944
0.9871004762
0.9918902422
0.9943049091
0.9949219771
0.9953074626
0.9961099874
0.9977132391
1.000292865
1.002272789
1.002079976
0.9993955195
0.5957682463
0.6717751227
0.8031614915
0.9391498855
0.9840066501
0.9893382417
0.9889003824
0.9863697337
0.9817097943
0.9799665593
0.9809346439
0.9851229431
0.9906128743
0.9939038481
0.9951934025
0.995758864
0.9961518984
0.996481035
0.997402117
0.9989080672
1.00050074
1.00237253
1.001038416
0.9984850893
0.5899338485
0.6371050737
0.7591960569
0.9148158499
0.9874065427
0.9964088846
0.993377104
0.9875857398
0.9797507474
0.9774640716
0.9825087896
0.9893446718
0.9937268114
0.995644389
0.9962406578
0.9972733038
0.9981330611
0.9981225954
0.9978896151
0.9979252214
0.9987595386
1.00030879
1.001368896
1.001740617
0.5787999608
0.6141005777
0.733952345
0.9081927996
0.988377765
0.9951155781
0.9894630592
0.9821721243
0.9809462375
0.9810955585
0.9864917251
0.9903123377
0.9934857541
0.9959674955
0.9972093953
0.9987540513
0.9994359495
0.9993383987
0.998749914
0.9982052184
0.9980909528
0.9995151119
1.00190627
1.003178062
0.5697074818
0.6017527759
0.6868546414
0.8554290167
0.9754754552
0.9898886571
0.9806694413
0.980589398
0.9829157446
0.9871135313
0.9888587167
0.9906298762
0.9920431774
0.9931993799
0.995832758
0.9979484959
0.9983470198
0.9981474461
0.9976685905
0.9971580561
0.9977153144
1.000009859
1.00186985
1.002398184
0.5665725473
0.5905361891
0.6393526923
0.7648763591
0.9205276227
0.9760016054
0.9771447569
0.9818016367
0.987641223
0.9889659742
0.9885972089
0.9871864303
0.9867824415
0.9895007908
0.9937162999
0.9959562817
0.9964150258
0.9963747581
0.9963698024
0.9960121405
0.9979848801
1.000294551
1.001347993
1.001197972
0.5627301536
0.5765732982
0.6153958797
0.7129889245
0.8685454028
0.9584574918
0.9791862997
0.9886072083
0.9907653235
0.9886622203
0.9841068454
0.9826436116
0.9843855883
0.9882351023
0.9929577289
0.9948674566
0.9950123602
0.9948194012
0.9948686474
0.9964545215
0.998398967
1.000069171
1.000605056
0.9996397793
0.5555811845
0.5676053383
0.5978051166
0.6903722813
0.8388080016
0.947628312
0.9861937905
0.9931339174
0.9925938293
0.984041466
0.9801094942
0.9810484525
0.9840373126
0.9897604933
0.9944170395
0.9961270933
0.9960908194
0.9956555828
0.9955859319
0.9967012643
0.9986193355
1.000247042
1.000329585
0.9992326161
0.9975127359
0.5524256094
0.5644751951
0.5843004233
0.6579456687
0.8070010086
0.9488587682
0.9893579123
0.9946269796
0.9889787845
0.981168448
0.9794419292
0.981928689
0.9871870248
0.9917759098
0.9953143408
0.9968918564
0.9977031737
0.9970533575
0.9968585017
0.9975580803
0.9995889397
1.001212727
1.001494818
0.9998673343
0.998294465
0.5519075778
0.5623224055
0.5754630289
0.6178411076
0.7472148223
0.9198963129
0.9861300336
0.9894194631
0.9835837282
0.9809768649
0.9810107372
0.9856762031
0.9889912818
0.9929065828
0.9959506128
0.9972662377
0.9980463204
0.998206862
0.998461174
0.9988445752
0.9989805277
1.000307333
1.001300971
1.001644617
1.000367125
0.5509748888
0.5586028809
0.5673405339
0.5987598304
0.6929917402
0.8564359628
0.9633753509
0.9793940716
0.980885114
0.982555206
0.9856202009
0.9879155671
0.9906141226
0.9925121124
0.9928280979
0.9941551656
0.9960178296
0.997058637
0.9978028733
0.9980147514
0.9985361295
1.00004092
1.00134646
1.002271728
1.001354416
0.5494857901
0.5538193809
0.5610449681
0.588676858
0.6613801177
0.8036096678
0.9273559733
0.973429289
0.9824581189
0.9872960831
0.9890276984
0.9898834667
0.9892371895
0.9876638611
0.9882041093
0.9913318944
0.9942488208
0.9962163611
0.9971190681
0.9974214521
0.9982469294
0.9998839955
1.001019011
1.002120926
1.00063467
0.5477572659
0.5507778515
0.5565552538
0.5735833863
0.63292903
0.7604463946
0.8934236863
0.9641258925
0.9880704474
0.9915827216
0.991477431
0.9878476847
0.9843514371
0.9844225146
0.9870166898
0.9912237932
0.9941839744
0.9960527526
0.9966970932
0.996913025
0.997871843
0.999285965
1.000203604
1.000951903
0.9998431189
0.5471323309
0.5490252458
0.5539065568
0.5626322111
0.601480677
0.7126468356
0.8654377059
0.9613034161
0.9920191651
0.994232653
0.9882647112
0.9834272238
0.9824767425
0.9841068832
0.9880019689
0.9926013133
0.9953558732
0.9963873337
0.9964004963
0.9965592847
0.9976485451
0.9989472606
1.000109262
1.0003115
0.9993584329
0.5467310456
0.5480849058
0.5520706196
0.5581117178
0.5852937811
0.6645645052
0.819983698
0.9525453559
0.9926950852
0.9897258363
0.9834605904
0.9821200292
0.9829400062
0.9854714208
0.9898722388
0.9940815447
0.9962482492
0.9966737419
0.9965869518
0.9968841036
0.9977092906
0.9990973864
1.0008395
1.000758038
0.9996653916
0.9991751714
0.5452006099
0.5474621602
0.549892388
0.554939655
0.5768729297
0.6384249474
0.7716573006
0.923294026
0.9829740203
0.9820042919
0.9807805745
0.9822369748
0.9842203177
0.9871632029
0.9910472321
0.9938427656
0.9951273018
0.9958626628
0.9966066934
0.9972675715
0.9979446665
0.9995561849
1.00171712
1.001750059
1.00047259
0.9994818868
0.5436967241
0.5468799242
0.5490219906
0.551450951
0.5660106091
0.618586158
0.7395952886
0.8886778902
0.9652216931
0.9793183173
0.9795227293
0.9823229348
0.9850609297
0.9876955962
0.9902684386
0.9911680752
0.9928277426
0.9947416102
0.9964483042
0.9974855386
0.9981606012
0.9999316647
1.002148806
1.002506776
1.00105202
0.9998369026
0.5426461333
0.5459778461
0.5479518064
0.5493933256
0.5573603183
0.5939892312
0.6965513104
0.8506782398
0.9489631763
0.9795488485
0.9831065946
0.9856865337
0.9871961575
0.9886697775
0.9884333489
0.9886779137
0.9911801686
0.9936605594
0.9957217603
0.9968453029
0.9975936901
0.9994994312
1.001384551
1.001964642
1.000828127
0.9999473727
0.54215569
0.5455301632
0.5472336216
0.5483814043
0.55255757
0.5755977673
0.6456345647
0.7945415015
0.9245908375
0.9760327649
0.9859640915
0.9890003586
0.9890452469
0.9885985784
0.9877825136
0.9892515482
0.9922411578
0.9945358698
0.9956938381
0.9959410003
0.9963032308
0.9979834337
0.999597673
1.000790015
1.000042388
0.9997150929
0.5438635296
0.5450168078
0.5469912279
0.5468511326
0.5493971905
0.5672361425
0.614641933
0.7318083046
0.88905672
0.9717906657
0.9891107941
0.9914959867
0.990428132
0.9881045696
0.9885273134
0.9911822805
0.9939269043
0.9956282299
0.9959622256
0.9959031515
0.9963083241
0.9981744977
0.9998172918
1.001541396
1.000739048
1.000350126
0.5446011908
0.5445814076
0.5466061291
0.5457958028
0.5464301685
0.5598617759
0.6017689977
0.6957645504
0.8462751215
0.9634510659
0.9884946537
0.9891376681
0.9883354789
0.9880031504
0.9893503992
0.992329666
0.994266461
0.9953178857
0.9957209717
0.9963166101
0.9974112132
0.9991410291
1.00093076
1.002702742
1.001926416
1.00104896
1.000479425
0.5443241886
0.5441728842
0.5464131949
0.5452724063
0.5449074573
0.5525884256
0.586228784
0.6748324456
0.8186525237
0.9437383964
0.9815504392
0.9845677685
0.9863454727
0.9873458188
0.9885296062
0.9906964395
0.991505884
0.9928749089
0.994484498
0.9960880963
0.9979749011
0.9996497175
1.001723418
1.003149167
1.002298149
1.000791208
0.9999256874
0.5440727227
0.5437309419
0.546017429
0.5445949775
0.5442016545
0.5484259633
0.5692121876
0.6410172916
0.7943033734
0.9289456528
0.9761759453
0.9828583531
0.9844071008
0.9853596883
0.9869846454
0.9868568028
0.9874792015
0.9897381769
0.9922624497
0.9950465405
0.9971337819
0.9988073089
1.001299574
1.00252014
1.001603775
0.99991545
0.9988961083
0.5438953075
0.543107927
0.5455345454
0.5453723604
0.5439876912
0.5463651145
0.5610648337
0.6053416335
0.736997555
0.9056780272
0.9710949968
0.9816238192
0.9839986229
0.9860943602
0.9860603932
0.9846885881
0.9867235593
0.9894000981
0.9918239228
0.9944895522
0.9962514491
0.9977637391
0.9999916254
1.001425527
1.000581813
0.9992121007
0.998796244
0.5433440006
0.5421937934
0.5450088918
0.5457332043
0.5437275075
0.5447331898
0.5564586637
0.5869466178
0.6758995607
0.8435638619
0.9519728519
0.9775893664
0.9862142767
0.987659764
0.9855668649
0.9860004088
0.9883195005
0.9908555873
0.9931585949
0.9951677459
0.9964204349
0.9978551824
0.9999265954
1.001615778
1.0008449
0.9998093823
0.9999014991
0.5426615
0.5416196557
0.5444772769
0.5459739541
0.5438273071
0.5428442055
0.5508323884
0.5772120693
0.6431673331
0.7745032261
0.9116846599
0.9729264625
0.9881194548
0.9892769877
0.9863036981
0.9883273289
0.9912341045
0.9929508878
0.9949409714
0.9961049068
0.9969757092
0.9985329798
1.000487832
1.002363941
1.001689562
1.000953947
1.00096502
0.5425815186
0.5415012341
0.5442592923
0.5460739861
0.5437359911
0.5418505583
0.5465376108
0.5643206245
0.6225379315
0.7414320697
0.875661933
0.9662173015
0.9878869906
0.9875686185
0.9883626798
0.9907694866
0.9927127846
0.9938954083
0.9949837577
0.9960488878
0.997185935
0.9988370761
1.000739347
1.00283662
1.002573034
1.00186847
1.001377568
0.544256139
0.5421386519
0.5440747738
0.5462082394
0.5440146796
0.5417017229
0.544681194
0.5560984788
0.5985064255
0.7156614897
0.8623034966
0.9575984522
0.9844985648
0.9879344035
0.9903217455
0.9917500233
0.9922786034
0.9927500224
0.9933151747
0.9940425642
0.9959072046
0.9980698474
1.000336078
1.002693422
1.002857813
1.001894428
1.000846717
0.9998942395
0.5464807383
0.5424403075
0.5438486977
0.5461808143
0.5444656217
0.5419338232
0.5437634877
0.5531021712
0.5812097288
0.6733938284
0.8440914113
0.9522079909
0.9831169739
0.9892068376
0.9898694317
0.9889877921
0.9876754707
0.9884686947
0.9895380276
0.990803472
0.993727507
0.9970636858
0.9993747321
1.001573359
1.001650595
1.000355076
0.999358338
0.99894929
0.5475189089
0.5427153668
0.5436326321
0.5460503778
0.5448150421
0.5425605436
0.5427949244
0.5502833445
0.5708304046
0.6356922465
0.7866201459
0.9385866524
0.9816969693
0.9872824287
0.9876033463
0.9849096096
0.9844940054
0.9862514584
0.9877339014
0.9895319939
0.9924479754
0.9957048854
0.9976713039
0.9998327202
1.000764395
0.9996563558
0.9989535326
0.9991970659
0.548148991
0.5428178968
0.5430006889
0.5458197655
0.5450205678
0.5429449697
0.5420711236
0.5467182433
0.5607037795
0.6100824957
0.7266107474
0.8882844944
0.9671860364
0.9836839457
0.9863396669
0.9840143246
0.9851121116
0.9869205071
0.9884050399
0.9902175639
0.9928272471
0.9953255179
0.9974146962
0.9997981817
1.001152361
0.9998857802
0.999457669
0.999764863
0.5486254446
0.5427625792
0.5421043887
0.5453015044
0.545132483
0.5431360847
0.5413533823
0.5444863948
0.5530507363
0.5892608519
0.688600281
0.8271739982
0.9357699113
0.9795283934
0.9846546241
0.9848823242
0.9874401785
0.9890564251
0.9902094677
0.9917479727
0.9937235433
0.9958909664
0.9978035435
1.000046291
1.001544459
1.000461318
1.000135155
1.000821729
0.5491262447
0.5429670106
0.5417999199
0.5447538843
0.5451413039
0.5432155358
0.5409472756
0.543113509
0.5495093418
0.5742102351
0.6553417178
0.793837319
0.9098720645
0.9735472461
0.9851775287
0.9878436189
0.9907538975
0.9916309872
0.9923965248
0.9934889933
0.9947913985
0.996518073
0.9982812183
1.000410382
1.002756526
1.001772015
1.001307501
1.001219357
0.549997403
0.5433974979
0.5418942119
0.54457712
0.5451115144
0.543567636
0.5410320883
0.542386872
0.5470612048
0.5645906078
0.6225500919
0.761244537
0.9018495563
0.970789135
0.9867649459
0.9907066729
0.991609319
0.9923514439
0.9931758335
0.9939832105
0.9946236889
0.9958643467
0.9978175701
1.001138637
1.003278811
1.002303792
1.001642294
1.000793883
0.9995547343
0.5508526645
0.5439742801
0.5420920436
0.5445669224
0.5453201318
0.5441315001
0.541314405
0.5419990246
0.5452902139
0.5579213133
0.6019092721
0.7175298048
0.8888013363
0.9731974311
0.9903287468
0.9911862892
0.990461304
0.9911118366
0.9922055138
0.9928166057
0.9933764691
0.9948255439
0.9973487026
1.000960272
1.003021306
1.002318736
1.000705123
0.9989406002
0.9984468264
0.5513922455
0.5445704772
0.5423982555
0.5447125861
0.5455733959
0.5445860181
0.5420123
0.5419364232
0.5445537566
0.5533590253
0.584860621
0.6831929822
0.8464070443
0.9657664992
0.9898155643
0.9890558948
0.9868247594
0.9882836865
0.9895026495
0.9899785051
0.9906689869
0.9926066501
0.9958974219
0.9996465799
1.001280451
0.9999477329
0.9985192794
0.9981145665
0.9984186851
0.5518712431
0.5461118886
0.5428331173
0.5447669127
0.5455560972
0.5448356105
0.5427102038
0.5416170854
0.543432878
0.549362986
0.5700755918
0.6457615694
0.7928363297
0.9305746101
0.9820179046
0.9848263419
0.9849643866
0.9866084961
0.9870732671
0.9874191404
0.9885014806
0.9906237873
0.9942953431
0.9978603524
1.000156855
1.000238911
0.9986197494
0.9983299864
0.9987492992
0.5527557157
0.5486316246
0.5435091832
0.5447647725
0.5454417588
0.5448608871
0.5429808572
0.5411559753
0.5418944002
0.5460131077
0.5605121038
0.6104953218
0.7434334754
0.8840776453
0.9619870955
0.982300331
0.9857124858
0.9873706518
0.9874136338
0.9877193009
0.9891156395
0.9911722368
0.9946325407
0.998122949
1.000575646
1.00128036
0.9995798875
0.9994267796
1.000086498
0.5545809113
0.549926621
0.5441576009
0.5445616616
0.5451641769
0.5447169305
0.5431913054
0.5411742698
0.5411000194
0.5442927828
0.5551318251
0.5914933525
0.695090955
0.849112663
0.9461463794
0.9825733599
0.9883048585
0.9892885652
0.9889133289
0.9890284334
0.9899476541
0.9916773704
0.9949191022
0.9984499064
1.001184568
1.002656842
1.001001217
1.000736192
1.000997999
0.5569170835
0.5505139859
0.5444041689
0.5444820222
0.545281518
0.5447621264
0.5436060282
0.5414304997
0.5408297333
0.543731145
0.5519748602
0.5810126772
0.6625414533
0.8194953051
0.9457642741
0.9855493478
0.9896485884
0.9898341531
0.9897675056
0.9901545497
0.9907180511
0.9921996794
0.9954779741
0.9992301627
1.00242997
1.003447602
1.001248242
1.000541055
1.000717057
0.5579962285
0.5504826963
0.5444234036
0.5445033728
0.5454550692
0.544987646
0.5442716887
0.5421634218
0.5407887813
0.5433919182
0.549642211
0.5689726775
0.6380563593
0.7758208734
0.9311037311
0.9842366581
0.9894308292
0.9894707306
0.9903094269
0.9910201191
0.9915666017
0.9926325472
0.9959925806
0.999894671
1.002694291
1.00242191
1.000463986
1.000009854
0.9997227854
0.9995053614
0.5578731891
0.5506216808
0.5448070012
0.5447772845
0.5458409029
0.5451759483
0.5446529379
0.5429460883
0.5407432354
0.5423650129
0.5463238283
0.5580257918
0.6057010739
0.7337768332
0.8924820098
0.9775533794
0.9865555903
0.9871280119
0.9889535363
0.9897860382
0.9905257832
0.9918305582
0.9951210983
0.9987910502
1.001652188
1.001405273
0.9988440754
0.9984572109
0.9985746749
0.9988185251
0.5560407033
0.550894902
0.5452965445
0.54514395
0.5462885705
0.5452081392
0.5448999469
0.543437913
0.5409705298
0.5415112536
0.5442606077
0.5529797109
0.5854717795
0.6936780697
0.8516505141
0.9541051412
0.9811699722
0.9863551396
0.9882780364
0.9890026859
0.9898981341
0.9911792424
0.9939089723
0.9972737529
0.9991137278
0.9993352672
0.9984771055
0.9979104062
0.998141945
0.9984881334
0.555440504
0.5517233857
0.5459629504
0.5456689978
0.5467183766
0.5451658023
0.5450387809
0.5436786845
0.5411936555
0.5410472958
0.5434386934
0.5506866719
0.5755674434
0.6526394826
0.8132637273
0.9319730616
0.9756801233
0.9880811142
0.9899928589
0.9903666867
0.9908252677
0.9915713743
0.9928013755
0.994367454
0.99679181
0.999366476
0.9986917577
0.9980136904
0.9987285213
0.9993561134
0.5549650844
0.5540814285
0.5468212649
0.5462486086
0.5471519642
0.5450070851
0.5450867499
0.5438421324
0.5413277961
0.5406791109
0.5429978813
0.54869823
0.5664007756
0.6247864636
0.7659306809
0.9133220567
0.9771125895
0.9900581951
0.9918008812
0.9908408201
0.9901565818
0.9900660026
0.990918268
0.9934170049
0.996791493
1.000275714
0.9999550447
0.9990696817
0.9994663584
1.000128522
0.5551605475
0.5560909549
0.5477732674
0.5469775782
0.5476113511
0.5451065065
0.5451646499
0.5442120293
0.5416957379
0.5405177097
0.5424072602
0.546200762
0.5567021239
0.6010670891
0.712843002
0.8825938278
0.9728831191
0.9900093125
0.9908626416
0.9896881582
0.9889775966
0.9887072989
0.9894054383
0.9927623728
0.9975344401
1.002248117
1.001022335
0.999505781
0.9992016383
0.9996484781
0.5574682684
0.5572584122
0.5491136092
0.5464334216
0.5472606845
0.545179763
0.5454385185
0.5448905626
0.5428011174
0.5407945934
0.5414976347
0.5443515576
0.5511477605
0.5809930732
0.6777848231
0.8388173408
0.9626494957
0.9882145543
0.9888028292
0.9877261099
0.9878896673
0.9882581559
0.9895850037
0.9937765263
0.9993189565
1.002415719
1.00029561
0.9984009604
0.9982725119
0.9984479959
0.5586034951
0.5577925772
0.5500328922
0.5466945544
0.5472233939
0.5453075804
0.545687444
0.5451586124
0.5435834112
0.5415008167
0.5409621575
0.5434264449
0.548899753
0.5709775367
0.6496863851
0.8010276739
0.9311769186
0.9779196878
0.9845411818
0.9867280352
0.9874000403
0.9887602873
0.9909003863
0.9952940704
0.9995891707
1.000940312
0.9988405188
0.9966621844
0.9968511952
0.997718092
0.9983061494
0.5580642693
0.5580823614
0.5505615954
0.5469852187
0.5473562966
0.5455710053
0.5457125195
0.5452954802
0.5440062642
0.5419960748
0.5405945347
0.5427711261
0.5475908883
0.5633263852
0.6196431991
0.7639713037
0.8995790418
0.9651336612
0.983678969
0.9862386048
0.9879680277
0.9898456806
0.9917357209
0.9951534844
0.9982291584
0.9994795786
0.9968695953
0.9957915932
0.9961870923
0.9979885911
0.9989530993
0.5572745353
0.5584594333
0.5513166517
0.5475294044
0.5475600766
0.5460865788
0.5459442546
0.5453821637
0.5442154903
0.5421382699
0.5404113751
0.542117623
0.5456882902
0.555160374
0.5969122891
0.7145999425
0.8722676152
0.9564563727
0.9862875898
0.9887429326
0.9898896868
0.9905539477
0.9914987104
0.9938477338
0.9961998158
0.9975163031
0.9969609147
0.9962726477
0.9970679911
0.9988904958
0.9998681127
0.5558100069
0.5590910329
0.5525343473
0.5483129809
0.5477688681
0.5468434487
0.5459924831
0.5454273241
0.5443879843
0.5423958192
0.5404208198
0.5416957643
0.5441234514
0.5505379063
0.5784224595
0.6686793562
0.8371296377
0.9586162416
0.9900776667
0.9917997941
0.9907333027
0.9899005981
0.9902121143
0.9920980239
0.9953328589
0.9972839814
0.9982135987
0.9973905949
0.9981214138
0.999387484
0.9997088345
0.5548141966
0.559727078
0.553756819
0.5486566919
0.5479409305
0.5474169354
0.5463496447
0.5454678922
0.5446646908
0.5429757439
0.5405790626
0.5414853229
0.543579991
0.5482550367
0.5671923131
0.6408309473
0.7928206044
0.9474142268
0.9885148749
0.9926338931
0.9898951755
0.9888806222
0.9890227376
0.9909863483
0.9947124747
0.9977148181
1.00021655
0.9981385801
0.99790582
0.9984254556
0.9987600866
0.5549948812
0.5602583286
0.554818218
0.550383841
0.5483131946
0.547395745
0.5466207697
0.5454960708
0.544942217
0.543979197
0.5414099685
0.5412283976
0.543285261
0.5469728644
0.5617312957
0.6175580681
0.7548140406
0.9061741312
0.9805150599
0.9907234126
0.9892718966
0.988720418
0.9890521373
0.9910536236
0.9950065439
0.9997417986
1.000261117
0.9971742917
0.9963628619
0.9969696698
0.9974783925
0.5558534139
0.5605343523
0.5553676099
0.5514387496
0.5484429998
0.547328932
0.54698062
0.5455690558
0.5451289936
0.5445506098
0.5422814602
0.5411112652
0.5428298316
0.54572297
0.5547183491
0.5948298376
0.7136935346
0.8625352149
0.9556091144
0.9832956264
0.9875911963
0.9890049288
0.9902625173
0.9925097408
0.9963596114
1.000334584
0.9988766046
0.9955871896
0.9947309367
0.9951106287
0.996324358
0.5558536416
0.5605902138
0.5555488877
0.5518109386
0.5491356391
0.5474460636
0.5474910707
0.5457114032
0.5452552049
0.5448230537
0.5427982907
0.5411165294
0.5423781608
0.5441242789
0.549287082
0.5773584431
0.6676803584
0.825482216
0.9340178002
0.9785034934
0.9874242616
0.9904266872
0.9918767311
0.9932569286
0.996481496
0.998883972
0.9975183469
0.9935765032
0.9934240489
0.994043014
0.9959244108
0.5554633482
0.5605528614
0.5555337146
0.5529040887
0.5502536042
0.5481979805
0.5478350239
0.5457747278
0.5451643841
0.5450806246
0.5431028383
0.5411799274
0.5419848088
0.5432500449
0.5471867948
0.5660740355
0.6348406658
0.7899990095
0.9225739358
0.9794578347
0.9901464145
0.9915767743
0.9916997276
0.9924694345
0.9951444061
0.9974796399
0.9959594208
0.9925439728
0.9925455111
0.9941745671
0.9976417676
0.9981467654
0.5533949706
0.560348262
0.555099934
0.5534857332
0.5505826039
0.5489392159
0.5480976158
0.5458543402
0.545021559
0.545158397
0.5435832408
0.541348712
0.5416932376
0.5429015903
0.5458557637
0.5594857264
0.6164196001
0.748623463
0.9112169157
0.9822753082
0.9915399056
0.9915079875
0.9902011385
0.9907191659
0.9935500814
0.9957161913
0.9955394141
0.9928407737
0.9932627154
0.995919275
0.9996193753
0.9990147559
0.5510023713
0.559892559
0.554443144
0.5537317696
0.5515495405
0.548961337
0.5483946571
0.5461910449
0.5450049985
0.5451271485
0.544069369
0.5415669331
0.5415153488
0.5426423429
0.5446404966
0.5538397385
0.594723514
0.7127200197
0.8873254207
0.9780881517
0.9901170969
0.9892518812
0.9882839492
0.9894494013
0.9924011981
0.9950032192
0.9971641005
0.9947095165
0.9950810942
0.9972935957
0.9995812523
0.9982797718
0.5505698214
0.559661022
0.5547804773
0.5536519586
0.5521198515
0.5494336973
0.5489079759
0.5467984385
0.5451871597
0.5451358369
0.5444404719
0.5422286763
0.5414858406
0.5426827287
0.5436949337
0.5485500797
0.5750525256
0.6734027352
0.8353635759
0.9552875292
0.9858229085
0.9862830375
0.9872854432
0.9893452722
0.9920595165
0.9955301728
0.9990566262
0.9961694465
0.9953403069
0.9965055464
0.9985283082
0.9970548009
0.5512923941
0.5606014334
0.5553924522
0.5534457826
0.5523933024
0.5501738653
0.5495372512
0.5478678692
0.545308574
0.5450069287
0.5445877808
0.5426721537
0.5419077447
0.5423301624
0.5428064725
0.5462941698
0.5639085887
0.6328460419
0.7842680611
0.9192974111
0.9747812837
0.9855710251
0.9884623734
0.9907592265
0.9929276175
0.9971164865
0.9987388614
0.9954740202
0.9945030986
0.995289511
0.997036724
0.9959621191
0.5513894872
0.5608762892
0.5555539719
0.5533169235
0.5526601769
0.550523299
0.5503022678
0.5487539794
0.5453823745
0.5449110717
0.5446973072
0.543297738
0.542195821
0.5417661539
0.5422004096
0.5447039139
0.5580105337
0.60923159
0.7469281151
0.8908849009
0.9656025329
0.9875202707
0.9913728897
0.9921866641
0.9937057062
0.997279831
0.9975949805
0.9942899113
0.992921323
0.9936515603
0.996124344
0.9956336446
0.5511129242
0.5607443166
0.5553421916
0.5528786739
0.552725947
0.5511104079
0.5509237283
0.5492975922
0.5456836231
0.5450347304
0.5448025348
0.5437348038
0.542184383
0.5414937107
0.5418059385
0.5434551249
0.552662674
0.5941444452
0.7055385512
0.872113866
0.9648834763
0.9902849409
0.9923052338
0.9919232867
0.9931016885
0.9961379813
0.9961536009
0.9923572872
0.9917642312
0.9927925241
0.9957718366
0.9965660427
0.5464711397
0.5604873076
0.5545977129
0.5522435237
0.5528229339
0.5517507481
0.5512269785
0.5494167457
0.5459946818
0.5452735969
0.5448733205
0.5437944078
0.5422464108
0.5414277664
0.5419384841
0.5430095312
0.548709
0.576611276
0.6702321561
0.8372953592
0.9600092877
0.9898660349
0.9920429994
0.9906308762
0.9915482403
0.9946241954
0.995194741
0.9919898602
0.9911379419
0.9928520279
0.9969256576
0.997893266
0.9964943673
0.5418795652
0.5585247208
0.5552630586
0.5519060344
0.5531058625
0.5524739714
0.5512472829
0.5495538793
0.5465221824
0.5454312029
0.5448717157
0.5438944867
0.5425690697
0.5419926746
0.5422956891
0.5427623374
0.5464230882
0.5651595666
0.64022139
0.7900629476
0.9445557467
0.9872744849
0.9894120007
0.9881535957
0.9902229922
0.9930347808
0.9955993886
0.9927368807
0.9917519837
0.9938385465
0.9982364806
0.9978801625
0.996018975
0.5399750672
0.5567864237
0.5556583516
0.5524205657
0.5531844339
0.5528218611
0.5517663439
0.549867051
0.5476653915
0.5455764286
0.5448902868
0.5440541827
0.5432187631
0.5425982869
0.5422430086
0.5425160747
0.5445827326
0.5572182273
0.608840719
0.753214542
0.9036947664
0.9732170384
0.9842991262
0.9872957497
0.9895996536
0.9931481069
0.9965021658
0.9944318243
0.9932771362
0.9943704501
0.9979290611
0.9970431265
0.9951717762
0.5385780058
0.5564191141
0.5566946625
0.5523873054
0.552829909
0.5516887508
0.5516842229
0.5507071341
0.5483616809
0.5457433164
0.5449285594
0.5442472789
0.5436936451
0.5426878765
0.5419965061
0.5420868993
0.543286006
0.5515910667
0.5914571099
0.7135872015
0.8712262882
0.9591518147
0.9820741019
0.987703845
0.9904497419
0.9937980834
0.9974019885
0.9953958074
0.9935612027
0.9937399361
0.9969683754
0.9958147206
0.9938535044
0.535892115
0.5554360573
0.5589244778
0.551793399
0.5511175375
0.5513698564
0.5520410442
0.551964826
0.548654742
0.5459315337
0.5450398522
0.5444174462
0.5438443688
0.5425481664
0.541701971
0.5416741439
0.5425469581
0.5481894822
0.5780053822
0.6710457514
0.8401170545
0.9435213547
0.9842447741
0.9906906768
0.9918643399
0.9942278194
0.9971911226
0.9949608441
0.9927940187
0.992887956
0.9955652918
0.9947523993
0.9932762937
0.5323854177
0.5523329555
0.560247002
0.551305593
0.5497368956
0.5515147657
0.5529070947
0.5526564709
0.548810451
0.5461141157
0.5451779557
0.5444203846
0.5437965947
0.5425553645
0.5415702065
0.5414658782
0.5422151477
0.5461283039
0.5648503873
0.638600411
0.7932685243
0.9330530111
0.9856001775
0.9913081205
0.991928359
0.9931910858
0.9963116536
0.9942051156
0.9913873611
0.9915560076
0.9940101507
0.9946411035
0.99328309
0.5294597824
0.5491140822
0.5602739488
0.55075446
0.5496276967
0.5521294521
0.5533820807
0.5526665484
0.5489591543
0.5463932354
0.5453554418
0.5445722733
0.5440306675
0.5428335005
0.5419166284
0.5415778087
0.5420423862
0.5448067969
0.5580291989
0.6125050151
0.7438773757
0.9126369554
0.9834619776
0.9901450305
0.9900427611
0.9920595021
0.9952933523
0.9944585008
0.9904873367
0.9908099102
0.9936124283
0.9953276124
0.9942470068
0.5267211913
0.5456299467
0.5596706023
0.551335434
0.5504339926
0.5524890364
0.5528519961
0.552057766
0.5496665509
0.5468891575
0.5456249159
0.5447762841
0.54442683
0.5434261698
0.5423297898
0.5418258787
0.5420792428
0.5438036399
0.5528162818
0.5919962774
0.7141035745
0.8749920686
0.9706478737
0.9868945742
0.9874688373
0.9912019924
0.9951434676
0.9942108695
0.9900594083
0.9907120394
0.9943863555
0.9963122835
0.9948913576
0.5241257468
0.5420367049
0.5583247638
0.5518969553
0.5506465162
0.5521332152
0.5520170946
0.5521110078
0.5511028975
0.5473763641
0.5458742826
0.5448844626
0.5446919012
0.5437416602
0.5424941669
0.5418719612
0.542009237
0.5429697113
0.5489433548
0.5803046988
0.6840471063
0.8461166581
0.949862498
0.9801864457
0.9868420207
0.9912237256
0.9953931167
0.9943906333
0.990560043
0.9915465509
0.9961071618
0.9962453394
0.9947185198
0.9937122544
0.5219634355
0.539036502
0.557224474
0.5518656742
0.5501505668
0.550614889
0.5517848754
0.5525532303
0.5521041035
0.5477368997
0.5459826177
0.5449065487
0.5448734892
0.5438686961
0.5425776882
0.5418364959
0.541833813
0.5423675155
0.5464367183
0.5664782311
0.6449168917
0.8114552206
0.9326766718
0.9750606751
0.9884130483
0.9930883797
0.9962095901
0.9959086293
0.992206523
0.992341687
0.9963360452
0.9956459282
0.9942979342
0.993006332
0.5202835163
0.5362380861
0.5562522009
0.5515457246
0.548446675
0.5494010996
0.551842027
0.5534298825
0.5524972182
0.54797652
0.5460845162
0.5449353113
0.5448395741
0.5440903487
0.5427124966
0.5417245251
0.5415859442
0.5419565868
0.5444026118
0.5570113519
0.6143024909
0.7569191341
0.9105067242
0.9761400642
0.9912922786
0.9943918286
0.9972121121
0.9973606148
0.9931708059
0.9921155352
0.9957480233
0.9949062162
0.9933146044
0.9915541863
0.5190411072
0.53308365
0.5539169413
0.5508910807
0.5474041836
0.549158209
0.5523637878
0.5538269516
0.5525876363
0.5481376629
0.5462343433
0.5450330111
0.5449523533
0.5441708602
0.5427965678
0.5417486085
0.5415101272
0.5417067268
0.5433640955
0.5528746373
0.5942418559
0.7075447346
0.8784776122
0.9737442179
0.9924618524
0.9944941385
0.9970454521
0.5180355931
0.5296865006
)
;

boundaryField
{
    inlet
    {
        type            fixedValue;
        value           nonuniform 0();
    }
    outlet
    {
        type            zeroGradient;
    }
    bottom
    {
        type            slip;
    }
    top
    {
        type            slip;
    }
    obstacle
    {
        type            zeroGradient;
    }
    defaultFaces
    {
        type            empty;
    }
    procBoundary21to15
    {
        type            processor;
        value           nonuniform List<scalar> 
24
(
0.9843867762
0.98452243
0.9836445231
0.9850801222
0.9855682407
0.9876662111
0.9942937857
0.9970990094
0.998070817
0.9977276831
0.9973559193
0.9976100803
0.9973949569
0.9971607216
0.9970552692
0.9990243776
1.000387849
1.000842817
0.6558829698
0.9495272299
0.979591935
0.9961224217
0.9990750885
0.9990750885
)
;
    }