/*--------------------------------*- C++ -*----------------------------------*\
  =========                 |
  \\      /  F ield         | OpenFOAM: The Open Source CFD Toolbox
   \\    /   O peration     | Website:  https://openfoam.org
    \\  /    A nd           | Version:  7
     \\/     M anipulation  |
\*---------------------------------------------------------------------------*/
FoamFile
{
    version     2.0;
    format      ascii;
    class       volScalarField;
    location    "3.5";
    object      p;
}
// * * * * * * * * * * * * * * * * * * * * * * * * * * * * * * * * * * * * * //

dimensions      [1 -1 -2 0 0 0 0];

internalField   nonuniform List<scalar> 
2222
(
1
1
1
1
1
1
1
1
1
1
1
1
1
1
1
1
1
1.000000002
1.000000123
1.000007954
1.000276646
1.005968323
1.063699588
1.385407345
2.086048633
2.910881885
3.440606057
3.520868201
3.50125498
3.416114019
3.286302686
3.155141658
1
1
1
1
1
1
1
1
1
1
1
1
1
1
1
1
1
1.000000077
1.000003537
1.000139419
1.003242684
1.037869935
1.224903368
1.59473207
1.964613565
2.368500396
2.899994755
3.183803504
3.39481307
3.367663017
3.270408682
3.161260962
1
1
1
1
1
1
1
1
1
1
1
1
1
1
1
1
1.000000019
1.000001903
1.000070294
1.001701657
1.02431593
1.161744085
1.511201954
1.817250598
1.882362396
2.015002712
2.394781745
2.920671509
3.277516734
3.276542591
3.255698114
3.181272153
1
1
1
1
1
1
1
1
1
1
1
1
1
1
1
1.000000015
1.000000601
1.000035623
1.000994767
1.014337179
1.12129548
1.422775058
1.759425371
1.923184772
1.922855253
1.933774337
2.008371463
2.313500426
2.818889863
3.048764105
3.195475832
3.185935592
1
1
1
1
1
1
1
1
1
1
1
1
1
1
1.000000002
1.000000379
1.000014342
1.00048963
1.009597831
1.080412352
1.349245792
1.744111916
1.884095023
1.92407906
1.930884863
1.919180388
1.909911367
1.964732934
2.233140674
2.711524315
3.12988876
3.125458334
1
1
1
1
1
1
1
1
1
1
1
1
1
1.000000002
1.000000088
1.000007664
1.000246888
1.004969205
1.058789616
1.285193803
1.627050188
1.913118431
1.949269598
1.937895827
1.925680762
1.901488261
1.863926824
1.847732139
1.896863792
2.166659288
2.676847208
2.896709857
1
1
1
1
1
1
1
1
1
1
1
1
1
1.000000074
1.000002837
1.000119996
1.003003022
1.034215992
1.227201777
1.599650722
1.814440222
1.928574449
1.955802929
1.946958589
1.919317331
1.880119481
1.839239468
1.803545681
1.791911951
1.845598509
2.116325417
2.59105885
1
1
1
1
1
1
1
1
1
1
1
1
1.000000013
1.000001634
1.000061129
1.001459405
1.023777904
1.154326398
1.511644364
1.863218053
1.919118495
1.928013801
1.940587743
1.929820712
1.899593925
1.855828002
1.818008266
1.785108704
1.749211471
1.738603513
1.794303716
2.075183974
1
1
1
1
1
1
1
1
1
1
1
1.000000008
1.000000395
1.000026855
1.000913524
1.012632875
1.119453823
1.432141906
1.73706254
1.936609123
1.961652953
1.950324692
1.934328739
1.907433522
1.870756964
1.829846973
1.793550098
1.766789021
1.731704911
1.689819779
1.683694706
1.750463308
1
1
1
1
1
1
1
1
1
1
1.000000001
1.000000191
1.00001076
1.000363417
1.009105752
1.07493362
1.349541707
1.754727583
1.868657705
1.927932161
1.959009807
1.950471975
1.920282115
1.882313172
1.843317417
1.803396795
1.771825811
1.744160507
1.713827523
1.672234666
1.63668899
1.638414801
1
1
1
1
1
1
1
1
1
1.000000001
1.000000064
1.000004524
1.000226309
1.004016484
1.057923094
1.275210748
1.632858505
1.906390641
1.962458505
1.954427841
1.952868511
1.932241892
1.894412757
1.857001261
1.818397264
1.780132479
1.747560482
1.721913192
1.690762231
1.655379508
1.620644008
1.59368875
1
1
1
1
1
1
1
1
1
1.000000034
1.000002753
1.000091933
1.003125878
1.03106357
1.221837728
1.617461529
1.8240376
1.91008668
1.969566378
1.96493894
1.94286456
1.906438142
1.86540485
1.832278279
1.797057835
1.759238853
1.72607538
1.698959684
1.668929705
1.633019689
1.606264794
1.579519553
1
1
1
1
1
1
1
1
1.000000019
1.000001096
1.000070547
1.001303414
1.025394728
1.152442523
1.497601133
1.883055803
1.957474004
1.942766633
1.950680342
1.944828954
1.921414677
1.880432088
1.838017848
1.80809668
1.77728519
1.739866059
1.706150204
1.677858096
1.647901914
1.612671713
1.586753356
1.565892498
1
1
1
1
1
1
1
1.000000007
1.000000648
1.000021688
1.00103121
1.011820057
1.122390284
1.438983065
1.737372541
1.953601033
1.981843588
1.970301408
1.948762288
1.924593526
1.894508178
1.853004046
1.812086404
1.783985612
1.754424093
1.716710976
1.682578219
1.656340719
1.625669235
1.591125179
1.566680298
1.547134912
1
1
1
1
1
1
1.000000002
1.000000133
1.00001341
1.000294259
1.009101696
1.069333517
1.346298335
1.771365689
1.891720142
1.944099932
1.969602965
1.964347719
1.939695389
1.903142128
1.866812407
1.825440395
1.787798147
1.7599507
1.731179732
1.691213654
1.658698991
1.633606557
1.603257669
1.568222386
1.545797036
1.526330823
1
1
1
1
1
1
1.000000061
1.000002632
1.000209471
1.003040887
1.052298529
1.257739904
1.619903275
1.914829527
1.980272142
1.973875041
1.968466005
1.953365678
1.916843398
1.877885233
1.840527222
1.798589769
1.762955569
1.735128864
1.707091957
1.664906817
1.634877738
1.612371355
1.580220547
1.545329223
1.522400223
1.505071618
1
1
1
1
1
1.000000018
1.000002523
1.000056371
1.002569093
1.023582939
1.193340126
1.598266098
1.828434734
1.919994876
1.979405444
1.978996545
1.967698247
1.936123184
1.890627655
1.854259293
1.816425157
1.773444622
1.738859199
1.710530194
1.681489054
1.637639222
1.610740948
1.590102201
1.556298655
1.521700921
1.500520412
1.483956968
1
1
1
1
1.000000023
1.000000794
1.000067949
1.000979141
1.021558039
1.123534207
1.455143841
1.862057074
1.981582199
1.96936644
1.972065603
1.965903277
1.943192408
1.907934975
1.863352705
1.828724401
1.791799573
1.749391506
1.716383966
1.688712515
1.658176914
1.613685197
1.589178601
1.569447828
1.535591425
1.502618237
1.480904429
1.463797185
1
1
1
1.000000004
1.000000607
1.000018113
1.000962751
1.010745781
1.110467232
1.386064708
1.746279487
1.909577746
1.993203752
1.993919025
1.981613566
1.953774954
1.919566438
1.878238126
1.834962457
1.802767496
1.769721721
1.727141512
1.693823393
1.666944771
1.634267309
1.590227573
1.568163153
1.549825758
1.516843321
1.484643172
1.461410045
1.442872835
1
1
1.000000001
1.000000092
1.000009942
1.00024503
1.007997774
1.068645958
1.33117257
1.718545159
1.964188927
1.968190522
1.972439981
1.978918756
1.968201149
1.936307407
1.895424191
1.847273645
1.806269248
1.777354464
1.748773771
1.704544108
1.669420207
1.644126981
1.609710064
1.567973811
1.547545023
1.53020104
1.497846078
1.465964917
1.442442923
1.422263848
1
1
1.000000032
1.000001994
1.00013669
1.00254751
1.04229873
1.271159721
1.613671289
1.890769124
2.000137276
1.999865592
1.980219949
1.966775182
1.945211854
1.910393469
1.869087927
1.81880762
1.779211183
1.750953658
1.725313475
1.680713149
1.644952806
1.621713791
1.586132
1.547333195
1.526221554
1.508769515
1.477096218
1.444855153
1.421227722
1.400001751
1
1.000000014
1.000001195
1.000049156
1.001711432
1.020476368
1.16560559
1.592723216
1.858598105
1.960691451
1.998176344
1.995075985
1.981372876
1.951986849
1.913793421
1.880092775
1.843033674
1.79417825
1.754768837
1.724860539
1.698994516
1.654260643
1.619443063
1.597053909
1.560374544
1.52362643
1.501417521
1.483633877
1.453665365
1.421458926
1.399024849
1.378645109
1.000000011
1.000000722
1.000035988
1.000937497
1.016122677
1.109432613
1.451737449
1.833148558
1.970579725
2.001064651
1.998335081
1.984661854
1.957229489
1.923202425
1.883569045
1.854067187
1.818904479
1.769981594
1.730211772
1.699440272
1.671763889
1.627902049
1.596573627
1.574535333
1.537151879
1.501991593
1.478337123
1.459320701
1.430847722
1.398501585
1.377565065
1.358761669
1.000000337
1.000018165
1.00060753
1.010514447
1.093571494
1.347836322
1.797566328
1.921640272
1.972655822
2.007263814
2.000464269
1.974235536
1.93626102
1.896352667
1.857307205
1.828071035
1.794711561
1.74704572
1.707062144
1.67650347
1.646148467
1.601398773
1.57298254
1.551250068
1.514365507
1.47986107
1.455186482
1.434825892
1.408183589
1.376835005
1.356968818
1.339396925
1.000006228
1.000253796
1.005749637
1.068454105
1.306918783
1.666858984
1.971415465
2.004415893
1.993650707
1.994735369
1.990152107
1.96389748
1.91918602
1.869419949
1.826938464
1.797273875
1.769002762
1.724289857
1.68233185
1.652403222
1.618955849
1.574515923
1.549915396
1.529731628
1.493620657
1.459077809
1.434197518
1.413304685
1.388112747
1.356708322
1.337123719
1.320486321
1.000088899
1.002484295
1.034600145
1.25807201
1.606452682
1.904608381
2.007617152
2.006756692
1.993310469
1.979302484
1.968879837
1.943180426
1.896497948
1.842751645
1.799705613
1.767996176
1.742120104
1.699429903
1.655615773
1.627904829
1.593488065
1.552212962
1.52790569
1.507708935
1.472868877
1.438238047
1.41352126
1.392122458
1.366856281
1.335463942
1.316743931
1.301229153
1.001177748
1.017885245
1.152463407
1.570055414
1.830484881
1.97979123
2.013510332
2.005840016
1.989970453
1.968826408
1.944590629
1.909418171
1.867859337
1.818978711
1.775129529
1.738834063
1.711592021
1.670822333
1.62722316
1.602385666
1.567960273
1.528306062
1.503537428
1.483762596
1.451425975
1.416850725
1.392609657
1.371424679
1.346443051
1.315287213
1.296924645
1.281924258
1.012216636
1.092903835
1.438308784
1.828432083
1.956117668
2.005803372
2.013149296
2.006179314
1.990845105
1.96081348
1.919085593
1.880943541
1.843569695
1.794381391
1.749043485
1.711645757
1.682696576
1.643180732
1.60153694
1.577957309
1.543634622
1.506484988
1.481504613
1.461342809
1.430216729
1.395203937
1.371606429
1.351063079
1.325755964
1.294184033
1.276202787
1.2617532
1.076481368
1.313889785
1.792013966
1.940734568
1.985659089
2.003313285
2.007465347
1.990424886
1.958511456
1.924259114
1.885897315
1.852702414
1.819434395
1.769922403
1.724141447
1.687467376
1.656389346
1.615029407
1.575809949
1.552766252
1.519320404
1.483359847
1.457219429
1.43588269
1.405997823
1.371647993
1.349019358
1.329403325
1.304133087
1.272826022
1.255511391
1.241664226
1.271960434
1.650320999
1.960795821
1.994479468
2.004734403
2.005899764
2.004623055
1.979032136
1.938022362
1.898028577
1.858834102
1.82456982
1.79229267
1.742857268
1.695724253
1.661296804
1.629260762
1.586045461
1.550654949
1.52809111
1.49504657
1.459933558
1.433565939
1.411775269
1.382964843
1.348735699
1.32681974
1.308117734
1.283115769
1.252176253
1.234863689
1.22092543
1.567510715
1.91059513
2.014258711
2.016845762
2.008861002
2.001787488
1.994341028
1.963810761
1.917419771
1.87066826
1.82919919
1.792726979
1.760632184
1.714887262
1.666832637
1.635570215
1.603995431
1.559717878
1.526061372
1.503269403
1.470791998
1.435976223
1.409304857
1.38696694
1.358738586
1.325307098
1.304213376
1.286326324
1.261737523
1.231135104
1.214046166
1.200278629
1.839475842
2.003904712
2.019386002
2.010291198
2.002584018
1.990435372
1.970940917
1.935266894
1.890928312
1.842402623
1.800199595
1.763165379
1.731265396
1.689897258
1.639805097
1.609883836
1.577968133
1.532543072
1.499671623
1.477159644
1.445588364
1.411439142
1.385606343
1.363845674
1.336720277
1.303848562
1.282923534
1.265260668
1.241347377
1.211761206
1.19471481
1.180858538
1.946809413
2.014877293
2.023136976
2.017190501
2.003097171
1.977995464
1.946131848
1.905443767
1.865551024
1.816254676
1.772010097
1.734008706
1.700915303
1.661504439
1.611389692
1.582731209
1.550758972
1.50653278
1.475282296
1.453256394
1.422574121
1.388660411
1.363237439
1.34171762
1.314799072
1.282343527
1.261969685
1.244718479
1.221986796
1.193278814
1.175999953
1.161940677
2.003383583
2.026331851
2.025775219
2.009331041
1.987842693
1.958642346
1.919207915
1.879228643
1.840094438
1.786863376
1.740740829
1.70418046
1.671350756
1.633397689
1.585085575
1.556995271
1.525202813
1.482901075
1.451169743
1.428074543
1.397530366
1.364190704
1.339806314
1.318977863
1.292813018
1.261232742
1.241570738
1.224692453
1.203080122
1.175219978
1.157590714
1.143386186
2.015655247
2.024781869
2.025323546
2.001376648
1.962513472
1.925414453
1.88618314
1.847659095
1.809469078
1.757596349
1.711478927
1.676658405
1.644023194
1.604832697
1.557677587
1.530188483
1.498791354
1.457472463
1.425461981
1.402332631
1.372943688
1.340260266
1.316777235
1.296666191
1.271212787
1.240493836
1.221495071
1.204959447
1.184225187
1.156585561
1.138538703
1.12433608
2.015711861
2.018415399
2.015445349
1.987884309
1.942812793
1.899595703
1.857551835
1.816869351
1.778868723
1.730823159
1.682241648
1.647200091
1.614521633
1.573811376
1.528672586
1.502507519
1.472223457
1.432779494
1.401108813
1.377887752
1.348825735
1.316503909
1.293874602
1.274342014
1.249603108
1.219514163
1.200893854
1.184564091
1.164440709
1.137308092
1.119207776
1.105233058
2.021843789
2.011508404
2.000152409
1.968442825
1.92187226
1.873144366
1.826956744
1.784902669
1.747198485
1.70299752
1.652189564
1.617085066
1.58540018
1.544315894
1.50156227
1.476266425
1.446660853
1.407860815
1.376257915
1.353136892
1.324808078
1.292872299
1.270878374
1.251823014
1.227925848
1.198801186
1.180681916
1.164738094
1.145333093
1.118474452
1.100056206
1.086104039
2.01911929
2.002209447
1.977432946
1.940028979
1.894450333
1.843247572
1.795496249
1.753432399
1.7160275
1.674966194
1.622833746
1.587463009
1.556389344
1.514540055
1.473391011
1.44904109
1.420091759
1.382688088
1.35231361
1.329635902
1.301218678
1.26902244
1.247758497
1.229394651
1.206842413
1.178701819
1.160587197
1.144682923
1.125543471
1.098974806
1.080720065
1.067061987
2.004055102
1.979716337
1.949719862
1.91060213
1.866076587
1.814400873
1.765777612
1.723182475
1.684904077
1.644894902
1.592398849
1.557539711
1.527337033
1.485280921
1.446547264
1.423243989
1.394731806
1.358030013
1.328143592
1.305384397
1.277057647
1.245171424
1.22485922
1.207199524
1.185852499
1.158601984
1.14065364
1.124986475
1.106435912
1.080407517
1.06213506
1.048536869
1.981322172
1.950726745
1.918756421
1.87967803
1.835865844
1.784873389
1.735506538
1.692669364
1.653845077
1.614252422
1.562093674
1.528359075
1.498822432
1.456632953
1.41942191
1.396475229
1.367839472
1.332063975
1.30328465
1.28095876
1.253035873
1.221500288
1.202095783
1.185154865
1.165060753
1.138476209
1.120415347
1.104884766
1.086796967
1.061357434
1.043603132
1.030565636
1.96487023
1.926670897
1.888939106
1.846662317
1.803283858
1.755527787
1.706245111
1.663177889
1.623981111
1.583480672
1.531199431
1.498625003
1.469374581
1.427285135
1.392592526
1.370500986
1.341844614
1.306798209
1.279098963
1.257177952
1.230206237
1.199557393
1.180708104
1.164000107
1.144330107
1.117801063
1.09991996
1.084922203
1.067833975
1.043719846
1.026190494
1.013266476
1.943113772
1.898898188
1.856298543
1.812337482
1.769836172
1.724919629
1.674732937
1.631358757
1.592608103
1.55148205
1.500235345
1.469336036
1.440317362
1.399572002
1.367111158
1.344923297
1.315613112
1.281588134
1.255132872
1.233478868
1.207132902
1.176879799
1.158561858
1.142296226
1.12332085
1.097347415
1.079715299
1.065240277
1.04896377
1.025602991
1.008168765
0.995514099
1.916780664
1.86846592
1.823135102
1.778653312
1.736693825
1.693737922
1.642632268
1.59952035
1.562222038
1.521332762
1.471854041
1.441637254
1.412186103
1.372721663
1.34193074
1.319465496
1.289419149
1.2558685
1.230665795
1.209439502
1.184343644
1.155374413
1.137544655
1.121665649
1.103056037
1.076954658
1.059328413
1.045392816
1.030002634
1.007847476
0.9905577659
0.9781172987
1.889083979
1.839233846
1.791973602
1.745408329
1.702050754
1.659649508
1.608377441
1.566747454
1.531216882
1.490540102
1.443310968
1.414142434
1.384285921
1.346166186
1.315975628
1.292662318
1.261865821
1.229823543
1.206844287
1.186717266
1.162852765
1.134083765
1.116240741
1.10062833
1.082456299
1.056986602
1.039795546
1.02643314
1.011787259
0.9902112548
0.9726728394
0.9602198878
1.861858474
1.809888565
1.759352768
1.710309912
1.666173202
1.624825988
1.574259174
1.534243985
1.500319519
1.460101416
1.41611465
1.387249878
1.356093514
1.31851157
1.289261383
1.266229352
1.236323433
1.205884322
1.184320755
1.164497257
1.140965097
1.112528919
1.094910628
1.079713346
1.062125405
1.037078103
1.019868286
1.006819324
0.9927226612
0.9719724834
0.9548032151
0.9428477468
1.829996988
1.777374988
1.725236411
1.675283465
1.631546374
1.590995457
1.54088601
1.502359506
1.469404606
1.429338523
1.388413091
1.35987564
1.327503854
1.291060288
1.263046177
1.240165775
1.210574809
1.181458139
1.161407263
1.142250658
1.119250023
1.090764114
1.073156972
1.058315239
1.04138719
1.017420796
1.00079202
0.9883337488
0.9750108751
0.9551440496
0.9379645355
0.9258816735
1.795192032
1.743141956
1.690063386
1.640033851
1.596963173
1.556829798
1.5073942
1.470099466
1.437970236
1.398655614
1.361252117
1.332414691
1.298378875
1.263034974
1.236611811
1.214310412
1.185762697
1.157718228
1.138579629
1.119790377
1.09703656
1.069032123
1.051985922
1.037853566
1.02198667
0.999171356
0.9823988253
0.9698974723
0.9567533377
0.9372868179
0.9205513768
0.9089459866
1.760633036
1.709195983
1.655459457
1.605572144
1.563251677
1.523504734
1.47534887
1.438982688
1.406865011
1.36829638
1.333276328
1.303928996
1.269055113
1.235981532
1.211275233
1.189132769
1.160461013
1.133142812
1.115552404
1.097858136
1.076258692
1.049124598
1.032069544
1.017888099
1.0022397
0.9798831689
0.9631977614
0.9509482391
0.9382370533
0.9197262447
0.9035291714
0.8921602189
1.724167216
1.673469843
1.619548686
1.570692508
1.529380784
1.490117965
1.443887101
1.408035068
1.375760776
1.338593907
1.306011435
1.27618918
1.240523011
1.209281073
1.185947001
1.1639237
1.135974847
1.110033875
1.093418883
1.07616142
1.054861348
1.028049645
1.011316308
0.99753215
0.982590697
0.9614427271
0.9449960695
0.9330539747
0.9207809824
0.9029598535
0.8871647301
0.8760243471
1.686678808
1.637400804
1.584317834
1.536433574
1.495608481
1.456536141
1.413016542
1.377681032
1.344790146
1.30885891
1.27760275
1.247215377
1.211715189
1.183361832
1.161682831
1.139756797
1.111766094
1.08648047
1.070917441
1.05422266
1.03379683
1.008231759
0.9918340516
0.9781887411
0.9635455504
0.9427699363
0.9262242674
0.9143867665
0.9023216346
0.8851354852
0.8697616555
0.8589493131
1.650176474
1.601842961
1.549134779
1.502183487
1.461697374
1.422623758
1.381795384
1.346380558
1.312815202
1.278882949
1.249892837
1.219571645
1.184209787
1.157957581
1.137457941
1.115393936
1.087707285
1.06374772
1.049139139
1.032811748
1.01278372
0.987634741
0.9714439825
0.9581083933
0.9439157053
0.9242264112
0.908367141
0.8971217798
0.8855888429
0.8691460967
0.8540419498
0.8432476644
1.612500069
1.565046415
1.513639643
1.467236637
1.426812139
1.388019639
1.350215478
1.314911399
1.2814287
1.250341204
1.222786476
1.191233572
1.1560774
1.133081732
1.11414563
1.091830656
1.063712905
1.040561088
1.026806307
1.010722623
0.9912593524
0.9674108221
0.9517030452
0.9387109031
0.924959199
0.9059905097
0.8901722104
0.8790785635
0.8678320445
0.8518489843
0.8369720934
0.8264727114
1.574471192
1.52817341
1.478659135
1.433296842
1.39348893
1.355393617
1.31943132
1.283222291
1.249849585
1.221513327
1.195436351
1.163364574
1.129550612
1.108765879
1.089961009
1.066395329
1.038766636
1.018081409
1.005569453
0.9900851901
0.9714035232
0.9482167893
0.9323782168
0.9194770104
0.9058829416
0.8875281093
0.8722609974
0.86162603
0.8507842385
0.835298222
0.8207553068
0.8105251101
1.535793751
1.491195798
1.444720954
1.399693507
1.359717272
1.322156927
1.287795902
1.251526725
1.2188504
1.193507503
1.169067297
1.136083969
1.102670567
1.084092131
1.066290437
1.042776248
1.016643317
0.9974813486
0.9850011982
0.9691028094
0.9502375624
0.927465047
0.9118397166
0.8992310896
0.886050396
0.868695591
0.8538417457
0.8436049513
0.8332996013
0.8184367493
0.804340577
0.7945849833
1.49775261
1.454542648
1.410264127
1.365564535
1.326120753
1.290482173
1.258036152
1.220383035
1.187878239
1.165697596
1.143079391
1.109356972
1.077292173
1.060510355
1.04288118
1.018478459
0.9934583318
0.9761443927
0.9639821661
0.9481006159
0.9299073368
0.9086727118
0.8934641424
0.8811382876
0.868280979
0.8515176095
0.8367996253
0.8265609651
0.8163880279
0.8017340808
0.7879293185
0.7785543167
1.459878058
1.417634241
1.376040105
1.331475756
1.292545841
1.259343744
1.22824059
1.1892447
1.158445312
1.139456878
1.11764448
1.081971146
1.051135288
1.036345691
1.01920806
0.9949539548
0.9722088225
0.9560639503
0.9434044904
0.9270757611
0.90906309
0.8887355221
0.8737424882
0.8617054361
0.8492265796
0.8330406458
0.8185793305
0.8086607715
0.7989015029
0.7847558937
0.7716333959
0.7629225608
1.422411452
1.380441092
1.3403486
1.296182558
1.259011141
1.229125847
1.199409616
1.158633061
1.129376637
1.112442757
1.090495688
1.053442413
1.02637845
1.013591723
0.9967111188
0.9724177686
0.9506176315
0.9349727307
0.9221571236
0.9059202266
0.8885960143
0.8701115082
0.8557148155
0.8438613622
0.8316382824
0.8158535967
0.8016137404
0.7918231528
0.7823188165
0.7686723821
0.7560767796
0.7476665636
1.383427817
1.342918727
1.305848792
1.26264011
1.226772757
1.199275382
1.169738197
1.127652728
1.101017674
1.08577327
1.063419969
1.026012852
1.002461026
0.9904726775
0.9730478246
0.9486532892
0.9283903033
0.9136668895
0.9005987813
0.8845966637
0.8681933763
0.8510248721
0.8366543421
0.8250415108
0.8133387989
0.7981918877
0.7844123486
0.7750355258
0.7659290793
0.7527945242
0.7407536195
0.7326658207
1.307363393
1.271687512
1.227973945
1.193988645
1.169163751
1.140218064
1.097778812
1.073182776
1.058436078
1.034719417
0.9982009491
0.979398771
0.9684788638
0.9509337541
0.927379708
0.9086160449
0.8942156805
0.8807005622
0.8648973656
0.8489480477
0.8324542574
0.8180299719
0.8065055447
0.7951670947
0.7806171983
0.7674238209
0.7585491586
0.7499179308
0.7374320025
0.7259601674
0.7180836279
1.272280833
1.238235017
1.194995445
1.162503962
1.139143909
1.11001778
1.067863207
1.045772025
1.031889872
1.00802662
0.9749317024
0.9581130214
0.9463266555
0.927716606
0.9043702071
0.8863412154
0.8722433146
0.8586777437
0.8435489805
0.8285855321
0.813054867
0.7988302614
0.7878150231
0.7772406204
0.7636782233
0.751199526
0.7427863899
0.7345651253
0.7225853386
0.7115563675
0.7038387134
1.238530899
1.20520224
1.161057032
1.130319579
1.108819032
1.080550901
1.040434288
1.020187099
1.006295397
0.981660461
0.9510079421
0.9359375752
0.9239636463
0.9049623085
0.8826971164
0.8661071593
0.8528402654
0.8391830544
0.8244587496
0.8101236054
0.7952719847
0.7810554289
0.7700912224
0.7598804008
0.7468752994
0.734742857
0.7266637305
0.7188075595
0.7073499597
0.6969145514
0.6895174769
1.204349307
1.172067223
1.12891593
1.100007093
1.079571079
1.051345849
1.012410751
0.9937320813
0.9800158921
0.9554682195
0.928164729
0.9136327502
0.9006911197
0.8809351041
0.8599165466
0.8447349047
0.8320481072
0.8184539838
0.8046356471
0.7913152871
0.7772198161
0.7631469491
0.752432006
0.7426221531
0.7301008676
0.7184565836
0.7108484418
0.7034469859
0.6925818932
0.6827402339
0.6756250955
1.171380927
1.139834884
1.096557168
1.069058955
1.049656273
1.021874709
0.9854258895
0.96858863
0.9553223227
0.9314234043
0.9062165964
0.8915973694
0.8779599227
0.8580965765
0.8385290697
0.8243795641
0.8121981935
0.7986368924
0.7854993769
0.7730231225
0.7596731927
0.7458314015
0.7352169783
0.7257147297
0.7136308864
0.7024370913
0.6952207154
0.6882444805
0.6780361978
0.6688347278
0.6620455162
1.137567981
1.106829368
1.065359318
1.039788543
1.021300121
0.9936020084
0.958705293
0.9424263926
0.9287936928
0.9048217255
0.881241396
0.8673210978
0.8538954849
0.8346874987
0.8169497647
0.8040507424
0.7924112726
0.7789169331
0.7666607076
0.755191117
0.7425752664
0.7289074974
0.7184697112
0.7092664213
0.6975553062
0.6869267833
0.6801606809
0.6736335498
0.664108889
0.6554276111
0.6488268659
1.105188324
1.075532013
1.034844245
1.010317842
0.9922525333
0.9643897495
0.9319238366
0.9174819511
0.9045082755
0.8814265644
0.8596266137
0.8460989842
0.8327582973
0.814088564
0.797332959
0.7847587353
0.7729806516
0.7591166658
0.7473803373
0.7367329875
0.7247575178
0.7114820971
0.7015471952
0.6928960558
0.6819043511
0.6719978538
0.6655664189
0.6593652703
0.6503035455
0.6419010687
0.6354614516
1.072285365
1.042924429
1.003908757
0.9811535402
0.9639359853
0.9367418584
0.9068232816
0.8922022609
0.8786500725
0.8558317407
0.8356631451
0.8230683061
0.810371128
0.7925321434
0.7768377512
0.7648001282
0.7530888218
0.739202642
0.7283449678
0.7186924281
0.7075485294
0.6948456149
0.6854911613
0.677372919
0.6669885393
0.6576381029
0.6514043633
0.6454206943
0.6366962288
0.6286239826
0.6224978063
1.040199483
1.012287911
0.9750778279
0.9535636055
0.9367439621
0.9099508801
0.8821996169
0.8679153385
0.8541264611
0.8318280332
0.8134139781
0.8015759878
0.7893036245
0.7719110079
0.7568027618
0.7451655528
0.7336465106
0.7199325473
0.7097525146
0.7009229411
0.6905529405
0.6784929781
0.6697232259
0.6621234054
0.6524009994
0.6435166896
0.6373127243
0.631326806
0.6225257847
0.6145587286
0.6087761836
1.008422176
0.9806635849
0.9446514576
0.9241649869
0.9077589418
0.8817828243
0.8559946846
0.8420934649
0.8285823457
0.8076331494
0.7911607871
0.7801676437
0.7683287207
0.7513164532
0.7369922138
0.7259687309
0.7148186247
0.7014687713
0.6919777164
0.6837926164
0.6740665729
0.6626653814
0.6544600868
0.6472870273
0.6379652777
0.6292781533
0.6230385994
0.6170594018
0.608293174
0.601041234
0.5960910235
0.9766142461
0.9504851493
0.9169829399
0.8979959094
0.8821951006
0.8568453831
0.8323884921
0.8184204592
0.8048711195
0.7849482571
0.7695996288
0.7588918349
0.7470187956
0.7301263328
0.7167791298
0.7066950567
0.6963598804
0.683716704
0.6747277562
0.6670153247
0.657820676
0.646964551
0.6391443386
0.6322972261
0.6233320726
0.6149420718
0.6088019641
0.6028815046
0.5942633788
0.5874360888
0.5828421032
0.9458655052
0.9201098082
0.8875998309
0.8690618544
0.8535584042
0.8289434509
0.8063074661
0.7934357335
0.7806887479
0.7620879536
0.7479353118
0.7377913576
0.7262483129
0.7099356576
0.6978258078
0.6886542526
0.6790015491
0.6668348049
0.6581808735
0.6507857434
0.6419578066
0.6316029665
0.6241886529
0.6176578084
0.60895951
)
;

boundaryField
{
    inlet
    {
        type            fixedValue;
        value           nonuniform 0();
    }
    outlet
    {
        type            zeroGradient;
    }
    bottom
    {
        type            slip;
    }
    top
    {
        type            slip;
    }
    obstacle
    {
        type            zeroGradient;
    }
    defaultFaces
    {
        type            empty;
    }
    procBoundary4to3
    {
        type            processor;
        value           nonuniform List<scalar> 
62
(
1
1
1
1
1
1
1
1
1
1
1
1
1
1
1
1
1
1
1
1
1
1
1
1.000000004
1.000000096
1.000001855
1.000039362
1.000726258
1.008844074
1.061566696
1.239866445
1.52960799
1.791816528
1.955968024
2.0007447
2.004876991
2.0283038
2.026723016
2.018957165
2.011967438
2.005094247
1.988702146
1.964691869
1.93931679
1.913015527
1.882914795
1.848738307
1.814338132
1.777878305
1.73950769
1.701746054
1.663477632
1.624733077
1.5851091
1.545544774
1.506797973
1.469321192
1.430598975
1.345620189
1.345620189
1.308224469
1.271714748
)
;
    }
    procBoundary4to5
    {
        type            processor;
        value           nonuniform List<scalar> 
69
(
3.051888173
3.065816615
3.087191501
3.123881793
3.066396679
3.011728034
2.954812421
2.573596562
2.042336398
1.710581795
1.596017016
1.550562445
1.532920464
1.518938001
1.499660446
1.477593187
1.458109029
1.437720994
1.417661492
1.397581308
1.375139393
1.35471273
1.334933233
1.315482591
1.296651065
1.277927173
1.259215266
1.24010439
1.22131875
1.201250388
1.181656819
1.162709272
1.144272811
1.126098056
1.107712034
1.089406986
1.070880742
1.052552679
1.034426557
1.01726291
1.000202091
0.9828450315
0.9658119491
0.9480927065
0.9313764501
0.9144501064
0.8979721556
0.8814693678
0.8655161815
0.8488220234
0.8332284207
0.8168223945
0.8012097365
0.7857731719
0.7701839586
0.7551507045
0.7402265601
0.7255129201
0.711141639
0.697041605
0.6829725615
0.669313835
0.6559758265
0.6429047001
0.6296799706
0.6169884359
0.6035755372
0.5915126417
0.5785533399
)
;
    }
    procBoundary4to9
    {
        type            processor;
        value           nonuniform List<scalar> 9(1.235198814 1.199797627 1.16442345 1.129947398 1.096237177 1.062315764 1.029713504 0.9960445465 0.9642572974);
    }
    procBoundary4to10
    {
        type            processor;
        value           nonuniform List<scalar> 
32
(
0.6007693825
0.5948459774
0.5892103905
0.5810797131
0.5752656455
0.5713207417
0.9156336467
0.8906741993
0.859982891
0.8426322649
0.8275875257
0.8036642469
0.7827993156
0.7706579774
0.7582904571
0.7403548573
0.7267427989
0.7168973299
0.705669234
0.6901370084
0.6791912013
0.6708405686
0.6617505048
0.6499345376
0.6415373901
0.6344531601
0.6260213382
0.6161330061
0.6090435961
0.6027872764
0.6007693825
0.5943285341
)
;
    }
}


// ************************************************************************* //
