/*--------------------------------*- C++ -*----------------------------------*\
  =========                 |
  \\      /  F ield         | OpenFOAM: The Open Source CFD Toolbox
   \\    /   O peration     | Website:  https://openfoam.org
    \\  /    A nd           | Version:  7
     \\/     M anipulation  |
\*---------------------------------------------------------------------------*/
FoamFile
{
    version     2.0;
    format      ascii;
    class       volScalarField;
    location    "0.9";
    object      rho;
}
// * * * * * * * * * * * * * * * * * * * * * * * * * * * * * * * * * * * * * //

dimensions      [1 -3 0 0 0 0 0];

internalField   nonuniform List<scalar> 
22
(
1.314522121
1.320472943
1.291635422
1.304909549
1.314879957
1.319225079
1.297762011
1.308629617
1.319821446
1.317822881
1.303762326
1.314151397
1.323824347
1.32022647
1.308366654
1.316309475
1.325670237
1.325212547
1.317524456
1.32272003
1.330430616
1.330529423
)
;

boundaryField
{
    inlet
    {
        type            calculated;
        value           nonuniform 0();
    }
    outlet
    {
        type            calculated;
        value           nonuniform List<scalar> 6(1.3191411 1.317726256 1.320302496 1.325237457 1.330536417 1.320594234);
    }
    bottom
    {
        type            calculated;
        value           nonuniform 0();
    }
    top
    {
        type            calculated;
        value           nonuniform 0();
    }
    obstacle
    {
        type            calculated;
        value           nonuniform 0();
    }
    defaultFaces
    {
        type            empty;
    }
    procBoundary23to17
    {
        type            processor;
        value           nonuniform List<scalar> 5(1.317174825 1.321631349 1.291635716 1.306541806 1.306541806);
    }
    procBoundary23to22
    {
        type            processor;
        value           nonuniform List<scalar> 5(1.327953609 1.33208683 1.334422408 1.340936077 1.351508052);
    }
    procBoundary23to29
    {
        type            processor;
        value           nonuniform List<scalar> 4(1.326198841 1.330658917 1.336363102 1.338482653);
    }
}


// ************************************************************************* //
