/*--------------------------------*- C++ -*----------------------------------*\
  =========                 |
  \\      /  F ield         | OpenFOAM: The Open Source CFD Toolbox
   \\    /   O peration     | Website:  https://openfoam.org
    \\  /    A nd           | Version:  7
     \\/     M anipulation  |
\*---------------------------------------------------------------------------*/
FoamFile
{
    version     2.0;
    format      ascii;
    class       volScalarField;
    location    "1.3";
    object      p;
}
// * * * * * * * * * * * * * * * * * * * * * * * * * * * * * * * * * * * * * //

dimensions      [1 -1 -2 0 0 0 0];

internalField   nonuniform List<scalar> 
22
(
1.000011598
1.00005586
1.000214773
1.000649171
1.002091335
1.005168782
1.011049907
1.020680598
1.035686446
1.056583575
1.081451137
1.047881458
1.073979975
1.10697251
1.141421533
1.181236287
1.2164705
1.275360109
1.442072953
1.489203133
1.527480919
1.574369189
)
;

boundaryField
{
    inlet
    {
        type            fixedValue;
        value           nonuniform 0();
    }
    outlet
    {
        type            zeroGradient;
    }
    bottom
    {
        type            slip;
    }
    top
    {
        type            slip;
    }
    obstacle
    {
        type            zeroGradient;
    }
    defaultFaces
    {
        type            empty;
    }
    procBoundary14to7
    {
        type            processor;
        value           uniform 1.000001429;
    }
    procBoundary14to8
    {
        type            processor;
        value           nonuniform List<scalar> 8(0.9999999952 1.000000016 1.000000389 1.000002599 1.001710243 1.001710243 1.00432898 1.006575712);
    }
    procBoundary14to9
    {
        type            processor;
        value           nonuniform List<scalar> 3(1.241014933 1.277113099 1.192575881);
    }
    procBoundary14to13
    {
        type            processor;
        value           nonuniform List<scalar> 2(1.000663018 1.025840409);
    }
    procBoundary14to20
    {
        type            processor;
        value           nonuniform List<scalar> 4(1.261732993 1.328156738 1.386803232 1.386803232);
    }
}


// ************************************************************************* //
