/*--------------------------------*- C++ -*----------------------------------*\
  =========                 |
  \\      /  F ield         | OpenFOAM: The Open Source CFD Toolbox
   \\    /   O peration     | Website:  https://openfoam.org
    \\  /    A nd           | Version:  7
     \\/     M anipulation  |
\*---------------------------------------------------------------------------*/
FoamFile
{
    version     2.0;
    format      ascii;
    class       volScalarField;
    location    "4";
    object      p;
}
// * * * * * * * * * * * * * * * * * * * * * * * * * * * * * * * * * * * * * //

dimensions      [1 -1 -2 0 0 0 0];

internalField   nonuniform List<scalar> 
555
(
1.002442134
1.004194876
0.984882356
0.9924526006
0.989489826
0.9890667325
0.9924925084
0.993217888
0.9920675253
0.9911110418
0.9909151169
0.9914881898
0.9931355554
0.9950083002
0.996869644
0.998927082
1.000130668
1.001302095
1.003529884
0.9868364095
0.9946687447
0.9918473148
0.9908616296
0.9938419555
0.9944159179
0.9932611799
0.9922797789
0.9917223007
0.9920416323
0.9931002022
0.9947021655
0.9972067374
0.999708626
1.000351589
1.000002383
1.002884417
0.9887905823
0.9969049603
0.9947733471
0.9938945331
0.9962302384
0.9962379647
0.9951335716
0.9944255921
0.9940893358
0.9944854508
0.9951519704
0.9961676742
0.9981037059
1.00008351
1.00008908
1.000326905
0.9997861134
0.9898547551
0.9973735669
0.9956840186
0.9951210202
0.9968292262
0.9965446506
0.9955029774
0.9951077917
0.995232805
0.9960585593
0.9970017404
0.997681152
0.9987529417
0.9998573025
0.9994539863
0.9983876743
0.9964130714
0.9900808674
0.9960835807
0.9944575848
0.9942568331
0.9958700142
0.9957973462
0.9949197595
0.9948030955
0.9952924195
0.9967591068
0.9981312927
0.9989691878
0.9996937547
0.999089758
0.9982775045
0.996436115
0.9939939162
0.9892612471
0.9892250545
0.9936275921
0.9914454607
0.9920177392
0.9938808449
0.9944872686
0.9942619137
0.9945535022
0.9956326903
0.9976855976
0.999309275
1.000151761
1.00001447
0.998524692
0.9970329927
0.9948793729
0.9923495334
0.9881016442
0.9876329525
0.9911830182
0.989202437
0.9899516994
0.9920128625
0.9937772627
0.9944560845
0.994996979
0.9965623858
0.9989086277
1.00057841
1.000820198
1.000005741
0.9988054704
0.9968114184
0.9948040555
0.9922936908
0.986978214
0.9874354341
0.990745163
0.9888540359
0.9899185057
0.9925002163
0.994907786
0.9957110727
0.9960897548
0.9974043834
0.9993617655
1.000687365
1.000678847
0.9999418243
0.9994253766
0.9984309159
0.998037422
0.9967004475
0.988266029
0.9903148348
0.9936729574
0.991648455
0.992391846
0.9943294936
0.995460808
0.9958296312
0.9963525061
0.9975251324
0.9989362177
0.9998747927
1.000065257
0.9995750414
0.9996018353
0.9999160697
1.001436377
1.001965846
0.9894787317
0.9924332442
0.9950123332
0.9928496575
0.9931977199
0.9945864214
0.994874213
0.9949001241
0.9955538472
0.9967589829
0.9979260746
0.9986820607
0.9992378375
0.9991678722
0.9995432289
1.000824766
1.003393019
0.9893249245
0.9925073216
0.9945806302
0.9926046428
0.9926850535
0.9939726072
0.9939806324
0.9940140611
0.994658587
0.9960758259
0.9972795046
0.998074465
0.9986723987
0.9990838629
0.9997484382
1.00139565
1.003887895
0.9885194093
0.9912204781
0.9933154148
0.9917002682
0.9920688436
0.9934637445
0.9937246315
0.9940025205
0.9946643943
0.9963094222
0.9975903259
0.9983865662
0.9989007467
0.9994777411
1.000316457
1.001937654
1.003335089
0.9901817506
0.9877158015
0.9899510633
0.991918913
0.9907165557
0.9915436194
0.9931004392
0.9939829477
0.9945202788
0.9952782878
0.9970584691
0.9982670986
0.9990732758
0.9996238963
1.000390769
1.001144119
1.002082585
1.003400395
0.9899631168
0.9874360982
0.9892798024
0.9906930811
0.9897343453
0.9911280921
0.9932171329
0.9946426499
0.9955169482
0.9965619781
0.998269488
0.9992741416
1.000272405
1.000895065
1.001621601
1.001699893
1.002025923
1.000292042
0.9895534855
0.9880801121
0.9897198893
0.9903912244
0.9894963591
0.9911989629
0.9941224829
0.9960167526
0.9969139842
0.9983441207
0.9998465276
1.00094304
1.001970491
1.002332461
1.001880831
1.000753365
0.9998292517
0.9982084128
0.9895894596
0.9892374665
0.9909353395
0.9911846689
0.9901591602
0.991681268
0.9949056291
0.9970767155
0.9980858837
0.9997319913
1.000873842
1.001721025
1.001939109
1.001572256
1.000556759
0.9993375873
0.9981141292
0.9960836341
0.9906534578
0.99003616
0.9917078338
0.9915791618
0.9905061391
0.9919677896
0.99516304
0.9971674634
0.9983157294
0.9995804931
1.000370007
1.000846538
1.000884419
1.000419035
0.9992985503
0.9984397856
0.996593201
0.9948236094
0.9916416212
0.9905500585
0.9917457696
0.9915988994
0.9906357885
0.9922415393
0.9949475075
0.9967538921
0.9977519641
0.9988353397
0.9995969266
0.9999045498
0.999570608
0.9990522162
0.9977606047
0.997388335
0.9980629504
0.997149857
0.9930609837
0.9915169577
0.9917201918
0.9917665939
0.9907544734
0.9925791253
0.9946666809
0.9960880448
0.9972292254
0.9980267944
0.9986077
0.9986841093
0.9981968768
0.9978427355
0.9983514685
0.9989245892
1.000090853
1.000291753
0.9940772344
0.9936866365
0.9927008088
0.9921303685
0.9909876365
0.9911676169
0.9928803828
0.9946294082
0.9959965445
0.9971524533
0.9985617286
0.9993733848
0.9993477097
0.9990308395
0.9989335902
0.9993829561
1.000579458
1.002564908
1.003710414
0.9943378795
0.9936809986
0.991992903
0.9908815283
0.9906827528
0.9913626164
0.9936158474
0.9950604306
0.9965541249
0.998171199
0.9998375222
1.000675618
1.000476696
1.000193668
1.000169616
1.001014009
1.00326234
1.005453935
1.006246561
0.9942090914
0.9930491524
0.9909881479
0.9906649707
0.9909508755
0.9922053159
0.9950209361
0.9965063601
0.9977123629
0.9995852363
1.001549747
1.002237301
1.001882068
1.002107704
1.002034188
1.003162978
1.005176066
1.005822609
1.0064316
0.993972981
0.9925952582
0.9904760331
0.9909701111
0.9918555408
0.9930437109
0.995987594
0.998178362
0.9998161761
1.001410841
1.002974879
1.003313279
1.003027229
1.001186352
1.000195908
1.000449411
1.001611054
1.001744492
0.9941838609
0.9920303924
0.9899229594
0.9912105867
0.9924761341
0.9928979523
0.9957721847
0.9982069653
1.000065053
1.001181376
1.001913573
1.001787328
1.000907104
0.9995735727
0.9983976952
0.9980722831
0.9982707008
0.9974850497
0.9942111356
0.9913419077
0.9892066287
0.9904659076
0.9918294471
0.9920007291
0.9951728557
0.9979519885
1.000198885
1.00099377
1.001110048
1.000804272
0.999952343
0.9986028674
0.9973904256
0.996758161
0.996101797
0.9949310953
0.9941244373
0.9940911551
0.9907234612
0.988423716
0.9895034307
0.9905644461
0.9912014815
0.9947769685
0.9978710161
1.000006944
1.000708324
1.000651558
1.000068657
0.9991000383
0.9977170747
0.9961998394
0.9945701191
0.9932092522
0.9926381204
0.9950283231
0.994434563
0.9904512054
0.9878318252
0.9888365438
0.9895939112
0.9901909144
0.9937715069
0.9971541749
0.9990922216
0.999734274
0.9996492564
0.998794448
0.9972794238
0.9958691915
0.994362437
0.9925701058
0.9925721133
0.9928491271
0.9959241104
0.9944079245
0.9896037763
0.9874048936
0.9884211167
0.9892016234
0.9898104849
0.992763707
0.9960098913
0.9980918754
0.9989270702
0.9991130992
0.9984209136
0.9966020618
0.9949047087
0.9939519697
0.994836144
0.9948854207
0.9947345774
0.9956380955
0.9928164722
0.9884872354
0.9874777189
0.9892607542
0.9901971422
0.990908427
0.994442464
0.9971493795
0.9991367524
1.000368732
1.000980115
1.000619877
0.99910252
0.9977849048
0.997524688
0.9985777789
0.9993320096
0.9995091443
0.9953204311
0.9927876789
0.9884671207
0.9882249802
0.9906145118
0.9916471544
0.9922834292
0.9957490793
0.9978990192
0.9998912734
1.001419402
1.002413232
1.002314191
1.001150391
0.9999857099
1.000078052
1.001586564
1.003007034
1.003283552
0.9957141192
0.9926745288
0.9889954746
0.9898767132
0.9924201467
0.9935888342
0.9941376146
0.9974121793
0.999187558
1.001320971
1.00296541
1.003905473
1.003972762
)
;

boundaryField
{
    inlet
    {
        type            fixedValue;
        value           nonuniform 0();
    }
    outlet
    {
        type            zeroGradient;
    }
    bottom
    {
        type            slip;
    }
    top
    {
        type            slip;
    }
    obstacle
    {
        type            zeroGradient;
    }
    defaultFaces
    {
        type            empty;
    }
    procBoundary16to10
    {
        type            processor;
        value           nonuniform List<scalar> 
18
(
1.002720667
1.002744099
0.9846439971
0.9930168489
0.9901856941
0.989876642
0.9931780734
0.9939081195
0.9928913939
0.9919586885
0.9917989277
0.9923151139
0.9940396609
0.9960094948
0.9978330011
0.9991911621
1.00019617
1.00019617
)
;
    }
    procBoundary16to11
    {
        type            processor;
        value           uniform 1.004409224;
    }
    procBoundary16to15
    {
        type            processor;
        value           nonuniform List<scalar> 
35
(
0.987491763
0.9866819769
0.9874410019
0.9885324004
0.9892434514
0.9892434514
0.9956387325
0.9940887982
0.9913223345
0.9895590537
0.9897131434
0.9901602111
0.9903597599
0.9903597599
0.994495817
0.994549631
0.9925516243
0.9900870091
0.990076189
0.9915049063
0.9934790198
0.9934790198
0.9916630047
0.9916879664
0.9912800191
0.9919720049
0.9931807132
0.9938984384
0.9938984384
0.9884600432
0.9895312064
0.9905227489
0.9901868012
0.9929001097
0.9944198448
)
;
    }
    procBoundary16to17
    {
        type            processor;
        value           nonuniform List<scalar> 
32
(
1.004694623
1.004174314
1.000011515
0.9956223741
0.9930972106
0.9912882489
0.9902406921
0.9945071623
1.001760578
1.004635342
1.004635342
1.005436365
1.005021119
1.00402847
0.9991609385
0.9961573462
0.9936142647
0.9926046417
0.9953047943
0.9996456304
1.003885423
1.006249253
1.006641217
1.002060757
1.002060757
0.9968870272
0.9939390402
0.9921140095
0.9926011932
0.9940936141
0.9979228551
1.001915842
)
;
    }
    procBoundary16to22
    {
        type            processor;
        value           nonuniform List<scalar> 
20
(
1.003134251
1.002151899
1.002452948
1.00365591
1.004617178
1.004227703
0.9958165114
0.9934670845
0.9901143963
0.9903767433
0.9924756256
0.9936739226
0.9945688633
0.9973928357
1.000205618
1.002261271
1.003648635
1.004291435
1.003134251
1.004325363
)
;
    }
}


// ************************************************************************* //
