/*--------------------------------*- C++ -*----------------------------------*\
  =========                 |
  \\      /  F ield         | OpenFOAM: The Open Source CFD Toolbox
   \\    /   O peration     | Website:  https://openfoam.org
    \\  /    A nd           | Version:  7
     \\/     M anipulation  |
\*---------------------------------------------------------------------------*/
FoamFile
{
    version     2.0;
    format      ascii;
    class       volScalarField;
    location    "5";
    object      T;
}
// * * * * * * * * * * * * * * * * * * * * * * * * * * * * * * * * * * * * * //

dimensions      [0 0 0 1 0 0 0];

internalField   nonuniform List<scalar> 
2222
(
1.137634341
1.137677125
1.137842245
1.137887048
1.137571183
1.136934282
1.136710034
1.136991223
1.137521328
1.137857654
1.138001844
1.138076133
1.138243641
1.139033097
1.140333528
1.140894709
1.140632957
1.140272333
1.139844138
1.139709522
1.139831879
1.139829565
1.139644887
1.139184161
1.138516705
1.138010664
1.137877879
1.137926049
1.138331748
1.139350101
1.14204465
1.134532875
1.135049464
1.135004163
1.134946303
1.135133533
1.135341204
1.135178918
1.134657633
1.134055099
1.133978657
1.134478871
1.135371359
1.136066106
1.136485257
1.136965805
1.137519357
1.138006195
1.13809244
1.137874888
1.137562835
1.137359865
1.137423514
1.137553099
1.138103696
1.138369308
1.13820369
1.137753947
1.137055419
1.136519483
1.136517544
1.136682105
1.137387461
1.138998538
1.142072781
1.132098431
1.132728657
1.132667142
1.132630271
1.132826922
1.132804872
1.13247527
1.131899133
1.131555047
1.131669823
1.132514503
1.133846344
1.135127279
1.1358675
1.136272243
1.136227682
1.135745275
1.135036947
1.134469426
1.134272923
1.134569772
1.135281594
1.136148139
1.137185846
1.137613581
1.137477165
1.136857617
1.136092032
1.135687629
1.13575052
1.136065539
1.137182512
1.138954884
1.140443268
1.129924766
1.130528098
1.130564852
1.130643313
1.130691483
1.130392691
1.129934735
1.12951805
1.129496915
1.130087733
1.131453066
1.1332179
1.134412664
1.134607173
1.134437395
1.133978863
1.133353885
1.132734366
1.132137464
1.131939055
1.132467054
1.133756444
1.135530152
1.136901736
1.137104241
1.136799509
1.136051656
1.135303376
1.135031429
1.13504774
1.1352905
1.136186723
1.137202572
1.137730074
1.128175713
1.128680212
1.128800447
1.128895653
1.128696272
1.128096398
1.127771914
1.127687584
1.128093041
1.129476901
1.131171481
1.132089003
1.13216398
1.131890631
1.1316369
1.131388404
1.130880559
1.130341843
1.130096455
1.13042466
1.131600154
1.133735217
1.135417218
1.135862045
1.135613136
1.135012607
1.134346292
1.133775553
1.133511584
1.133474198
1.133671465
1.134192512
1.134708035
1.135172295
1.126708047
1.127166332
1.127280499
1.127129807
1.126553026
1.125986984
1.125891227
1.126119918
1.127356529
1.129316568
1.130033312
1.129758866
1.129274391
1.128880358
1.128576879
1.128482708
1.128340124
1.128190245
1.128411977
1.12946624
1.131544383
1.133210338
1.133505585
1.133365325
1.13313527
1.132589934
1.132172847
1.131833245
1.131539763
1.131510574
1.131727181
1.132094603
1.132365517
1.13265939
1.125294343
1.12562088
1.125565376
1.125031329
1.124294118
1.124053801
1.124225653
1.125193994
1.127222138
1.128335691
1.128092986
1.127265748
1.126428081
1.125986808
1.125851346
1.125900361
1.126187292
1.12672823
1.127807601
1.12941829
1.130625296
1.130859787
1.130763215
1.130560113
1.13036621
1.129947628
1.129777281
1.129702394
1.12965582
1.129761865
1.129982619
1.130211979
1.130325688
1.13050298
1.123722354
1.123490279
1.122816988
1.122201634
1.12218854
1.122951127
1.124952312
1.126644516
1.126621739
1.12595259
1.124843375
1.12398729
1.123640465
1.123663473
1.124050108
1.124840837
1.126315043
1.127823801
1.128345946
1.128164487
1.128042427
1.12790475
1.12761341
1.12717629
1.127236328
1.127369773
1.127672478
1.128075083
1.128463078
1.128713568
1.128699842
1.128675878
1.128926235
1.121846548
1.121325366
1.120755096
1.120471539
1.120866945
1.122534773
1.124665135
1.125158352
1.124702096
1.123702425
1.122685122
1.122056589
1.1219473
1.122277721
1.123237953
1.124351097
1.125452527
1.126074137
1.12612667
1.125724715
1.125141042
1.124757599
1.124526106
1.124728015
1.125077347
1.125627691
1.126423349
1.127295881
1.127813431
1.12775549
1.127362011
1.127171558
1.127462865
1.120153804
1.119434047
1.118936315
1.119102147
1.120332533
1.122381367
1.123342223
1.123292248
1.122630711
1.121720923
1.121065906
1.120806169
1.121096029
1.121883482
1.12248682
1.122850613
1.123198462
1.123574989
1.123661173
1.123508904
1.123221089
1.122746593
1.122571179
1.122941248
1.123801843
1.125075156
1.1264278
1.127083475
1.126948289
1.126293934
1.125738109
1.125545147
1.125804904
1.118596285
1.118084784
1.1176866
1.118316288
1.120075725
1.121060161
1.121478022
1.121287508
1.120703002
1.120204339
1.120106444
1.120571928
1.121144615
1.121159264
1.120762923
1.120625679
1.120824875
1.121070607
1.121186747
1.121106857
1.120754258
1.120788274
1.121137002
1.122089525
1.12383019
1.125382173
1.125858957
1.125571782
1.124914647
1.124087208
1.123598605
1.123572497
1.123912178
1.117136281
1.117092015
1.117302863
1.117938423
1.118548293
1.119062887
1.119499215
1.11932679
1.119205555
1.119357653
1.120093626
1.120626236
1.120122356
1.119244862
1.118754212
1.11860284
1.118506145
1.118468806
1.118505636
1.118634781
1.118881311
1.119451235
1.120686663
1.12258058
1.124078962
1.124337666
1.123753256
1.12316182
1.122521081
1.121753433
1.121319726
1.12133547
1.121871303
1.115900195
1.11637353
1.116578849
1.116591545
1.11663565
1.117107141
1.117536782
1.117744952
1.118287282
1.11934636
1.120032709
1.119466543
1.118360826
1.117240697
1.116597047
1.116410947
1.116470796
1.116539881
1.116656676
1.116925955
1.117722391
1.119383136
1.121525876
1.122604944
1.122619679
1.122235643
1.121686246
1.120648766
1.119840387
1.119324082
1.119211335
1.119354443
1.12018514
1.114939523
1.115248841
1.115034096
1.114861033
1.114986606
1.115410634
1.115925682
1.116691432
1.118097871
1.119294963
1.118676157
1.11748187
1.116467166
1.115613855
1.115053647
1.114959795
1.115040015
1.115145104
1.115427884
1.116216846
1.117970432
1.120006947
1.120905251
1.12091945
1.120662975
1.120281463
1.119851449
1.119147991
1.118203774
1.117721215
1.11770707
1.118066717
1.119298479
1.113222517
1.113314335
1.113132611
1.113022624
1.113104867
1.113638005
1.114721593
1.116321047
1.118141201
1.118210471
1.116938576
1.115332168
1.114359159
1.113748013
1.113561594
1.113796853
1.114124301
1.114405678
1.11513203
1.1166553
1.118096485
1.1186888
1.118872054
1.118872498
1.118610755
1.118305235
1.117878867
1.117428915
1.116994549
1.116806145
1.116951436
1.117690502
1.119203949
1.11089978
1.111091298
1.111054618
1.111005157
1.111243819
1.112194119
1.114143517
1.116540695
1.117105377
1.116335969
1.115145747
1.113780768
1.112728691
1.112328549
1.112494738
1.113092063
1.113859311
1.1146211
1.115607321
1.116404516
1.116605561
1.116634917
1.116733358
1.11666539
1.116422709
1.116105461
1.116130296
1.116148969
1.116276195
1.116733887
1.117338053
1.118057817
1.118444559
1.10856978
1.108760034
1.108927853
1.109118715
1.109761379
1.11153217
1.114447617
1.115585959
1.115196103
1.114330686
1.113169419
1.112285824
1.111625112
1.111593584
1.112361461
1.113319511
1.114063004
1.11460761
1.11476896
1.114718244
1.114712302
1.114768292
1.114597904
1.11418061
1.114083572
1.114440757
1.114759064
1.115337513
1.116307315
1.117054111
1.117289173
1.117253529
1.116789664
1.106479183
1.106670729
1.10703968
1.107657706
1.108974029
1.1118311
1.113585336
1.113454946
1.113096852
1.11215249
1.111544139
1.111201633
1.111261264
1.111805673
1.112284113
1.112543432
1.112870632
1.11310206
1.113107754
1.113019707
1.112925437
1.112525299
1.111953565
1.111949297
1.112431943
1.113052965
1.113924111
1.115349695
1.116232629
1.116379325
1.1161639
1.115764415
1.115118037
1.104773159
1.105192419
1.105884192
1.107089932
1.109092022
1.111356467
1.111544893
1.111261773
1.110738155
1.110352986
1.110158372
1.110509658
1.111300104
1.111558188
1.111148003
1.110944766
1.11104529
1.111265837
1.111337622
1.111216543
1.110765428
1.110532084
1.110485178
1.110654606
1.111230725
1.112239624
1.113707878
1.114676581
1.114835612
1.114784244
1.114538932
1.11418162
1.113492454
1.103410798
1.104231936
1.105579438
1.107194132
1.108503975
1.109301166
1.109367178
1.109149313
1.108868459
1.108814266
1.109271843
1.110322991
1.110858371
1.110553195
1.109670979
1.109281998
1.109047011
1.109134685
1.109107621
1.108991745
1.109042874
1.109181411
1.109348786
1.109761667
1.110677543
1.112023479
1.112658699
1.112733651
1.112787546
1.112793779
1.112607713
1.112305831
1.111709139
1.102752099
1.103848964
1.105101987
1.106124577
1.106938714
1.107111904
1.107031682
1.107092489
1.107252901
1.10772084
1.108887938
1.10957021
1.109423128
1.109042621
1.108195526
1.107517861
1.107419025
1.107204238
1.107174442
1.107187234
1.107377086
1.10787752
1.108607792
1.109553173
1.110628166
1.110948507
1.110720693
1.110508814
1.1104465
1.110453781
1.110466299
1.110385064
1.110016614
1.10194161
1.102567705
1.103330442
1.104279599
1.105132174
1.105345177
1.105188028
1.105370986
1.105990005
1.107232904
1.108058889
1.107960568
1.107587539
1.107064846
1.106503547
1.106169801
1.105823487
1.105685804
1.105739715
1.105907593
1.106341537
1.107278041
1.108616084
1.109550823
1.10971046
1.10918386
1.108773137
1.108687532
1.108612502
1.108615292
1.108624403
1.108743713
1.108776661
1.100352637
1.100754343
1.10147098
1.102613637
1.103247007
1.103443505
1.103576918
1.104170215
1.105554738
1.106528237
1.106381373
1.105933563
1.105598562
1.105171805
1.104833408
1.104824437
1.104684243
1.104543836
1.104777376
1.105327158
1.106217868
1.107400005
1.10835304
1.108422574
1.1079398
1.107340744
1.107040869
1.107018765
1.107137539
1.107360538
1.107415503
1.107700191
1.10833669
1.098962476
1.099997674
1.101166848
1.101610397
1.10196627
1.102517666
1.10389008
1.105018387
1.104843864
1.104274929
1.103808217
1.103513183
1.103381817
1.103562273
1.10392513
1.104330523
1.10436341
1.104514529
1.10497567
1.105637819
1.106259718
1.106628146
1.10652799
1.106045525
1.105729361
1.105618499
1.105720909
1.106174763
1.106776679
1.107101721
1.107440928
1.108319064
1.09737753
1.098396632
1.099605725
1.100371863
1.101124778
1.102535105
1.103488495
1.103326906
1.102827572
1.102239503
1.101883248
1.101953267
1.102299581
1.103050806
1.103935582
1.10406226
1.103684094
1.103542038
1.103719508
1.104060317
1.104417867
1.104722886
1.104767981
1.104603553
1.10464764
1.104809459
1.10501539
1.105425678
1.106001872
1.106530358
1.107011434
1.107610835
1.095956837
1.097204226
1.098515908
1.099840677
1.101355201
1.102130001
1.101777537
1.101386556
1.100945259
1.100421729
1.100551907
1.101176682
1.102270437
1.103274413
1.103438222
1.10287155
1.102307066
1.102170674
1.10225614
1.102610301
1.102985119
1.103381537
1.103565218
1.103755358
1.103964341
1.10385873
1.103903313
1.104184246
1.104744589
1.105429145
1.106193347
1.106714578
1.095024584
1.096752727
1.098446414
1.100082201
1.100799037
1.100411115
1.099973176
1.099623003
1.099131558
1.099174517
1.099868917
1.101379425
1.102414135
1.102554894
1.102057377
1.101375095
1.100896699
1.100844288
1.100969907
1.10147461
1.102121501
1.102604096
1.102943493
1.103103763
1.102881186
1.102637565
1.102707479
1.10300522
1.103569824
1.104341737
1.105539057
1.106174312
1.094787378
1.097051409
1.098606136
1.099272648
1.099234287
1.098781279
1.098262483
1.097976845
1.098046501
1.098505567
1.099967779
1.101360514
1.101617992
1.101431268
1.100771706
1.099996718
1.099586918
1.099560987
1.099954299
1.100851398
1.101873088
1.102352114
1.102433195
1.102217402
1.101803363
1.101488436
1.101579434
1.10189978
1.102517638
1.103708752
1.105252022
1.105980434
1.095408107
1.097369348
1.097856448
1.097997794
1.09780591
1.097130724
1.096748549
1.096982786
1.097398567
1.098535519
1.099818761
1.10065061
1.100817999
1.100515872
1.099612719
1.098826851
1.098648881
1.09885562
1.099526007
1.100830812
1.101776282
1.101951332
1.101834085
1.101523985
1.100844845
1.100471948
1.100597811
1.101060714
1.102064077
1.103578518
1.1051279
1.105671137
1.095431229
1.096760791
1.097019172
1.09697621
1.096410712
1.095916843
1.096138284
1.096505527
1.097587565
1.098645555
1.099212231
1.099828851
1.100076171
1.099528702
1.098766974
1.098387513
1.098304015
1.098726663
1.09969106
1.100689037
1.101454779
1.101561915
1.101424951
1.100884513
1.100055864
1.099864634
1.100109024
1.100741472
1.101957824
1.103721148
1.104916719
1.105301875
1.0950598
1.096087283
1.096233426
1.09602946
1.095733292
1.095690333
1.096062473
1.097085118
1.09798865
1.098438974
1.098698245
1.098988264
1.099149157
1.098907249
1.098641522
1.098548585
1.098606554
1.099012167
1.099590702
1.100332292
1.100963657
1.101031169
1.100778491
1.100207567
1.0997464
1.099696867
1.099948039
1.100739296
1.102232764
1.103652814
1.104761866
1.105050768
1.0948459
1.09542142
1.095613968
1.095768299
1.096023788
1.096190019
1.096812693
1.097686367
1.098410698
1.098570554
1.098346514
1.098260264
1.098589439
1.098953106
1.099193104
1.099332162
1.099287636
1.09929847
1.099610354
1.100111167
1.100437999
1.100425244
1.100222232
1.099992154
1.099663171
1.099733504
1.100360389
1.10145753
1.102326929
1.103371136
1.10425463
1.104451505
1.094880572
1.095337656
1.09579869
1.096209749
1.096577822
1.096807686
1.0975792
1.098286919
1.098659114
1.098580577
1.098054592
1.098002604
1.098588033
1.099209897
1.099618845
1.099769224
1.099734589
1.09974205
1.099807194
1.099878936
1.09992576
1.100190205
1.100298504
1.100099861
1.100124962
1.100635488
1.101222544
1.101707984
1.102449657
1.103267556
1.103837712
1.103818453
1.095587875
1.096236869
1.096845568
1.097419042
1.097837032
1.09776286
1.098224064
1.098698247
1.098748819
1.098332709
1.097981718
1.098127841
1.098856262
1.099622369
1.09991554
1.099956922
1.099911621
1.099811644
1.099595136
1.099502807
1.099957674
1.100418965
1.100625966
1.100878779
1.101221546
1.101245136
1.101197659
1.101461703
1.101952602
1.102546014
1.102850777
1.102747567
1.097117856
1.098003399
1.098407232
1.098774333
1.098698626
1.09845924
1.098599189
1.098690602
1.098418222
1.098066856
1.098144258
1.098675149
1.099316887
1.099916004
1.100040799
1.099913868
1.09961027
1.099447095
1.099462214
1.099928055
1.100527605
1.101099931
1.101545219
1.101831535
1.1017613
1.10131433
1.100949246
1.100731501
1.100830171
1.101231947
1.101535077
1.101984165
1.098950238
1.099772382
1.099853624
1.099687729
1.098958489
1.098582922
1.098339109
1.098112612
1.097961094
1.098143601
1.09862772
1.099182482
1.099601668
1.099885212
1.099726739
1.099158155
1.098804464
1.098924353
1.099465043
1.100201199
1.101056948
1.101918145
1.102315243
1.102164007
1.101742308
1.101105802
1.10005679
1.09938653
1.099553767
1.100160856
1.100861497
1.101795899
1.100290909
1.100997511
1.100716536
1.099937299
1.098645304
1.097776736
1.097556583
1.097807468
1.098226966
1.09834508
1.098789979
1.099324867
1.099432771
1.099267723
1.098708323
1.098289954
1.098425244
1.098816302
1.099364756
1.100382854
1.101508888
1.102181545
1.102299922
1.102070514
1.10137717
1.10006206
1.098970571
1.09869221
1.099014784
1.099647196
1.100471634
1.101450714
1.101005754
1.101154722
1.10047656
1.098989999
1.097484546
1.097575967
1.097680865
1.098016614
1.098282306
1.098310927
1.098527075
1.098813672
1.098481684
1.097923358
1.097844433
1.097899909
1.098122662
1.098644608
1.099512073
1.100530118
1.10122815
1.101673035
1.101699543
1.101403139
1.100673331
1.09975668
1.098913312
1.098554045
1.098616565
1.099079168
1.099946965
1.101204932
1.100303012
1.10025851
1.099463587
1.098197291
1.097084295
1.097213842
1.097658937
1.09825627
1.098398872
1.097970946
1.09738693
1.097191912
1.096918422
1.096835762
1.097249535
1.097745967
1.098136292
1.098705579
1.099356946
1.099801357
1.100018736
1.100158123
1.100102085
1.099886441
1.09956999
1.0990095
1.098525655
1.098408104
1.098498725
1.098848369
1.099538157
1.100803543
1.095412212
1.095323453
1.094938712
1.094139319
1.093765106
1.094090814
1.094727803
1.095089965
1.094904615
1.094124446
1.092951037
1.092458778
1.092625576
1.093346937
1.094328456
1.095127161
1.095617828
1.095802826
1.095825606
1.095782421
1.095698338
1.095691756
1.095839563
1.096026411
1.096032648
1.09596823
1.095934142
1.095926876
1.095969212
1.096178418
1.096433605
1.097051023
1.086835132
1.086738072
1.086335372
1.085978296
1.086354061
1.086919232
1.087551212
1.087801179
1.087626371
1.087040164
1.086074199
1.085867901
1.086281933
1.08726285
1.08831518
1.088906348
1.089156336
1.089124313
1.089020496
1.088861939
1.088675276
1.088731684
1.088964044
1.089407979
1.089706783
1.089859598
1.089938807
1.089894639
1.089887607
1.090007478
1.090116132
1.090447408
1.076545435
1.076774908
1.077218225
1.077987805
1.078798481
1.079550098
1.079998968
1.080109762
1.079966659
1.07958155
1.079462655
1.079774854
1.080614496
1.081662314
1.082407974
1.082640245
1.082617926
1.08254637
1.082474746
1.082332369
1.082172374
1.082199514
1.082300988
1.082594779
1.082978455
1.083330131
1.083574962
1.08369326
1.083785326
1.083869645
1.083899707
1.084015855
1.068161581
1.069122384
1.071077236
1.071836649
1.071957103
1.07198406
1.072004199
1.07226418
1.072596381
1.073108755
1.074025251
1.07515924
1.076363317
1.077219986
1.077324527
1.077213035
1.076950787
1.077045804
1.077066658
1.07708878
1.077090708
1.076964222
1.076838608
1.076833834
1.077062842
1.077440499
1.077788448
1.078060794
1.078234472
1.078363967
1.078334675
1.078333752
1.063011141
1.066143343
1.067830761
1.067667083
1.067356572
1.066227725
1.065745197
1.066225279
1.067389742
1.068883818
1.070322263
1.071585729
1.072540139
1.073053077
1.073072418
1.072826031
1.072638624
1.072775207
1.072805075
1.073069462
1.073025086
1.072712983
1.072366441
1.072070583
1.072063201
1.072399356
1.072883954
1.073358908
1.07376843
1.073742077
1.073703546
1.073764614
1.064047178
1.066037828
1.064853508
1.063283613
1.062976598
1.062549298
1.062808253
1.063735098
1.065060084
1.066333938
1.067324654
1.067969091
1.068340425
1.068615942
1.068631961
1.068649853
1.06899566
1.06928024
1.069530471
1.069663577
1.069474941
1.069080805
1.068753165
1.068605589
1.068654305
1.069037103
1.069533412
1.069868281
1.069951299
1.069876734
1.06978555
1.069971366
1.063626176
1.063621501
1.060003144
1.059527949
1.060072641
1.061610661
1.063247685
1.064141282
1.064355875
1.064049644
1.064081995
1.063943078
1.063982481
1.064358434
1.064748729
1.065328006
1.066038235
1.066354241
1.066624497
1.06652956
1.066250516
1.066051654
1.066116149
1.066453228
1.066932509
1.067378439
1.067634011
1.067617149
1.06737907
1.067166954
1.067134556
1.067369614
1.060290222
1.053818798
1.055240483
1.057089118
1.0593438
1.061836452
1.06354954
1.063382401
1.062817466
1.061472647
1.060701773
1.060353622
1.06062272
1.061338741
1.062499856
1.063238782
1.063636362
1.06377957
1.063707443
1.063509334
1.063504628
1.063718221
1.064285218
1.065142507
1.065820642
1.066169044
1.066207375
1.066164232
1.065887708
1.065636794
1.065707913
1.065967319
1.01241306
1.031197897
1.055415245
1.05802378
1.058730174
1.061694447
1.062563935
1.061665392
1.059657083
1.058610235
1.058359417
1.058783629
1.059966114
1.061056626
1.061418726
1.06153188
1.061497248
1.061336106
1.061148211
1.061141641
1.061464041
1.062257167
1.063391395
1.064508631
1.06498679
1.065030405
1.064969963
1.064815782
1.064492147
1.064391904
1.064435143
1.064647923
0.8726352761
0.9749549609
1.042764984
1.049970288
1.052179067
1.058208673
1.057867457
1.056061331
1.056015463
1.056620763
1.057828493
1.059268086
1.060711484
1.060815239
1.06038786
1.059763414
1.059583691
1.059551889
1.059789425
1.060299758
1.060805885
1.06142291
1.062396974
1.063317636
1.063358649
1.063291815
1.063181511
1.063041553
1.062864854
1.062865007
1.062871625
1.063064277
0.7735212559
0.8272110928
0.9155719089
0.9877424781
1.018339815
1.046551286
1.046581845
1.050677064
1.054982649
1.055957159
1.056828772
1.058035741
1.059190928
1.059619855
1.058756752
1.058042142
1.058456054
1.059301268
1.060166033
1.060647064
1.060763137
1.060420405
1.060496586
1.060868475
1.060998318
1.061009142
1.060960137
1.060900772
1.060887765
1.060856207
1.060761502
1.061027935
0.7702657715
0.7717656382
0.7868875556
0.8593560171
0.9457555464
1.016844101
1.032184249
1.05223003
1.057001121
1.054646398
1.054523623
1.056133392
1.056473234
1.056232317
1.05631419
1.057024633
1.058077728
1.058928804
1.05959904
1.059875118
1.059448511
1.058498044
1.058282312
1.058543754
1.059052531
1.059429224
1.059336903
1.059062008
1.058841486
1.05864326
1.058411954
1.059275837
0.7751174094
0.7732271696
0.7734796516
0.7777894668
0.8088821376
0.8826632458
0.9727460777
1.041526371
1.050745749
1.046668256
1.048815639
1.049654062
1.050463991
1.052744223
1.054995758
1.05669775
1.057248159
1.057499295
1.057736489
1.057675916
1.057182603
1.05648322
1.0567883
1.057414521
1.058026919
1.058141503
1.057979868
1.057488923
1.057145164
1.05696553
1.056768986
1.058957829
0.7804724664
0.779312196
0.7775508672
0.7776531829
0.7782368461
0.7857752454
0.8384610063
0.9255629897
0.9946425104
1.018356798
1.040237456
1.042354686
1.04698762
1.051603302
1.055221173
1.055215236
1.054880684
1.053759682
1.053290849
1.0534569
1.054067647
1.054848229
1.055707342
1.056364372
1.056457148
1.056412457
1.056211562
1.055926593
1.055940177
1.056199324
1.056398343
1.062244739
0.7851511953
0.7842173256
0.7830997601
0.7823111914
0.7814011324
0.7804464771
0.7823650113
0.8003990407
0.8716409575
0.9607812384
1.024116249
1.035921526
1.049627768
1.055154911
1.054128198
1.052681065
1.051498456
1.049934293
1.049916622
1.050772647
1.052117855
1.053476893
1.054170184
1.054266191
1.054183319
1.054295363
1.054476737
1.054760406
1.055189219
1.055680011
1.056328577
1.072064253
0.7898951464
0.7886696422
0.787794769
0.7872083124
0.7863453888
0.7849573905
0.7832934292
0.7836339945
0.7889438055
0.8260265863
0.9003621766
0.9771951419
1.0395519
1.050558418
1.044773417
1.048009011
1.048570453
1.048693387
1.049834831
1.05107018
1.051806152
1.052077388
1.052028347
1.051430142
1.051388964
1.051927034
1.052974106
1.054122683
1.054828818
1.055424743
1.056445779
1.094534651
0.7949463759
0.7936361367
0.7924209214
0.7918052991
0.7910420383
0.7900883837
0.788622384
0.7873287891
0.7868541783
0.7874877303
0.7977564223
0.8535815904
0.9381284418
1.000081448
1.021796817
1.04471332
1.047859382
1.051454374
1.053440657
1.052791346
1.051085522
1.049943269
1.049481414
1.049359724
1.049672
1.05077981
1.052441704
1.053539564
1.053968896
1.054592427
1.057404941
1.137624605
0.7996157535
0.7982740963
0.7970676094
0.7962470175
0.7954087057
0.7943437644
0.7932857476
0.7919491117
0.790851115
0.7886911145
0.7885612175
0.7917338821
0.8144452258
0.8901212708
0.977177892
1.031681408
1.041991606
1.050088677
1.053700976
1.051881804
1.047959199
1.047461579
1.047837166
1.048824773
1.050352481
1.05200252
1.052955219
1.05258021
1.052515056
1.054009421
1.068595792
1.196392122
0.8050218861
0.8034919267
0.8023004485
0.8015202343
0.8005445191
0.7995862366
0.7982944083
0.7972851429
0.7958363069
0.7941334981
0.7914267996
0.791401129
0.79220085
0.8012646598
0.8468360579
0.9201710514
0.9818748538
1.035510339
1.047459956
1.041466117
1.04442897
1.046480132
1.048413941
1.050459453
1.052005107
1.053038848
1.052486908
1.050891461
1.051033376
1.059423359
1.114116075
1.248251259
0.8099446477
0.8082943248
0.806794093
0.8059756598
0.8050737338
0.8041246745
0.8030712199
0.8021841551
0.8010597556
0.7997527825
0.7975236315
0.7963417935
0.7955814695
0.7950025546
0.7964468967
0.8120000295
0.8767931052
0.9546824373
1.008968225
1.024880549
1.04714346
1.047238474
1.04886403
1.050860861
1.052092282
1.052252123
1.050612123
1.049344007
1.053093693
1.088801443
1.192459133
1.280725958
0.8150719758
0.813558859
0.8121518404
0.8110314008
0.8098297605
0.8083956633
0.8068908402
0.8059125367
0.8048886971
0.8036679353
0.8021070574
0.8009503719
0.8001542533
0.7990294884
0.7968226101
0.7969879246
0.8029049885
0.8336412738
0.9083401385
0.9921579578
1.038240647
1.041043291
1.045784749
1.04857338
1.049068049
1.048802267
1.047765523
1.049862501
1.070003584
1.153618816
1.256182707
1.293496389
0.8199250329
0.8181724855
0.816724778
0.815713133
0.8146330317
0.8134174844
0.8118398527
0.8105615995
0.8091295351
0.8076262136
0.8055912276
0.8048616485
0.8043675206
0.8034660295
0.8015605262
0.7994785434
0.7999629512
0.8012183697
0.8139368331
0.8707459128
0.9462168633
0.992090333
1.030081895
1.035565782
1.042985536
1.04508087
1.046209058
1.060713822
1.118178491
1.222473283
1.286374959
1.299503679
0.8251239904
0.8233889207
0.821795513
0.8206299345
0.8193342515
0.8179070722
0.8164907874
0.8153524347
0.8141087037
0.8126886248
0.8106131833
0.8094915129
0.8088958842
0.8080544718
0.8065929027
0.8044023098
0.8034830811
0.8028693714
0.802307213
0.8059125865
0.8301998431
0.9052506345
0.9853741624
1.014104989
1.040349931
1.04246569
1.051529312
1.094944686
1.193006392
1.269252174
1.289704786
1.296452896
0.8297935614
0.8281542948
0.8267985582
0.8256343785
0.8243957093
0.8228823604
0.8209833456
0.8196899342
0.818317815
0.816860581
0.8149230018
0.813889778
0.8132542302
0.8124619562
0.8110114601
0.8095988455
0.8085766353
0.8073947082
0.805574259
0.8038223302
0.8044411029
0.8160815268
0.8581752189
0.9410729888
1.015138044
1.032886956
1.067522012
1.153411247
1.250440714
1.301714657
1.300703691
1.297864821
0.8348303527
0.8327911409
0.8312729619
0.8302554707
0.8290724818
0.8277780525
0.8261821109
0.8246551968
0.8229749027
0.8211561688
0.8185795667
0.8174461471
0.8168881833
0.8160677354
0.8146819879
0.8129178586
0.8123928116
0.8115951258
0.8101940373
0.8076604053
0.8066922878
0.806985939
0.8096795294
0.8376484863
0.8965525053
0.976662467
1.082083436
1.197795723
1.270585307
1.304936699
1.303397416
1.292956811
0.839726924
0.8376647548
0.8360553389
0.8347693215
0.8333755634
0.8318126007
0.8302209085
0.8289528995
0.8275352193
0.8259155115
0.8235073629
0.8221540869
0.8213395786
0.8203243709
0.8186697978
0.8166934712
0.8160046998
0.8152552674
0.8144609998
0.8129822293
0.8106870727
0.808947584
0.8097342238
0.8116676646
0.821981067
0.8903811242
1.058361187
1.198178629
1.254893131
1.28609454
1.285283407
1.2857336
0.8449656681
0.8425726969
0.8409207437
0.8397573779
0.8384163501
0.8368481502
0.835123504
0.8337197404
0.8320807054
0.8302950818
0.8278625757
0.8266162279
0.825911223
0.8250036331
0.8234853548
0.8215909803
0.8205986507
0.8196588263
0.8189654962
0.817511619
0.8150466009
0.8136451958
0.8137474856
0.8154878375
0.8312594522
0.917144772
1.006972746
1.092530957
1.133237856
1.176040389
1.215011908
1.265512445
0.8504896414
0.8481619909
0.8462466099
0.8447789876
0.8432066946
0.8413696045
0.8395720661
0.8382359465
0.8367264117
0.8350261131
0.8325483489
0.8311824009
0.8303563084
0.8293168112
0.8276649139
0.825435312
0.8243256096
0.8237425506
0.8231833872
0.8215603523
0.819319591
0.8190104316
0.8190445198
0.8229070376
0.8640299652
0.9636155135
1.045506532
1.062339696
1.066012917
1.071022884
1.087065284
1.153383734
0.8550998912
0.852840238
0.851082326
0.8496854647
0.848178656
0.8462909858
0.8442617649
0.8428708751
0.8413065097
0.8395881358
0.8372530854
0.8359046051
0.8350474379
0.8340749751
0.8325159557
0.8300516839
0.8284480399
0.8280232029
0.8271534433
0.8251439696
0.8233455946
0.8233764679
0.8245594397
0.8405176495
0.9214434516
1.021008269
1.067001388
1.068989482
1.065010331
1.060242998
1.054976161
1.055667424
0.8605256665
0.8581133631
0.8561412831
0.8545724895
0.852898675
0.8508952959
0.8488350617
0.8472845392
0.8455575255
0.8436864333
0.84105932
0.8397375173
0.8390365056
0.8382343548
0.8369011443
0.834475547
0.8333033794
0.8328964562
0.8317005124
)
;

boundaryField
{
    inlet
    {
        type            fixedValue;
        value           nonuniform 0();
    }
    outlet
    {
        type            inletOutlet;
        inletValue      uniform 1;
        value           nonuniform List<scalar> 
68
(
1.097046169
1.090445079
1.084011067
1.078334826
1.073769151
1.069979881
1.067378421
1.065964045
1.064639855
1.063060042
1.061027329
1.059277751
1.058952557
1.062230695
1.072070055
1.094562648
1.137616424
1.196314242
1.248177268
1.280695681
1.293517853
1.299525777
1.296477888
1.297915182
1.292991392
1.285758217
1.265482527
1.153291981
1.055671305
1.142419983
1.142316446
1.140393126
1.137633036
1.135106016
1.132611158
1.130471308
1.128915552
1.127424127
1.125721316
1.123832625
1.121852859
1.120251869
1.119478138
1.119409114
1.118423697
1.116672376
1.114998689
1.113354159
1.111613781
1.10997889
1.108833586
1.108544066
1.108451439
1.107599666
1.106711645
1.106218423
1.10604667
1.105679797
1.105279462
1.105015228
1.104393983
1.103686026
1.102592947
1.101961621
1.10182352
1.101508712
1.101317916
1.100890994
)
;
    }
    bottom
    {
        type            slip;
    }
    top
    {
        type            slip;
    }
    obstacle
    {
        type            zeroGradient;
    }
    defaultFaces
    {
        type            empty;
    }
    procBoundary29to23
    {
        type            processor;
        value           nonuniform List<scalar> 
35
(
1.140506635
1.1403691
1.140307209
1.140438462
1.140421165
1.140011265
1.139608081
1.139793366
1.140158409
1.140334716
1.14037699
1.140235648
1.140070441
1.140157268
1.140889849
1.142201006
1.142996335
1.142851393
1.14238546
1.142087735
1.141983164
1.141912996
1.141694693
1.141155543
1.140578139
1.140095335
1.139862879
1.139927593
1.14032331
1.141043973
1.142817496
1.137109421
1.137441161
1.13760738
1.13760738
)
;
    }
    procBoundary29to28
    {
        type            processor;
        value           nonuniform List<scalar> 
69
(
1.134348386
1.13170049
1.129287752
1.127360432
1.125951065
1.12476257
1.123769245
1.123769245
1.122066844
1.120331093
1.118677411
1.11711462
1.11560301
1.114133425
1.112398014
1.11030356
1.10816527
1.106215705
1.104471194
1.102975433
1.102006141
1.10134941
1.100155889
1.098725001
1.098725001
1.096826406
1.095522883
1.094082373
1.093173861
1.093200424
1.093896631
1.093714163
1.093780921
1.093991371
1.094631049
1.095703458
1.097134119
1.098537576
1.099120766
1.098989054
1.094915374
1.086974532
1.076732788
1.068191348
1.061329203
1.060350296
1.055477948
1.033936156
0.9368630287