/*--------------------------------*- C++ -*----------------------------------*\
  =========                 |
  \\      /  F ield         | OpenFOAM: The Open Source CFD Toolbox
   \\    /   O peration     | Website:  https://openfoam.org
    \\  /    A nd           | Version:  7
     \\/     M anipulation  |
\*---------------------------------------------------------------------------*/
FoamFile
{
    version     2.0;
    format      ascii;
    class       volVectorField;
    location    "1.3";
    object      U;
}
// * * * * * * * * * * * * * * * * * * * * * * * * * * * * * * * * * * * * * //

dimensions      [0 1 -1 0 0 0 0];

internalField   nonuniform List<vector> 
80000
(
(3 2.749058022e-16 0)
(3 1.714737763e-15 0)
(3 2.891673453e-15 0)
(3 3.378472773e-15 0)
(3 3.568944106e-15 0)
(3 2.664834056e-15 0)
(3 1.210379301e-15 0)
(3 1.39346679e-15 0)
(3 1.118267019e-15 0)
(3 -9.692444695e-16 0)
(3 -4.85889568e-16 0)
(3 -3.718371303e-16 0)
(3 -2.347484918e-15 0)
(3 -2.973637748e-15 0)
(3 -4.643109957e-15 0)
(3 -3.549004385e-15 0)
(3 -3.477509862e-15 0)
(3 -4.786874743e-15 0)
(3 -4.737740947e-15 0)
(3 -3.260319948e-15 0)
(3 -2.991552721e-15 0)
(3 -4.129249628e-15 0)
(3 -4.392281681e-15 0)
(3 -3.457133359e-15 0)
(3 -3.611142733e-16 0)
(3 -3.308292445e-15 0)
(3 -1.255755748e-15 0)
(3 -6.242067564e-16 0)
(3 2.19512789e-15 0)
(3 3.234173227e-15 0)
(3 1.942431109e-15 0)
(3 -8.502276247e-16 0)
(3 -1.53058194e-15 0)
(3 -2.133605637e-15 0)
(3 -1.298694635e-15 0)
(3 9.543765334e-17 0)
(3 3.669684796e-15 0)
(3 4.595747886e-15 0)
(3 1.483550338e-15 0)
(3 1.6748361e-15 0)
(3 2.623232202e-15 0)
(3 3.538297566e-15 0)
(3 3.432287452e-15 0)
(3 2.834077162e-15 0)
(3 3.069386021e-15 0)
(3 3.255130205e-15 0)
(3 2.59808007e-15 0)
(3 4.475343897e-16 0)
(3 -6.318182952e-16 0)
(3 -6.589596823e-16 0)
(3 2.262545175e-15 0)
(3 4.15528426e-15 0)
(3 4.120335579e-15 0)
(3 3.895417018e-15 0)
(3 2.575248544e-15 0)
(3 1.980215971e-15 0)
(3 5.352923919e-15 0)
(3 3.765015673e-15 0)
(3 3.29684859e-15 0)
(3 3.493621233e-15 0)
(3 3.454919482e-15 0)
(3 1.561619152e-15 0)
(3 1.373999259e-15 0)
(3 -1.38513276e-15 0)
(3 -4.063501351e-15 0)
(3 -7.090823636e-15 0)
(3 -1.187651669e-14 0)
(3 -6.537650052e-15 0)
(3 -4.723233851e-15 0)
(3 -2.28131956e-16 0)
(3 2.762117029e-15 0)
(3 6.870509508e-15 0)
(3 6.835339295e-15 0)
(3 5.08702161e-15 0)
(3 -9.067420064e-16 0)
(3 -3.801577345e-15 0)
(3 -3.635803823e-15 0)
(3 -1.405846097e-15 0)
(3 -1.049749462e-15 0)
(3 -4.359717808e-16 0)
(3 1.786544551e-15 0)
(3 2.628806271e-15 0)
(3 -7.478753999e-16 0)
(3 -2.317676844e-15 0)
(3 -2.882484939e-15 0)
(3 -3.007160774e-15 0)
(3 -3.144018652e-15 0)
(3 -3.113795357e-15 0)
(3 -1.469667978e-15 0)
(3 3.973394449e-16 0)
(3 1.391068565e-15 0)
(3 2.049604344e-15 0)
(3 2.308116143e-16 0)
(3 -6.3220768e-16 0)
(3 2.073626454e-15 0)
(3 1.824302954e-15 0)
(3 1.769918198e-15 0)
(3 1.776051834e-15 0)
(3 2.1884396e-15 0)
(3 1.148450526e-15 0)
(3 1.243499207e-15 0)
(3 1.650869167e-15 0)
(3 2.624695194e-15 0)
(3 1.724640356e-15 0)
(3 2.025472331e-15 0)
(3 2.511403016e-15 0)
(3 1.477675826e-15 0)
(3 -3.462541784e-15 0)
(3 -5.551504556e-15 0)
(3 -6.285223547e-15 0)
(3 -2.503081917e-15 0)
(3 -3.053426022e-15 0)
(3 -6.998613378e-15 0)
(3 -6.660271754e-15 0)
(3 -5.823406601e-15 0)
(3 -5.065510809e-15 0)
(3 -6.29868565e-15 0)
(3 -6.971131596e-15 0)
(3 -8.386154926e-15 0)
(3 -6.786106078e-15 0)
(3 -6.487445597e-15 0)
(3 -6.545520979e-15 0)
(3 -5.207308163e-15 0)
(3 -2.18010508e-15 0)
(3 5.303020314e-16 0)
(3 9.050376499e-16 0)
(3 4.384586589e-15 0)
(3 2.83163172e-15 0)
(3 3.255549881e-15 0)
(3 7.887298729e-16 0)
(3 -1.84576231e-15 0)
(3 -9.403789631e-15 0)
(3 -8.101203127e-15 0)
(3 -4.719836464e-15 0)
(3 -1.476269381e-15 0)
(3 3.902954272e-15 0)
(3 9.464675391e-15 0)
(3 8.491678163e-15 0)
(3 5.747835243e-15 0)
(3 6.048588298e-15 0)
(3 7.170245795e-15 0)
(3 7.399880329e-15 0)
(3 4.689550612e-15 0)
(3 4.227944646e-15 0)
(3 5.42406672e-15 0)
(3 4.907361632e-15 0)
(3 2.606822676e-15 0)
(3 -7.215182413e-16 0)
(3 1.677016617e-15 0)
(3 9.012395229e-16 0)
(3 5.391322607e-15 0)
(3 8.94471004e-15 0)
(3 1.098776656e-14 0)
(3 9.173408869e-15 0)
(3 6.738816137e-15 0)
(3 4.055540046e-15 0)
(3 4.403736815e-15 0)
(3 3.767626627e-15 0)
(3 3.492949908e-15 0)
(3 3.076731361e-15 0)
(3 2.704690655e-15 0)
(3 -1.230519524e-15 0)
(3 -2.166182361e-15 0)
(3 -4.391161156e-15 0)
(3 -9.677278711e-15 0)
(3 -1.304920772e-14 0)
(3 -1.266062769e-14 0)
(3 -9.203439598e-15 0)
(3 -3.484784774e-15 0)
(3 7.084389914e-16 0)
(3 8.293588638e-15 0)
(3 8.188186405e-15 0)
(3 6.900384373e-15 0)
(3 1.132792743e-15 0)
(3 -3.824644365e-15 0)
(3 -7.258192987e-15 0)
(3 -5.07356385e-15 0)
(3 -2.477502031e-15 0)
(3 1.832289734e-15 0)
(3 2.564987177e-15 0)
(3 2.202952076e-15 0)
(3 1.52136059e-15 0)
(3 -1.632776164e-15 0)
(3 -5.628092922e-15 0)
(3 -5.510784395e-15 0)
(3 -3.650642272e-15 0)
(3 -2.433390525e-15 0)
(3 -8.301175789e-16 0)
(3 -2.771812998e-17 0)
(3 4.211286603e-16 0)
(3 -8.211468011e-16 0)
(3 5.473082122e-16 0)
(3 5.915164785e-16 0)
(3 -2.015192859e-15 0)
(3 -1.536458732e-15 0)
(3 -4.040826964e-16 0)
(3 -5.413324733e-16 0)
(3 -6.421590583e-16 0)
(3 -2.807542693e-16 0)
(3 -2.744347996e-15 0)
(3 3.556055737e-16 0)
(3 -1.107675265e-15 0)
(3 -1.150940772e-15 0)
(3 -4.843573543e-16 0)
(3 3.442402414e-15 0)
(3 4.425785184e-15 0)
(3 1.813586131e-16 0)
(3 -4.614274943e-16 0)
(3 -2.933171092e-15 0)
(3 -3.863800745e-15 0)
(3 -3.63005262e-15 0)
(3 -5.511917393e-15 0)
(3 -5.08868405e-15 0)
(3 -4.621543976e-15 0)
(3 -3.270390339e-15 0)
(3 -7.868123813e-15 0)
(3 -7.02765334e-15 0)
(3 -8.327219703e-15 0)
(3 -7.436342034e-15 0)
(3 -5.943640836e-15 0)
(3 -3.873799745e-15 0)
(3 -5.481540519e-15 0)
(3 -2.484591294e-15 0)
(3 -2.962836891e-16 0)
(3 2.147674856e-15 0)
(3 6.874283788e-15 0)
(3 6.138934082e-15 0)
(3 5.449287114e-15 0)
(3 3.731271009e-15 0)
(3 -2.120739233e-15 0)
(3 -3.852857224e-15 0)
(3 -2.680403843e-15 0)
(3 -2.869707887e-15 0)
(3 3.028584139e-16 0)
(3 4.905001349e-15 0)
(3 5.404727147e-15 0)
(3 6.348379814e-15 0)
(3 6.215469047e-15 0)
(3 9.112589652e-15 0)
(3 1.169520575e-14 0)
(3 9.501726308e-15 0)
(3 5.724637866e-15 0)
(3 2.280550853e-15 0)
(3 3.839114019e-15 0)
(3 6.648835489e-15 0)
(3 4.72885998e-15 0)
(3 6.547070401e-15 0)
(3 5.804811579e-15 0)
(3 4.802040837e-15 0)
(3 3.389271427e-15 0)
(3 4.332364215e-15 0)
(3 5.652560346e-15 0)
(3 7.436378237e-15 0)
(3 5.749915418e-15 0)
(3 5.492957953e-15 0)
(3 4.238127847e-15 0)
(3 1.098963985e-15 0)
(3 2.000122385e-15 0)
(3 3.076960156e-15 0)
(3 6.842443158e-16 0)
(3 -5.782834445e-16 0)
(3 4.309776336e-16 0)
(3 -6.622093214e-15 0)
(3 -8.384157356e-15 0)
(3 -6.228452079e-15 0)
(3 -3.701717795e-15 0)
(3 -1.960611559e-15 0)
(3 4.116574381e-17 0)
(3 1.805643467e-15 0)
(3 1.018620813e-15 0)
(3 1.285489036e-16 0)
(3 2.011622135e-15 0)
(3 -2.133405045e-15 0)
(3 -9.53263013e-16 0)
(3 -1.386469538e-15 0)
(3 -1.720531753e-15 0)
(3 -1.491754062e-15 0)
(3 -4.411551948e-16 0)
(3 -6.137969339e-16 0)
(3 -5.750309447e-16 0)
(3 -1.242210872e-15 0)
(3 -1.220300918e-15 0)
(3 -2.572799741e-15 0)
(3 -5.026369219e-15 0)
(3 -4.190757625e-15 0)
(3 3.957694774e-16 0)
(3 3.256258414e-15 0)
(3 7.648520744e-15 0)
(3 6.243818675e-15 0)
(3 3.494309499e-15 0)
(3 1.632978355e-15 0)
(3 1.659008602e-16 0)
(3 2.405977857e-15 0)
(3 2.610568004e-15 0)
(3 3.645692232e-15 0)
(3 7.768471994e-15 0)
(3 7.159417127e-15 0)
(3 6.696792544e-15 0)
(3 6.669152469e-15 0)
(3 5.887649248e-15 0)
(3 -4.268905593e-16 0)
(3 -6.734368048e-16 0)
(3 -1.18161777e-15 0)
(3 5.143937531e-15 0)
(3 8.868399599e-15 0)
(3 8.687709277e-15 0)
(3 6.776119722e-15 0)
(3 8.000516643e-15 0)
(3 5.081014757e-15 0)
(3 5.452920471e-15 0)
(3 3.137314098e-15 0)
(3 1.380364946e-15 0)
(3 2.749013062e-15 0)
(3 1.29622732e-16 0)
(3 -2.387161148e-15 0)
(3 -6.51868114e-15 0)
(3 -3.973996886e-15 0)
(3 -4.608636088e-15 0)
(3 -3.900621997e-15 0)
(3 -2.308135588e-15 0)
(3 -9.506519517e-16 0)
(3 -8.67114926e-16 0)
(3 -1.337833976e-15 0)
(3 -1.533236467e-15 0)
(3 2.378836256e-15 0)
(3 4.042188553e-15 0)
(3 1.405765619e-15 0)
(3 5.328836347e-15 0)
(3 4.283365305e-15 0)
(3 4.371509623e-15 0)
(3 5.561708166e-15 0)
(3 7.645088382e-15 0)
(3 5.877496534e-15 0)
(3 3.99466524e-15 0)
(3 1.465068715e-15 0)
(3 -7.417720956e-16 0)
(3 1.828972504e-17 0)
(3 3.288347822e-15 0)
(3 4.982365887e-15 0)
(3 5.242973564e-15 0)
(3 6.279661423e-15 0)
(3 7.115186724e-15 0)
(3 7.60995277e-15 0)
(3 7.353533841e-15 0)
(3 6.450227071e-15 0)
(3 6.639364643e-15 0)
(3 6.950731216e-15 0)
(3 7.777426587e-15 0)
(3 3.846811349e-15 0)
(3 3.770060292e-15 0)
(3 4.112954596e-15 0)
(3 4.004696617e-15 0)
(3 2.629670952e-15 0)
(3 -7.173486214e-16 0)
(3 7.919461777e-17 0)
(3 3.857748065e-15 0)
(3 4.67409571e-15 0)
(3 4.465274126e-15 0)
(3 3.077674167e-15 0)
(3 2.081106369e-15 0)
(3 -2.365422566e-15 0)
(3 -4.020047817e-15 0)
(3 -8.779716168e-15 0)
(3 -9.754246879e-15 0)
(3 -4.566248148e-15 0)
(3 -2.162951054e-16 0)
(3 5.201247377e-16 0)
(3 1.460704731e-15 0)
(3 4.184200811e-15 0)
(3 2.688895568e-15 0)
(3 -1.68014718e-15 0)
(3 -3.594933498e-15 0)
(3 -5.727410714e-15 0)
(3 -5.169071114e-15 0)
(3 -3.598264716e-15 0)
(3 -1.841654754e-15 0)
(3 -2.525508064e-15 0)
(3 -1.958718198e-15 0)
(3 -1.13471023e-15 0)
(3 -9.463973586e-16 0)
(3 -7.186181719e-16 0)
(3 1.738993958e-15 0)
(3 2.228376838e-15 0)
(3 -4.565758704e-16 0)
(3 -1.824733943e-15 0)
(3 5.237199268e-16 0)
(3 3.472870825e-15 0)
(3 8.605830668e-15 0)
(3 5.616735981e-15 0)
(3 6.775688797e-15 0)
(3 5.869622047e-15 0)
(3 2.366080317e-15 0)
(3 5.679005256e-16 0)
(3 2.789975905e-15 0)
(3 3.196062105e-15 0)
(3 9.75423296e-16 0)
(3 6.955492143e-16 0)
(3 -7.287308576e-17 0)
(3 1.617820338e-17 0)
(3 2.095292283e-15 0)
(3 -2.977748649e-16 0)
(3 8.378678096e-16 0)
(3 6.28745442e-16 0)
(3 7.342457268e-16 0)
(3 1.352065309e-15 0)
(3 2.016869992e-15 0)
(3 6.653092725e-15 0)
(3 7.469069448e-15 0)
(3 4.409948042e-15 0)
(3 5.69451272e-15 0)
(3 4.507866275e-15 0)
(3 3.681572472e-15 0)
(3 1.674185437e-15 0)
(3 -3.820289296e-15 0)
(3 -1.566058058e-15 0)
(3 -7.834733903e-16 0)
(3 1.519641479e-15 0)
(3 5.466985752e-15 0)
(3 3.846057144e-15 0)
(3 -1.062266206e-15 0)
(3 -3.522759039e-15 0)
(3 -1.739888182e-15 0)
(3 -3.499975485e-15 0)
(3 -2.219683499e-15 0)
(3 -1.449455437e-15 0)
(3 2.946234023e-16 0)
(3 2.006462064e-15 0)
(3 2.017602102e-15 0)
(3 2.048598927e-15 0)
(3 6.050878375e-15 0)
(3 6.29646217e-15 0)
(3 5.218839016e-15 0)
(3 3.650556788e-15 0)
(3 -1.240209452e-15 0)
(3 -2.165473824e-15 0)
(3 4.768720722e-17 0)
(3 2.35686825e-15 0)
(3 1.80603154e-15 0)
(3 2.144334797e-15 0)
(3 1.625275598e-15 0)
(3 3.307762412e-15 0)
(3 6.623105181e-15 0)
(3 8.575381965e-15 0)
(3 6.743642287e-15 0)
(3 3.308714007e-15 0)
(3 4.327378277e-15 0)
(3 9.038538809e-16 0)
(3 -1.761728613e-15 0)
(3 -1.729579585e-15 0)
(3 -8.724838908e-16 0)
(3 -6.30180132e-16 0)
(3 -2.347942236e-16 0)
(3 -2.008774024e-16 0)
(3 -1.913591936e-15 0)
(3 -2.829064877e-15 0)
(3 3.727823716e-15 0)
(3 7.204991305e-15 0)
(3 4.986645849e-15 0)
(3 4.30077799e-15 0)
(3 1.157419232e-15 0)
(3 -1.293626568e-15 0)
(3 -5.649475519e-15 0)
(3 -7.77686728e-15 0)
(3 -7.519584903e-15 0)
(3 -5.661905472e-15 0)
(3 -3.005732155e-15 0)
(3 -1.249268789e-15 0)
(3 -2.141611045e-15 0)
(3 -2.592788872e-15 0)
(3 -2.744205601e-15 0)
(3 -3.273435941e-15 0)
(3 -5.365825918e-15 0)
(3 -4.576000365e-15 0)
(3 -6.416393585e-15 0)
(3 -4.612216074e-15 0)
(3 -2.596285553e-15 0)
(3 -2.599686606e-15 0)
(3 -2.45024345e-15 0)
(3 6.019219167e-16 0)
(3 3.724559528e-15 0)
(3 3.986331957e-15 0)
(3 5.893391884e-15 0)
(3 8.031232125e-15 0)
(3 6.792302813e-15 0)
(3 5.873177574e-16 0)
(3 1.17092993e-15 0)
(3 9.055813205e-16 0)
(3 8.811478447e-16 0)
(3 2.998797865e-15 0)
(3 3.051965971e-15 0)
(3 2.719698986e-15 0)
(3 -3.245069316e-16 0)
(3 -4.143237459e-15 0)
(3 -4.379164872e-15 0)
(3 -5.977924856e-15 0)
(3 -6.968697834e-15 0)
(3 -7.276410465e-15 0)
(3 -7.992438283e-15 0)
(3 -9.588578975e-15 0)
(3 -7.379748245e-15 0)
(3 -6.636799265e-17 0)
(3 -2.476622864e-15 0)
(3 -3.463372063e-15 0)
(3 -4.729570891e-15 0)
(3 -6.668278672e-15 0)
(3 -6.814345595e-15 0)
(3 -1.994911941e-15 0)
(3 7.785151299e-16 0)
(3 9.040937366e-16 0)
(3 -6.094217411e-16 0)
(3 1.541816834e-15 0)
(3 5.710447557e-16 0)
(3 -1.301524709e-15 0)
(3 -3.041904791e-15 0)
(3 -4.151044408e-16 0)
(3 5.409880819e-15 0)
(3 5.467848491e-15 0)
(3 4.516122687e-15 0)
(3 5.581679559e-15 0)
(3 5.989394394e-15 0)
(3 5.135291677e-15 0)
(3 8.069769371e-16 0)
(3 9.218089394e-17 0)
(3 1.254914898e-15 0)
(3 1.067922309e-16 0)
(3 2.650671749e-16 0)
(3 1.620365222e-15 0)
(3 -3.841684968e-16 0)
(3 3.12036854e-15 0)
(3 3.667356349e-15 0)
(3 1.339273362e-15 0)
(3 -1.907922016e-15 0)
(3 -1.919487801e-15 0)
(3 -2.577301959e-15 0)
(3 -6.321701524e-16 0)
(3 4.512468282e-15 0)
(3 5.448733224e-15 0)
(3 2.52327378e-15 0)
(3 -8.132715524e-16 0)
(3 -1.767259295e-15 0)
(3 -3.086814128e-16 0)
(3 2.162050238e-15 0)
(3 7.169490462e-15 0)
(3 6.937533625e-15 0)
(3 4.390736735e-15 0)
(3 5.811644347e-16 0)
(3 -1.039323507e-15 0)
(3 -1.439736651e-15 0)
(3 -9.753163099e-16 0)
(3 -1.297485454e-15 0)
(3 -2.681058081e-15 0)
(3 -3.124851743e-15 0)
(3 -3.88321398e-15 0)
(3 -3.481311906e-15 0)
(3 -3.02136108e-15 0)
(3 -1.304736639e-15 0)
(3 -9.419733904e-16 0)
(3 -7.00570612e-18 0)
(3 -1.115806958e-15 0)
(3 -1.601316714e-15 0)
(3 -6.642531038e-16 0)
(3 -4.460329278e-16 0)
(3 -9.781518561e-16 0)
(3 -5.333717404e-16 0)
(3 -4.267027596e-15 0)
(3 -6.184829629e-15 0)
(3 -7.604547616e-15 0)
(3 -7.269768418e-15 0)
(3 -9.130658572e-15 0)
(3 -8.213204319e-15 0)
(3 -5.194514145e-15 0)
(3 -6.441796287e-16 0)
(3 4.434785601e-15 0)
(3 3.674838193e-15 0)
(3 1.95194824e-15 0)
(3 9.864900975e-16 0)
(3 2.108945005e-15 0)
(3 1.640020836e-15 0)
(3 2.359542741e-15 0)
(3 6.296960996e-15 0)
(3 7.191541806e-15 0)
(3 6.964795053e-15 0)
(3 5.962535369e-15 0)
(3 4.762771642e-15 0)
(3 1.65268807e-15 0)
(3 -5.411685506e-15 0)
(3 -7.08558721e-15 0)
(3 -8.482501201e-15 0)
(3 -3.166605711e-15 0)
(3 -2.245209507e-17 0)
(3 4.152811106e-15 0)
(3 2.815057851e-15 0)
(3 2.421677798e-17 0)
(3 -7.459312334e-15 0)
(3 -7.558548224e-15 0)
(3 -4.65692312e-15 0)
(3 -4.005584039e-15 0)
(3 -1.5610181e-15 0)
(3 1.065988012e-15 0)
(3 -5.229867256e-16 0)
(3 -7.594219447e-16 0)
(3 -1.40307507e-15 0)
(3 -3.849508815e-16 0)
(3 1.883903442e-16 0)
(3 -8.862727083e-16 0)
(3 -1.711564521e-15 0)
(3 -9.45293011e-16 0)
(3 9.573829154e-16 0)
(3 4.538142927e-15 0)
(3 4.403940639e-15 0)
(3 3.568862493e-15 0)
(3 2.627604634e-15 0)
(3 1.705651526e-15 0)
(3 4.443597058e-15 0)
(3 5.42563983e-15 0)
(3 7.612657302e-15 0)
(3 6.924871517e-15 0)
(3 2.671711697e-15 0)
(3 5.266774473e-15 0)
(3 6.024646843e-15 0)
(3 3.609951854e-15 0)
(3 8.128279643e-16 0)
(3 1.076093791e-15 0)
(3 7.01018504e-16 0)
(3 1.391262274e-15 0)
(3 3.371118015e-15 0)
(3 3.605476087e-15 0)
(3 2.675353512e-15 0)
(3 3.033581689e-15 0)
(3 1.479276449e-15 0)
(3 -2.298065336e-15 0)
(3 -2.63133592e-15 0)
(3 -2.388268488e-15 0)
(3 -2.066874431e-15 0)
(3 3.863832723e-16 0)
(3 -1.358581464e-16 0)
(3 2.686576927e-16 0)
(3 1.058262875e-15 0)
(3 -7.898428553e-16 0)
(3 6.34647642e-16 0)
(3 2.711561522e-15 0)
(3 2.134627571e-15 0)
(3 1.17212453e-15 0)
(3 2.718076046e-15 0)
(3 1.423935963e-15 0)
(3 -7.421622659e-16 0)
(3 2.123645582e-17 0)
(3 1.518668508e-15 0)
(3 1.527099094e-15 0)
(3 -1.028229457e-16 0)
(3 -3.676017878e-16 0)
(3 -1.60471615e-16 0)
(3 -2.270822443e-15 0)
(3 -4.05967904e-15 0)
(3 -4.104628521e-15 0)
(3 -6.676609038e-15 0)
(3 -6.410236884e-15 0)
(3 -2.681193806e-15 0)
(3 -1.589909236e-15 0)
(3 -1.074853636e-15 0)
(3 -9.788843878e-16 0)
(3 2.71467286e-15 0)
(3 5.057546513e-15 0)
(3 3.399576229e-15 0)
(3 -1.543936752e-15 0)
(3 -4.989275618e-15 0)
(3 -8.21887262e-15 0)
(3 -1.044238176e-14 0)
(3 -1.006122691e-14 0)
(3 -6.864510551e-15 0)
(3 -3.66889773e-15 0)
(3 -7.008801385e-16 0)
(3 3.511662222e-15 0)
(3 5.546764293e-15 0)
(3 4.527728478e-15 0)
(3 4.630682938e-15 0)
(3 7.161423708e-15 0)
(3 4.164627591e-15 0)
(3 3.923371302e-15 0)
(3 6.896638295e-15 0)
(3 4.676169785e-15 0)
(3 4.16411885e-15 0)
(3 2.788450291e-15 0)
(3 3.064985432e-15 0)
(3 2.807538072e-15 0)
(3 -6.560186509e-15 0)
(3 -1.04937105e-14 0)
(3 -8.582745532e-15 0)
(3 -6.73362273e-15 0)
(3 9.744207081e-17 0)
(3 4.829898245e-15 0)
(3 5.295213235e-15 0)
(3 4.789255473e-15 0)
(3 4.098466427e-15 0)
(3 1.180569794e-15 0)
(3 -2.335820717e-16 0)
(3 1.759149603e-15 0)
(3 5.232545814e-15 0)
(3 5.534103088e-15 0)
(3 3.853738205e-15 0)
(3 -4.862703503e-16 0)
(3 2.270225226e-15 0)
(3 3.024641975e-15 0)
(3 1.833372281e-15 0)
(3 2.625958046e-15 0)
(3 2.763317436e-15 0)
(3 -2.520744064e-15 0)
(3 -1.971091558e-15 0)
(3 -7.430447692e-16 0)
(3 2.191268375e-15 0)
(3 -9.763507721e-16 0)
(3 -5.237783194e-16 0)
(3 -3.014527706e-16 0)
(3 7.782344621e-16 0)
(3 1.935155317e-15 0)
(3 2.519839347e-15 0)
(3 2.036020716e-15 0)
(3 -2.581561126e-15 0)
(3 -3.756312294e-15 0)
(3 -3.575106098e-15 0)
(3 -2.689171858e-15 0)
(3 -2.266112966e-16 0)
(3 1.399105593e-15 0)
(3 1.10311387e-15 0)
(3 9.806294919e-16 0)
(3 2.28195906e-15 0)
(3 3.209139643e-15 0)
(3 3.62083623e-15 0)
(3 2.006517111e-15 0)
(3 2.37861044e-15 0)
(3 -2.495773611e-16 0)
(3 9.107277988e-16 0)
(3 -1.115106123e-15 0)
(3 3.699472147e-16 0)
(3 -1.295026962e-17 0)
(3 -1.009367758e-15 0)
(3 -7.706932157e-16 0)
(3 -1.863518173e-15 0)
(3 5.153569905e-16 0)
(3 -6.112056165e-17 0)
(3 -2.922201673e-16 0)
(3 -1.521810991e-15 0)
(3 -1.979386096e-15 0)
(3 -1.598495529e-15 0)
(3 -1.327601581e-15 0)
(3 -1.290919663e-15 0)
(3 -1.936826849e-15 0)
(3 -4.396966482e-15 0)
(3 -2.88469168e-15 0)
(3 -1.564007556e-15 0)
(3 9.667473036e-16 0)
(3 1.27316151e-15 0)
(3 2.974560998e-15 0)
(3 1.372089656e-15 0)
(3 -3.418592836e-18 0)
(3 -2.745702362e-15 0)
(3 -3.533707251e-15 0)
(3 8.807441176e-16 0)
(3 2.090538296e-15 0)
(3 1.988762507e-15 0)
(3 -1.251732432e-15 0)
(3 -2.842715531e-15 0)
(3 -1.075262692e-15 0)
(3 -1.017092477e-15 0)
(3 -3.606682926e-15 0)
(3 -6.540023748e-15 0)
(3 -5.982608306e-15 0)
(3 -6.467345128e-15 0)
(3 -4.731129363e-15 0)
(3 -2.638350981e-15 0)
(3 8.640750942e-16 0)
(3 2.673237242e-15 0)
(3 1.010926235e-15 0)
(3 1.886860507e-15 0)
(3 3.107836488e-15 0)
(3 3.368859579e-15 0)
(3 6.444963985e-15 0)
(3 2.46156488e-15 0)
(3 1.667775211e-15 0)
(3 4.900006697e-15 0)
(3 7.919742609e-15 0)
(3 6.316846839e-15 0)
(3 4.504035664e-15 0)
(3 3.287451477e-15 0)
(3 4.958910335e-15 0)
(3 4.764368153e-15 0)
(3 -1.557969808e-15 0)
(3 -1.966805996e-15 0)
(3 -1.196977478e-15 0)
(3 2.499277915e-15 0)
(3 2.568562351e-15 0)
(3 8.124777561e-15 0)
(3 8.043681223e-15 0)
(3 7.216364496e-15 0)
(3 5.566204106e-15 0)
(3 6.051580065e-15 0)
(3 6.740364777e-15 0)
(3 4.317334987e-15 0)
(3 1.801203068e-15 0)
(3 2.514756133e-15 0)
(3 -3.57880838e-16 0)
(3 7.84006312e-16 0)
(3 1.303814785e-15 0)
(3 -1.843941283e-16 0)
(3 3.53566292e-16 0)
(3 -1.450243039e-16 0)
(3 -1.639347435e-15 0)
(3 -3.223086101e-15 0)
(3 -4.688997203e-15 0)
(3 -4.608758145e-15 0)
(3 -1.767155786e-15 0)
(3 -5.791412645e-16 0)
(3 1.353633883e-15 0)
(3 1.835980008e-15 0)
(3 1.365481028e-15 0)
(3 9.43138793e-17 0)
(3 2.896421252e-16 0)
(3 6.023277978e-16 0)
(3 -3.012550643e-15 0)
(3 -4.550276143e-15 0)
(3 -1.805983209e-15 0)
(3 1.22218305e-15 0)
(3 3.249506484e-15 0)
(3 4.086752506e-15 0)
(3 3.97797202e-15 0)
(3 1.798895986e-15 0)
(3 4.218081354e-15 0)
(3 4.941964927e-15 0)
(3 3.660457281e-15 0)
(3 2.603991777e-15 0)
(3 2.312406917e-15 0)
(3 1.520245258e-15 0)
(3 1.151545674e-15 0)
(3 1.540912852e-15 0)
(3 1.298939535e-15 0)
(3 9.821316787e-16 0)
(3 1.343711793e-15 0)
(3 1.239863475e-15 0)
(3 -6.828412399e-17 0)
(3 5.612266045e-17 0)
(3 6.298279857e-16 0)
(3 1.203803147e-15 0)
(3 2.261342515e-15 0)
(3 1.800440182e-15 0)
(3 -3.221922691e-15 0)
(3 -3.795809069e-15 0)
(3 -1.512001259e-15 0)
(3 2.613633465e-15 0)
(3 4.268356703e-15 0)
(3 5.126840898e-15 0)
(3 4.53830306e-15 0)
(3 8.740067532e-16 0)
(3 4.875717104e-15 0)
(3 8.485285166e-15 0)
(3 8.286095179e-15 0)
(3 3.615646329e-15 0)
(3 1.335420099e-15 0)
(3 1.425055554e-15 0)
(3 9.243910983e-16 0)
(3 1.027974615e-15 0)
(3 -2.679405445e-15 0)
(3 -4.292884289e-15 0)
(3 -4.364099235e-15 0)
(3 -3.462507264e-15 0)
(3 -3.865160865e-15 0)
(3 -5.264105379e-15 0)
(3 -6.308255605e-15 0)
(3 -4.842734051e-15 0)
(3 -3.791406901e-15 0)
(3 -2.573560051e-15 0)
(3 3.153839409e-15 0)
(3 4.653226255e-15 0)
(3 3.615731774e-15 0)
(3 3.645704645e-15 0)
(3 1.51517333e-15 0)
(3 1.462108247e-15 0)
(3 2.59223267e-15 0)
(3 4.45717542e-15 0)
(3 3.820990208e-15 0)
(3 4.341644973e-15 0)
(3 8.73219577e-15 0)
(3 9.136869487e-15 0)
(3 8.317847496e-15 0)
(3 1.002622935e-14 0)
(3 1.328777013e-14 0)
(3 1.6750395e-14 0)
(3 9.148734527e-15 0)
(3 3.2594872e-15 0)
(3 2.263796367e-15 0)
(3 2.44541735e-15 0)
(3 2.764862797e-15 0)
(3 4.635817762e-15 0)
(3 7.124262554e-15 0)
(3 7.623826981e-15 0)
(3 9.12805438e-15 0)
(3 8.040089739e-15 0)
(3 2.749317587e-15 0)
(3 -4.074405649e-16 0)
(3 -6.762315409e-16 0)
(3 -9.424140951e-16 0)
(3 -1.633810855e-17 0)
(3 3.964240197e-16 0)
(3 -9.080410486e-16 0)
(3 -2.236838742e-15 0)
(3 -4.00198927e-15 0)
(3 -5.243430991e-15 0)
(3 -7.074727747e-16 0)
(3 -1.678345882e-15 0)
(3 -2.219760845e-15 0)
(3 6.770093288e-16 0)
(3 3.009188261e-15 0)
(3 5.192973417e-15 0)
(3 4.55299725e-15 0)
(3 3.939098544e-15 0)
(3 -1.493738988e-15 0)
(3 -2.438177613e-15 0)
(3 -1.653987131e-15 0)
(3 1.644252442e-15 0)
(3 1.3382244e-15 0)
(3 -8.995676817e-16 0)
(3 -8.151196452e-16 0)
(3 7.35840491e-16 0)
(3 -1.435418129e-15 0)
(3 -1.543074778e-15 0)
(3 -4.815133202e-16 0)
(3 -3.211606111e-16 0)
(3 2.72207667e-16 0)
(3 1.214088175e-15 0)
(3 1.129919688e-15 0)
(3 -1.232651933e-15 0)
(3 7.583448763e-16 0)
(3 3.669939505e-15 0)
(3 5.216824813e-15 0)
(3 3.247314217e-15 0)
(3 6.431919279e-16 0)
(3 -2.787218656e-15 0)
(3 -2.148198982e-15 0)
(3 4.274363943e-16 0)
(3 5.972376968e-16 0)
(3 6.261813451e-15 0)
(3 7.269497419e-15 0)
(3 4.81163644e-15 0)
(3 1.887863288e-15 0)
(3 1.131001796e-16 0)
(3 1.018855947e-15 0)
(3 2.748598108e-15 0)
(3 3.008017582e-15 0)
(3 3.482015447e-15 0)
(3 4.60002839e-15 0)
(3 5.91947546e-15 0)
(3 1.847559562e-15 0)
(3 -1.747170311e-15 0)
(3 -1.861674129e-15 0)
(3 -7.753334341e-16 0)
(3 5.458380316e-15 0)
(3 6.167133308e-15 0)
(3 9.611903104e-15 0)
(3 6.866137111e-15 0)
(3 5.734900005e-15 0)
(3 4.32302641e-15 0)
(3 1.569360918e-15 0)
(3 -2.173566785e-15 0)
(3 -6.335233946e-15 0)
(3 -6.283558311e-15 0)
(3 -5.4557314e-15 0)
(3 -7.157674441e-15 0)
(3 -7.106172888e-15 0)
(3 -5.472393535e-15 0)
(3 -1.807575225e-15 0)
(3 -1.525510927e-15 0)
(3 1.395115758e-15 0)
(3 1.567752926e-16 0)
(3 1.02002404e-15 0)
(3 2.157954764e-15 0)
(3 3.909436498e-15 0)
(3 3.453182589e-15 0)
(3 1.2198886e-16 0)
(3 2.000338565e-15 0)
(3 3.983030122e-15 0)
(3 2.890316839e-15 0)
(3 1.756779422e-15 0)
(3 7.370923236e-15 0)
(3 1.043077541e-14 0)
(3 1.074879996e-14 0)
(3 1.351973444e-14 0)
(3 1.732644936e-14 0)
(3 1.711518288e-14 0)
(3 1.036512392e-14 0)
(3 6.836855286e-15 0)
(3 4.224389129e-15 0)
(3 1.253150122e-15 0)
(3 2.693685013e-15 0)
(3 1.526279139e-15 0)
(3 4.20907575e-15 0)
(3 2.616006839e-15 0)
(3 -1.305852344e-15 0)
(3 -1.950456978e-15 0)
(3 -2.124742965e-15 0)
(3 6.19027758e-16 0)
(3 1.440633398e-16 0)
(3 2.789559988e-16 0)
(3 -7.466585274e-16 0)
(3 -1.435866489e-15 0)
(3 -1.316005218e-15 0)
(3 -8.205027796e-15 0)
(3 -8.893410945e-15 0)
(3 -7.906480084e-15 0)
(3 -3.811420835e-15 0)
(3 -5.067266655e-16 0)
(3 2.538294968e-15 0)
(3 3.11580346e-15 0)
(3 3.015738125e-15 0)
(3 3.759326714e-15 0)
(3 1.727652585e-15 0)
(3 2.34806233e-16 0)
(3 -1.868130924e-16 0)
(3 -3.41957325e-15 0)
(3 -1.951100489e-15 0)
(3 -6.410585406e-16 0)
(3 7.077853229e-16 0)
(3 -1.123646129e-15 0)
(3 -3.884901316e-15 0)
(3 -3.885258812e-15 0)
(3 -2.54573028e-15 0)
(3 -3.631424165e-15 0)
(3 -2.667862215e-15 0)
(3 -4.073684249e-15 0)
(3 -1.742915619e-15 0)
(3 -2.180261451e-15 0)
(3 -2.169578655e-15 0)
(3 -2.9891497e-15 0)
(3 1.791704462e-15 0)
(3 2.970854995e-15 0)
(3 1.44514368e-15 0)
(3 -1.395753449e-15 0)
(3 -6.760671479e-15 0)
(3 -3.411576379e-15 0)
(3 5.668694854e-16 0)
(3 4.947666334e-15 0)
(3 1.074272135e-14 0)
(3 7.486635223e-15 0)
(3 8.697761874e-15 0)
(3 7.367936292e-15 0)
(3 7.391303437e-15 0)
(3 9.526631059e-15 0)
(3 7.885573207e-15 0)
(3 1.323666338e-15 0)
(3 -1.671920083e-15 0)
(3 -1.915793123e-15 0)
(3 -3.933259669e-15 0)
(3 -1.951222884e-15 0)
(3 -1.141001583e-15 0)
(3 -1.226307228e-15 0)
(3 -8.696866869e-16 0)
(3 3.999596485e-16 0)
(3 6.05378484e-15 0)
(3 9.302034184e-15 0)
(3 9.283102606e-15 0)
(3 6.845602435e-15 0)
(3 1.342649873e-15 0)
(3 -5.274522403e-16 0)
(3 -2.856819113e-15 0)
(3 -7.262310005e-15 0)
(3 -8.195523557e-15 0)
(3 -1.04717603e-14 0)
(3 -9.123338502e-15 0)
(3 -6.736211688e-15 0)
(3 -7.939375537e-15 0)
(3 -6.773370022e-15 0)
(3 -7.219358855e-15 0)
(3 -6.246436402e-15 0)
(3 -7.166992286e-15 0)
(3 -4.619977548e-15 0)
(3 -1.416464726e-15 0)
(3 -1.485378325e-16 0)
(3 -9.558102003e-16 0)
(3 -4.108819111e-15 0)
(3 -2.473273264e-15 0)
(3 2.484941148e-15 0)
(3 -1.842645811e-15 0)
(3 -4.299238173e-15 0)
(3 -8.343958618e-17 0)
(3 1.264192096e-14 0)
(3 1.356093769e-14 0)
(3 1.725361595e-14 0)
(3 1.844447382e-14 0)
(3 1.952381804e-14 0)
(3 1.640133145e-14 0)
(3 5.905534261e-15 0)
(3 1.73937349e-15 0)
(3 1.159886594e-15 0)
(3 3.253491075e-15 0)
(3 2.196584715e-15 0)
(3 -4.534703959e-15 0)
(3 -7.319415115e-15 0)
(3 -5.569281963e-15 0)
(3 -3.905105859e-15 0)
(3 -4.042972864e-15 0)
(3 -3.70178697e-15 0)
(3 -4.16896176e-15 0)
(3 7.444585429e-18 0)
(3 -6.269257323e-16 0)
(3 -1.798895325e-15 0)
(3 -1.84546739e-15 0)
(3 -1.72045209e-15 0)
(3 -1.925235048e-15 0)
(3 -4.476828987e-15 0)
(3 -2.443691408e-15 0)
(3 -1.438238568e-15 0)
(3 -6.897088507e-16 0)
(3 -7.577380894e-16 0)
(3 -2.264600775e-15 0)
(3 -3.173883253e-15 0)
(3 -3.575775223e-15 0)
(3 2.510333879e-17 0)
(3 -9.604220453e-16 0)
(3 -2.004508854e-15 0)
(3 -4.480672318e-15 0)
(3 -4.945691674e-15 0)
(3 -2.37151126e-15 0)
(3 -2.308958915e-15 0)
(3 -3.526482054e-15 0)
(3 -1.749235706e-15 0)
(3 -1.88850975e-15 0)
(3 -3.128754988e-15 0)
(3 -2.889626824e-15 0)
(3 1.382179613e-15 0)
(3 2.261274372e-15 0)
(3 1.547273796e-16 0)
(3 9.323784841e-16 0)
(3 5.279650363e-16 0)
(3 -2.542367418e-15 0)
(3 -3.381170312e-15 0)
(3 -2.399479983e-15 0)
(3 1.146568884e-15 0)
(3 -4.197091006e-16 0)
(3 3.064616941e-16 0)
(3 1.068120234e-15 0)
(3 2.279221884e-15 0)
(3 3.561186995e-15 0)
(3 3.369856515e-15 0)
(3 6.021162327e-15 0)
(3 8.167787304e-15 0)
(3 7.373584707e-15 0)
(3 7.214743117e-15 0)
(3 5.259988095e-15 0)
(3 1.316356921e-15 0)
(3 2.270624095e-15 0)
(3 -2.841262957e-15 0)
(3 -7.06253957e-15 0)
(3 -6.223797496e-15 0)
(3 -4.514054225e-15 0)
(3 -2.750800895e-15 0)
(3 -2.117105631e-15 0)
(3 -3.226224615e-15 0)
(3 -9.248380457e-16 0)
(3 1.829258177e-15 0)
(3 3.756058504e-15 0)
(3 2.575100951e-15 0)
(3 -2.615826963e-15 0)
(3 -2.196594113e-15 0)
(3 -4.398151801e-16 0)
(3 2.5731159e-15 0)
(3 -2.09752164e-15 0)
(3 -4.706907689e-15 0)
(3 2.352222886e-15 0)
(3 2.238261083e-15 0)
(3 -2.067091156e-15 0)
(3 -5.045360659e-15 0)
(3 -8.8411703e-15 0)
(3 -1.132577824e-14 0)
(3 -1.090994101e-14 0)
(3 -9.127455447e-15 0)
(3 -8.155925373e-15 0)
(3 -5.771451926e-15 0)
(3 -3.210942331e-15 0)
(3 -9.39018917e-16 0)
(3 -1.435360503e-15 0)
(3 -3.342600565e-15 0)
(3 -5.589127836e-15 0)
(3 -5.837199303e-15 0)
(3 1.532542236e-15 0)
(3 9.741779812e-15 0)
(3 1.319747746e-14 0)
(3 1.237303917e-14 0)
(3 1.2728641e-14 0)
(3 1.640144811e-14 0)
(3 1.808296262e-14 0)
(3 1.208671673e-14 0)
(3 5.38351145e-15 0)
(3 1.380119387e-15 0)
(3 -2.734438686e-16 0)
(3 3.048329919e-16 0)
(3 -4.25133794e-15 0)
(3 -4.818257305e-15 0)
(3 -2.339952223e-15 0)
(3 -3.197201166e-15 0)
(3 -3.774683648e-15 0)
(3 -5.662096984e-15 0)
(3 -5.025344192e-15 0)
(3 2.903543868e-16 0)
(3 1.368526709e-15 0)
(3 9.69848509e-16 0)
(3 1.336923884e-16 0)
(3 2.631143955e-17 0)
(3 2.463491842e-15 0)
(3 4.14909307e-15 0)
(3 2.940945982e-15 0)
(3 1.322596501e-15 0)
(3 1.88505608e-15 0)
(3 2.218546154e-16 0)
(3 -2.72813063e-15 0)
(3 -2.890431505e-15 0)
(3 -1.661424184e-15 0)
(3 -5.529669808e-16 0)
(3 4.086861947e-16 0)
(3 2.653099582e-15 0)
(3 1.623028848e-15 0)
(3 -5.67947668e-16 0)
(3 -3.412905454e-15 0)
(3 -9.222449951e-16 0)
(3 3.398680604e-15 0)
(3 2.654728245e-15 0)
(3 1.321236736e-15 0)
(3 2.074903686e-15 0)
(3 8.880029869e-16 0)
(3 1.635146118e-15 0)
(3 -9.096798725e-16 0)
(3 2.089110883e-16 0)
(3 -8.238364513e-16 0)
(3 -1.391019581e-15 0)
(3 -1.222388775e-15 0)
(3 -6.884609474e-16 0)
(3 1.765100181e-15 0)
(3 2.061041009e-15 0)
(3 3.177472215e-15 0)
(3 9.618132366e-16 0)
(3 -3.120421496e-16 0)
(3 1.425777719e-15 0)
(3 -1.147487794e-15 0)
(3 3.878925138e-15 0)
(3 3.364608303e-15 0)
(3 3.293414636e-15 0)
(3 8.793435012e-16 0)
(3 -1.489918671e-15 0)
(3 -7.801306657e-16 0)
(3 6.96759135e-16 0)
(3 -1.3736498e-15 0)
(3 -6.402470783e-15 0)
(3 -6.392538225e-15 0)
(3 -7.212524078e-15 0)
(3 -5.785758889e-15 0)
(3 2.040807832e-16 0)
(3 2.785183319e-16 0)
(3 1.162304169e-15 0)
(3 1.715417999e-15 0)
(3 1.609203196e-15 0)
(3 -3.289324097e-15 0)
(3 -3.730381343e-15 0)
(3 3.597955434e-15 0)
(3 5.646557909e-15 0)
(3 4.495933588e-15 0)
(3 5.745683122e-15 0)
(3 1.701714793e-15 0)
(3 3.337919897e-15 0)
(3 6.198358908e-15 0)
(3 4.340692175e-15 0)
(3 3.984720938e-15 0)
(3 3.751221864e-15 0)
(3 -3.616768097e-15 0)
(3 -1.083347145e-14 0)
(3 -1.02779926e-14 0)
(3 -1.150589376e-14 0)
(3 -9.555140085e-15 0)
(3 -9.582141166e-15 0)
(3 -5.722480339e-15 0)
(3 -6.175963721e-16 0)
(3 -1.673641902e-15 0)
(3 -4.519680801e-15 0)
(3 -4.38044052e-15 0)
(3 -2.594949011e-15 0)
(3 -4.960353085e-16 0)
(3 1.396791789e-15 0)
(3 8.043597198e-15 0)
(3 1.145427681e-14 0)
(3 1.288379304e-14 0)
(3 1.559065739e-14 0)
(3 1.75513937e-14 0)
(3 1.519741097e-14 0)
(3 7.039818462e-15 0)
(3 -8.749955345e-16 0)
(3 -3.604225146e-15 0)
(3 -4.491836279e-15 0)
(3 -1.230004544e-15 0)
(3 1.175799982e-15 0)
(3 3.891275325e-15 0)
(3 3.997826341e-15 0)
(3 1.970540589e-15 0)
(3 1.673851779e-15 0)
(3 4.933518914e-16 0)
(3 -8.40547541e-17 0)
(3 1.290862819e-15 0)
(3 4.371977441e-15 0)
(3 6.073784698e-15 0)
(3 5.174949583e-15 0)
(3 9.016718141e-15 0)
(3 8.91193378e-15 0)
(3 5.082849749e-15 0)
(3 1.974618256e-15 0)
(3 -2.544473848e-15 0)
(3 -2.777906548e-15 0)
(3 1.575437561e-15 0)