/*--------------------------------*- C++ -*----------------------------------*\
  =========                 |
  \\      /  F ield         | OpenFOAM: The Open Source CFD Toolbox
   \\    /   O peration     | Website:  https://openfoam.org
    \\  /    A nd           | Version:  7
     \\/     M anipulation  |
\*---------------------------------------------------------------------------*/
FoamFile
{
    version     2.0;
    format      ascii;
    class       volVectorField;
    location    "1";
    object      U;
}
// * * * * * * * * * * * * * * * * * * * * * * * * * * * * * * * * * * * * * //

dimensions      [0 1 -1 0 0 0 0];

internalField   nonuniform List<vector> 
2222
(
(2.164929726 0.009231185021 0)
(2.192642572 0.00901696584 0)
(2.221329564 0.009175696053 0)
(2.249895921 0.009488976479 0)
(2.277272375 0.00970126952 0)
(2.302931668 0.009685167006 0)
(2.326674102 0.009437873794 0)
(2.34840561 0.009053983833 0)
(2.36811996 0.008691829695 0)
(2.386062078 0.008477946222 0)
(2.402750374 0.00833438305 0)
(2.41912097 0.008152014148 0)
(2.436077222 0.007969581926 0)
(2.454071884 0.00790151505 0)
(2.47301762 0.007937574259 0)
(2.492344818 0.007954799419 0)
(2.511175099 0.007914352222 0)
(2.5284275 0.007870750405 0)
(2.543241397 0.0078333024 0)
(2.555712138 0.007823143576 0)
(2.566747827 0.007867411901 0)
(2.577481846 0.007855887267 0)
(2.589006168 0.007717962769 0)
(2.601607024 0.007504853699 0)
(2.615145005 0.007381564959 0)
(2.629529471 0.00737934028 0)
(2.644228422 0.007645054179 0)
(2.658595615 0.00769103045 0)
(2.672840525 0.008099763712 0)
(2.686151876 0.008792499323 0)
(2.692538209 0.008752778885 0)
(2.697235999 0.01066939066 0)
(2.152137247 0.02082085966 0)
(2.180616496 0.02136315049 0)
(2.209550907 0.02242061053 0)
(2.238084979 0.02356288103 0)
(2.265496674 0.0243292865 0)
(2.291433798 0.02449996509 0)
(2.315661914 0.02405693933 0)
(2.337962532 0.02324133452 0)
(2.358182698 0.02240040664 0)
(2.376507087 0.02193693051 0)
(2.393592159 0.02197753953 0)
(2.410436367 0.02222511976 0)
(2.427940046 0.02249961409 0)
(2.446469611 0.02283246988 0)
(2.465749235 0.02314244941 0)
(2.485168568 0.02319956645 0)
(2.504036033 0.02297450899 0)
(2.52150177 0.02275138282 0)
(2.536694026 0.0226082231 0)
(2.549425138 0.02243991789 0)
(2.560520658 0.02229122698 0)
(2.571403291 0.02220535637 0)
(2.58342297 0.022274956 0)
(2.59704256 0.02247244134 0)
(2.611602221 0.02281753399 0)
(2.626105035 0.02303891695 0)
(2.639885179 0.02292087947 0)
(2.653100012 0.02272945732 0)
(2.666090433 0.02209465582 0)
(2.6769838 0.02184909021 0)
(2.68971156 0.02328944709 0)
(2.700276734 0.02190028222 0)
(2.135987503 0.03454809063 0)
(2.165383583 0.03544765708 0)
(2.194745595 0.03734361993 0)
(2.22347552 0.0393016632 0)
(2.251122679 0.04040349752 0)
(2.277411462 0.04034750461 0)
(2.302020581 0.03933349799 0)
(2.324634991 0.03794174776 0)
(2.345121942 0.03675701843 0)
(2.36372653 0.0361532365 0)
(2.381161679 0.0360631021 0)
(2.39834962 0.0361974637 0)
(2.416058299 0.03639151066 0)
(2.434732358 0.03677773693 0)
(2.454225992 0.03734496015 0)
(2.473865219 0.03770737714 0)
(2.49282332 0.03760218675 0)
(2.510346031 0.03726965337 0)
(2.525826281 0.03701786441 0)
(2.539183922 0.03697716038 0)
(2.551144705 0.03707050594 0)
(2.562834664 0.03702379595 0)
(2.574992687 0.03693592823 0)
(2.587851737 0.03676090874 0)
(2.601634108 0.03674653187 0)
(2.616053549 0.03706582324 0)
(2.630901728 0.03765633045 0)
(2.646048812 0.03801853846 0)
(2.659862266 0.03781024805 0)
(2.672511072 0.03828441654 0)
(2.683248724 0.03689925546 0)
(2.694000552 0.03492635299 0)
(2.120809863 0.04680669131 0)
(2.150713251 0.04824360846 0)
(2.179828279 0.05065109919 0)
(2.208268269 0.0531164752 0)
(2.236071567 0.05455790014 0)
(2.262916071 0.05454194915 0)
(2.288127995 0.05330438989 0)
(2.311105305 0.05160933329 0)
(2.33172331 0.05015419688 0)
(2.350471015 0.04942868292 0)
(2.36825347 0.04943752588 0)
(2.386032082 0.049935449 0)
(2.404490148 0.05062188974 0)
(2.423824719 0.0513830356 0)
(2.443580465 0.05206641658 0)
(2.463019655 0.05237171263 0)
(2.481633203 0.05221050039 0)
(2.499099722 0.05180495759 0)
(2.514937999 0.05140178669 0)
(2.528697362 0.05115208267 0)
(2.540686005 0.05088415433 0)
(2.55215418 0.05041740015 0)
(2.564395088 0.05032266491 0)
(2.577956693 0.05054089279 0)
(2.592671042 0.05116608398 0)
(2.607743103 0.05200709247 0)
(2.622550572 0.05246984821 0)
(2.63690121 0.05231415547 0)
(2.650592009 0.05154379328 0)
(2.66270435 0.05153655355 0)
(2.67504748 0.05031822975 0)
(2.686556191 0.04946836192 0)
(2.10903178 0.05903417718 0)
(2.138985609 0.06139792673 0)
(2.167592686 0.06466188147 0)
(2.19559969 0.06769613069 0)
(2.223383976 0.06917247902 0)
(2.250555869 0.06873106516 0)
(2.276183004 0.06699366316 0)
(2.299432647 0.06508770329 0)
(2.32011986 0.06373443931 0)
(2.338941363 0.06321744558 0)
(2.35704473 0.06336630294 0)
(2.375354957 0.06394122561 0)
(2.394334573 0.06460403214 0)
(2.414003951 0.06531425124 0)
(2.433941041 0.06615559773 0)
(2.453505576 0.06695419666 0)
(2.472132027 0.06736717392 0)
(2.489473006 0.06708026351 0)
(2.505332711 0.06622692561 0)
(2.519531557 0.06568753062 0)
(2.532173957 0.06563422536 0)
(2.544231187 0.06540018371 0)
(2.556890984 0.06528558589 0)
(2.570521728 0.06522427095 0)
(2.584892707 0.06554853221 0)
(2.599499797 0.06609978539 0)
(2.614120697 0.06647049333 0)
(2.628693217 0.06635789717 0)
(2.64247837 0.06600170257 0)
(2.655027726 0.06594834472 0)
(2.667275071 0.06464089777 0)
(2.678425192 0.0634973682 0)
(2.101973437 0.07073728968 0)
(2.13146066 0.07419560007 0)
(2.159240901 0.07798681322 0)
(2.186555422 0.08110406198 0)
(2.214080552 0.08259383707 0)
(2.241376104 0.08223002539 0)
(2.267272718 0.0805041894 0)
(2.290708338 0.07855869557 0)
(2.311352576 0.07725017744 0)
(2.330020777 0.07685804915 0)
(2.348191872 0.07715479646 0)
(2.366905329 0.07793516372 0)
(2.386404738 0.07881596575 0)
(2.406439571 0.07974697263 0)
(2.426458075 0.08075504421 0)
(2.445778033 0.08146961803 0)
(2.463962319 0.08164413905 0)
(2.481001894 0.08137085051 0)
(2.49704937 0.08054028864 0)
(2.51184026 0.07975509489 0)
(2.524792335 0.07931323544 0)
(2.53655718 0.07853140234 0)
(2.548982795 0.07812511167 0)
(2.562891583 0.07843989597 0)
(2.577804934 0.07941933843 0)
(2.592960824 0.0804121455 0)
(2.608009103 0.08087472355 0)
(2.62251108 0.08073941527 0)
(2.635654739 0.08042656077 0)
(2.647842631 0.07964890542 0)
(2.65942473 0.077967491 0)
(2.670127705 0.07655219174 0)
(2.101270665 0.08446736029 0)
(2.130010047 0.08862260668 0)
(2.157006075 0.09261834708 0)
(2.183576171 0.09559103016 0)
(2.210318445 0.09675764889 0)
(2.236751724 0.09595024094 0)
(2.26189419 0.09379567995 0)
(2.28507583 0.09180296595 0)
(2.306054366 0.09101055747 0)
(2.325130406 0.09127963802 0)
(2.343337189 0.09183076171 0)
(2.361811156 0.0924423689 0)
(2.381022275 0.09302404126 0)
(2.400789112 0.09375630696 0)
(2.420580677 0.09470545289 0)
(2.439864918 0.09559985288 0)
(2.458332608 0.09631835885 0)
(2.475643127 0.09662958905 0)
(2.491557236 0.09557198768 0)
(2.506343634 0.09384136809 0)
(2.520016648 0.09321269237 0)
(2.532421247 0.093100391 0)
(2.54455755 0.09286740765 0)
(2.557875581 0.09276772458 0)
(2.572352898 0.09317904153 0)
(2.587336834 0.09381990557 0)
(2.602409673 0.09412671915 0)
(2.616787258 0.09435164488 0)
(2.629708875 0.09441148943 0)
(2.641860416 0.09379960507 0)
(2.653595557 0.09240977943 0)
(2.664601459 0.09129195097 0)
(2.104498372 0.09760619571 0)
(2.134289119 0.1029847993 0)
(2.161164451 0.1074395715 0)
(2.186465507 0.1102268182 0)
(2.211691314 0.1108817427 0)
(2.236849151 0.1098757732 0)
(2.260974962 0.1079151285 0)
(2.283417518 0.1060847186 0)
(2.304232688 0.1053767582 0)
(2.323834799 0.1059921754 0)
(2.342400549 0.1068986523 0)
(2.360574081 0.1075557696 0)
(2.379146485 0.1079481948 0)
(2.398347514 0.1084731664 0)
(2.417692014 0.1093264209 0)
(2.436674855 0.1102793316 0)
(2.454710792 0.1107680221 0)
(2.471368228 0.110407288 0)
(2.486972486 0.1092451483 0)
(2.502169857 0.1078932612 0)
(2.516573417 0.1070181766 0)
(2.529379182 0.1066986581 0)
(2.540468727 0.1061492583 0)
(2.553065649 0.105999277 0)
(2.567929543 0.1069298976 0)
(2.58339683 0.107937539 0)
(2.5984681 0.108094534 0)
(2.612490181 0.108298053 0)
(2.625257566 0.1085514852 0)
(2.637150767 0.1082702208 0)
(2.648365275 0.1065954831 0)
(2.6589064 0.1048721896 0)
(2.104254874 0.1105083005 0)
(2.133572344 0.1161149083 0)
(2.161487505 0.1209138415 0)
(2.188069183 0.1237218906 0)
(2.213601953 0.1243139957 0)
(2.238254501 0.1234653736 0)
(2.261623155 0.1219283686 0)
(2.283244142 0.1203803791 0)
(2.303393379 0.1197470849 0)
(2.323155077 0.1204416197 0)
(2.34239129 0.121728296 0)
(2.360808113 0.1226322818 0)
(2.379179427 0.1229493016 0)
(2.398190254 0.1232993687 0)
(2.417314137 0.1241259597 0)
(2.435796439 0.1249179912 0)
(2.453293774 0.1251509283 0)
(2.469937183 0.1250010386 0)
(2.485661891 0.1242603419 0)
(2.500035566 0.1225137204 0)
(2.513078975 0.1203649689 0)
(2.52620548 0.1200693531 0)
(2.538412243 0.1207034795 0)
(2.550514739 0.1200181222 0)
(2.564242026 0.1200185004 0)
(2.578917009 0.1206034817 0)
(2.593924767 0.1209961742 0)
(2.608481007 0.1219574383 0)
(2.621823028 0.1226787776 0)
(2.633679828 0.1227262885 0)
(2.644514651 0.1211363003 0)
(2.655013448 0.11917902 0)
(2.109883956 0.1248367925 0)
(2.137298708 0.131035806 0)
(2.162669253 0.1351907504 0)
(2.187219678 0.1368248887 0)
(2.211771526 0.1365955322 0)
(2.236126223 0.1356493663 0)
(2.260027859 0.1347809263 0)
(2.283729241 0.1345264429 0)
(2.307195152 0.1347464919 0)
(2.329264547 0.1355644503 0)
(2.349395351 0.1367791853 0)
(2.368427786 0.1378228501 0)
(2.386666281 0.1384056238 0)
(2.403942783 0.138843663 0)
(2.420968262 0.1394889022 0)
(2.437932931 0.1399924694 0)
(2.454516033 0.1401111711 0)
(2.470226591 0.139746585 0)
(2.484707187 0.1379295186 0)
(2.499157397 0.1360111869 0)
(2.515507623 0.1360394033 0)
(2.531559493 0.1363761973 0)
(2.546229856 0.1370708675 0)
(2.558723869 0.1370880145 0)
(2.56821149 0.1365006687 0)
(2.578523271 0.1354820016 0)
(2.59159337 0.1349021317 0)
(2.605794391 0.1354751683 0)
(2.619503987 0.1362586016 0)
(2.632102325 0.1370538364 0)
(2.643239422 0.1361628757 0)
(2.653121706 0.1334403502 0)
(2.104744776 0.1390160293 0)
(2.133532414 0.1444834074 0)
(2.161696089 0.1485744685 0)
(2.188847759 0.1504144994 0)
(2.21426129 0.1502765127 0)
(2.238184854 0.149414451 0)
(2.261320352 0.148777469 0)
(2.283595548 0.1487158704 0)
(2.304806089 0.148864705 0)
(2.325025454 0.1495724424 0)
(2.34424148 0.150621566 0)
(2.363092329 0.1513517903 0)
(2.382350404 0.1520509997 0)
(2.401801415 0.1531013694 0)
(2.420578626 0.1542104561 0)
(2.4384333 0.1548670498 0)
(2.455149746 0.1548083851 0)
(2.47082526 0.1542210927 0)
(2.486127669 0.1527195674 0)
(2.501087511 0.1512096237 0)
(2.514777574 0.150238622 0)
(2.527915193 0.1494720798 0)
(2.541612403 0.1493361716 0)
(2.554697435 0.1500008271 0)
(2.567959163 0.1509382612 0)
(2.582446133 0.150483361 0)
(2.59696155 0.1500197374 0)
(2.610240478 0.1506605302 0)
(2.622255653 0.1511753246 0)
(2.633294646 0.1514071606 0)
(2.643708277 0.1504110966 0)
(2.654952802 0.1484860021 0)
(2.109324352 0.1536970058 0)
(2.136922285 0.1588239399 0)
(2.163405228 0.1622397881 0)
(2.188459329 0.1634708157 0)
(2.212345599 0.163113362 0)
(2.235541317 0.1623763582 0)
(2.258496992 0.1621112708 0)
(2.28122656 0.1627489955 0)
(2.303208441 0.1636321566 0)
(2.32377377 0.1642545788 0)
(2.343340245 0.1660329593 0)
(2.362836042 0.1673628832 0)
(2.381768247 0.1676961739 0)
(2.400339288 0.1678069247 0)
(2.418390716 0.1684238568 0)
(2.436055624 0.1688554028 0)
(2.453100611 0.1686362657 0)
(2.469049131 0.1678320918 0)
(2.483767414 0.1664338737 0)
(2.497620904 0.1649470313 0)
(2.511183446 0.1632823429 0)
(2.525324998 0.1629122563 0)
(2.539939066 0.1641109083 0)
(2.55412584 0.1650881775 0)
(2.56806718 0.1658671311 0)
(2.581591738 0.1642134881 0)
(2.595634793 0.163384993 0)
(2.609924035 0.1648042843 0)
(2.622823791 0.1655838381 0)
(2.634421512 0.1655804198 0)
(2.645637796 0.1648492169 0)
(2.655773179 0.1633526772 0)
(2.105010368 0.1668669241 0)
(2.132816042 0.1715265916 0)
(2.160184087 0.1747225887 0)
(2.186383332 0.1760763357 0)
(2.211504946 0.1763287068 0)
(2.236046074 0.1765211756 0)
(2.260089332 0.1770755999 0)
(2.283369931 0.1781185004 0)
(2.305565959 0.1792550815 0)
(2.327165957 0.179929903 0)
(2.347933653 0.179902094 0)
(2.368220728 0.1802409524 0)
(2.388279478 0.1810895206 0)
(2.40659663 0.1824110265 0)
(2.423052632 0.1838295129 0)
(2.438578183 0.1842731476 0)
(2.453684261 0.1835770012 0)
(2.468452108 0.1823604052 0)
(2.482975992 0.1806869353 0)
(2.497661418 0.1792119511 0)
(2.513301824 0.1787038737 0)
(2.529083055 0.1781979492 0)
(2.54391737 0.1781259458 0)
(2.559065254 0.1785831403 0)
(2.573612115 0.179438525 0)
(2.587465888 0.1796170025 0)
(2.598670705 0.1789752493 0)
(2.609345405 0.1792613701 0)
(2.621137056 0.1793166877 0)
(2.633394212 0.1796970218 0)
(2.644503401 0.178889979 0)
(2.653899504 0.1769673434 0)
(2.103504769 0.1798076002 0)
(2.130615828 0.1835714605 0)
(2.157957131 0.1863409148 0)
(2.184804299 0.1882723599 0)
(2.210028216 0.1894479606 0)
(2.233342854 0.1903207265 0)
(2.255710698 0.1911034421 0)
(2.278167317 0.1921151359 0)
(2.300512895 0.1932459887 0)
(2.321693305 0.1942535038 0)
(2.343179739 0.1941320002 0)
(2.36386611 0.1941574557 0)
(2.382536254 0.1950640013 0)
(2.40021527 0.1966146891 0)
(2.417754343 0.1977983887 0)
(2.434519781 0.1980529779 0)
(2.450870034 0.1972658368 0)
(2.466727894 0.1961888469 0)
(2.481912818 0.194375081 0)
(2.49656359 0.1929154203 0)
(2.510953668 0.1927409386 0)
(2.525619844 0.1925541042 0)
(2.541579671 0.1924507585 0)
(2.556414809 0.192926734 0)
(2.569833233 0.1932212811 0)
(2.581656676 0.1935643067 0)
(2.594137131 0.1933659871 0)
(2.607129358 0.1935221122 0)
(2.619160167 0.1931472567 0)
(2.629999742 0.1925317976 0)
(2.640541427 0.1910832048 0)
(2.651486119 0.1897694967 0)
(2.109405203 0.1933723708 0)
(2.134482212 0.1965976026 0)
(2.158162159 0.1985985284 0)
(2.182313705 0.2003663789 0)
(2.206751022 0.2024784477 0)
(2.230735507 0.2046632105 0)
(2.254177485 0.206291277 0)
(2.277277861 0.207463738 0)
(2.300228756 0.2085259199 0)
(2.323162204 0.2093927268 0)
(2.345274143 0.2096335755 0)
(2.365585722 0.2106091105 0)
(2.384753782 0.2119861918 0)
(2.403297864 0.2130701209 0)
(2.421190782 0.2138922058 0)
(2.438245334 0.2138368429 0)
(2.45430463 0.2126451353 0)
(2.469687739 0.2111592434 0)
(2.485236244 0.2091604089 0)
(2.501172067 0.2078564521 0)
(2.516899539 0.2076573225 0)
(2.531685477 0.2074165087 0)
(2.544833139 0.2078042464 0)
(2.556974153 0.2084582279 0)
(2.568661898 0.2091568516 0)
(2.580229856 0.2093679188 0)
(2.591995524 0.208322075 0)
(2.603534611 0.20727091 0)
(2.615765007 0.2073827765 0)
(2.627910753 0.2068379259 0)
(2.639786351 0.2056287623 0)
(2.651465725 0.2043311078 0)
(2.107952669 0.2051737728 0)
(2.132909261 0.2086279976 0)
(2.156110138 0.2107583439 0)
(2.179302468 0.2125811229 0)
(2.203275848 0.2150379061 0)
(2.227531607 0.2178967036 0)
(2.251379124 0.2201553272 0)
(2.274532716 0.221623721 0)
(2.297271477 0.2225081524 0)
(2.319482613 0.2230335294 0)
(2.3403831 0.2237315063 0)
(2.35974977 0.2251400641 0)
(2.378128955 0.2264334331 0)
(2.396161696 0.2272147813 0)
(2.414201041 0.2276180443 0)
(2.43221095 0.2272263239 0)
(2.449727954 0.2259962918 0)
(2.466637723 0.224545352 0)
(2.483105015 0.2226486181 0)
(2.499151199 0.2212813433 0)
(2.514717731 0.2209181628 0)
(2.529581954 0.2214154102 0)
(2.543850683 0.222575601 0)
(2.557428283 0.2235020294 0)
(2.570139402 0.2243072336 0)
(2.583007891 0.224537523 0)
(2.595537831 0.2240720474 0)
(2.608193658 0.2230660461 0)
(2.61968712 0.2210387129 0)
(2.632313705 0.2196535168 0)
(2.645075107 0.2179745963 0)
(2.657482654 0.2164614705 0)
(2.115266892 0.2205822005 0)
(2.139218469 0.2233848183 0)
(2.162155232 0.2249339938 0)
(2.185367647 0.2269091943 0)
(2.208974572 0.2299416689 0)
(2.232577223 0.2332964164 0)
(2.255604328 0.2357047231 0)
(2.277878899 0.2370141779 0)
(2.29970975 0.2376222079 0)
(2.321076636 0.2382315133 0)
(2.341721722 0.239485415 0)
(2.361513766 0.2412678991 0)
(2.38021959 0.242607391 0)
(2.397782756 0.2431229259 0)
(2.414887738 0.242912256 0)
(2.432270356 0.2419366088 0)
(2.450040955 0.2404088234 0)
(2.467750473 0.2390911896 0)
(2.484619425 0.2374543831 0)
(2.49976352 0.2360260957 0)
(2.513194021 0.2354145821 0)
(2.526083501 0.2356022358 0)
(2.53971508 0.2363566827 0)
(2.554338305 0.2374692275 0)
(2.569133067 0.2386745401 0)
(2.583532769 0.239067151 0)
(2.596202551 0.2389211047 0)
(2.606016001 0.2377411338 0)
(2.617610329 0.2347720898 0)
(2.630068424 0.2332320069 0)
(2.642792763 0.2314272756 0)
(2.65510319 0.2297766755 0)
(2.113991657 0.2323851077 0)
(2.137039921 0.2359481366 0)
(2.159379571 0.2374705727 0)
(2.182372388 0.2392161472 0)
(2.205984708 0.242380556 0)
(2.229575448 0.2461516607 0)
(2.252551636 0.2490217112 0)
(2.274916002 0.2506694465 0)
(2.296752393 0.2514966175 0)
(2.317745955 0.2524383364 0)
(2.33796831 0.2537378513 0)
(2.357776694 0.255287302 0)
(2.376927922 0.2566767827 0)
(2.395284893 0.2574571285 0)
(2.413322811 0.2574009582 0)
(2.431287642 0.2564348334 0)
(2.448947477 0.2549219944 0)
(2.465898477 0.2536766128 0)
(2.482052842 0.2520909698 0)
(2.497421154 0.2510523834 0)
(2.512238407 0.2511177177 0)
(2.526771655 0.2515138331 0)
(2.540706955 0.2519900325 0)
(2.553516177 0.2523677753 0)
(2.565831933 0.2526080835 0)
(2.579063392 0.2523580169 0)
(2.591927836 0.2524823317 0)
(2.604192022 0.2514255166 0)
(2.616234298 0.2488940671 0)
(2.627986279 0.2473132814 0)
(2.639970539 0.2453574197 0)
(2.651674306 0.2435507001 0)
(2.121715577 0.2482109657 0)
(2.145717802 0.2518133725 0)
(2.167651061 0.2533717297 0)
(2.189443564 0.25530977 0)
(2.212237294 0.258689504 0)
(2.235706654 0.2627091538 0)
(2.25893564 0.2656396954 0)
(2.281412118 0.2669138039 0)
(2.303064667 0.2673271228 0)
(2.324016469 0.2682693279 0)
(2.343975679 0.2698457617 0)
(2.361996331 0.2712988999 0)
(2.377991782 0.2720837505 0)
(2.393390677 0.2719403495 0)
(2.409452524 0.2710049503 0)
(2.426326116 0.2695300223 0)
(2.443404721 0.2679491704 0)
(2.460039423 0.2668560612 0)
(2.476081161 0.2654530709 0)
(2.491533842 0.2646522026 0)
(2.506642783 0.2648419837 0)
(2.52160174 0.2653154941 0)
(2.536426548 0.2662135621 0)
(2.551504043 0.2671798616 0)
(2.567313459 0.267559075 0)
(2.582754926 0.2669681436 0)
(2.596506859 0.2665935076 0)
(2.609065861 0.2653113448 0)
(2.620767387 0.263004071 0)
(2.632141024 0.2616976694 0)
(2.643776401 0.2604265992 0)
(2.654880537 0.2587588005 0)
(2.120077584 0.2585157797 0)
(2.144650224 0.262922239 0)
(2.166561542 0.2651987357 0)
(2.187926601 0.2675353628 0)
(2.210301789 0.2709883907 0)
(2.233537475 0.2752361803 0)
(2.256567666 0.2786322758 0)
(2.278597361 0.280549829 0)
(2.299711535 0.2815184196 0)
(2.320539756 0.2824944881 0)
(2.341045915 0.2840805148 0)
(2.360558436 0.2862165081 0)
(2.37889082 0.2877457541 0)
(2.396338832 0.287843236 0)
(2.413461141 0.2869212623 0)
(2.430609211 0.2855307363 0)
(2.44754094 0.2842160154 0)
(2.463745504 0.2834312884 0)
(2.479101423 0.282155609 0)
(2.493392355 0.281182528 0)
(2.506724896 0.2807468001 0)
(2.519903897 0.2804757778 0)
(2.533806814 0.2807729865 0)
(2.548746741 0.281068787 0)
(2.563977352 0.2807146016 0)
(2.578213724 0.2798042138 0)
(2.591504273 0.2787798136 0)
(2.603809935 0.2774697775 0)
(2.614995556 0.2756100933 0)
(2.625970135 0.2745690057 0)
(2.637355676 0.2733285749 0)
(2.648582931 0.2721547563 0)
(2.118994017 0.2731645688 0)
(2.14522056 0.2784095261 0)
(2.169707277 0.2818611907 0)
(2.193264147 0.2848143446 0)
(2.216949847 0.2883593165 0)
(2.240949839 0.2924138849 0)
(2.264575959 0.2956965143 0)
(2.286844961 0.2976484084 0)
(2.307225723 0.2983856408 0)
(2.3257071 0.2987211285 0)
(2.342857508 0.299429398 0)
(2.359565468 0.3006415015 0)
(2.376435533 0.3014249873 0)
(2.39359882 0.3011825482 0)
(2.410848343 0.3003068474 0)
(2.427906356 0.2991682704 0)
(2.444496131 0.2981505859 0)
(2.460481065 0.2977372222 0)
(2.476134353 0.2969382957 0)
(2.491452423 0.2965761668 0)
(2.506344501 0.296583704 0)
(2.52081297 0.2963169343 0)
(2.534826549 0.2963268467 0)
(2.548343911 0.2959499657 0)
(2.561554784 0.2943692855 0)
(2.574766564 0.2925457037 0)
(2.587411643 0.2914487033 0)
(2.599085014 0.2904491455 0)
(2.609762436 0.2888735963 0)
(2.620397564 0.2876373084 0)
(2.631886206 0.286031915 0)
(2.643986928 0.2852516042 0)
(2.113182541 0.2818198213 0)
(2.140532463 0.2880652972 0)
(2.166675935 0.2932185039 0)
(2.191504614 0.2971402476 0)
(2.215582954 0.3008418528 0)
(2.239693112 0.304976469 0)
(2.263704763 0.3088510332 0)
(2.286677055 0.3118656615 0)
(2.308199153 0.3138436655 0)
(2.328367471 0.3151339331 0)
(2.347215149 0.3161529413 0)
(2.364771 0.3171556783 0)
(2.38129222 0.3174945604 0)
(2.39698028 0.3166313235 0)
(2.412034224 0.3150634605 0)
(2.426798847 0.313305843 0)
(2.441577148 0.3119362002 0)
(2.456525858 0.3114668367 0)
(2.471780463 0.3106499409 0)
(2.487048211 0.3102635721 0)
(2.502139459 0.3103145093 0)
(2.517196117 0.310176221 0)
(2.53247761 0.3104108609 0)
(2.548069915 0.3104945032 0)
(2.563564779 0.3098264304 0)
(2.577547613 0.3079670468 0)
(2.589976417 0.3063952543 0)
(2.601675029 0.3054964273 0)
(2.612738524 0.3044987459 0)
(2.623100788 0.3039838843 0)
(2.634333848 0.3022800987 0)
(2.646356544 0.2997314451 0)
(2.110000317 0.2957179388 0)
(2.137221711 0.3027806136 0)
(2.164421556 0.3089220184 0)
(2.190960348 0.3137372349 0)
(2.216370542 0.3177310737 0)
(2.240751946 0.3214856497 0)
(2.264114286 0.3247349009 0)
(2.286198489 0.3271461256 0)
(2.307039204 0.3284759735 0)
(2.326901746 0.3293453841 0)
(2.345983567 0.3302503776 0)
(2.364377379 0.3313818225 0)
(2.382219475 0.3321200699 0)
(2.399472654 0.3318863765 0)
(2.416012057 0.3310220524 0)
(2.432006933 0.3298782257 0)
(2.447687286 0.3288412706 0)
(2.462990983 0.3283632953 0)
(2.477809286 0.3273368097 0)
(2.49170082 0.3266069914 0)
(2.505042318 0.3262506338 0)
(2.518754239 0.3256449394 0)
(2.532791332 0.3251991705 0)
(2.546774492 0.3244572056 0)
(2.559894545 0.3230571971 0)
(2.571784605 0.3210219685 0)
(2.583568309 0.3195237744 0)
(2.594909891 0.3184596424 0)
(2.606345487 0.3169445445 0)
(2.617620344 0.3164715635 0)
(2.628509363 0.315270797 0)
(2.640260596 0.3132166312 0)
(2.104448978 0.3054286687 0)
(2.131463182 0.3126494245 0)
(2.158678425 0.3191401997 0)
(2.185472667 0.3246409559 0)
(2.211352854 0.3296882909 0)
(2.236475898 0.3347118785 0)
(2.261111577 0.3394300852 0)
(2.284907631 0.3430446517 0)
(2.307150901 0.3449271331 0)
(2.327457424 0.3454755505 0)
(2.346211058 0.3454384307 0)
(2.36412725 0.3457125711 0)
(2.381711649 0.3461020172 0)
(2.398963264 0.3460071506 0)
(2.415622318 0.3455094296 0)
(2.43153542 0.3445850459 0)
(2.446717284 0.343402151 0)
(2.461304795 0.3425456274 0)
(2.475553602 0.341239827 0)
(2.489318148 0.3405324369 0)
(2.50304943 0.3403064366 0)
(2.517571208 0.3396950089 0)
(2.532895601 0.3394466118 0)
(2.547860465 0.339482329 0)
(2.561349953 0.3392437316 0)
(2.573650045 0.3380093443 0)
(2.585123199 0.3366191873 0)
(2.596043247 0.335050702 0)
(2.606560769 0.3321874477 0)
(2.616671553 0.3307350723 0)
(2.627048313 0.3293552889 0)
(2.63811969 0.3282044052 0)
(2.104146081 0.3233542967 0)
(2.130711052 0.3298217008 0)
(2.156966408 0.3356644434 0)
(2.183438403 0.3408877529 0)
(2.208832071 0.3453150324 0)
(2.232905701 0.34933967 0)
(2.256700045 0.3531251461 0)
(2.280570085 0.3564779275 0)
(2.303710943 0.3588062145 0)
(2.325265647 0.3599443437 0)
(2.345149109 0.3602879574 0)
(2.36378752 0.3605270147 0)
(2.38165711 0.3608352838 0)
(2.398897144 0.3609009373 0)
(2.415408535 0.3607008838 0)
(2.431260903 0.3600405816 0)
(2.44671398 0.3590460444 0)
(2.461965067 0.3583525143 0)
(2.477285067 0.3572191938 0)
(2.492644075 0.356704105 0)
(2.508103065 0.3563643756 0)
(2.522867051 0.3554077695 0)
(2.535643785 0.3545262109 0)
(2.547185613 0.3537985754 0)
(2.558818988 0.3530583378 0)
(2.570819276 0.3517153058 0)
(2.582584923 0.3505417308 0)
(2.594398072 0.3493486968 0)
(2.606843184 0.3475255282 0)
(2.618776078 0.3459360984 0)
(2.6296418 0.3442484391 0)
(2.639289903 0.3426484279 0)
(2.099544162 0.335047889 0)
(2.1258154 0.3415825871 0)
(2.152064795 0.3467227593 0)
(2.178930345 0.3525137123 0)
(2.20540613 0.3590214488 0)
(2.23064231 0.3648756952 0)
(2.254781999 0.3691689801 0)
(2.278067756 0.3719177917 0)
(2.300468277 0.3734073215 0)
(2.321775577 0.3741510214 0)
(2.341997553 0.3745399576 0)
(2.361394888 0.3750856986 0)
(2.380143827 0.3757206924 0)
(2.398168554 0.3762123221 0)
(2.415292985 0.3765121853 0)
(2.431566408 0.3762005246 0)
(2.447250451 0.3752722519 0)
(2.462549068 0.3744483782 0)
(2.477807987 0.3731310906 0)
(2.492904659 0.3723520377 0)
(2.508090697 0.3717238829 0)
(2.523426723 0.3711740673 0)
(2.538315339 0.3711533406 0)
(2.552173482 0.3708149482 0)
(2.564283764 0.3701279253 0)
(2.574400368 0.3684264517 0)
(2.583782301 0.3665530889 0)
(2.593997445 0.3646539035 0)
(2.604452459 0.3622407595 0)
(2.614261752 0.3587974323 0)
(2.62459202 0.3568299027 0)
(2.63628746 0.3561193174 0)
(2.094082579 0.354003339 0)
(2.121912108 0.3576027541 0)
(2.149724191 0.3626952919 0)
(2.176555264 0.3675128493 0)
(2.202064423 0.3727761423 0)
(2.226738017 0.3781301612 0)
(2.250882326 0.3826157628 0)
(2.274356937 0.3858024014 0)
(2.296820121 0.387519181 0)
(2.317991076 0.3882430626 0)
(2.338118354 0.3885827838 0)
(2.357679305 0.3892337189 0)
(2.376907784 0.3902434997 0)
(2.395614002 0.3911862649 0)
(2.413414204 0.3920410615 0)
(2.430166142 0.392059818 0)
(2.445938195 0.3909421845 0)
(2.460782366 0.3894442506 0)
(2.475234124 0.3872973212 0)
(2.48976332 0.3860133666 0)
(2.504892516 0.3852541775 0)
(2.520390299 0.3845497184 0)
(2.535708965 0.3843790227 0)
(2.550237032 0.3844419779 0)
(2.563144951 0.3848322875 0)
(2.574521683 0.3844593827 0)
(2.58498493 0.3834209317 0)
(2.59514992 0.3810624047 0)
(2.604303286 0.3770884071 0)
(2.614831075 0.374395718 0)
(2.627961183 0.3716020259 0)
(2.640576775 0.3690575977 0)
(2.089839101 0.362885491 0)
(2.115892345 0.3690606215 0)
(2.143367327 0.3733747892 0)
(2.171005296 0.3805598629 0)
(2.198388055 0.3883284312 0)
(2.224210305 0.3941886111 0)
(2.248226479 0.397963497 0)
(2.271049858 0.4002737048 0)
(2.293102545 0.4016864568 0)
(2.3142994 0.4027450749 0)
(2.334678574 0.4034214825 0)
(2.354426833 0.4040159589 0)
(2.373720388 0.4048457461 0)
(2.392424713 0.4056852986 0)
(2.410164367 0.4063937441 0)
(2.427022195 0.406373952 0)
(2.443517646 0.4057437056 0)
(2.460046211 0.4054952441 0)
(2.476947398 0.4048039892 0)
(2.493786546 0.4042015834 0)
(2.51033078 0.4035002705 0)
(2.526117469 0.4027130901 0)
(2.540008901 0.4017725296 0)
(2.551431598 0.4002634078 0)
(2.561120736 0.3987805168 0)
(2.570625383 0.3967436297 0)
(2.580886664 0.3947033751 0)
(2.592181899 0.3929132002 0)
(2.605200896 0.3915565384 0)
(2.617097071 0.3898814538 0)
(2.627176994 0.3861813095 0)
(2.639704762 0.382854158 0)
(2.110384122 0.3804150296 0)
(2.118879657 0.3864718377 0)
(2.139873411 0.3884692891 0)
(2.164453725 0.3923803017 0)
(2.191324344 0.3996660838 0)
(2.21813806 0.4072027916 0)
(2.243501056 0.4123479774 0)
(2.26712137 0.4148983172 0)
(2.289352937 0.4159932316 0)
(2.310566934 0.4169515554 0)
(2.331183269 0.4180870004 0)
(2.351480033 0.4193369056 0)
(2.371368335 0.4203698306 0)
(2.390463275 0.4212128039 0)
(2.408382637 0.4219761271 0)
(2.425254476 0.421889077 0)
(2.441458053 0.4209209809 0)
(2.457223513 0.4200162262 0)
(2.473322348 0.4185727621 0)
(2.489890764 0.4175983622 0)
(2.506785296 0.4169960292 0)
(2.523448015 0.4168067477 0)
(2.539086378 0.4173481529 0)
(2.552978122 0.4175289012 0)
(2.564818172 0.4166491712 0)
(2.575675093 0.4141068465 0)
(2.586252709 0.4114341664 0)
(2.596357821 0.4096502725 0)
(2.605916357 0.4077175554 0)
(2.615865698 0.4048280622 0)
(2.627262924 0.3999890471 0)
(2.638521873 0.3958729098 0)
(2.12212848 0.3861860446 0)
(2.13039079 0.403375393 0)
(2.146364285 0.4063470754 0)
(2.1662691 0.4090560232 0)
(2.188754408 0.4139981168 0)
(2.212943099 0.4198712817 0)
(2.237446523 0.425033256 0)
(2.261402945 0.4283653441 0)
(2.284550874 0.4301738204 0)
(2.306649701 0.431489862 0)
(2.327658261 0.4324503144 0)
(2.347969263 0.4332510066 0)
(2.368011814 0.4341834656 0)
(2.387321268 0.4349612681 0)
(2.405135592 0.4354239092 0)
(2.421906588 0.4353669401 0)
(2.438517454 0.4354361887 0)
(2.455254853 0.4362971665 0)
(2.472479131 0.4364473842 0)
(2.489843218 0.4362759803 0)
(2.506865557 0.4353148465 0)
(2.522558753 0.4334393435 0)
(2.536357236 0.4315469502 0)
(2.548909659 0.4298246003 0)
(2.560720794 0.4281413688 0)
(2.572177722 0.4255905639 0)
(2.582710577 0.4232249046 0)
(2.592153802 0.4211500484 0)
(2.602015453 0.4187966124 0)
(2.614130162 0.4163932829 0)
(2.628650189 0.4137065676 0)
(2.643005256 0.4114453365 0)
(2.179248474 0.3528329357 0)
(2.149779665 0.420106227 0)
(2.157058398 0.4244763181 0)
(2.174050992 0.4266825175 0)
(2.192976672 0.4304932147 0)
(2.213229212 0.4349607267 0)
(2.234213278 0.4382008781 0)
(2.256009755 0.4407076747 0)
(2.278445169 0.4432002916 0)
(2.301053064 0.4457507642 0)
(2.323412605 0.4478678481 0)
(2.345129069 0.4491216447 0)
(2.365874545 0.449574597 0)
(2.385446471 0.4498585664 0)
(2.403528134 0.4503073663 0)
(2.420149896 0.4500572959 0)
(2.435753791 0.4495357981 0)
(2.451414043 0.4499031701 0)
(2.468195537 0.4500393324 0)
(2.485779134 0.4504887274 0)
(2.503593576 0.4506804335 0)
(2.520794467 0.4502836324 0)
(2.536533266 0.4494786833 0)
(2.550610769 0.4480790354 0)
(2.563179259 0.4462283366 0)
(2.574548642 0.4431656142 0)
(2.584696042 0.4400759337 0)
(2.595171041 0.4374070039 0)
(2.607316332 0.4344648835 0)
(2.620079149 0.4317262257 0)
(2.63176957 0.4290922422 0)
(2.641495838 0.4260381302 0)
(2.263867802 0.3118124371 0)
(2.159885977 0.4328176474 0)
(2.166017763 0.4444941937 0)
(2.18193855 0.4452414126 0)
(2.199915644 0.4474578393 0)
(2.218453668 0.4512254067 0)
(2.236823412 0.4537548665 0)
(2.255284494 0.4550689834 0)
(2.274572682 0.4564769408 0)
(2.29514088 0.4586382091 0)
(2.316956239 0.4607093533 0)
(2.339372666 0.4624845289 0)
(2.361418828 0.4635733532 0)
(2.381914795 0.4637164012 0)
(2.400421295 0.4636692976 0)
(2.417880683 0.4642139949 0)
(2.434890718 0.4659019045 0)