/*--------------------------------*- C++ -*----------------------------------*\
  =========                 |
  \\      /  F ield         | OpenFOAM: The Open Source CFD Toolbox
   \\    /   O peration     | Website:  https://openfoam.org
    \\  /    A nd           | Version:  7
     \\/     M anipulation  |
\*---------------------------------------------------------------------------*/
FoamFile
{
    version     2.0;
    format      ascii;
    class       volScalarField;
    location    "1.7";
    object      p;
}
// * * * * * * * * * * * * * * * * * * * * * * * * * * * * * * * * * * * * * //

dimensions      [1 -1 -2 0 0 0 0];

internalField   nonuniform List<scalar> 
2223
(
1.359925578
1.320548398
1.272502977
1
1
1
1
1
1
1
1.000000004
1.000000786
1.000023186
1.001097271
1.015868747
1.131657839
1.488020446
1.869861423
1.958378108
2.009610245
2.053329429
2.052603391
2.050795894
2.048412109
2.041889702
2.027214681
1.999879462
1.962954504
1.917007057
1.853285458
1.792827913
1.736349306
1.665496768
1.604736512
1.557004775
1.499139606
1.44137028
1.398887027
1.357888754
1.308321596
1
1
1
1
1
1
1
1
1.000000031
1.000001019
1.000090561
1.001738522
1.027718663
1.190551156
1.560117594
1.896615984
2.035464816
2.045822684
2.044654022
2.048689418
2.050510858
2.047669249
2.037990181
2.017989882
1.987814554
1.948414309
1.891920184
1.834996082
1.781035267
1.711833798
1.650008216
1.601355672
1.542541276
1.483132638
1.439125063
1.396450718
1.344792915
1
1
1
1
1
1
1
1
1.000000001
1.000000036
1.000005444
1.000126471
1.004042718
1.041100834
1.262327898
1.692676663
1.968423385
1.988157885
2.023495395
2.053057859
2.057464272
2.053236864
2.045651863
2.031506095
2.007809389
1.974829302
1.926303718
1.874041404
1.823275958
1.756610562
1.694410829
1.645410904
1.586156047
1.525332173
1.479955262
1.435643187
1.382259453
1
1
1
1
1
1
1
1
1
1.000000001
1.000000235
1.000006641
1.000407915
1.005667555
1.0775372
1.345178234
1.722558966
1.934774616
2.048890848
2.063519421
2.058526134
2.054314871
2.050509678
2.042022295
2.024005574
1.996537308
1.955697984
1.908817394
1.861856393
1.798885298
1.737002605
1.687971412
1.628806286
1.567133291
1.520693651
1.475031667
1.419770359
1
1
1
1
1
1
1
1
1
1
1.000000007
1.000000253
1.000029942
1.000528067
1.014584792
1.10073882
1.422539455
1.836864837
2.027849833
2.030498963
2.040862909
2.052015346
2.053969029
2.049082007
2.035624405
2.014027676
1.980914112
1.939534986
1.896260787
1.837617893
1.77706171
1.728488874
1.669809907
1.607630398
1.560598214
1.51404085
1.45759693
1
1
1
1
1
1
1
1
1
1
1
1.000000007
1.000001534
1.000035488
1.001794547
1.018074512
1.16339083
1.544078515
1.850708534
1.957369639
2.029981365
2.055479876
2.054162171
2.049608466
2.041953342
2.027748245
2.002331589
1.96621488
1.926592314
1.873135454
1.814901426
1.766963245
1.709147589
1.646869128
1.599576312
1.552554727
1.495223735
1
1
1
1
1
1
1
1
1
1
1
1
1.000000052
1.000001702
1.000147302
1.00207549
1.040242619
1.214162113
1.589426298
1.93561605
2.046188577
2.040144207
2.041442495
2.044381155
2.044828522
2.037964864
2.019620916
1.989648779
1.954562493
1.906907283
1.851741179
1.804478947
1.747682432
1.685334608
1.637787562
1.590411974
1.532698802
1
1
1
1
1
1
1
1
1
1
1
1
1.000000001
1.000000057
1.000007922
1.000163472
1.006233512
1.050333678
1.297184278
1.741971561
1.93926338
1.991041134
2.029177957
2.047172181
2.047114752
2.043456795
2.031696126
2.009037694
1.979697985
1.938621855
1.887325422
1.841086311
1.786074897
1.724223567
1.676264709
1.628372651
1.570092137
1
1
1
1
1
1
1
1
1
1
1
1
1
1.000000001
1.000000278
1.00000927
1.000612878
1.007440432
1.093129612
1.381981306
1.741954522
1.995693682
2.045719498
2.041953257
2.044769651
2.046643001
2.041166504
2.02482996
2.000718571
1.966568761
1.920795938
1.876890708
1.824692189
1.763954853
1.715398502
1.66665109
1.607472445
1
1
1
1
1
1
1
1
1
1
1
1
1
1
1.000000006
1.000000393
1.000038323
1.000732264
1.017551121
1.119992747
1.46507854
1.897485163
1.982686652
2.007109083
2.03705632
2.051214294
2.047889493
2.036267436
2.018174023
1.991005663
1.951116917
1.91025383
1.861981169
1.803544132
1.754622563
1.705172889
1.644847999
1
1
1
1
1
1
1
1
1
1
1
1
1
1
1
1.000000013
1.00000154
1.000050422
1.002052223
1.023168051
1.189711607
1.58017841
1.84259869
1.999697631
2.05078207
2.049647031
2.042484821
2.039742757
2.030347451
2.010617271
1.977200928
1.940321517
1.896616469
1.841453599
1.792865921
1.743279074
1.682175337
1
1
1
1
1
1
1
1
1
1
1
1
1
1
1
1
1.00000004
1.000002572
1.000149182
1.002967417
1.045046176
1.238027801
1.635346798
1.970888876
2.039009648
2.026340809
2.031815515
2.039442278
2.035974935
2.022906339
1.997474998
1.966512852
1.92821904
1.876917481
1.829184216
1.780215018
1.718973946
1
1
1
1
1
1
1
1
1
1
1
1
1
1
1
1
1.000000001
1.000000106
1.000007086
1.000264561
1.006385742
1.060067291
1.329419487
1.753722806
1.928581577
1.993910158
2.045588792
2.042951511
2.038264403
2.028997585
2.011468904
1.987289226
1.954873832
1.908403589
1.862943474
1.815871842
1.755616408
1
1
1
1
1
1
1
1
1
1
1
1
1
1
1
1
1
1.000000004
1.000000229
1.000017829
1.000544685
1.009875048
1.101623242
1.399913975
1.791236933
2.000961028
2.03574471
2.031298845
2.033476993
2.032456988
2.023464108
2.004217161
1.976237901
1.935092403
1.893403603
1.849647006
1.791631517
1
1
1
1
1
1
1
1
1
1
1
1
1
1
1
1
1
1
1.000000006
1.000000906
1.000029827
1.001174983
1.017501103
1.14349715
1.504235081
1.864703159
1.942426066
2.002485611
2.04069473
2.039180574
2.031812855
2.017859769
1.995580818
1.959919249
1.921347461
1.880431038
1.825260853
1
1
1
1
1
1
1
1
1
1
1
1
1
1
1
1
1
1
1
1.000000035
1.000001206
1.000102221
1.001974596
1.03163146
1.197043956
1.561329838
1.901593111
2.030168687
2.035093868
2.033826315
2.034322886
2.028754703
2.012819187
1.983616356
1.948659625
1.910197838
1.857598136
1
1
1
1
1
1
1
1
1
1
1
1
1
1
1
1
1
1
1
1.000000001
1.000000041
1.00000673
1.000150293
1.004688689
1.043450279
1.272069707
1.716515089
1.947853721
1.98004426
2.017700941
2.042003388
2.038192881
2.026345554
2.003800017
1.973397268
1.93795578
1.888368129
1
1
1
1
1
1
1
1
1
1
1
1
1
1
1
1
1
1
1
1
1.000000001
1.00000031
1.000008321
1.000474405
1.006239275
1.085533936
1.365000108
1.721172483
1.948195949
2.046026812
2.049463321
2.040738048
2.03326332
2.020323899
1.995623958
1.96241905
1.916105044
1
1
1
1
1
1
1
1
1
1
1
1
1
1
1
1
1
1
1
1
1
1.000000009
1.000000322
1.000034899
1.000611375
1.016821169
1.109255452
1.439526762
1.847366463
2.02609687
2.022045362
2.028193124
2.038043737
2.033999071
2.015459425
1.985332218
1.943243701
1
1
1
1
1
1
1
1
1
1
1
1
1
1
1
1
1
1
1
1
1
1
1.000000009
1.000001788
1.000041707
1.002070747
1.019620046
1.175328033
1.553976458
1.842940486
1.954424449
2.034607693
2.047128229
2.042995213
2.027611461
2.004225838
1.969141932
1
1
1
1
1
1
1
1
1
1
1
1
1
1
1
1
1
1
1
1
1
1
1
1.000000059
1.000001997
1.000161894
1.002251461
1.043330986
1.220243864
1.595164789
1.936182337
2.037807736
2.029950424
2.033352946
2.032627009
2.019406612
1.991655066
1
1
1
1
1
1
1
1
1
1
1
1
1
1
1
1
1
1
1
1
1
1
1
1.000000001
1.000000068
1.000008308
1.000180468
1.006679039
1.053075615
1.306229629
1.747093686
1.925932399
1.987832904
2.026724987
2.036071019
2.02993634
2.010402483
1
1
1
1
1
1
1
1
1
1
1
1
1
1
1
1
1
1
1
1
1
1
1
1
1.000000002
1.00000028
1.000010732
1.000649592
1.008126832
1.098162305
1.388471507
1.754301267
1.989386149
2.0365071
2.033730711
2.032071201
2.023268834
1
1
1
1
1
1
1
1
1
1
1
1
1
1
1
1
1
1
1
1
1
1
1
1
1
1.000000006
1.00000047
1.000039153
1.000825748
1.018386411
1.125894717
1.484799214
1.880800073
1.970124024
2.013563325
2.037952434
2.033302058
1
1
1
1
1
1
1
1
1
1
1
1
1
1
1
1
1
1
1
1
1
1
1
1
1
1
1.000000015
1.000001449
1.000056788
1.0020449
1.025506477
1.194184338
1.564634699
1.848432323
2.02053763
2.042383154
2.034685389
1
1
1
1
1
1
1
1
1
1
1
1
1
1
1
1
1
1
1
1
1
1
1
1
1
1
1
1.000000033
1.000002834
1.000136452
1.003402655
1.043008481
1.246226376
1.643517714
1.973554882
2.002857479
2.006823496
1
1
1
1
1
1
1
1
1
1
1
1
1
1
1
1
1
1
1
1
1
1
1
1
1
1
1
1.000000001
1.000000117
1.000006134
1.000303916
1.005806951
1.065300912
1.325938783
1.747090887
1.901497643
1.97981314
1
1
1
1
1
1
1
1
1
1
1
1
1
1
1
1
1
1
1
1
1
1
1
1
1
1
1
1
1.000000005
1.000000206
1.000020206
1.000475931
1.011314907
1.096607042
1.394358622
1.78945126
2.001230979
1
1
1
1
1
1
1
1
1
1
1
1
1
1
1
1
1
1
1
1
1
1
1
1
1
1
1
1
1
1.000000006
1.000001005
1.00002701
1.001346206
1.016666524
1.140459523
1.50303595
1.84728987
1
1
1
1
1
1
1
1
1
1
1
1
1
1
1
1
1
1
1
1
1
1
1
1
1
1
1
1
1
1
1.00000004
1.000001227
1.000116094
1.001899158
1.0316952
1.199371417
1.565208648
1
1
1
1
1
1
1
1
1
1
1
1
1
1
1
1
1
1
1
1
1
1
1
1
1
1
1
1
1
1
1.000000001
1.000000049
1.000007448
1.000152246
1.005007951
1.04517261
1.279920875
1
1
1
1
1
1
1
1
1
1
1
1
1
1
1
1
1
1
1
1
1
1
1
1
1
1
1
1
1
1
1
1.000000002
1.000000342
1.000008869
1.000545
1.006554023
1.088171866
1
1
1
1
1
1
1
1
1
1
1
1
1
1
1
1
1
1
1
1
1
1
1
1
1
1
1
1
1
1
1
1
1.00000001
1.000000361
1.000040312
1.000640063
1.017133124
1
1
1
1
1
1
1
1
1
1
1
1
1
1
1
1
1
1
1
1
1
1
1
1
1
1
1
1
1
1
1
1
1
1.000000011
1.000001963
1.000044403
1.002123352
1
1
1
1
1
1
1
1
1
1
1
1
1
1
1
1
1
1
1
1
1
1
1
1
1
1
1
1
1
1
1
1
1
1
1.000000063
1.000002271
1.000171465
1
1
1
1
1
1
1
1
1
1
1
1
1
1
1
1
1
1
1
1
1
1
1
1
1
1
1
1
1
1
1
1
1
1
1.000000001
1.000000085
1.000009173
1
1
1
1
1
1
1
1
1
1
1
1
1
1
1
1
1
1
1
1
1
1
1
1
1
1
1
1
1
1
1
1
1
1
1
1.000000002
1.000000316
1
1
1
1
1
1
1
1
1
1
1
1
1
1
1
1
1
1
1
1
1
1
1
1
1
1
1
1
1
1
1
1
1
1
1
1
1.000000007
1
1
1
1
1
1
1
1
1
1
1
1
1
1
1
1
1
1
1
1
1
1
1
1
1
1
1
1
1
1
1
1
1
1
1
1
1
1
1
1
1
1
1
1
1
1
1
1
1
1
1
1
1
1
1
1
1
1
1
1
1
1
1
1
1
1
1
1
1
1
1
1
1
1
1
1
1
1
1
1
1
1
1
1
1
1
1
1
1
1
1
1
1
1
1
1
1
1
1
1
1
1
1
1
1
1
1
1
1
1
1
1
1
1
1
1
1
1
1
1
1
1
1
1
1
1
1
1
1
1
1
1
1
1
1
1
1
1
1
1
1
1
1
1
1
1
1
1
1
1
1
1
1
1
1
1
1
1
1
1
1
1
1
1
1
1
1
1
1
1
1
1
1
1
1
1
1
1
1
1
1
1
1
1
1
1
1
1
1
1
1
1
1
1
1
1
1
1
1
1
1
1
1
1
1
1
1
1
1
1
1
1
1
1
1
1
1
1
1
1
1
1
1
1
1
1
1
1
1
1
1
1
1
1
1
1
1
1
1
1
1
1
1
1
1
1
1
1
1
1
1
1
1
1
1
1
1
1
1
1
1
1
1
1
1
1
1
1
1
1
1
1
1
1
1
1
1
1
1
1
1
1
1
1
1
1
1
1
1
1
1
1
1
1
1
1
1
1
1
1
1
1
1
1
1
1
1
1
1
1
1
1
1
1
1
1
1
1
1
1
1
1
1
1
1
1
1
1
1
1
1
1
1
1
1
1
1
1
1
1
1
1
1
1
1
1
1
1
1
1
1
1
1
1
1
1
1
1
1
1
1
1
1
1
1
1
1
1
1
1
1
1
1
1
1
1
1
1
1
1
1
1
1
1
1
1
1
1
1
1
1
1
1
1
1
1
1
1
1
1
1
1
1
1
1
1
1
1
1
1
1
1
1
1
1
1
1
1
1
1
1
1
1
1
1
1
1
1
1
1
1
1
1
1
1
1
1
1
1
1
1
1
1
1
1
1
1
1
1
1
1
1
1
1
1
1
1
1
1
1
1
1
1
1
1
1
1
1
1
1
1
1
1
1
1
1
1
1
1
1
1
1
1
1
1
1
1
1
1
1
1
1
1
1
1
1
1
1
1
1
1
1
1
1
1
1
1
1
1
1
1
1
1
1
1
1
1
1
1
1
1
1
1
1
1
1
1
1
1
1
1
1
1
1
1
1
1
1
1
1
1
1
1
1
1
1
1
1
1
1
1
1
1
1
1
1
1
1
1
1
1
1
1
1
1
1
1
1
1
1
1
1
1
1
1
1
1
1
1
1
1
1
1
1
1
1
1
1
1
1
1
1
1
1
1
1
1
1
1
1
1
1
1
1
1
1
1
1
1
1
1
1
1
1
1
1
1
1
1
1
1
1
1
1
1
1
1
1
1
1
1
1
1
1
1
1
1
1
1
1
1
1
1
1
1
1
1
1
1
1
1
1
1
1
1
1
1
1
1
1
1
1
1
1
1
1
1
1
1
1
1
1
1
1
1
1
1
1
1
1
1
1
1
1
1
1
1
1
1
1
1
1
1
1
1
1
1
1
1
1
1
1
1
1
1
1
1
1
1
1
1
1
1
1
1
1
1
1
1
1
1
1
1
1
1
1
1
1
1
1
1
1
1
1
1
1
1
1
1
1
1
1
1
1
1
1
1
1
1
1
1
1
1
1
1
1
1
1
1
1
1
1
1
1
1
1
1
1
1
1
1
1
1
1
1
1
1
1
1
1
1
1
1
1
1
1
1
1
1
1
1
1
1
1
1
1
1
1
1
1
1
1
1
1
1
1
1
1
1
1
1
1
1
1
)
;

boundaryField
{
    inlet
    {
        type            fixedValue;
        value           nonuniform 0();
    }
    outlet
    {
        type            zeroGradient;
    }
    bottom
    {
        type            slip;
    }
    top
    {
        type            slip;
    }
    obstacle
    {
        type            zeroGradient;
    }
    defaultFaces
    {
        type            empty;
    }
    procBoundary33to26
    {
        type            processor;
        value           nonuniform List<scalar> 
25
(
1
1
1
1
1
1
1
1
1
1
1
1
1
1
1
1
1
1
1
1
1
1
1
1
1
)
;
    }
    procBoundary33to27
    {
        type            processor;
        value           nonuniform List<scalar> 
38
(
1.321746561
1.283686271
1.237459893
1
1
1
1
1
1
1.000000004
1.000000155
1.00001583
1.000405755
1.009459702
1.092476504
1.386866428
1.779635282
2.010591085
2.045404254
2.039926321
2.043411371
2.046817678
2.048693008
2.045350292
2.034175487
2.013130325
1.977547051
1.933892985
1.881447775
1.811515413
1.748896135
1.690965575
1.619440622
1.55984108
1.513122705
1.456660693
1.400921097
1.400921097
)
;
    }
    procBoundary33to32
    {
        type            processor;
        value           nonuniform List<scalar> 
35
(
1
1
1
1
1
1
1
1
1
1
1
1
1
1
1
1
1
1
1
1
1
1
1
1
1
1
1
1
1
1
1
1
1
1
1
)
;
    }
    procBoundary33to34
    {
        type            processor;
        value           nonuniform List<scalar> 
61
(
1.234252046
1.269350096
1.304512367
1.340571977
1.376363075
1.41268906
1.449142155
1.486066879
1.523214646
1.560245725
1.596850523
1.633009371
1.668405803
1.703879619
1.739498396
1.774172441
1.807988618
1.840514173
1.870898962
1.900376637
1.9279398
1.953816444
1.977358133
1.998358697
2.014745424
2.024270379
2.021354954
2.028738339
2.01924753
1.941490809
1.914214129
1.727071598
1.365807008
1.108756593
1.019750757
1.002367625
1.000200978
1.00001255
1.000000567
1.000000019
1
1
1
1
1
1
1
1
1
1
1
1
1
1
1
1
1
1
1
1
1
)
;
    }
}


// ************************************************************************* //
