/*--------------------------------*- C++ -*----------------------------------*\
  =========                 |
  \\      /  F ield         | OpenFOAM: The Open Source CFD Toolbox
   \\    /   O peration     | Website:  https://openfoam.org
    \\  /    A nd           | Version:  7
     \\/     M anipulation  |
\*---------------------------------------------------------------------------*/
FoamFile
{
    version     2.0;
    format      ascii;
    class       volScalarField;
    location    "0.8";
    object      rho;
}
// * * * * * * * * * * * * * * * * * * * * * * * * * * * * * * * * * * * * * //

dimensions      [1 -3 0 0 0 0 0];

internalField   nonuniform List<scalar> 
22
(
1.56189547
1.490123588
1.577324004
1.572445357
1.522545225
1.628973573
1.618558779
1.517825323
1.361044336
1.66453778
1.520194076
1.294623797
1.196793619
1.559755498
1.206235324
1.142721151
1.187672558
1.025440462
1.028175354
1.153931801
0.9960685907
1.044659735
)
;

boundaryField
{
    inlet
    {
        type            calculated;
        value           nonuniform 0();
    }
    outlet
    {
        type            calculated;
        value           nonuniform 0();
    }
    bottom
    {
        type            calculated;
        value           nonuniform 0();
    }
    top
    {
        type            calculated;
        value           nonuniform 0();
    }
    obstacle
    {
        type            calculated;
        value           nonuniform List<scalar> 2(1.025440462 0.9960685907);
    }
    defaultFaces
    {
        type            empty;
    }
    procBoundary9to3
    {
        type            processor;
        value           nonuniform List<scalar> 5(1.540152497 1.413916291 1.493871223 1.566789569 1.566789569);
    }
    procBoundary9to4
    {
        type            processor;
        value           nonuniform List<scalar> 2(1.514907349 1.401823561);
    }
    procBoundary9to8
    {
        type            processor;
        value           uniform 1.406520188;
    }
    procBoundary9to10
    {
        type            processor;
        value           nonuniform List<scalar> 5(1.282883802 1.212507046 1.275130278 1.308754539 1.308754539);
    }
    procBoundary9to14
    {
        type            processor;
        value           nonuniform List<scalar> 3(1.479857553 1.665306467 1.93019369);
    }
    procBoundary9to15
    {
        type            processor;
        value           nonuniform List<scalar> 4(1.211539419 1.011088329 1.211539419 1.068873498);
    }
}


// ************************************************************************* //
