/*--------------------------------*- C++ -*----------------------------------*\
  =========                 |
  \\      /  F ield         | OpenFOAM: The Open Source CFD Toolbox
   \\    /   O peration     | Website:  https://openfoam.org
    \\  /    A nd           | Version:  7
     \\/     M anipulation  |
\*---------------------------------------------------------------------------*/
FoamFile
{
    version     2.0;
    format      ascii;
    class       volVectorField;
    location    "2.9";
    object      U;
}
// * * * * * * * * * * * * * * * * * * * * * * * * * * * * * * * * * * * * * //

dimensions      [0 1 -1 0 0 0 0];

internalField   nonuniform List<vector> 
2222
(
(3 -1.624677499e-14 0)
(3 -1.595194308e-14 0)
(3 -1.424109863e-14 0)
(3 -1.255111419e-14 0)
(3 -1.106179799e-14 0)
(3 -1.564172061e-14 0)
(3 -1.861811484e-14 0)
(3 -1.916949999e-14 0)
(3 -1.947488217e-14 0)
(3 -1.489740023e-14 0)
(3 -7.558295085e-15 0)
(3 1.218903091e-15 0)
(3 6.184635886e-15 0)
(3 1.014709352e-14 0)
(3 1.549707952e-14 0)
(3 1.824020198e-14 0)
(3 1.531187797e-14 0)
(3 1.185450229e-14 0)
(3 4.575100271e-15 0)
(3 -8.534998765e-16 0)
(3 -3.903458691e-15 0)
(3 -5.644271919e-15 0)
(3 -5.561475378e-15 0)
(3 -4.251615529e-15 0)
(3 -4.006248494e-15 0)
(3 -2.233371904e-15 0)
(3 -2.08629283e-15 0)
(3 -1.369804006e-15 0)
(3 -5.849603261e-16 0)
(3 -5.812614282e-16 0)
(3 4.793610841e-16 0)
(3 -1.289939551e-15 0)
(3 -7.496348161e-15 0)
(3 -1.396406628e-14 0)
(3 -1.367313456e-14 0)
(3 -1.179876985e-14 0)
(3 -1.031451871e-14 0)
(3 -9.058729202e-15 0)
(3 -8.53908618e-15 0)
(3 -1.244286232e-14 0)
(3 -1.122983265e-14 0)
(3 -1.004262674e-14 0)
(3 -6.622693774e-15 0)
(3 -6.147815976e-17 0)
(3 4.377560481e-15 0)
(3 8.801775493e-15 0)
(3 1.205474299e-14 0)
(3 1.478987871e-14 0)
(3 1.282914433e-14 0)
(3 9.500395425e-15 0)
(3 5.767068036e-15 0)
(3 2.505377357e-15 0)
(3 6.149362137e-16 0)
(3 -1.110955157e-15 0)
(3 -3.334413894e-15 0)
(3 -3.489900416e-15 0)
(3 -3.195708974e-15 0)
(3 -3.95397163e-15 0)
(3 -4.368514756e-15 0)
(3 -8.612012607e-15 0)
(3 -1.472867798e-14 0)
(3 -1.700174312e-14 0)
(3 -1.500412784e-14 0)
(3 -1.351365558e-14 0)
(3 -9.783067218e-15 0)
(3 -7.172691701e-15 0)
(3 -8.404155555e-15 0)
(3 -1.047889042e-14 0)
(3 -6.227131504e-15 0)
(3 -3.39308005e-15 0)
(3 -8.651143448e-16 0)
(3 -1.41236921e-15 0)
(3 -3.816022666e-15 0)
(3 -6.597537168e-15 0)
(3 -5.776967463e-15 0)
(3 -1.632235461e-15 0)
(3 5.107337559e-15 0)
(3 1.035956891e-14 0)
(3 1.062373342e-14 0)
(3 9.391198821e-15 0)
(3 8.800693972e-15 0)
(3 7.665148151e-15 0)
(3 4.690038352e-15 0)
(3 1.123545264e-16 0)
(3 -3.223734395e-15 0)
(3 -3.64936259e-15 0)
(3 -5.542447203e-15 0)
(3 -5.932587852e-15 0)
(3 -6.562038224e-15 0)
(3 -6.882525539e-15 0)
(3 -6.434324872e-15 0)
(3 -8.130075075e-15 0)
(3 -1.223272433e-14 0)
(3 -1.803379955e-14 0)
(3 -2.113883715e-14 0)
(3 -2.416762608e-14 0)
(3 -2.448407603e-14 0)
(3 -2.745207346e-14 0)
(3 -2.674903673e-14 0)
(3 -2.432084251e-14 0)
(3 -1.902559305e-14 0)
(3 -9.852300959e-15 0)
(3 -8.677672054e-15 0)
(3 -3.885150875e-15 0)
(3 3.540221969e-15 0)
(3 8.040817024e-15 0)
(3 1.14467115e-14 0)
(3 1.202005033e-14 0)
(3 1.456099178e-14 0)
(3 1.903340827e-14 0)
(3 2.080894196e-14 0)
(3 1.932707103e-14 0)
(3 1.567759327e-14 0)
(3 7.651265632e-15 0)
(3 2.345217234e-15 0)
(3 -9.208916866e-16 0)
(3 -4.725303384e-15 0)
(3 -1.2675619e-14 0)
(3 -1.581470011e-14 0)
(3 -1.588831546e-14 0)
(3 -1.441095481e-14 0)
(3 -1.252627847e-14 0)
(3 -1.231232339e-14 0)
(3 -1.240597669e-14 0)
(3 -1.407014862e-14 0)
(3 -1.611217879e-14 0)
(3 -1.760211148e-14 0)
(3 -1.729146429e-14 0)
(3 -1.813772517e-14 0)
(3 -2.024403144e-14 0)
(3 -1.95984546e-14 0)
(3 -2.276158212e-14 0)
(3 -2.342811504e-14 0)
(3 -2.413775484e-14 0)
(3 -2.065011375e-14 0)
(3 -1.211556512e-14 0)
(3 -1.115248393e-14 0)
(3 -8.042521033e-16 0)
(3 6.395085574e-15 0)
(3 1.205174397e-14 0)
(3 1.695313197e-14 0)
(3 2.04187129e-14 0)
(3 2.267105784e-14 0)
(3 2.282559021e-14 0)
(3 2.220942503e-14 0)
(3 1.99980011e-14 0)
(3 1.842239267e-14 0)
(3 1.267232331e-14 0)
(3 2.830656955e-15 0)
(3 -6.514743603e-15 0)
(3 -1.761867875e-14 0)
(3 -2.179349247e-14 0)
(3 -2.079285026e-14 0)
(3 -1.835526239e-14 0)
(3 -1.288524904e-14 0)
(3 -1.163880174e-14 0)
(3 -1.121123507e-14 0)
(3 -1.18665691e-14 0)
(3 -1.360679009e-14 0)
(3 -1.649085104e-14 0)
(3 -1.904545985e-14 0)
(3 -1.925835916e-14 0)
(3 -1.855894564e-14 0)
(3 -1.943977137e-14 0)
(3 -2.091433763e-14 0)
(3 -2.213362934e-14 0)
(3 -2.639275292e-14 0)
(3 -2.794274988e-14 0)
(3 -2.30174593e-14 0)
(3 -1.746286981e-14 0)
(3 -6.95137016e-15 0)
(3 7.657568176e-16 0)
(3 5.829168649e-15 0)
(3 1.324306163e-14 0)
(3 1.494473246e-14 0)
(3 1.681397126e-14 0)
(3 1.661640355e-14 0)
(3 1.550916517e-14 0)
(3 1.010513788e-14 0)
(3 9.654725838e-15 0)
(3 5.284562172e-15 0)
(3 2.096900846e-15 0)
(3 -7.288146718e-15 0)
(3 -1.494291055e-14 0)
(3 -1.743002046e-14 0)
(3 -1.664458833e-14 0)
(3 -1.586854971e-14 0)
(3 -1.16601227e-14 0)
(3 -7.764703975e-15 0)
(3 -6.298112467e-15 0)
(3 -6.947652437e-15 0)
(3 -8.426094821e-15 0)
(3 -1.163239348e-14 0)
(3 -1.520168917e-14 0)
(3 -1.600317071e-14 0)
(3 -1.839946295e-14 0)
(3 -1.471441302e-14 0)
(3 -1.271951244e-14 0)
(3 -1.592911116e-14 0)
(3 -1.769643069e-14 0)
(3 -1.509640387e-14 0)
(3 -1.351559986e-14 0)
(3 -1.013712478e-14 0)
(3 -8.953787271e-15 0)
(3 9.578614197e-16 0)
(3 1.273962048e-15 0)
(3 6.037771292e-15 0)
(3 1.157207728e-14 0)
(3 1.70097247e-14 0)
(3 1.534497853e-14 0)
(3 1.258885185e-14 0)
(3 8.6585031e-15 0)
(3 6.918571295e-15 0)
(3 1.310927154e-15 0)
(3 -2.970738127e-15 0)
(3 -1.028122179e-14 0)
(3 -1.763621141e-14 0)
(3 -2.049780888e-14 0)
(3 -1.936678763e-14 0)
(3 -1.739969293e-14 0)
(3 -1.400640954e-14 0)
(3 -8.962202681e-15 0)
(3 -7.718053726e-15 0)
(3 -6.525553117e-15 0)
(3 -8.585570819e-15 0)
(3 -6.595906051e-15 0)
(3 -8.247484133e-15 0)
(3 -8.379416421e-15 0)
(3 -1.00544407e-14 0)
(3 -1.24287867e-14 0)
(3 -1.433869049e-14 0)
(3 -1.193477214e-14 0)
(3 -9.601131106e-15 0)
(3 -9.314598814e-15 0)
(3 -5.082864031e-15 0)
(3 -3.723232451e-15 0)
(3 -3.291939067e-15 0)
(3 -4.828533932e-15 0)
(3 4.085901282e-15 0)
(3 5.187977063e-15 0)
(3 5.941148741e-15 0)
(3 6.557744441e-15 0)
(3 6.526082961e-15 0)
(3 5.661810749e-15 0)
(3 6.245969385e-15 0)
(3 5.667402884e-15 0)
(3 3.826452607e-15 0)
(3 -5.635152705e-16 0)
(3 -7.671052626e-15 0)
(3 -1.610358043e-14 0)
(3 -2.294297038e-14 0)
(3 -2.316872911e-14 0)
(3 -2.221077067e-14 0)
(3 -1.932159217e-14 0)
(3 -1.540147728e-14 0)
(3 -8.892821878e-15 0)
(3 -8.28874339e-15 0)
(3 -8.618125377e-15 0)
(3 -6.434537151e-15 0)
(3 -3.506625219e-15 0)
(3 -2.969832019e-16 0)
(3 -6.875259568e-16 0)
(3 -3.450710255e-15 0)
(3 -3.320629461e-15 0)
(3 -5.264896467e-15 0)
(3 -3.617277292e-15 0)
(3 8.648137133e-16 0)
(3 3.288937708e-15 0)
(3 1.701993253e-15 0)
(3 -1.821457956e-15 0)
(3 -4.510877449e-15 0)
(3 -7.271263768e-15 0)
(3 1.422036279e-14 0)
(3 1.268318604e-14 0)
(3 1.028896703e-14 0)
(3 6.338366056e-15 0)
(3 1.165634329e-15 0)
(3 -2.36153783e-15 0)
(3 -7.554282188e-16 0)
(3 -2.006671538e-15 0)
(3 -4.17993394e-15 0)
(3 -9.361429456e-15 0)
(3 -1.58366572e-14 0)
(3 -1.873641682e-14 0)
(3 -1.9406771e-14 0)
(3 -2.149038138e-14 0)
(3 -1.861039848e-14 0)
(3 -1.634312222e-14 0)
(3 -1.368003418e-14 0)
(3 -7.42046287e-15 0)
(3 -4.804424144e-15 0)
(3 -1.823176306e-15 0)
(3 2.915136649e-15 0)
(3 7.101693931e-15 0)
(3 9.268028431e-15 0)
(3 8.529435648e-15 0)
(3 9.152484505e-15 0)
(3 1.08900343e-14 0)
(3 8.181002625e-15 0)
(3 7.27058747e-15 0)
(3 9.829035607e-15 0)
(3 9.682735604e-15 0)
(3 7.714913915e-15 0)
(3 1.579448899e-15 0)
(3 -3.962693049e-16 0)
(3 -2.11646062e-15 0)
(3 1.929478854e-14 0)
(3 1.888481261e-14 0)
(3 1.705511514e-14 0)
(3 1.309587168e-14 0)
(3 9.523274965e-15 0)
(3 7.674258379e-16 0)
(3 -7.616347421e-16 0)
(3 -6.930425526e-15 0)
(3 -9.3308951e-15 0)
(3 -1.266018879e-14 0)
(3 -1.938066555e-14 0)
(3 -2.310207263e-14 0)
(3 -2.244172696e-14 0)
(3 -2.193675612e-14 0)
(3 -1.775800921e-14 0)
(3 -1.537105399e-14 0)
(3 -1.495615121e-14 0)
(3 -7.389384614e-15 0)
(3 -5.019144809e-15 0)
(3 -1.2242613e-15 0)
(3 4.984463553e-15 0)
(3 9.509443336e-15 0)
(3 9.936019773e-15 0)
(3 1.531347036e-14 0)
(3 2.414181088e-14 0)
(3 3.078314749e-14 0)
(3 3.29530919e-14 0)
(3 2.735392818e-14 0)
(3 2.130529385e-14 0)
(3 2.039928562e-14 0)
(3 1.756187134e-14 0)
(3 1.268297051e-14 0)
(3 9.93319863e-15 0)
(3 5.139869955e-15 0)
(3 1.913495522e-14 0)
(3 1.955003914e-14 0)
(3 1.805375908e-14 0)
(3 1.58657129e-14 0)
(3 1.251832693e-14 0)
(3 6.956492584e-15 0)
(3 8.489280405e-16 0)
(3 -7.311429231e-15 0)
(3 -1.263662108e-14 0)
(3 -1.819751338e-14 0)
(3 -2.132188857e-14 0)
(3 -2.41656009e-14 0)
(3 -2.449454296e-14 0)
(3 -1.861705304e-14 0)
(3 -1.379731985e-14 0)
(3 -1.502538205e-14 0)
(3 -1.619119555e-14 0)
(3 -1.579337464e-14 0)
(3 -1.31786073e-14 0)
(3 -8.821591883e-15 0)
(3 -1.24818984e-15 0)
(3 8.301738969e-15 0)
(3 1.260189021e-14 0)
(3 2.246681822e-14 0)
(3 3.118825182e-14 0)
(3 3.904283276e-14 0)
(3 4.2564993e-14 0)
(3 4.274407339e-14 0)
(3 3.452542686e-14 0)
(3 3.155071746e-14 0)
(3 2.867619128e-14 0)
(3 2.200702976e-14 0)
(3 1.919108026e-14 0)
(3 1.508397757e-14 0)
(3 1.684267697e-14 0)
(3 1.500277874e-14 0)
(3 1.476368675e-14 0)
(3 1.076351999e-14 0)
(3 5.290086056e-15 0)
(3 -5.291640959e-16 0)
(3 -1.006344478e-14 0)
(3 -1.534935367e-14 0)
(3 -1.855149532e-14 0)
(3 -2.217815344e-14 0)
(3 -2.240038733e-14 0)
(3 -2.077356914e-14 0)
(3 -1.748393575e-14 0)
(3 -1.435617855e-14 0)
(3 -1.699322555e-14 0)
(3 -2.027359631e-14 0)
(3 -1.941826886e-14 0)
(3 -1.723070726e-14 0)
(3 -1.330674516e-14 0)
(3 -5.005677936e-15 0)
(3 -8.239265166e-17 0)
(3 5.351245449e-15 0)
(3 1.668999292e-14 0)
(3 2.483959848e-14 0)
(3 2.652358949e-14 0)
(3 3.00965311e-14 0)
(3 3.206935586e-14 0)
(3 3.479099853e-14 0)
(3 3.51063639e-14 0)
(3 3.055036362e-14 0)
(3 2.421994912e-14 0)
(3 2.161438912e-14 0)
(3 2.108703207e-14 0)
(3 1.650350199e-14 0)
(3 9.919731941e-15 0)
(3 5.925895357e-15 0)
(3 1.782065595e-15 0)
(3 -4.488127648e-16 0)
(3 -3.803626793e-15 0)
(3 -5.432370549e-15 0)
(3 -1.001390697e-14 0)
(3 -1.553474305e-14 0)
(3 -1.879489147e-14 0)
(3 -1.695181603e-14 0)
(3 -1.496136943e-14 0)
(3 -1.025319974e-14 0)
(3 -1.201797148e-14 0)
(3 -1.402786529e-14 0)
(3 -1.437014933e-14 0)
(3 -1.296966073e-14 0)
(3 -1.164287341e-14 0)
(3 -6.031191843e-15 0)
(3 3.620858124e-15 0)
(3 1.169934287e-14 0)
(3 1.637210135e-14 0)
(3 1.809720388e-14 0)
(3 1.99628497e-14 0)
(3 2.280851128e-14 0)
(3 2.100779318e-14 0)
(3 1.850103872e-14 0)
(3 1.586731043e-14 0)
(3 2.037219661e-14 0)
(3 2.343013075e-14 0)
(3 2.37719146e-14 0)
(3 2.393269352e-14 0)
(3 2.132070511e-14 0)
(3 1.680051904e-14 0)
(3 1.483866118e-14 0)
(3 -3.726923222e-15 0)
(3 -5.179628075e-15 0)
(3 -7.116741684e-15 0)
(3 -5.707917012e-15 0)
(3 -5.445349561e-15 0)
(3 -5.666485904e-15 0)
(3 -6.188629906e-15 0)
(3 -7.662216049e-15 0)
(3 -9.183769098e-15 0)
(3 -7.394351594e-15 0)
(3 -7.0695089e-16 0)
(3 1.959356039e-15 0)
(3 -1.369568805e-15 0)
(3 -8.769042365e-15 0)
(3 -1.075372102e-14 0)
(3 -9.246936347e-15 0)
(3 -3.920133295e-15 0)
(3 -1.308896698e-16 0)
(3 5.011056755e-15 0)
(3 5.60078712e-15 0)
(3 9.475561441e-15 0)
(3 1.662041959e-14 0)
(3 1.709974062e-14 0)
(3 1.488599691e-14 0)
(3 1.259337765e-14 0)
(3 1.083718227e-14 0)
(3 7.793115356e-15 0)
(3 5.962063821e-15 0)
(3 7.349472469e-15 0)
(3 1.649799781e-14 0)
(3 1.952380781e-14 0)
(3 1.689366447e-14 0)
(3 1.576652467e-14 0)
(3 9.833636711e-15 0)
(3 -1.01514353e-14 0)
(3 -9.221664579e-15 0)
(3 -9.017939347e-15 0)
(3 -1.003414039e-14 0)
(3 -9.084669148e-15 0)
(3 -4.9748624e-15 0)
(3 -5.477000622e-15 0)
(3 -6.827561662e-16 0)
(3 1.265319328e-15 0)
(3 7.698713285e-15 0)
(3 9.162399416e-15 0)
(3 1.029780002e-14 0)
(3 1.011183886e-14 0)
(3 4.856111286e-15 0)
(3 1.921778935e-15 0)
(3 3.065235917e-15 0)
(3 7.167553997e-15 0)
(3 8.059710858e-15 0)
(3 6.904764418e-15 0)
(3 7.122339433e-15 0)
(3 8.168465833e-15 0)
(3 7.004392403e-15 0)
(3 6.254803556e-15 0)
(3 6.439444197e-15 0)
(3 5.466558542e-15 0)
(3 5.582635109e-15 0)
(3 4.024194929e-15 0)
(3 -5.248007753e-16 0)
(3 -1.57377884e-15 0)
(3 2.632072009e-15 0)
(3 5.709049793e-15 0)
(3 9.427191787e-15 0)
(3 8.626758719e-15 0)
(3 -1.339460255e-15 0)
(3 -4.220061924e-15 0)
(3 -4.743484307e-15 0)
(3 -4.744042577e-15 0)
(3 -6.745198455e-15 0)
(3 -8.219850191e-15 0)
(3 -7.829705606e-15 0)
(3 -4.134763464e-15 0)
(3 1.51556099e-15 0)
(3 3.878029473e-15 0)
(3 7.694111268e-15 0)
(3 9.040170199e-15 0)
(3 1.135753011e-14 0)
(3 1.20345061e-14 0)
(3 1.286898686e-14 0)
(3 1.09302143e-14 0)
(3 1.163949466e-14 0)
(3 9.526664556e-15 0)
(3 8.902184901e-15 0)
(3 1.031635314e-14 0)
(3 1.087156382e-14 0)
(3 1.073159918e-14 0)
(3 6.961850313e-15 0)
(3 2.71393393e-15 0)
(3 1.02789131e-16 0)
(3 5.566433563e-16 0)
(3 1.828709975e-15 0)
(3 3.465739606e-15 0)
(3 -5.603398686e-15 0)
(3 -1.250256156e-14 0)
(3 -1.150895273e-14 0)
(3 -6.584012668e-15 0)
(3 -8.780945589e-16 0)
(3 -1.744606527e-15 0)
(3 -6.118028084e-15 0)
(3 2.427692427e-15 0)
(3 6.580313897e-16 0)
(3 1.616607994e-15 0)
(3 1.524939849e-15 0)
(3 9.314263752e-16 0)
(3 2.196352044e-15 0)
(3 4.019031161e-15 0)
(3 3.646811393e-15 0)
(3 1.780258778e-15 0)
(3 3.417781057e-15 0)
(3 5.137468273e-15 0)
(3 9.438212916e-15 0)
(3 1.099084701e-14 0)
(3 1.034697758e-14 0)
(3 8.408881157e-15 0)
(3 5.680769692e-15 0)
(3 3.418031158e-15 0)
(3 5.095902905e-15 0)
(3 6.603871776e-15 0)
(3 7.758507908e-15 0)
(3 9.385825879e-15 0)
(3 1.123561366e-14 0)
(3 8.686478698e-15 0)
(3 3.885026107e-15 0)
(3 1.734835411e-15 0)
(3 -1.847096587e-16 0)
(3 -1.136756685e-15 0)
(3 -4.710238573e-15 0)
(3 -9.831300206e-15 0)
(3 -9.360519195e-15 0)
(3 -8.892345358e-15 0)
(3 -8.570181537e-15 0)
(3 -7.690629468e-15 0)
(3 -6.310474499e-15 0)
(3 3.376022636e-15 0)
(3 9.775905809e-16 0)
(3 1.19158599e-15 0)
(3 3.062646299e-15 0)
(3 5.736509496e-15 0)
(3 7.706431822e-15 0)
(3 7.284601292e-15 0)
(3 3.994760222e-15 0)
(3 -1.196113864e-16 0)
(3 -3.040784172e-15 0)
(3 -1.250852299e-15 0)
(3 6.537150931e-15 0)
(3 1.318756893e-14 0)
(3 1.41556865e-14 0)
(3 1.283629935e-14 0)
(3 1.444761452e-14 0)
(3 1.484664419e-14 0)
(3 1.680713313e-14 0)
(3 1.682124337e-14 0)
(3 1.627178993e-14 0)
(3 1.478112706e-14 0)
(3 1.283465922e-14 0)
(3 1.39111456e-14 0)
(3 1.320968816e-14 0)
(3 1.194553891e-14 0)
(3 8.654161331e-15 0)
(3 8.760539929e-16 0)
(3 -3.959025133e-15 0)
(3 -5.502642924e-15 0)
(3 -8.287305045e-15 0)
(3 -1.0920037e-14 0)
(3 -1.395450619e-14 0)
(3 -1.285264739e-14 0)
(3 -4.163226446e-15 0)
(3 1.432927637e-14 0)
(3 1.24587119e-14 0)
(3 9.448758593e-15 0)
(3 9.274110805e-15 0)
(3 9.935556398e-15 0)
(3 8.77889854e-15 0)
(3 7.44197337e-15 0)
(3 5.208423219e-15 0)
(3 2.577164359e-15 0)
(3 -5.271758173e-16 0)
(3 -7.693505393e-16 0)
(3 3.716446442e-15 0)
(3 1.032550842e-14 0)
(3 1.253943393e-14 0)
(3 1.864087144e-14 0)
(3 2.013680568e-14 0)
(3 2.254583357e-14 0)
(3 2.137000346e-14 0)
(3 1.987726465e-14 0)
(3 1.729925605e-14 0)
(3 1.7699908e-14 0)
(3 1.40035664e-14 0)
(3 1.287097393e-14 0)
(3 1.296458109e-14 0)
(3 1.135646669e-14 0)
(3 6.917849072e-15 0)
(3 6.009373322e-15 0)
(3 7.29841551e-16 0)
(3 -3.37302015e-15 0)
(3 -8.3852677e-15 0)
(3 -1.02676765e-14 0)
(3 -8.670239434e-15 0)
(3 -7.185643947e-15 0)
(3 -7.424379449e-16 0)
(3 1.173551093e-14 0)
(3 1.553398342e-14 0)
(3 1.501517394e-14 0)
(3 1.137480779e-14 0)
(3 7.810243908e-15 0)
(3 4.30149598e-15 0)
(3 2.412138952e-15 0)
(3 1.019962576e-15 0)
(3 1.933917209e-15 0)
(3 2.817057172e-15 0)
(3 2.312315805e-15 0)
(3 6.182373966e-15 0)
(3 1.184140015e-14 0)
(3 1.716463658e-14 0)
(3 1.897692929e-14 0)
(3 1.902764072e-14 0)
(3 1.971332297e-14 0)
(3 1.750887892e-14 0)
(3 1.620368096e-14 0)
(3 1.488246222e-14 0)
(3 1.523191178e-14 0)
(3 1.235701666e-14 0)
(3 1.076347051e-14 0)
(3 8.72315374e-15 0)
(3 4.277750529e-15 0)
(3 9.932016739e-16 0)
(3 6.186548449e-16 0)
(3 -1.534670532e-15 0)
(3 -6.466668572e-15 0)
(3 -6.844628584e-15 0)
(3 -3.909414514e-15 0)
(3 -3.06101735e-15 0)
(3 -3.060717308e-15 0)
(3 7.157618071e-16 0)
(3 -1.932487896e-15 0)
(3 3.512282762e-15 0)
(3 4.775350678e-15 0)
(3 4.580200979e-15 0)
(3 2.704738804e-15 0)
(3 -4.157483729e-16 0)
(3 -2.641569918e-15 0)
(3 -4.298061659e-15 0)
(3 -4.001763805e-15 0)
(3 4.1246819e-16 0)
(3 6.512195815e-15 0)
(3 8.270876343e-15 0)
(3 1.324691674e-14 0)
(3 1.664811276e-14 0)
(3 1.737698922e-14 0)
(3 1.673565819e-14 0)
(3 1.447124715e-14 0)
(3 1.393812166e-14 0)
(3 1.27880789e-14 0)
(3 1.181524087e-14 0)
(3 9.851307092e-15 0)
(3 8.312918996e-15 0)
(3 6.439038486e-15 0)
(3 3.490382742e-15 0)
(3 -7.719067338e-16 0)
(3 -6.743522407e-15 0)
(3 -1.250731028e-14 0)
(3 -1.226025323e-14 0)
(3 -1.004317807e-14 0)
(3 -8.066721658e-15 0)
(3 -6.193455154e-15 0)
(3 -5.877650115e-15 0)
(3 -6.212057902e-15 0)
(3 -3.835024972e-15 0)
(3 -6.234618511e-15 0)
(3 -6.781605774e-15 0)
(3 -2.89014636e-15 0)
(3 -2.074945564e-15 0)
(3 -4.219328502e-15 0)
(3 -3.0865673e-15 0)
(3 -2.885647273e-15 0)
(3 -2.432573572e-15 0)
(3 2.041236186e-15 0)
(3 3.410667484e-15 0)
(3 7.21859298e-15 0)
(3 7.083415717e-15 0)
(3 9.847220433e-15 0)
(3 1.434481621e-14 0)
(3 1.63857284e-14 0)
(3 1.680567178e-14 0)
(3 1.269909235e-14 0)
(3 1.051353165e-14 0)
(3 7.988621333e-15 0)
(3 7.777274624e-15 0)
(3 7.265388466e-15 0)
(3 6.325746266e-15 0)
(3 5.34193639e-15 0)
(3 2.336088869e-15 0)
(3 -3.885091626e-15 0)
(3 -8.382987887e-15 0)
(3 -8.785427999e-15 0)
(3 -8.94702376e-15 0)
(3 -9.593621236e-15 0)
(3 -1.371195242e-14 0)
(3 -1.564656868e-14 0)
(3 -1.653244368e-14 0)
(3 -1.212251953e-14 0)
(3 -9.329807448e-15 0)
(3 -8.060127322e-15 0)
(3 -1.177727744e-14 0)
(3 -1.341912533e-14 0)
(3 -1.113180576e-14 0)
(3 -1.086441849e-14 0)
(3 -1.05167202e-14 0)
(3 -2.953980236e-15 0)
(3 2.789930958e-15 0)
(3 4.667452484e-15 0)
(3 6.314789889e-15 0)
(3 5.505665172e-15 0)
(3 4.091984032e-15 0)
(3 8.624628921e-15 0)
(3 1.552723001e-14 0)
(3 1.856787981e-14 0)
(3 2.193423159e-14 0)
(3 2.013803735e-14 0)
(3 1.258695081e-14 0)
(3 1.090388442e-14 0)
(3 1.27393752e-14 0)
(3 9.472870354e-15 0)
(3 7.83425709e-15 0)
(3 7.159838712e-15 0)
(3 3.404852479e-15 0)
(3 -2.766004466e-15 0)
(3 -3.563681402e-15 0)
(3 -3.300589695e-15 0)
(3 -4.128782523e-15 0)
(3 -7.552270245e-15 0)
(3 -1.127070555e-14 0)
(3 -1.759269985e-14 0)
(3 -1.879540301e-14 0)
(3 -1.713615752e-14 0)
(3 -1.501811854e-14 0)
(3 -8.647316896e-15 0)
(3 -9.383713828e-15 0)
(3 -1.357255677e-14 0)
(3 -1.613362423e-14 0)
(3 -1.387530104e-14 0)
(3 -1.144356864e-14 0)
(3 -5.454683391e-15 0)
(3 -4.748649051e-15 0)
(3 -3.030771149e-15 0)
(3 8.923108878e-16 0)
(3 3.184462172e-15 0)
(3 4.98562247e-15 0)
(3 9.73968385e-15 0)
(3 1.221325341e-14 0)
(3 1.589022641e-14 0)
(3 2.040862393e-14 0)
(3 2.33842456e-14 0)
(3 2.179872866e-14 0)
(3 1.77244737e-14 0)
(3 1.314351077e-14 0)
(3 1.053810462e-14 0)
(3 1.995780316e-15 0)
(3 -1.818555253e-15 0)
(3 -6.378126468e-15 0)
(3 -5.061895282e-15 0)
(3 -2.596397915e-15 0)
(3 -3.195945557e-15 0)
(3 -6.887340013e-15 0)
(3 -1.045907865e-14 0)
(3 -1.366220491e-14 0)
(3 -1.441113205e-14 0)
(3 -1.283558979e-14 0)
(3 -1.258432513e-14 0)
(3 -1.258094156e-14 0)
(3 -2.503717147e-15 0)
(3 -5.318221894e-15 0)
(3 -7.286043291e-15 0)
(3 -1.146011779e-14 0)
(3 -1.097257769e-14 0)
(3 -1.009389986e-14 0)
(3 -9.436674505e-15 0)
(3 -9.226501763e-15 0)
(3 -7.431596115e-15 0)
(3 -4.597908268e-15 0)
(3 3.373877247e-15 0)
(3 1.011362061e-14 0)
(3 9.063831819e-15 0)
(3 7.459047582e-15 0)
(3 1.010865719e-14 0)
(3 1.300953099e-14 0)
(3 1.533519348e-14 0)
(3 1.657123142e-14 0)
(3 1.437944836e-14 0)
(3 6.319250938e-15 0)
(3 4.560017955e-15 0)
(3 1.72969636e-15 0)
(3 -6.119938598e-15 0)
(3 -1.11437017e-14 0)
(3 -1.10212731e-14 0)
(3 -1.135906782e-14 0)
(3 -1.145201472e-14 0)
(3 -8.86933397e-15 0)
(3 -9.142029198e-15 0)
(3 -4.889093827e-15 0)
(3 -4.976913485e-15 0)
(3 -2.474219108e-15 0)
(3 -6.829053646e-15 0)
(3 -8.968129019e-15 0)
(3 5.86142828e-15 0)
(3 1.730466357e-15 0)
(3 -2.24505987e-15 0)
(3 -4.906417457e-15 0)
(3 -5.932131656e-15 0)
(3 -4.523309743e-15 0)
(3 -3.755315871e-15 0)
(3 -2.238799516e-15 0)
(3 -1.358586358e-15 0)
(3 3.624960249e-15 0)
(3 1.249915199e-14 0)
(3 1.412441097e-14 0)
(3 1.138408757e-14 0)
(3 8.69853891e-15 0)
(3 8.141067016e-15 0)
(3 7.552180168e-15 0)
(3 6.945440346e-15 0)
(3 8.092898511e-15 0)
(3 8.032123435e-15 0)
(3 1.735163611e-15 0)
(3 -9.135900915e-16 0)
(3 -7.451158291e-15 0)
(3 -1.258060192e-14 0)
(3 -1.617293282e-14 0)
(3 -1.735514864e-14 0)
(3 -1.707805505e-14 0)
(3 -1.295656521e-14 0)
(3 -6.820706737e-15 0)
(3 -2.135409898e-15 0)
(3 2.429698894e-15 0)
(3 5.081201961e-16 0)
(3 -9.04333952e-16 0)
(3 -6.446663384e-15 0)
(3 -7.912721946e-15 0)
(3 6.042053292e-15 0)
(3 6.029984981e-15 0)
(3 2.616497195e-15 0)
(3 1.188112063e-15 0)
(3 2.063531855e-15 0)
(3 2.325852351e-15 0)
(3 2.86338678e-15 0)
(3 5.843999811e-15 0)
(3 1.182690372e-14 0)
(3 1.43315355e-14 0)
(3 1.451678201e-14 0)
(3 1.319821309e-14 0)
(3 1.244021093e-14 0)
(3 8.019240226e-15 0)
(3 6.954546112e-15 0)
(3 2.089082703e-15 0)
(3 -6.779798592e-17 0)
(3 -1.997366133e-15 0)
(3 -6.382843036e-15 0)
(3 -1.106218674e-14 0)
(3 -1.12805621e-14 0)
(3 -1.385625935e-14 0)
(3 -1.484859317e-14 0)
(3 -1.42394517e-14 0)
(3 -1.52051882e-14 0)
(3 -1.299479263e-14 0)
(3 -1.182539138e-14 0)
(3 -8.889612058e-15 0)
(3 -4.255527104e-15 0)
(3 1.262179365e-15 0)
(3 2.66240595e-15 0)
(3 2.613434211e-15 0)
(3 2.922210643e-15 0)
(3 7.765927003e-16 0)
(3 8.923500104e-15 0)
(3 1.436435643e-14 0)
(3 1.623799176e-14 0)
(3 1.525494973e-14 0)
(3 1.679285138e-14 0)
(3 1.463248145e-14 0)
(3 1.465089126e-14 0)
(3 1.502931428e-14 0)
(3 1.668946906e-14 0)
(3 1.481005704e-14 0)
(3 1.433977469e-14 0)
(3 1.374170652e-14 0)
(3 1.306136698e-14 0)
(3 7.007259518e-15 0)
(3 2.483517154e-15 0)
(3 -3.246248592e-15 0)
(3 -6.492022055e-15 0)
(3 -9.371213678e-15 0)
(3 -1.282699325e-14 0)
(3 -1.502401436e-14 0)
(3 -1.589331142e-14 0)
(3 -1.472558638e-14 0)
(3 -1.534162456e-14 0)
(3 -9.183311498e-15 0)
(3 -6.784543487e-15 0)
(3 -6.555638011e-15 0)
(3 -6.338876848e-15 0)
(3 -6.930891551e-15 0)
(3 -5.365809165e-15 0)
(3 -2.320571231e-15 0)
(3 6.291462369e-16 0)
(3 2.059122045e-15 0)
(3 2.250179654e-15 0)
(3 2.256343515e-15 0)
(3 9.200043358e-15 0)
(3 1.105105912e-14 0)
(3 1.660586431e-14 0)
(3 1.914775377e-14 0)
(3 1.746740941e-14 0)
(3 1.749172795e-14 0)
(3 1.951074316e-14 0)
(3 1.694513692e-14 0)
(3 1.634943229e-14 0)
(3 1.58727931e-14 0)
(3 1.449364863e-14 0)
(3 1.404213238e-14 0)
(3 1.177642374e-14 0)
(3 8.579287003e-15 0)
(3 -7.091398483e-17 0)
(3 -5.191010675e-15 0)
(3 -1.052339922e-14 0)
(3 -1.237216684e-14 0)
(3 -1.440745587e-14 0)
(3 -1.631700345e-14 0)
(3 -1.906012208e-14 0)
(3 -1.683932265e-14 0)
(3 -1.597393372e-14 0)
(3 -1.238245477e-14 0)
(3 -9.805781192e-15 0)
(3 -6.439472801e-15 0)
(3 -3.728146799e-15 0)
(3 -1.522225448e-15 0)
(3 -1.471093027e-15 0)
(3 -2.090325161e-15 0)
(3 1.519184941e-15 0)
(3 3.991218164e-15 0)
(3 6.300825332e-15 0)
(3 8.014354889e-15 0)
(3 5.712669733e-15 0)
(3 1.152824467e-14 0)
(3 1.749646578e-14 0)
(3 2.278331752e-14 0)
(3 2.365756224e-14 0)
(3 2.491125228e-14 0)
(3 2.403183559e-14 0)
(3 2.050874631e-14 0)
(3 1.70828781e-14 0)
(3 1.49326203e-14 0)
(3 1.137107202e-14 0)
(3 7.996970897e-15 0)
(3 3.601559597e-15 0)
(3 -5.75003054e-16 0)
(3 -5.511845686e-15 0)
(3 -1.28121081e-14 0)
(3 -1.577278122e-14 0)
(3 -1.943398812e-14 0)
(3 -2.041360752e-14 0)
(3 -1.905532852e-14 0)
(3 -1.729352699e-14 0)
(3 -1.333233163e-14 0)
(3 -1.307268881e-14 0)
(3 -1.042438015e-14 0)
(3 -9.323832296e-15 0)
(3 -5.724961142e-15 0)
(3 -3.823635356e-15 0)
(3 -4.874272518e-16 0)
(3 5.383805685e-16 0)
(3 2.117008633e-15 0)
(3 3.440554929e-15 0)
(3 5.497767659e-15 0)
(3 1.153216749e-14 0)
(3 1.700136956e-14 0)
(3 9.118815276e-15 0)
(3 1.501563655e-14 0)
(3 2.273977748e-14 0)
(3 3.063744878e-14 0)
(3 3.293183318e-14 0)
(3 3.303104182e-14 0)
(3 2.696182778e-14 0)
(3 2.40535872e-14 0)
(3 1.747307479e-14 0)
(3 1.008200617e-14 0)
(3 5.040134016e-15 0)
(3 -2.161720039e-16 0)
(3 -6.202629164e-15 0)
(3 -1.060431785e-14 0)
(3 -1.266648351e-14 0)
(3 -1.673756845e-14 0)
(3 -1.745670878e-14 0)
(3 -1.824243981e-14 0)
(3 -1.920025424e-14 0)
(3 -1.898192653e-14 0)
(3 -1.548242107e-14 0)
(3 -1.097895971e-14 0)
(3 -7.022208402e-15 0)
(3 -5.216785364e-16 0)
(3 3.298899064e-15 0)
(3 2.169002009e-15 0)
(3 -9.539927217e-16 0)
(3 -2.160890743e-15 0)
(3 1.249565556e-16 0)
(3 1.258961869e-15 0)
(3 5.801284481e-15 0)
(3 7.483145208e-15 0)
(3 1.277352614e-14 0)
(3 1.729057045e-14 0)
(3 1.821345023e-14 0)
(3 2.297498169e-14 0)
(3 2.582779919e-14 0)
(3 2.889530761e-14 0)
(3 3.329549682e-14 0)
(3 3.277834012e-14 0)
(3 2.968277902e-14 0)
(3 2.228459244e-14 0)
(3 1.556235267e-14 0)
(3 2.689396598e-15 0)
(3 -3.556997914e-15 0)
(3 -1.171874081e-14 0)
(3 -1.424459065e-14 0)
(3 -1.488577797e-14 0)
(3 -1.522505438e-14 0)
(3 -1.099008477e-14 0)
(3 -3.494572376e-15 0)
(3 -4.275047217e-16 0)
(3 -6.620901586e-16 0)
(3 -3.869977961e-15 0)
(3 -4.395026118e-15 0)
(3 -1.866409767e-15 0)
(3 7.070073458e-15 0)
(3 1.142798238e-14 0)
(3 1.592268696e-14 0)
(3 1.616287791e-14 0)
(3 1.492408604e-14 0)
(3 1.141129149e-14 0)
(3 8.762447641e-15 0)
(3 7.692725147e-15 0)
(3 9.022893922e-15 0)
(3 1.004988648e-14 0)
(3 1.494758917e-14 0)
(3 1.718654433e-14 0)
(3 5.722907782e-15 0)
(3 8.076189891e-15 0)
(3 8.608811422e-15 0)
(3 8.942129845e-15 0)
(3 1.740056987e-14 0)
(3 1.907986634e-14 0)
(3 1.79320772e-14 0)
(3 1.311758329e-14 0)
(3 6.859026669e-15 0)
(3 -4.550869186e-16 0)
(3 -9.020520697e-15 0)
(3 -1.369358541e-14 0)
(3 -1.443590326e-14 0)
(3 -1.15689137e-14 0)
(3 -8.080242147e-15 0)
(3 -2.258861077e-15 0)
(3 3.699771063e-16 0)
(3 6.171073579e-16 0)
(3 6.587455867e-15 0)
(3 1.423387583e-14 0)
(3 1.575166965e-14 0)
(3 1.977088329e-14 0)
(3 1.776011788e-14 0)
(3 1.753422643e-14 0)
(3 2.054442423e-14 0)
(3 2.208102912e-14 0)
(3 2.272298702e-14 0)
(3 2.077018347e-14 0)
(3 1.759871845e-14 0)
(3 1.517564825e-14 0)
(3 1.183232452e-14 0)
(3 1.062388623e-14 0)
(3 9.425278685e-15 0)
(3 9.664512712e-15 0)
(3 -1.706002118e-14 0)
(3 -1.756028446e-14 0)
(3 -1.893412464e-14 0)
(3 -1.918631195e-14 0)
(3 -1.863292317e-14 0)
(3 -1.632660963e-14 0)
(3 -1.340335014e-14 0)
(3 -9.09971151e-15 0)
(3 -6.057814972e-15 0)
(3 -4.645934682e-15 0)
(3 -3.122314228e-15 0)
(3 -1.523462579e-15 0)
(3 -5.178510563e-16 0)
(3 -8.670438837e-16 0)
(3 -7.424941195e-16 0)
(3 9.695656548e-16 0)
(3 9.730521025e-16 0)
(3 1.448410627e-15 0)
(3 1.729971252e-15 0)
(3 -6.21964693e-16 0)
(3 -4.511758301e-15 0)
(3 -7.428207125e-15 0)
(3 -1.046778257e-14 0)
(3 -1.090298674e-14 0)
(3 -1.119445038e-14 0)
(3 -1.11662616e-14 0)
(3 -1.141131595e-14 0)
(3 -1.026549006e-14 0)
(3 -7.935414339e-15 0)
(3 -6.260809775e-15 0)
(3 -4.459278608e-15 0)
(3 -2.479721913e-15 0)
(3 -1.564106574e-15 0)
(3 -6.213402566e-16 0)
(3 8.322500771e-17 0)
(3 2.40839351e-15 0)
(3 3.269888421e-15 0)
(3 3.857356702e-15 0)
(3 3.456916627e-15 0)
(3 3.158913622e-15 0)
(3 2.345460118e-15 0)
(3 -9.952464196e-16 0)
(3 -3.938133023e-15 0)
(3 -6.692803871e-15 0)
(3 -6.247790533e-15 0)
(3 -6.275400408e-15 0)
(3 -4.885676188e-15 0)
(3 -4.718108778e-15 0)
(3 -3.343042056e-15 0)
(3 -5.49058131e-16 0)
(3 1.395401868e-15 0)
(3 2.176294046e-15 0)
(3 3.350944425e-15 0)
(3 4.065025415e-15 0)
(3 4.146858253e-15 0)
(3 -7.698718222e-15 0)
(3 -6.827855137e-15 0)
(3 -6.712948182e-15 0)
(3 -6.672182299e-15 0)
(3 -6.713236531e-15 0)
(3 -5.581898158e-15 0)
(3 -4.185437487e-15 0)
(3 -4.12417074e-15 0)
(3 -2.353245262e-15 0)
(3 3.080267468e-16 0)
(3 5.574918951e-16 0)
(3 1.83777353e-16 0)
(3 2.102177939e-15 0)
(3 3.310466096e-15 0)
(3 3.563388515e-15 0)
(3 3.005661162e-15 0)
(3 1.55721498e-15 0)
(3 1.010815543e-15 0)
(3 -8.494011397e-16 0)
(3 -1.226295242e-15 0)
(3 -1.000308076e-15 0)
(3 -3.106231574e-15 0)
(3 -6.822186005e-15 0)
(3 -9.623546658e-15 0)
(3 -1.00117538e-14 0)
(3 -9.474767096e-15 0)
(3 -8.858872524e-15 0)
(3 -7.946346426e-15 0)
(3 -4.768188256e-15 0)
(3 -2.085402402e-15 0)
(3 -1.91158164e-15 0)
(3 -1.068785809e-15 0)
(3 -8.902463807e-16 0)
(3 -8.520565046e-15 0)
(3 -6.465682351e-15 0)
(3 -3.090556791e-15 0)
(3 -2.505647978e-15 0)
(3 -8.033258483e-16 0)
(3 1.379220489e-15 0)
(3 1.878077631e-15 0)
(3 1.637342275e-15 0)
(3 1.431832332e-15 0)
(3 9.654146147e-16 0)
(3 9.829796054e-16 0)
(3 1.574719798e-15 0)
(3 3.326682552e-15 0)
(3 4.122019259e-15 0)
(3 2.643502377e-15 0)
(3 2.172017845e-15 0)
(3 -2.942276556e-16 0)
(3 -1.346663165e-15 0)
(3 -1.45730477e-15 0)
(3 -7.584201134e-16 0)
(3 -1.62445293e-17 0)
(3 -5.20265399e-15 0)
(3 -1.032671482e-14 0)
(3 -8.929407304e-15 0)
(3 -7.75927011e-15 0)
(3 -5.343119356e-15 0)
(3 -4.084127152e-15 0)
(3 -4.111824969e-15 0)
(3 -3.999383829e-15 0)
(3 -3.047765452e-15 0)
(3 -3.267342379e-15 0)
(3 -3.434156393e-15 0)
(3 -1.735252243e-15 0)
(3 -1.248976663e-14 0)
(3 -8.198873058e-15 0)
(3 -3.240873274e-15 0)
(3 5.211183521e-15 0)
(3 1.00570034e-14 0)
(3 1.049143843e-14 0)
(3 1.31033187e-14 0)
(3 1.155800181e-14 0)
(3 7.156066456e-15 0)
(3 6.372871034e-15 0)
(3 6.911674265e-15 0)
(3 8.322189462e-15 0)
(3 7.170445431e-15 0)
(3 5.615911053e-15 0)
(3 5.050228853e-15 0)
(3 2.940180825e-15 0)
(3 8.626768556e-16 0)
(3 4.288253289e-16 0)
(3 2.819086326e-16 0)
(3 1.91530689e-15 0)
(3 3.607146255e-15 0)
(3 2.787865535e-15 0)
(3 8.07168787e-16 0)
(3 -3.720942392e-16 0)
(3 -7.941680863e-16 0)
(3 -7.54977718e-16 0)
(3 -3.725207287e-16 0)
(3 -1.861714817e-16 0)
(3 -8.059483549e-16 0)
(3 -3.138077483e-16 0)
(3 9.8389425e-16 0)
(3 1.313785296e-15 0)
(3 3.790630593e-15 0)
(3 -9.155184897e-15 0)
(3 -9.193188048e-15 0)
(3 -8.417085769e-15 0)
(3 -6.827002236e-15 0)
(3 -2.74549759e-15 0)
(3 3.288497103e-16 0)
(3 3.046680301e-15 0)
(3 2.951554459e-15 0)
(3 3.14013974e-15 0)
(3 5.657731881e-15 0)
(3 7.57740752e-15 0)
(3 8.102069832e-15 0)
(3 8.810160291e-15 0)
(3 9.277065679e-15 0)
(3 9.173632592e-15 0)
(3 7.049417889e-15 0)
(3 5.605869775e-15 0)
(3 4.48966344e-15 0)
(3 5.258356423e-15 0)
(3 5.858286197e-15 0)
(3 6.369271786e-15 0)
(3 6.685876023e-15 0)
(3 7.246640059e-15 0)
(3 6.212748186e-15 0)
(3 5.176454043e-15 0)
(3 4.025131414e-15 0)
(3 2.605257994e-15 0)
(3 2.013547399e-15 0)
(3 1.434063525e-15 0)
(3 2.549507575e-15 0)
(3 5.400857273e-15 0)
(3 6.63669843e-15 0)
(3 7.808123862e-15 0)