/*--------------------------------*- C++ -*----------------------------------*\
  =========                 |
  \\      /  F ield         | OpenFOAM: The Open Source CFD Toolbox
   \\    /   O peration     | Website:  https://openfoam.org
    \\  /    A nd           | Version:  7
     \\/     M anipulation  |
\*---------------------------------------------------------------------------*/
FoamFile
{
    version     2.0;
    format      ascii;
    class       volScalarField;
    location    "2.5";
    object      p;
}
// * * * * * * * * * * * * * * * * * * * * * * * * * * * * * * * * * * * * * //

dimensions      [1 -1 -2 0 0 0 0];

internalField   nonuniform List<scalar> 
555
(
0.6770694215
0.6496574371
0.6353106802
0.6259898287
0.6190293441
0.9743809224
0.917741129
0.8758363584
0.8437568569
0.7994688983
0.7719517663
0.7506511046
0.721969143
0.6908636386
0.6747458918
0.6578346221
0.6301766559
0.6164848882
0.6108933485
0.6133494157
0.6179204911
0.9097692786
0.858683854
0.8235288203
0.7854516871
0.7437766303
0.7262499218
0.7097483778
0.679999588
0.6602084328
0.6459460751
0.6229733179
0.6104073824
0.6062042906
0.6076392501
0.6231281271
0.6719734996
0.8376710589
0.8016928299
0.7752314842
0.734197042
0.7066375478
0.6866654275
0.658255889
0.6329676133
0.6215728191
0.609040621
0.5971413473
0.6002030511
0.6105375433
0.644310416
0.7239090365
0.8370690503
0.774803925
0.7467772643
0.7114691432
0.6832977127
0.6711032266
0.6525836276
0.6235586131
0.6098095109
0.6033253412
0.5940294616
0.5950867919
0.6179365557
0.6796745781
0.7786958138
0.8859426737
0.9706575901
0.7345622867
0.7009347758
0.6619467383
0.6411777457
0.6241568757
0.5993737337
0.589591627
0.5897528135
0.5919688808
0.6019489269
0.6400525404
0.7434226441
0.8495177803
0.9317533164
0.9535559058
0.9842671908
0.6729870389
0.640978689
0.6283915913
0.6143942896
0.5959205059
0.5826315693
0.5817987745
0.5857866044
0.6112904778
0.6885592022
0.7988575745
0.879393723
0.9362627302
0.9822038322
0.9796085866
0.9851965866
0.6157853173
0.5948297474
0.5889281371
0.5784016836
0.5743705718
0.5763261762
0.5926899699
0.641980603
0.740187871
0.8652978295
0.9598603372
0.9725063098
0.9844723822
0.9978086749
0.9995116852
0.9961203599
0.592217909
0.5821489929
0.5730796313
0.5673853489
0.5726398137
0.6035709644
0.69931858
0.806794228
0.9103250593
0.9422389504
0.9826302812
0.9892705824
0.9937464668
1.000354162
1.001981845
1.000901097
0.5637672081
0.5667249329
0.5674220214
0.581655493
0.6472681085
0.7573945273
0.8570931633
0.9414947984
0.9924519536
0.9833482123
0.9883116876
0.9905750873
0.9914166498
0.9933318151
0.9962356272
0.9987688782
0.5563118534
0.5665851542
0.6074476706
0.6968024434
0.8311630348
0.9460061709
0.9697295726
0.9885551946
1.000968182
1.000436547
0.9977811061
0.9950138027
0.9930961858
0.9919108593
0.992516367
0.9952483357
0.578165788
0.6647068814
0.7727106619
0.8914997768
0.9315270526
0.975348993
0.9834888762
0.9900997275
0.9970341979
0.9989291036
0.9977038102
0.9963610909
0.9951122103
0.9939750875
0.9941674984
0.9959409325
0.7282272911
0.8434802839
0.9345781275
0.9910265522
0.989438257
0.9903698892
0.9898510951
0.9896912435
0.9923074798
0.9957293811
0.9963379334
0.99682895
0.9971857698
0.9974516969
0.9976898078
0.9980057582
0.9212783931
0.9512637766
0.9741777125
1.001030659
1.000845253
0.997589482
0.9961561092
0.994629679
0.9938382787
0.9945464623
0.9953607998
0.9963065037
0.9974522422
0.9985675322
0.9994136441
0.999656483
0.9763933307
0.9835961925
0.9882701947
0.9954200376
0.9983221764
0.9967219331
0.9956168095
0.9958128793
0.9963410785
0.9968332385
0.997163214
0.9971540863
0.9974584763
0.9980275034
0.9989846948
0.9993450519
0.9901879203
0.9936957367
0.99142151
0.9919609195
0.9932770357
0.9935438518
0.99414332
0.9958861417
0.9977409236
0.9983596755
0.9984639567
0.9981729263
0.9974113543
0.9972760751
0.9977098674
0.9985169985
0.9917466398
0.9955027674
0.9934997247
0.9910102451
0.9917005496
0.9928490932
0.9936539296
0.9958576452
0.9985876388
0.9996544006
0.9995925403
0.9989750843
0.997076827
0.9959143977
0.995628829
0.9961838547
0.9922797272
0.9955939851
0.9936965187
0.9914763566
0.9924097806
0.9933627049
0.9941061262
0.9963191971
0.9991674761
1.000728008
1.000869046
1.000086453
0.9983551371
0.9965611445
0.9959662576
0.9962134679
0.991858885
0.9946268309
0.9923689959
0.9917122844
0.993055073
0.9940900266
0.9949102208
0.9970872406
0.9997633557
1.001466266
1.0018144
1.001102292
0.9996409614
0.9983100075
0.9975393062
0.9969818832
0.9919720303
0.9943181892
0.9914577363
0.990804581
0.9925383993
0.9944681242
0.996191007
0.9982706583
0.9999831333
1.000801497
1.001102478
1.001303103
1.00044844
0.9993532323
0.9983541293
0.9977766931
0.9935525014
0.9941839856
0.9907694742
0.9897181259
0.9911293832
0.9936647489
0.9963402862
0.9989084284
0.9998627483
0.99962211
0.9994294651
0.9993173098
0.9989453926
0.9988110391
0.9988448839
0.9985361011
0.9952953696
0.995198821
0.9906169728
0.989180334
0.9907174605
0.9925669278
0.9956472469
0.9987494168
0.9996660624
0.9992948684
0.9987750965
0.9978169385
0.9972767353
0.9973193144
0.9979780714
0.9982736416
0.995954728
0.9959793448
0.9917621933
0.9888575596
0.9904935028
0.9922224932
0.9953900055
0.9983942161
0.9992917482
0.9991308882
0.9985157395
0.9972810909
0.9963977776
0.9963846225
0.9972126492
0.9981402139
0.9960405328
0.9959883202
0.9925938625
0.9892977061
0.990560264
0.9920301808
0.9951594647
0.999041814
1.000735326
1.000733742
0.9997792446
0.9974179229
0.9959759541
0.9960045044
0.996909683
0.9982823247
0.9864369962
0.9959786611
0.9955277288
0.9926890963
0.9907992409
0.9921877835
0.9932821507
0.9961865548
0.9999424753
1.001826484
1.002418693
1.0019145
0.999720524
0.9964685059
0.9956613525
0.9965443382
0.9984921111
0.9869410658
0.9963059876
0.994847863
0.9923687437
0.9916479744
0.9936265205
0.9953679535
0.9977951677
1.000262446
1.001952271
1.002825453
1.002567602
1.001098442
0.9986295872
0.9972914743
0.9979153535
0.9998540169
0.9880741618
0.9968452959
0.9941724561
0.9918124235
0.991716988
0.9938829195
0.995948181
0.9981614325
1.000129404
1.001653602
1.002282056
1.0023214
1.001138332
0.9991682624
0.9983629369
0.9988829728
0.9999132213
0.9911302243
0.9973137832
0.9938515684
0.9907742943
0.9906721548
0.9928344926
0.9956378724
0.9980127498
0.9998739564
1.000339641
1.000455569
1.000289778
0.999985988
0.9990339955
0.9985579927
0.9989013234
0.9995696669
0.9944739014
0.9976997615
0.9938508037
0.9898965375
0.9892542009
0.9912646781
0.9940234197
0.9974256996
0.999527853
0.9999697662
0.999774003
0.9987854132
0.9979148003
0.997909757
0.9978958261
0.9981643339
0.9987813331
0.9954825734
0.9975812329
0.9934436196
0.989494321
0.9887795052
0.990817984
0.9936664938
0.997384857
0.9994413825
0.9996697524
0.9993281125
0.9982000329
0.9967915433
0.9964086419
0.9967912016
0.9979682114
0.9953686781
0.9972589934
0.9928556361
0.9891851424
0.9885765245
0.9906821942
0.9935374391
0.9973301046
1.00015594
1.000394865
0.9998646788
0.9980541746
0.9964250957
0.995943117
0.9963103843
0.9970756772
0.9948685521
0.9975211301
0.9927142126
0.989774336
0.9890846519
0.9912752931
0.9943274626
0.9983154533
1.001057472
1.001695149
1.001331066
0.9995081088
0.9964453042
0.9955968823
0.9959014767
0.9966744226
0.9788040752
0.9947914103
0.9981228746
0.9930324527
0.9913771211
0.9913576155
0.9937091395
0.9964166408
0.9992836243
1.001098405
1.001861727
1.001639824
1.000627466
0.9980543431
0.9959198951
0.9961246643
0.9970070252
0.9805196766
0.9959462584
0.9980460245
0.9926627722
0.9919464168
0.9927197179
0.9956160884
0.997763936
0.9994375953
1.000615186
1.00131719
1.001157485
1.000240627
0.9988706876
0.9974422387
0.9976366008
0.9985166521
0.9819451797
0.9969086238
0.9974826188
0.9921532299
0.9917325615
0.9926999324
0.9958483927
0.9978659267
0.9990822168
0.9996646732
1.000062216
0.9999087379
0.9992566151
0.9985264479
0.9980105567
)
;

boundaryField
{
    inlet
    {
        type            fixedValue;
        value           nonuniform 0();
    }
    outlet
    {
        type            zeroGradient;
    }
    bottom
    {
        type            slip;
    }
    top
    {
        type            slip;
    }
    obstacle
    {
        type            zeroGradient;
    }
    defaultFaces
    {
        type            empty;
    }
    procBoundary10to4
    {
        type            processor;
        value           nonuniform List<scalar> 
17
(
0.7107777035
0.6849147226
0.662925459
0.6455266519
0.631356451
1.03998644
0.9847093785
0.9333432131
0.8963776494
0.8552526055
0.812469868
0.7873660178
0.7639409579
0.7332281983
0.7137747075
0.6998072249
0.6998072249
)
;
    }
    procBoundary10to5
    {
        type            processor;
        value           uniform 0.6192357303;
    }
    procBoundary10to9
    {
        type            processor;
        value           nonuniform List<scalar> 
27
(
1.026825234
0.9613153509
0.8949783754
0.8228645673
0.7615704341
0.6995759151
0.6522919728
0.611805913
0.5669064066
0.5568988558
0.5548027747
0.6193741687
0.7958705299
0.942660974
0.9788119138
0.9817362405
0.980881671
0.9809066792
0.9818469585
0.9845581505
0.9865336838
0.9873368853
0.9877669961
0.9877669961
0.9746267882
0.9745757943
0.9755692799
)
;
    }
    procBoundary10to11
    {
        type            processor;
        value           nonuniform List<scalar> 
34
(
0.6512667968
0.7805429659
0.8995467918
0.9790183889
0.9929137653
0.9911092035
0.9952508096
0.998541614
0.9985808531
0.9978679811
0.9976235849
0.998067033
0.9995416007
0.9990003461
0.9987757452
0.9969376278
0.9966760089
0.9970543678
0.9977044362
0.9981997303
0.9979569941
0.9980435191
0.9984406905
0.999797015
1.001632227
1.001210884
1.000761253
0.9992821402
0.9985642598
0.9985642598
0.9976450318
0.9972581357
0.9973059777
0.9989822323
)
;
    }
    procBoundary10to15
    {
        type            processor;
        value           nonuniform List<scalar> 9(0.977611547 0.9789534863 0.9791728276 0.9785271014 0.9784054963 0.9784054963 0.9852496235 0.9861446618 0.9859408819);
    }
    procBoundary10to16
    {
        type            processor;
        value           nonuniform List<scalar> 
18
(
0.9983295405
0.999148281
0.9829404528
0.9968621732
0.9966645462
0.9913066579
0.990645914
0.9916822911
0.9956166739
0.9977756078
0.9986395399
0.9989698418
0.9992154307
0.9990364049
0.9983601995
0.9976864495
0.9983295405
0.9977849653
)
;
    }
}


// ************************************************************************* //
