/*--------------------------------*- C++ -*----------------------------------*\
  =========                 |
  \\      /  F ield         | OpenFOAM: The Open Source CFD Toolbox
   \\    /   O peration     | Website:  https://openfoam.org
    \\  /    A nd           | Version:  7
     \\/     M anipulation  |
\*---------------------------------------------------------------------------*/
FoamFile
{
    version     2.0;
    format      ascii;
    class       volScalarField;
    location    "1.3";
    object      rho;
}
// * * * * * * * * * * * * * * * * * * * * * * * * * * * * * * * * * * * * * //

dimensions      [1 -3 0 0 0 0 0];

internalField   nonuniform List<scalar> 
22
(
1.325228327
1.328735475
1.332499712
1.338325229
1.329603405
1.334761706
1.338552383
1.345320233
1.340368027
1.343519247
1.347509755
1.347946501
1.350381098
1.350492665
1.355415331
1.354895016
1.354938769
1.36226089
1.361633876
1.361613423
1.362940016
1.366408123
)
;

boundaryField
{
    inlet
    {
        type            calculated;
        value           nonuniform 0();
    }
    outlet
    {
        type            calculated;
        value           nonuniform List<scalar> 6(1.36162665 1.338170556 1.345509513 1.347660834 1.350265661 1.354768724);
    }
    bottom
    {
        type            calculated;
        value           nonuniform 0();
    }
    top
    {
        type            calculated;
        value           nonuniform 0();
    }
    obstacle
    {
        type            calculated;
        value           nonuniform 0();
    }
    defaultFaces
    {
        type            empty;
    }
    procBoundary29to22
    {
        type            processor;
        value           uniform 1.360406259;
    }
    procBoundary29to23
    {
        type            processor;
        value           nonuniform List<scalar> 4(1.317358981 1.321431691 1.325632584 1.32933206);
    }
    procBoundary29to28
    {
        type            processor;
        value           nonuniform List<scalar> 7(1.361900965 1.333889895 1.333889895 1.340259991 1.346779519 1.353079722 1.329933848);
    }
    procBoundary29to35
    {
        type            processor;
        value           nonuniform List<scalar> 4(1.372426014 1.314387258 1.372426014 1.352582028);
    }
}


// ************************************************************************* //
