/*--------------------------------*- C++ -*----------------------------------*\
  =========                 |
  \\      /  F ield         | OpenFOAM: The Open Source CFD Toolbox
   \\    /   O peration     | Website:  https://openfoam.org
    \\  /    A nd           | Version:  7
     \\/     M anipulation  |
\*---------------------------------------------------------------------------*/
FoamFile
{
    version     2.0;
    format      ascii;
    class       volScalarField;
    location    "1.4";
    object      T;
}
// * * * * * * * * * * * * * * * * * * * * * * * * * * * * * * * * * * * * * //

dimensions      [0 0 0 1 0 0 0];

internalField   nonuniform List<scalar> 
22
(
0.9808845467
0.9275990153
0.9437693505
0.9977192068
0.930336823
0.9548534169
1.015000908
0.932507728
0.9678519144
1.029960789
0.9347678186
0.9811824859
1.043587926
0.939988444
0.9995555673
1.057907125
0.9536482404
1.027988947
0.9735362133
1.060259606
0.9820113776
1.091845067
)
;

boundaryField
{
    inlet
    {
        type            fixedValue;
        value           nonuniform 0();
    }
    outlet
    {
        type            inletOutlet;
        inletValue      nonuniform 0();
        value           nonuniform 0();
    }
    bottom
    {
        type            slip;
    }
    top
    {
        type            slip;
    }
    obstacle
    {
        type            zeroGradient;
    }
    defaultFaces
    {
        type            empty;
    }
    procBoundary15to9
    {
        type            processor;
        value           nonuniform List<scalar> 4(0.9593060472 0.9222077827 0.934290859 0.934290859);
    }
    procBoundary15to10
    {
        type            processor;
        value           nonuniform List<scalar> 3(1.027902002 1.034492531 1.040864536);
    }
    procBoundary15to16
    {
        type            processor;
        value           nonuniform List<scalar> 7(1.047096694 1.052153388 1.059726457 1.070292489 1.070292489 1.080605048 1.086221337);
    }
    procBoundary15to21
    {
        type            processor;
        value           nonuniform List<scalar> 2(0.9824911965 1.083577701);
    }
}


// ************************************************************************* //
