/*--------------------------------*- C++ -*----------------------------------*\
  =========                 |
  \\      /  F ield         | OpenFOAM: The Open Source CFD Toolbox
   \\    /   O peration     | Website:  https://openfoam.org
    \\  /    A nd           | Version:  7
     \\/     M anipulation  |
\*---------------------------------------------------------------------------*/
FoamFile
{
    version     2.0;
    format      ascii;
    class       volScalarField;
    location    "2";
    object      p;
}
// * * * * * * * * * * * * * * * * * * * * * * * * * * * * * * * * * * * * * //

dimensions      [1 -1 -2 0 0 0 0];

internalField   nonuniform List<scalar> 
2222
(
0.2345388868
0.2354897797
0.2366974236
0.2395208467
0.2439323419
0.2474310372
0.2490047551
0.1961090866
0.210224284
0.1970646732
0.1949307804
0.1946829343
0.1961175052
0.2007494349
0.203800986
0.1993664416
0.1929653809
0.1902579771
0.1900876276
0.1939254815
0.198685124
0.2035942532
0.2089784453
0.2129190375
0.2147742343
0.2163642997
0.2198943379
0.2216426933
0.2231510079
0.2258665351
0.2288143298
0.2310769498
0.2328450735
0.2338490971
0.2346053712
0.2353522671
0.2359398948
0.2375766807
0.2398352871
0.2426819328
0.2445909563
0.1915800158
0.2082489934
0.1982768673
0.1949000846
0.1953015408
0.1993033955
0.203387032
0.2044207867
0.1994413554
0.1938822213
0.1908487808
0.1901508321
0.1942001356
0.1987494263
0.2029796086
0.206994425
0.2092355678
0.2090255811
0.2102066606
0.2147270407
0.2184186362
0.2202930137
0.2231689568
0.2261037495
0.2283594783
0.2306460942
0.2321520043
0.2335031694
0.2350029494
0.2360239262
0.2370319556
0.2386806437
0.2398815289
0.24052524
0.1924729942
0.201889392
0.199085685
0.1947225884
0.1964093782
0.2000926705
0.2033873857
0.2041864408
0.1989863596
0.194287073
0.1922099317
0.1917169976
0.194546737
0.1980074438
0.2010606692
0.2030588204
0.2034311721
0.2044703973
0.2066773854
0.2088947417
0.2125808561
0.2151033622
0.2183424574
0.2212296545
0.2234495505
0.2259811725
0.2282216098
0.2307001822
0.2333613067
0.2354426295
0.2370300862
0.2384597243
0.2391472947
0.1997286417
0.1972807042
0.1987665242
0.1937983781
0.1968483844
0.1999397244
0.2027466315
0.20327982
0.1980003644
0.1936897245
0.1920281228
0.192862755
0.1945433361
0.1963120045
0.1981199418
0.1998017416
0.2014782195
0.2036795881
0.2059644919
0.2073580958
0.2093001747
0.2121387788
0.2154711524
0.2182593865
0.2202451593
0.2212903377
0.2229741794
0.2258165233
0.2296842081
0.2334273729
0.2360294814
0.2382984017
0.2390027065
0.2195059953
0.1961480215
0.1963506533
0.1932768254
0.1969383588
0.1996502029
0.2013901449
0.2010744902
0.194883312
0.1911554612
0.1905365914
0.1926467985
0.1945487855
0.194934039
0.1973353804
0.19933318
0.2011557064
0.2038058101
0.2060927213
0.207056662
0.2085365343
0.2114089998
0.214685736
0.2173916446
0.2192473063
0.2199314955
0.2212449398
0.2231603638
0.2252036059
0.2291520209
0.2334635976
0.2370127591
0.2382761058
0.2324818503
0.1957453773
0.1929410999
0.1933794092
0.1970652036
0.1999645586
0.200944177
0.1990747703
0.1921924096
0.1884464577
0.1876383756
0.1914937876
0.1935109821
0.1947860293
0.1972135452
0.1994644095
0.2015776238
0.2035888054
0.2056939326
0.2072693613
0.2085288189
0.2114598699
0.2146195587
0.2170170606
0.2190290421
0.2196109766
0.2208222736
0.2224299617
0.2237248416
0.2255358062
0.2290129736
0.2338845982
0.2362546736
0.2327615352
0.1964047713
0.1918361574
0.1936615762
0.1978011576
0.2015848408
0.2010477825
0.1983219668
0.1917470676
0.1881059985
0.1867613437
0.1901790611
0.1927557392
0.1947869403
0.197558274
0.1997828503
0.2012078686
0.2022407679
0.2039821157
0.2062335451
0.2080857031
0.211107049
0.2142864268
0.2165755621
0.2184958951
0.2194224194
0.2208545345
0.2223341202
0.2233506729
0.2246403044
0.2266559936
0.2292064556
0.2319330373
0.2297766437
0.1983806545
0.1920952484
0.1942775695
0.199933628
0.2025994236
0.2007676736
0.1977960432
0.1915489858
0.188061265
0.1866870778
0.1899769323
0.1929678405
0.1954268845
0.1979651134
0.1992502889
0.1998905679
0.1990954127
0.2000717638
0.2035640389
0.2064686462
0.2095615022
0.2127936125
0.2151073965
0.2167550366
0.2181012856
0.2198402737
0.2217114103
0.2233852581
0.2245550651
0.2260779614
0.2274753459
0.2284139397
0.2166378505
0.2022967818
0.1929819019
0.1955528831
0.2014459004
0.2025831491
0.200269668
0.1972121114
0.1914827275
0.1883929419
0.1868128259
0.1899637189
0.193514189
0.1962949299
0.1975392876
0.1978616829
0.1968760212
0.1958230898
0.1965791252
0.1991741245
0.2029252091
0.2060370586
0.2094490633
0.2119524952
0.2127660632
0.2150239639
0.2172708425
0.2198761524
0.2223996501
0.2243551649
0.226157466
0.2270715005
0.2276020758
0.1921052958
0.2042478785
0.1947841072
0.1965768365
0.2019166472
0.2021105734
0.1995616481
0.1960699736
0.1909517986
0.1898100268
0.1879888399
0.1903612003
0.1937220255
0.1961837822
0.1962472693
0.1954408177
0.1945566125
0.1952879909
0.1960489982
0.1974591364
0.199357126
0.2018964679
0.2046042803
0.2067959973
0.2078559814
0.2100888148
0.2127650585
0.2160259052
0.2199373058
0.2229849825
0.2256261404
0.2269848798
0.2273801577
0.1844596649
0.2043897352
0.1955665827
0.1970435743
0.2021446039
0.2012023902
0.197985364
0.1930809931
0.1893589026
0.1900147946
0.190238615
0.1914497772
0.1937233684
0.1953685655
0.1951661333
0.1947238931
0.194294273
0.1952068136
0.1959185642
0.1971620181
0.198599087
0.2008434746
0.2028744555
0.2045568513
0.2065043051
0.2079801236
0.2105060588
0.2126521444
0.215713879
0.2198601716
0.2238810797
0.2260259232
0.1838868567
0.2033846939
0.1945833625
0.1974252913
0.2019861356
0.1996057644
0.1962572692
0.1899765561
0.1869845519
0.1892027296
0.1904235216
0.1917433263
0.1936212105
0.1946288589
0.1949707698
0.1946255069
0.1942687114
0.1956633281
0.1964788502
0.1972263027
0.1983941092
0.2005884577
0.2024337982
0.203987184
0.2062177006
0.2074251016
0.2099744817
0.2117977347
0.2137015039
0.2162128515
0.2202347936
0.2236536501
0.1839842098
0.2002800522
0.1926070426
0.1971108483
0.2013926646
0.1989500627
0.1955826772
0.1890596686
0.1863994629
0.1874841543
0.1898791486
0.191707543
0.1933049526
0.1945283257
0.1949104369
0.1946740027
0.1946081902
0.1955285696
0.1968741754
0.1978675476
0.1989077851
0.2009106559
0.2025635151
0.2039989438
0.2060878776
0.207573737
0.2099306256
0.2116493016
0.2132212395
0.215109554
0.2172926909
0.2194349913
0.188148213
0.1955052761
0.1908371082
0.196260877
0.2016165627
0.1988079714
0.1954957809
0.1888143323
0.186422078
0.1869434679
0.1885665389
0.191381784
0.1932112433
0.1945230499
0.1950819851
0.1951480316
0.1945276066
0.1946604168
0.1962328134
0.197456979
0.1986052454
0.2002826908
0.201923465
0.2034259827
0.2051113282
0.2070343573
0.2093249514
0.2115655339
0.213252672
0.2148125952
0.2164534061
0.2172693332
0.2040827616
0.1939748766
0.1905531676
0.1970915724
0.202113657
0.1990084022
0.1957286273
0.1889574254
0.1867540795
0.1868871397
0.1880253219
0.1904216656
0.1932246967
0.1949436498
0.1955110472
0.1951410303
0.1940414489
0.1934433281
0.1944269616
0.1959328516
0.1973136805
0.1985596547
0.2001838794
0.2018612264
0.2027970087
0.2052965939
0.2077365215
0.2105845267
0.2127552784
0.2148362408
0.2162665088
0.2165565643
0.2159554235
0.1933310703
0.1918038421
0.198497445
0.2020670033
0.1987308042
0.1951024648
0.1897980822
0.1877337957
0.1869111425
0.1879613073
0.1899852808
0.1933583504
0.1952466925
0.1953072841
0.1945928805
0.1931660299
0.1932670786
0.1934382552
0.1935566071
0.1945392568
0.1952242494
0.1965828468
0.198379967
0.198796483
0.2018193409
0.2045027785
0.2083506576
0.2112582769
0.2140061539
0.2159432697
0.2166835994
0.2160518461
0.191997989
0.1934875165
0.1990993473
0.2008545579
0.1965522999
0.1927411355
0.1900420411
0.1890883055
0.1874714422
0.1879646438
0.1900832725
0.1933419392
0.1948553915
0.1944311204
0.1933272677
0.1929238215
0.1932557318
0.1933512329
0.1930233164
0.1931734985
0.1935133541
0.1941705897
0.1954132802
0.1969858767
0.1992023708
0.2016391187
0.2047364554
0.2080856978
0.2119692597
0.2146055838
0.2159143055
0.2142623947
0.190807074
0.1953309661
0.1986955013
0.1981939205
0.1937907116
0.1900088768
0.1893898456
0.1892620324
0.1890278099
0.1884608203
0.1906209286
0.1931180879
0.1939254361
0.1932845846
0.1927540124
0.1929242628
0.1933815846
0.1933634073
0.1929606467
0.1930207189
0.1932754728
0.193840424
0.1949540303
0.1966748856
0.1986446391
0.2009477762
0.2031187652
0.2052786467
0.2081904613
0.2119356226
0.2072863873
0.190524681
0.1969416048
0.198187687
0.1957649599
0.1932617213
0.189217502
0.187755975
0.1887444952
0.1894791187
0.1896280857
0.1911900096
0.1930160159
0.1935008065
0.1930170638
0.1927150347
0.1930582199
0.194088817
0.1939196674
0.1931269914
0.1930261809
0.1932838963
0.1938132894
0.1949871461
0.1969015636
0.1986287971
0.2008042266
0.2026869333
0.2045877834
0.2063016463
0.2080905583
0.1941027637
0.1902711715
0.1975370313
0.1978568564
0.1952913076
0.1931908732
0.1889714095
0.1869937369
0.1870061167
0.1891319437
0.1898867809
0.1913375533
0.1930221405
0.1934194027
0.1929722643
0.19274081
0.193547724
0.1950293486
0.1950121596
0.1939573296
0.1936264497
0.1939710591
0.194408885
0.1951813595
0.1966665176
0.1987611951
0.2009453195
0.2027822729
0.204473327
0.2060340114
0.2071650053
0.1902579048
0.1904432135
0.1978219988
0.198099172
0.1954399201
0.193340133
0.1889627944
0.1869677685
0.1858990851
0.1879304732
0.1897399863
0.1914019325
0.193069934
0.1934086022
0.1929997515
0.1930039596
0.1938249712
0.1951006749
0.1952032789
0.1942051195
0.1936434016
0.1939621241
0.1943429181
0.1946620153
0.1957282001
0.1980005012
0.200325509
0.2026402334
0.204472937
0.2058755203
0.208712411
0.189973097
0.1915056895
0.1984798974
0.1991294472
0.1959172167
0.1936413905
0.1890980168
0.187052411
0.185732738
0.1865908176
0.1891533026
0.1914237101
0.1933228879
0.1936167436
0.193311701
0.1931476489
0.1937282868
0.1947529377
0.1949493684
0.1939147002
0.1930676701
0.1933008841
0.1935724541
0.1934431849
0.1938602812
0.1961882688
0.1987932853
0.2015950024
0.2038928661
0.2047729947
0.3210931464
0.1896242603
0.1940288614
0.1976696389
0.200398773
0.1964465612
0.1943233856
0.1893439897
0.1872735822
0.1858491143
0.1862728541
0.1881306951
0.1914516878
0.1940455602
0.1940705385
0.1935254057
0.1931071205
0.1932542835
0.1936727088
0.1936862363
0.1927451427
0.191593209
0.1917226162
0.1919063602
0.1917932788
0.1923427822
0.1940354978
0.1962993115
0.1992119916
0.2016472299
0.2062881344
0.6429181793
0.1893824334
0.1978941092
0.1967517999
0.1994849254
0.1957033556
0.1942759354
0.1896912001
0.1879140044
0.1864170076
0.1862502848
0.18783915
0.1914611659
0.1942543578
0.1939684818
0.1933407336
0.1928230575
0.1927627832
0.1932049376
0.1925997368
0.1918242603
0.1909299939
0.191064038
0.1912310631
0.191350715
0.1921170251
0.1935621176
0.1953018444
0.1971084308
0.1988734234
0.3435916885
0.8085650159
0.1888878951
0.1994172394
0.195621713
0.1967594876
0.1941124392
0.1936333711
0.1895930493
0.1881043911
0.1870832138
0.1864551701
0.1878980802
0.1913308042
0.1939035538
0.1932935793
0.1925619959
0.192078239
0.1926604364
0.1930894899
0.1924427958
0.1916814135
0.1908215727
0.1909513315
0.1911211389
0.1912503654
0.192047375
0.193446986
0.1951692765
0.1964960065
0.2016687365
0.6688600043
0.8510748849
0.186820995
0.1994088822
0.1941452812
0.1912895558
0.1895661061
0.191953154
0.1891033766
0.1876400319
0.1869208173
0.1872721427
0.1880168206
0.1911981037
0.1928335418
0.1921344838
0.191666134
0.1916298074
0.1925829904
0.193002004
0.1923535678
0.1916080317
0.1907885153
0.1909059253
0.1910909347
0.1912873887
0.1922862905
0.1935390111
0.1952556725
0.196625638
0.3572017192
0.8504019709
0.1854295856
0.1989220964
0.1933473025
0.1884167218
0.1861714783
0.1880742573
0.1873536078
0.1857285255
0.1860276544
0.187506893
0.1881589636
0.1912287154
0.192230305
0.191623774
0.1913213589
0.1914356917
0.1926259635
0.1931950357
0.1927134401
0.1918452473
0.1911028327
0.1911446882
0.1914190473
0.1917191228
0.1928510341
0.1941995817
0.1955299467
0.2001913964
0.6259092383
0.8728797065
0.1852709604
0.1966395694
0.1927111725
0.1881799133
0.1856114809
0.1858412129
0.1846033896
0.1837073615
0.184876608
0.1871665482
0.1880703687
0.1912862699
0.1921120466
0.1915076686
0.1910989521
0.1912659395
0.1924582622
0.1932605259
0.1930914785
0.1922845814
0.1917806141
0.1917115256
0.1915024453
0.1916320937
0.1925923605
0.1940763972
0.1950330301
0.3552349806
0.8705337854
0.8603316863
0.18605982
0.1925602636
0.1923991747
0.1884455396
0.185458672
0.1854743959
0.1842189685
0.1834030639
0.1843944177
0.1862431526
0.1879533485
0.1913871742
0.1920713225
0.1913878988
0.1908680365
0.1910325099
0.1920327975
0.1929140112
0.1927186132
0.191964231
0.1916462704
0.1915491215
0.1911303589
0.1909362199
0.1917503921
0.193116627
0.1984641291
0.6693978084
0.9208718743
0.8940061262
0.1919870688
0.1904906229
0.1923932853
0.1886608837
0.1854256275
0.1854523444
0.184733311
0.1836057701
0.1842700609
0.185640947
0.1878332437
0.1917089554
0.1922533316
0.1913256789
0.1906110909
0.1905599097
0.1911024352
0.192065556
0.1915720791
0.1909710471
0.1908855724
0.1907247337
0.1901917405
0.1901076165
0.1908218836
0.1919995426
0.3886975391
0.8982955608
0.9028840856
0.9316550833
0.2028292929
0.1893931311
0.1921615948
0.1887751491
0.1854673957
0.1855710957
0.1854492018
0.1840073345
0.1842632311
0.1854575775
0.1877518545
0.1918938293
0.1921850404
0.1911704199
0.1902373072
0.1896916823
0.1902935224
0.1909680651
0.1903782029
0.1901375748
0.1899737617
0.1897954058
0.1896892423
0.1899598044
0.1905881907
0.1983578112
0.704513141
0.9312916142
0.8910567089
0.9535055492
0.2059455254
0.1889048211
0.1916416169
0.1889950741
0.1855861068
0.1857500645
0.1857758307
0.1848925138
0.1844820964
0.1853230335
0.1876636661
0.191687575
0.191735735
0.1906480018
0.1896143819
0.1891346824
0.1900604451
0.1907063098
0.1901793979
0.1900172477
0.189779405
0.1896291238
0.1896109217
0.1898956033
0.1910198322
0.4212108654
0.8846606135
0.8909409472
0.8926430582
0.9539495777
0.2045693184
0.1905996851
0.190891784
0.1891943964
0.1857862986
0.1858419646
0.1859344931
0.1849838228
0.1850572697
0.1851674553
0.1875618893
0.1911173679
0.1905659327
0.1895334519
0.1886913954
0.1890099218
0.18990926
0.1906222871
0.1901220464
0.1899817266
0.1897154519
0.1895858954
0.1895951571
0.1899898322
0.2165292207
0.6754421598
0.9094483635
0.876488609
0.9199998862
0.2024928294
0.1934113252
0.1897556821
0.1893489704
0.185812019
0.1853788291
0.1858733607
0.1850936095
0.1849999358
0.1850750511
0.1873958451
0.1899748049
0.1894317183
0.1886878356
0.1882105006
0.188853964
0.189865109
0.1906341465
0.1901647985
0.1900261628
0.1897134226
0.1896208309
0.1898093235
0.1912671725
0.5059307101
0.8126524347
0.8735845929
0.8847386354
0.947401625
0.1983791029
0.1936542788
0.1879345555
0.1889872459
0.1849517408
0.1843131034
0.1854109748
0.1847474871
0.1846619265
0.1849736192
0.1873106044
0.1892627353
0.1891271451
0.1884359653
0.1879250337
0.188694126
0.1899745154
0.1908409046
0.1905441733
0.1904550824
0.1900368041
0.1899002412
0.1896656786
0.2638133116
0.7822882955
0.924661758
0.8797904303
0.9251069775
0.9510295977
0.1888160101
0.1935882693
0.1857017261
0.1875048972
0.183284423
0.1823381587
0.184124497
0.1842751063
0.1842258685
0.1846899003
0.1872910509
0.1890578012
0.1889665583
0.1881673297
0.1875672485
0.1882716942
0.1897855907
0.190730117
0.1904999602
0.1905516804
0.1903299905
0.1898033371
0.1918755749
0.5604573457
0.8487742031
0.9663555381
0.9209767381
0.9559702355
0.9538866591
0.1833514895
0.1929815343
0.1848734426
0.1848437675
0.1821787222
0.1818269859
0.1836850985
0.1842895144
0.1841060381
0.1846699832
0.187353296
0.1890368182
0.1888453896
0.1877318746
0.1870451549
0.1876326594
0.1893526454
0.1902433343
0.1900426706
0.1901911946
0.190039359
0.1894325547
0.3168256069
0.8433724194
0.8991773889
0.9700051021
0.9657998676
0.96146332
0.9421758382
0.1831768469
0.1911567485
0.184486837
0.1831044075
0.1808121173
0.1818055381
0.1838174175
0.1843517484
0.1840742194
0.1846743713
0.1876177776
0.189298569
0.1888206521
0.1873341644
0.1865538285
0.1872801663
0.1887673439
0.1895216665
0.1893588653
0.1894242893
0.1891258959
0.1927893462
0.6223928597
0.9214091541
0.9584179705
0.9674711838
0.9712005795
0.9617756825
0.9221982666
0.1843198875
0.1887801095
0.184396264
0.1820547206
0.1804123361
0.1815215014
0.1837512466
0.1839880495
0.184020739
0.1844520375
0.1878690587
0.1894565998
0.1887416758
0.1870431148
0.1862154382
0.1869550959
0.1885986187
0.1893692332
0.1891955829
0.1890109768
0.1892284001
0.3928648003
0.7848177412
0.9026712345
0.9696539293
0.9480910418
0.9653021737
0.9416816759
0.9149449458
0.1897490169
0.1878336296
0.1845228815
0.1816204597
0.1807208561
0.1819680564
0.1833993203
0.1833868251
0.1835718568
0.183999152
0.1877013542
0.1891159619
0.1883665462
0.1867450767
0.1859325649
0.1867826136
0.1885503695
0.1893308911
0.189157123
0.1889574769
0.2063183168
0.663748463
0.9163436088
0.8918995456
0.9581629665
0.9245428533
0.9376178218
0.9159141323
0.1965024847
0.1871157063
0.1845314037
0.1818198876
0.1814730555
0.1824882067
0.1829159781
0.1831557436
0.182968426
0.1837758199
0.1868585176
0.1881512433
0.1877503116
0.1863377874
0.1855546606
0.1866537836
0.1885585416
0.1894011195
0.189201537
0.1898810523
0.444355421
0.8164070158
0.9552850286
0.9107564675
0.9484748706
0.9199200925
0.9109830065
0.9120689775
0.1972953591
0.1870940324
0.1849197831
0.1824659203
0.1815817176
0.182157595
0.183018628
0.1830829882
0.1827995754
0.1837142246
0.1860647206
0.1871222185
0.1868757749
0.1856388312
0.1850953654
0.1864197824
0.1884785923
0.1893875511
0.1891471487
0.2309216166
0.7604986778
0.9528079263
0.9648167533
0.9513712279
0.9281077398
0.921566364
0.9091020521
0.9121901046
0.1960499378
0.1871422234
0.1858980781
0.1821944586
0.1793371706
0.1803745984
0.1831375388
0.1831621949
0.1827915082
0.1837294767
0.1858930552
0.1867681887
0.1859517148
0.1846107119
0.1845607017
0.1859776318
0.188244748
0.1889467534
0.1909942526
0.5270385613
0.9254466602
0.9768815719
0.9673259308
0.9648739496
0.9198896588
0.929245589
0.9143225261
0.9281382246
0.1939980276
0.1870927403
0.1859872388
0.1795681691
0.1773215258
0.1800661828
0.183340242
0.1833378685
0.1827986887
0.1837714412
0.1858088955
0.186274556
0.1850816442
0.1836284389
0.1835728467
0.1852621851
0.1878817502
0.1881842556
0.2798810598
0.7712035507
0.9469960924
0.9768933375
0.9484193017
0.9656730563
0.9253813304
0.938148031
0.9350054596
0.9469408219
0.1878560845
0.1866026461
0.18527347
0.1775102175
0.1774731521
0.1802116344
0.1837788466
0.1837406155
0.182947928
0.1838251331
0.1857730629
0.1860088112
0.1839463456
0.182592497
0.1827522163
0.1849663279
0.1872427567
0.1920957585
0.5824417293
0.8444996848
0.9110907438
0.9543445559
0.9267316004
0.9536248404
0.9335866614
0.9425913029
0.9473068744
0.9503974536
0.1823811042
0.1837191384
0.1821161014
0.1773419295
0.1777454619
0.1801462433
0.184415952
0.1844288515
0.1834640073
0.184036573
0.185770884
0.1858782175
0.1834999211
0.18205629
0.1824395172
0.1849824861
0.1862590016
0.2900578838
0.7731130296
0.9011153474
0.9045971432
0.9156350841
0.9247818288
0.9326954243
0.9457142152
0.944089744
0.9508290464
0.1821740041
0.1809077896
0.1796500683
0.1768461164
0.1775154375
0.1800464727
0.1844946298
0.1846285236
0.1840379197
0.1846067761
0.1859700647
0.1854931628
0.1831496287
0.1818584773
0.1823480025
0.1844102201
0.1906934853
0.617552996
0.8577933299
0.9451316611
0.9181799322
0.9072955106
0.9262376333
0.925364411
0.9481321187
0.943293411
0.9477335799
0.1829204476
0.1804856868
0.1788339743
0.1762620158
0.1769712392
0.1798642304
0.1842407013
0.1845073865
0.1841316329
0.1853192799
0.186383853
0.1851912852
0.1828629801
0.181692292
0.1821033136
0.1834706984
0.3306505424
0.8656209997
0.9242383861
0.969756383
0.9478025437
0.9095652259
0.9325156752
0.9217925769
0.9419407501
0.9388287487
0.9355702354
0.184445344
0.1803516397
0.1785312787
0.1760303729
0.1761016395
0.1798866618
0.184252136
0.1843256284
0.184045504
0.1853843259
0.1863725355
0.185071367
0.1825886302
0.1814528177
0.1815097618
0.1892484635
0.6798483369
0.9040679254
0.9739627941
0.9787126787
0.9626082852
0.9292689068
0.9409595479
0.9243237859
0.9304125151
0.9329936927
0.9320353459
0.188156976
0.180472016
0.1790366537
0.1760428136
0.1755127375
0.1804431311
0.1844223779
0.1839679301
0.1838198257
0.1852020933
0.1862297637
0.1848561703
0.1822143505
0.180761198
0.1817132699
0.3787268749
0.8488690403
0.9092513137
0.9832817509
0.9790287981
0.966193059
0.9442781625
0.9397747516
0.9313075929
0.9214498757
0.9288294861
0.9329022339
0.1896756675
0.1820401687
0.1785787644
0.1757884655
0.1753495694
0.1815175803
0.1850555125
0.183661043
0.1830681432
0.1844073621
0.185481431
0.1842425326
0.1817023362
0.1800318893
0.1917516433
0.619308252
0.8725809344
0.9283766263
0.9801938928
0.955812608
0.9549368905
0.9480703459
0.9246665502
0.9351799033
0.9189798753
0.9298937955
0.9359730137
0.188422384
0.1827622662
0.1780867778
0.1755664311
0.1754343738
0.1823996594
0.1857572755
0.1835862986
0.182091658
0.1826717879
0.1830685257
0.1824616423
0.1805944815
0.1805237695
0.4117336499
0.826072547
0.908867844
0.9623250741
0.9559206486
0.9293581675
0.9316452096
0.9397761134
0.9280292547
0.9299164397
0.924338257
0.9331769934
0.9433488327
0.1848807761
0.1820361003
0.1775403055
0.1756078216
0.1755980761
0.1833345803
0.1863752827
0.1837090695
0.1819053791
0.1819934716
0.1808276337
0.1801327863
0.1792058299
0.2226600734
0.736992827
0.9729605729
0.9651848862
0.9657319524
0.9265633513
0.9262066109
0.9276112505
0.9275968466
0.9308965866
0.9368999216
0.9364851349
0.9409123681
0.1823512113
0.1798285951
0.1770307027
0.1759342104
0.175764231
0.1837697543
0.1870460859
0.1839063856
0.1819212116
0.182005636
0.1803238816
0.1791534319
0.180884747
0.5163473942
0.9368231274
0.9954299836
0.9896583581
0.969170648
0.9140583779
0.9270713987
0.9283258326
0.929890763
0.9389748661
0.9400842226
0.9472636046
0.9480820206
0.181407447
0.1764501477
0.1764738645
0.1761654723
0.1755278274
0.1855189614
0.1872705852
0.1840832021
0.1821852472
0.181976288
0.1803132377
0.1788790505
0.2830743037
0.8400754718
0.9796583919
0.9962905856
0.9970319043
0.9582317265
0.9161801524
0.9257009135
0.9372348706
0.9359998535
0.9523170679
0.9488178478
0.9539478934
0.9531880883
0.1809628911
0.1736924073
0.1759623162
0.175984326
0.174991424
0.1873682295
0.1869013803
0.1840653807
0.1828908749
0.1821009901
0.1800969198
0.1826601496
0.5626382428
0.9467855409
0.9526702215
0.9688248519
0.9823902253
0.9326402995
0.921651339
0.9345557171
0.9308032051
0.9253224036
0.9458054782
0.9521966463
0.9580690975
0.9567167213
0.180969378
0.1726444989
0.1757204074
0.1753861697
0.1782738287
0.1875583145
0.1864413511
0.1839498285
0.1830382781
0.1822845945
0.1800643726
0.3322149262
0.7960514963
0.9369914606
0.9491179234
0.9530493331
0.9532206909
0.9237196179
0.9342302889
0.9372067194
0.9313369094
0.9255534473
0.9334068063
0.9424578199
0.9534318289
0.955885561
0.1805628255
0.1726657717
0.175010059
0.1733220143
0.1800920891
0.1874280474
0.1858595386
0.1836020785
0.1827303588
0.182002949
0.1954521589
0.6214546202
0.9523897738
0.9181111517
0.9557669859
0.950899508
0.948739128
0.933005617
0.9470257988
0.9361196119
0.9224256405
0.9247631528
0.9244109417
0.9338222045
0.9415121857
0.9474468175
0.179827639
0.1722242331
0.1720443194
0.1742611341
0.1813690265
0.1871175215
0.1849702074
0.1824747387
0.1810980291
0.1814102105
0.458497406
0.8924214662
0.9727109507
0.9251729742
0.9501665832
0.9629643332
0.9483383266
0.9447325218
0.954910106
0.9259163141
0.9108903323
0.91542206
0.9160328415
0.9292294419
0.9349907328
0.1796023849
0.1730436933
0.1741262313
0.1747467238
0.1827388231
0.1867397965
0.1841933267
0.181515581
0.1800096385
0.2789444449
0.8132796296
0.9735586639
0.967790442
0.9454237234
0.9618723437
0.9614125804
0.9507055385
0.9619245309
0.9573770916
0.9335908606
0.921760796
0.920455676
0.9184882797
0.9285790411
0.9355330639
0.1811652071
0.1767194002
0.1752696545
0.1752539194
0.1838753702
0.1866507895
0.1837431425
0.1814403943
0.185800036
0.5950267393
0.9356083987
0.9758432234
0.9553453023
0.9696549153
0.9671795836
0.9610669887
0.9511288795
0.9560381106
0.9450396481
0.9399375878
0.9325687808
0.9277623883
0.9301197239
0.9345634816
0.9428345924
0.1794668229
0.1772137071
0.1756816955
0.1762098086
0.1849987003
0.1872059916
0.1836390955
0.1820422168
0.3554779017
0.7832411578
0.9193957595
0.9497340692
0.9597546566
0.9811686261
0.9617752263
0.9419905023
0.9409593144
0.9375366794
0.9285170021
0.943246425
0.944109063
0.9401989288
0.9424050973
0.9436194257
0.9524194075
0.1755247158
0.1771284096
0.1764456463
0.1777279165
0.1873683658
0.1866256301
0.182970649
0.1890769374
0.571614836
0.9084123497
0.9259616514
0.9472645378
0.9668289571
0.9836555553
0.9390436908
0.9123424244
0.9221281148
0.9129931361
0.9155648811
0.9429480675
0.9528062331
0.9515358097
0.9525359148
0.953166381
0.9611786389
0.1748673107
0.1772243579
0.1770863986
0.1796733255
0.1874412072
0.1856969883
0.1817027043
0.3299545341
0.7784972785
0.9517418343
0.9654928921
0.9731672569
0.9885893225
0.9731675633
0.928549429
0.9079006695
0.9043177949
0.8966028335
0.910147687
0.9351060638
0.9489975226
0.9550387972
0.9581808199
0.957844744
0.9644766618
0.1747638417
0.176952921
0.1774768867
0.1806069843
0.1852588747
0.1828582253
0.1906438011
0.6421904473
0.8893995683
0.9512484864
0.9593334829
0.9665086158
0.9771662799
0.9491918482
0.9351922156
0.9217381686
0.9097740751
0.9025937036
0.9161564325
0.9278474639
0.9342944093
0.9441976407
0.9474683222
0.9495662987
0.9547026211
0.1748439611
0.1760937936
0.1763664032
0.1805829486
0.1840394373
0.1809657773
0.404901263
0.863667575
0.9208804572
0.9495528094
0.9659569441
0.9715295485
0.9667434937
0.9357308994
0.9486191921
0.9427495317
0.9292990516
0.9160776933
0.9246176726
0.9241211733
0.9249790227
0.934286462
0.9357972495
0.9413893706
0.1748455121
0.1738654741
0.175075289
0.1820012795
0.1807532385
0.216827477
0.7038465379
0.9142019848
0.9419774414
0.9327507268
0.9657052191
0.9677298761
0.9539741617
0.9376779863
0.9602267573
0.9604648675
0.9471272817
0.9338367461
0.9323141318
0.9209594834
0.9191856439
0.9263744588
0.9301921962
0.938958109
0.1784558511
0.1733036878
0.1763001401
0.1822197117
0.1821368109
0.4335009782
0.8439613419
0.9530398867
0.9583840339
0.9508324524
0.9508268319
0.9455870725
0.9292660449
0.9373392299
0.955585584
0.9642374538
0.9619971406
0.9500656007
0.9348169012
0.9216912779
0.924372837
0.9319752421
0.9398382589
0.9455117658
0.1825502578
0.1740317775
0.1781336955
0.1802216782
0.2149543033
0.6487039144
0.8982128026
0.9735240708
0.9872583845
0.9692770301
0.9425907063
0.9260477648
0.9101007749
0.9319908521
0.9422868726
0.9486355752
0.9577746887
0.9537216671
0.9336568913
0.9277943109
0.9350656551
0.9422725732
0.9534876056
0.9578860826
0.18418635
0.1756676645
0.1782511988
0.1814394368
0.4358539055
0.8155967967
0.9288521704
0.9532950523
0.9761715131
0.969574487
0.9397260206
0.9186968293
0.905033387
0.9245008328
0.9240783218
0.9258458068
0.941546636
0.9476894335
0.9332109107
0.9359227028
0.9459467169
0.9501584231
0.9609701635
0.9687844734
0.1840828376
0.1794994052
0.1771436845
0.2413731179
0.6897461975
0.8913696223
0.9330691417
0.9352117942
0.9695862808
0.9663937057
0.9367947147
0.9217776821
0.910391428
0.919826897
0.9049864469
0.9033734072
0.9228034684
0.9315069083
0.9336247686
0.9424225221
0.9553119196
0.9575767492
0.9656406602
0.97250573
0.1826595681
0.1813838276
0.1820792625
0.5337377028
0.8640885281
0.9229640126
0.934053063
0.9248370364
0.9567524791
0.9724663037
0.9482676374
0.934855801
0.9255229158
0.9152443807
0.9026752705
0.9021563555
0.9121763421
0.9209935593
0.9335954797
0.9456017579
0.9575084939
0.9578358675
0.9612939749
0.1788894375
0.1806791748
0.2946179113
0.7969016675
0.9367145942
0.9379296468
0.9202535847
0.902851547
0.9295390628
0.9676262132
0.9597384469
0.9515132214
0.9396787454
0.9086956301
0.9120893059
0.9094898747
0.9158124994
0.9226476589
0.9377213968
0.9457789283
0.9481059061
0.9474763269
0.9487861537
0.1739437479
0.1863560788
0.5598818861
0.8940598917
0.9537297447
0.9430005285
0.8954152563
0.8964019126
0.9213492772
0.9425608452
0.9641714163
0.9626209091
0.9482413407
0.9293089545
0.9391299016
0.9263645374
0.9221443547
0.9257047503
0.9434156469
0.9400645722
0.933824712
0.9322385231
0.9377640156
0.172632131
0.3250610373
0.7429256544
0.9445553464
0.9800843031
0.976008009
0.9173054071
0.9121801209
0.927513644
0.9345824056
0.9431624149
0.9506310008
0.9483146357
0.9437106017
0.9592628632
0.9473949737
0.9342154064
0.9315115196
0.9425893386
0.9326021629
0.9320856746
0.9313009975
0.9381027315
0.2820097756
0.6143079603
0.8591138664
0.9714627191
0.9912681505
0.9921021256
0.9510558477
0.9400589057
0.9335279072
0.926507251
0.9211885094
0.9225035647
0.9288604581
0.9385134165
0.9569440958
0.9553217253
0.9380190682
0.9341922378
0.9337299932
0.9345313054
0.9347203709
0.9327377698
0.9418169844
0.3721728622
0.8263290033
0.9171277744
0.9789619405
0.9725038174
0.9722887672
0.9527313328
0.9387503822
0.9191404735
0.9003071343
0.8984357793
0.8974806406
0.9052314216
0.9277592511
0.9436620025
0.9534638933
0.9410739031
0.93852064
0.9389697702
0.9465474233
0.9503972869
0.9474717736
0.958905287
0.3865214698
0.9173076551
0.9290933366
0.9602412624
0.9542054584
0.9623186271
0.9544201925
0.9342845555
0.9234156208
0.8953041701
0.8849292507
0.8887994148
0.9039740992
0.9284288658
0.9400872691
0.9544824807
0.9411144746
0.9383606178
0.9399280801
0.949937365
0.9593704541
0.9611506533
0.9711655132
0.4796220619
0.7915475117
0.9424004542
0.9182367898
0.9298678897
)
;

boundaryField
{
    inlet
    {
        type            fixedValue;
        value           nonuniform 0();
    }
    outlet
    {
        type            zeroGradient;
    }
    bottom
    {
        type            slip;
    }
    top
    {
        type            slip;
    }
    obstacle
    {
        type            zeroGradient;
    }
    defaultFaces
    {
        type            empty;
    }
    procBoundary15to9
    {
        type            processor;
        value           nonuniform List<scalar> 
35
(
0.2350672174
0.2364869243
0.2393834645
0.2441123675
0.2478990286
0.2499918911
0.2510053232
0.2077745156
0.2097175747
0.196204574
0.197736042