/*--------------------------------*- C++ -*----------------------------------*\
  =========                 |
  \\      /  F ield         | OpenFOAM: The Open Source CFD Toolbox
   \\    /   O peration     | Website:  https://openfoam.org
    \\  /    A nd           | Version:  7
     \\/     M anipulation  |
\*---------------------------------------------------------------------------*/
FoamFile
{
    version     2.0;
    format      ascii;
    class       volVectorField;
    location    "2.6";
    object      U;
}
// * * * * * * * * * * * * * * * * * * * * * * * * * * * * * * * * * * * * * //

dimensions      [0 1 -1 0 0 0 0];

internalField   nonuniform List<vector> 
2225
(
(2.381718402 0.4730746827 0)
(2.365947417 0.4594946146 0)
(2.350678434 0.4543316894 0)
(2.339047744 0.4468478162 0)
(2.329221322 0.4426797173 0)
(2.322935107 0.4351675549 0)
(2.317350956 0.4332391322 0)
(2.317670538 0.4225533203 0)
(2.315758399 0.4177986521 0)
(2.31876771 0.4078616284 0)
(2.322922807 0.402610716 0)
(2.329268155 0.3971749316 0)
(2.334045032 0.3949031316 0)
(2.34122802 0.3899693298 0)
(2.346410029 0.3863450104 0)
(2.357047917 0.3798634326 0)
(2.532006708 0.620488557 0)
(2.53539738 0.6118330779 0)
(2.536186979 0.607857069 0)
(2.53472924 0.6015656816 0)
(2.529154021 0.5947596018 0)
(2.523598629 0.5857105166 0)
(2.519794946 0.5762839728 0)
(2.518136277 0.5668585034 0)
(2.516552119 0.5605900979 0)
(2.515066241 0.5531664782 0)
(2.51073601 0.5469562851 0)
(2.504096521 0.5385258385 0)
(2.493447547 0.5320554164 0)
(2.482177282 0.5212208329 0)
(2.467303043 0.513086754 0)
(2.452952716 0.4994213274 0)
(2.436533741 0.4871315398 0)
(2.420404884 0.4741774102 0)
(2.403306836 0.4655138893 0)
(2.387210956 0.4572209467 0)
(2.372092124 0.4488876669 0)
(2.359037172 0.4402672368 0)
(2.346896222 0.4343720968 0)
(2.34037907 0.4232770194 0)
(2.333559814 0.418992829 0)
(2.330337334 0.4128567181 0)
(2.328854667 0.4096600017 0)
(2.330972612 0.404196018 0)
(2.33263683 0.4014069986 0)
(2.337878967 0.3933392105 0)
(2.342009168 0.3879595891 0)
(2.352363427 0.3797870742 0)
(2.541105424 0.6257717791 0)
(2.543768499 0.6185427098 0)
(2.543953797 0.6160660766 0)
(2.540967101 0.6123723488 0)
(2.534297934 0.6065485754 0)
(2.530818506 0.5954495868 0)
(2.530934752 0.5835081571 0)
(2.533302626 0.5727490534 0)
(2.535292279 0.5658552701 0)
(2.536616203 0.5593373419 0)
(2.534529018 0.5550957126 0)
(2.530208499 0.5484020193 0)
(2.522521687 0.5436494043 0)
(2.515793987 0.5329553178 0)
(2.506690876 0.5236571174 0)
(2.497693738 0.5098937543 0)
(2.485393684 0.4989328732 0)
(2.472041928 0.4864959627 0)
(2.455487136 0.4810589931 0)
(2.438917428 0.4733238074 0)
(2.421769496 0.4655010877 0)
(2.40496792 0.4568793574 0)
(2.387896104 0.4520822936 0)
(2.375159275 0.4404503921 0)
(2.362036023 0.4368789693 0)
(2.353701546 0.4259994322 0)
(2.346933118 0.4182983845 0)
(2.343475443 0.4094695573 0)
(2.341576988 0.401163932 0)
(2.342430568 0.3934896563 0)
(2.343949243 0.3906351554 0)
(2.350947455 0.3849461679 0)
(2.547038853 0.632904566 0)
(2.549663889 0.6239862359 0)
(2.549934579 0.6215641118 0)
(2.546279794 0.6198405474 0)
(2.540198691 0.613888533 0)
(2.539117806 0.6015180013 0)
(2.542271305 0.5882404707 0)
(2.546675957 0.5775364252 0)
(2.550061391 0.5714311512 0)
(2.551963924 0.5664265883 0)
(2.55028373 0.5628884554 0)
(2.546588406 0.5573633048 0)
(2.541622923 0.5516628195 0)
(2.53899253 0.541289922 0)
(2.535131163 0.5325834701 0)
(2.530939603 0.5211269531 0)
(2.523136239 0.5114874264 0)
(2.513211438 0.5012847504 0)
(2.500095957 0.4945815854 0)
(2.485909025 0.4872306631 0)
(2.470488607 0.4790907725 0)
(2.454484407 0.4691146015 0)
(2.437365847 0.4612303844 0)
(2.42232402 0.4486411931 0)
(2.405934845 0.4409469307 0)
(2.393106457 0.4289554221 0)
(2.380914621 0.4217754989 0)
(2.372150185 0.4124892296 0)
(2.363956446 0.4103142152 0)
(2.359383486 0.402105972 0)
(2.356546887 0.3979462137 0)
(2.35764488 0.3895100343 0)
(2.549964168 0.6385653514 0)
(2.551778472 0.6315278631 0)
(2.551143753 0.6311962644 0)
(2.54736441 0.6309762872 0)
(2.543985017 0.6241110496 0)
(2.547172652 0.6094714339 0)
(2.552772416 0.5945545235 0)
(2.558171572 0.5830968558 0)
(2.56161181 0.5766160181 0)
(2.562988407 0.5717554867 0)
(2.560387182 0.5690654464 0)
(2.556968785 0.5637916591 0)
(2.554241348 0.558124567 0)
(2.555333366 0.5479643956 0)
(2.555715598 0.5393781577 0)
(2.55519321 0.5292216665 0)
(2.550685104 0.5208859159 0)
(2.543678572 0.511808667 0)
(2.533304546 0.5069932156 0)
(2.522616572 0.5000340873 0)
(2.511176103 0.4915944274 0)
(2.498806519 0.4821970632 0)
(2.484782388 0.4745069562 0)
(2.471034629 0.4629107253 0)
(2.454212268 0.4568977109 0)
(2.439070362 0.4464297526 0)
(2.424015662 0.4374603557 0)
(2.410885622 0.4291115029 0)
(2.399232079 0.4213653736 0)
(2.390278094 0.4112600546 0)
(2.383000654 0.405013133 0)
(2.376555467 0.3937172109 0)
(2.550719323 0.6445223111 0)
(2.554120628 0.6382436665 0)
(2.55414318 0.6379340292 0)
(2.550814489 0.6371749169 0)
(2.550406225 0.6279258471 0)
(2.556817854 0.6119680401 0)
(2.56289839 0.5979382758 0)
(2.567223825 0.5883784435 0)
(2.569228948 0.5832446028 0)
(2.568685879 0.5801405737 0)
(2.565332706 0.5773238075 0)
(2.563543811 0.5708214877 0)
(2.564502433 0.5626574202 0)
(2.568861545 0.5519537224 0)
(2.571436067 0.5447288968 0)
(2.572122746 0.537310366 0)
(2.568738353 0.5311371449 0)
(2.563043014 0.5240631221 0)
(2.555580299 0.5181666679 0)
(2.548908582 0.5104923124 0)
(2.542300113 0.5014035834 0)
(2.534694256 0.4920834717 0)
(2.525129817 0.4845956711 0)
(2.514510847 0.4746614243 0)
(2.50004003 0.4684978812 0)
(2.486098849 0.4572379259 0)
(2.470817741 0.4483675608 0)
(2.457153652 0.4372204741 0)
(2.443896681 0.4296609377 0)
(2.432290036 0.4200007568 0)
(2.422254404 0.4121476321 0)
(2.408516761 0.4020892483 0)
(2.551653847 0.6472553162 0)
(2.555877127 0.6438459089 0)
(2.553936267 0.647385529 0)
(2.550606217 0.6466446388 0)
(2.555689168 0.6338821337 0)
(2.564663629 0.6165221957 0)
(2.569586856 0.6030073779 0)
(2.572415771 0.5944368782 0)
(2.573308944 0.5901615469 0)
(2.571614747 0.5875618312 0)
(2.568856896 0.5836110155 0)
(2.570231295 0.5748334838 0)
(2.574613072 0.5654812128 0)
(2.580527386 0.5560811725 0)
(2.583624684 0.5503398353 0)
(2.583927497 0.5450064919 0)
(2.580430155 0.5398880189 0)
(2.575406501 0.5333253762 0)
(2.570088148 0.5273368901 0)
(2.567241794 0.5190390083 0)
(2.565102874 0.509635701 0)
(2.561773056 0.5006594424 0)
(2.556072257 0.4937101615 0)
(2.548541365 0.4852456747 0)
(2.53685862 0.4799808813 0)
(2.525056751 0.4708578088 0)
(2.51242237 0.4612509447 0)
(2.500584145 0.4510674254 0)
(2.488740595 0.4428992835 0)
(2.477590955 0.4321164264 0)
(2.46645372 0.4248594245 0)
(2.448857959 0.4137079789 0)
(2.553401678 0.6491844487 0)
(2.557908501 0.6486291078 0)
(2.555020123 0.6524801236 0)
(2.552868299 0.6488924248 0)
(2.561175221 0.6354045778 0)
(2.569754801 0.6191313383 0)
(2.572630825 0.6071690735 0)
(2.574273607 0.599724005 0)
(2.573714061 0.59806764 0)
(2.570962631 0.5970995927 0)
(2.571222372 0.5911231044 0)
(2.577167878 0.5799522961 0)
(2.584481797 0.5690241212 0)
(2.59076729 0.5600013465 0)
(2.593085002 0.5557197055 0)
(2.591635037 0.5526514377 0)
(2.586739012 0.5491515546 0)
(2.582012183 0.5434218576 0)
(2.579901753 0.5355331611 0)
(2.580947899 0.5260195706 0)
(2.582440569 0.5159632496 0)
(2.581654626 0.5079485965 0)
(2.578112269 0.5020477032 0)
(2.572309056 0.4956593568 0)
(2.563160561 0.4906557032 0)
(2.554659229 0.4811994917 0)
(2.545734254 0.4713457493 0)
(2.537630067 0.460543897 0)
(2.529057116 0.4517989893 0)
(2.519677116 0.4427395899 0)
(2.509756455 0.4343526752 0)
(2.492014904 0.4228286591 0)
(2.556464954 0.6539976279 0)
(2.55901425 0.6577179088 0)
(2.555437735 0.6599067232 0)
(2.55530999 0.652097787 0)
(2.563929816 0.6384867637 0)
(2.570713439 0.6230282485 0)
(2.571949613 0.6119905437 0)
(2.573485094 0.6061339932 0)
(2.573071087 0.6057135339 0)
(2.572021619 0.6027940793 0)
(2.576522822 0.5936932276 0)
(2.585574115 0.5813846812 0)
(2.593518677 0.5712838596 0)
(2.598617781 0.5647760364 0)
(2.598865055 0.5626796893 0)
(2.59480561 0.561758507 0)
(2.589464796 0.557851015 0)
(2.587076937 0.5502544353 0)
(2.58874268 0.5406241549 0)
(2.592759957 0.5309955151 0)
(2.595740742 0.5223592665 0)
(2.595698737 0.5154986136 0)
(2.592692654 0.5103898595 0)
(2.587746665 0.5048002015 0)
(2.581022603 0.4988107651 0)
(2.575453025 0.4899789248 0)
(2.570690018 0.4791990818 0)
(2.566145321 0.4690034675 0)
(2.560668314 0.4613974944 0)
(2.553767934 0.4533567864 0)
(2.54555345 0.4461613315 0)
(2.530348768 0.4353746362 0)
(2.557896457 0.6595556879 0)
(2.558264088 0.6672787275 0)
(2.554768654 0.6675530314 0)
(2.555464381 0.656769056 0)
(2.562016597 0.6438715615 0)
(2.568748787 0.6279300429 0)
(2.570166785 0.6166905339 0)
(2.572979251 0.6118530191 0)
(2.572899254 0.612714041 0)
(2.574245737 0.6081832973 0)
(2.58281142 0.5968148636 0)
(2.59267361 0.5843031498 0)
(2.599685771 0.575575411 0)
(2.602793163 0.5708307195 0)
(2.600583852 0.5707986239 0)
(2.594440704 0.5711581696 0)
(2.590702512 0.5656021967 0)
(2.59222785 0.555686014 0)
(2.597688323 0.5445852525 0)
(2.603284668 0.5356682155 0)
(2.606337958 0.5282137668 0)
(2.605287013 0.5231031331 0)
(2.601342308 0.5192366244 0)
(2.596438083 0.5146152918 0)
(2.592166497 0.5075688727 0)
(2.590329183 0.4969861193 0)
(2.589196708 0.4854819796 0)
(2.587428514 0.4755581112 0)
(2.584271104 0.4684652536 0)
(2.578766608 0.4628576669 0)
(2.572647054 0.4555068019 0)
(2.561592999 0.4441538187 0)
(2.558890965 0.6657163591 0)
(2.554871685 0.6756639392 0)
(2.549199525 0.6750625726 0)
(2.550453771 0.6630210585 0)
(2.556906784 0.6506817526 0)
(2.5662287 0.6318883264 0)
(2.569266776 0.6205500362 0)
(2.573373796 0.6169379124 0)
(2.574048208 0.6171976069 0)
(2.578456288 0.6095512747 0)
(2.589283366 0.5966869232 0)
(2.597880604 0.5854550854 0)
(2.602894193 0.5787632946 0)
(2.603338812 0.5768432415 0)
(2.59821411 0.5802037074 0)
(2.591608845 0.5808033699 0)
(2.5926754 0.5720153959 0)
(2.599217123 0.5590361272 0)
(2.607093293 0.5470977814 0)
(2.612870688 0.5390458683 0)
(2.614328743 0.5341729761 0)
(2.61104829 0.5311053208 0)
(2.60581902 0.5279725833 0)
(2.601687045 0.5227345631 0)
(2.600916205 0.5128882519 0)
(2.602047615 0.5017514022 0)
(2.603460248 0.4900666468 0)
(2.602981024 0.4810787153 0)
(2.60035432 0.476092557 0)
(2.595452234 0.4718862015 0)
(2.590917862 0.4651015881 0)
(2.584158759 0.4539722642 0)
(2.559259191 0.6669969426 0)
(2.552386079 0.6814808396 0)
(2.544346048 0.6818207986 0)
(2.544031423 0.670747127 0)
(2.552054384 0.6582059281 0)
(2.564003091 0.6358850976 0)
(2.568405176 0.6242770783 0)
(2.573402783 0.6224969806 0)
(2.574671816 0.6219370801 0)
(2.58191091 0.6122371009 0)
(2.592478892 0.599424904 0)
(2.598801017 0.5895892365 0)
(2.60142474 0.5846430637 0)
(2.599447623 0.585628878 0)
(2.593339085 0.5900077036 0)
(2.590484783 0.5873510332 0)
(2.597718632 0.5755098189 0)
(2.607387782 0.5618578262 0)
(2.61579777 0.5506132713 0)
(2.620197075 0.5444284554 0)
(2.619012618 0.5411629597 0)
(2.613279486 0.5393635299 0)
(2.607514004 0.5363276308 0)
(2.605548715 0.5297876338 0)
(2.608146338 0.5188377766 0)
(2.611917729 0.5068759938 0)
(2.614328946 0.4957222231 0)
(2.613743242 0.4876778537 0)
(2.610771492 0.4835639482 0)
(2.605711804 0.4804489801 0)
(2.603260203 0.4726020156 0)
(2.600809766 0.4604011968 0)
(2.558299507 0.6735133302 0)
(2.550064936 0.6926341186 0)
(2.542821294 0.6883427395 0)
(2.540036036 0.6763641657 0)
(2.551894079 0.6592642475 0)
(2.560972884 0.6391228353 0)
(2.568234988 0.6293351718 0)
(2.573802274 0.6284736912 0)
(2.575893008 0.6248974403 0)
(2.584837749 0.6131047715 0)
(2.59354208 0.6009985851 0)
(2.597766659 0.5934598331 0)
(2.598780975 0.5906578103 0)
(2.595540709 0.5943658021 0)
(2.589976402 0.5976847785 0)
(2.592957862 0.5907620194 0)
(2.6051737 0.5767950435 0)
(2.615664051 0.5636168548 0)
(2.623170659 0.5542539297 0)
(2.624836422 0.5502589007 0)
(2.620138199 0.5493063498 0)
(2.612832465 0.5478616571 0)
(2.608946441 0.5426269544 0)
(2.610702939 0.5334143355 0)
(2.616649335 0.5206290296 0)
(2.62129958 0.5098612688 0)
(2.622998806 0.5006157054 0)
(2.62108888 0.4939493695 0)
(2.616484765 0.4918792498 0)
(2.61173431 0.48824068 0)
(2.61171742 0.4792681083 0)
(2.612837655 0.4669356953 0)
(2.560047501 0.6889741733 0)
(2.545728715 0.706406651 0)
(2.536355876 0.6983683361 0)
(2.537117981 0.682782565 0)
(2.552474365 0.65389134 0)
(2.559992454 0.6389995929 0)
(2.567722125 0.6347168291 0)
(2.570042347 0.6364430751 0)
(2.573484458 0.6308442875 0)
(2.584165422 0.6185139297 0)
(2.591330316 0.6063339065 0)
(2.59449757 0.5996036582 0)
(2.594774955 0.5991184199 0)
(2.591266497 0.6040026478 0)
(2.589180376 0.603185394 0)
(2.59890873 0.592343738 0)
(2.612531312 0.5775469831 0)
(2.622294545 0.5654198351 0)
(2.627237157 0.5587482186 0)
(2.624545199 0.5585024999 0)
(2.616653563 0.5596449846 0)
(2.610781978 0.5564541787 0)
(2.611442142 0.5479182175 0)
(2.617415149 0.5363086452 0)
(2.62488956 0.5239372212 0)
(2.628785023 0.5149122114 0)
(2.628233634 0.507806983 0)
(2.624195667 0.5028227294 0)
(2.618603638 0.5007529848 0)
(2.615618905 0.4951334183 0)
(2.618765461 0.4841213046 0)
(2.622693417 0.4711506979 0)
(2.553238933 0.7028794318 0)
(2.537047265 0.7202149792 0)
(2.529762062 0.7126375205 0)
(2.535157732 0.6878915043 0)
(2.552969678 0.6521136491 0)
(2.560728555 0.6377580736 0)
(2.568167483 0.6377487658 0)
(2.56919745 0.6403332922 0)
(2.573332805 0.6335653196 0)
(2.583415578 0.6220989097 0)
(2.588933727 0.6108363395 0)
(2.591334586 0.6050497883 0)
(2.591403567 0.60684965 0)
(2.58864112 0.6114371464 0)
(2.591718444 0.6063600346 0)
(2.605784252 0.593534054 0)
(2.617875679 0.5783186439 0)
(2.625445795 0.568151569 0)
(2.626911043 0.5650621565 0)
(2.620443642 0.5679987176 0)
(2.611990321 0.5688683576 0)
(2.610592577 0.562267897 0)
(2.616511426 0.5504353237 0)
(2.625327425 0.5374201666 0)
(2.632780691 0.5253460975 0)
(2.634441782 0.5186481385 0)
(2.631087067 0.5138206535 0)
(2.625392192 0.5100543022 0)
(2.619617087 0.5079578263 0)
(2.619954935 0.4996834301 0)
(2.625581272 0.4878613337 0)
(2.630637257 0.4760192397 0)
(2.551838106 0.6935805171 0)
(2.535133232 0.7268459038 0)
(2.529613777 0.7225221931 0)
(2.53639346 0.6964386055 0)
(2.555024062 0.6563173934 0)
(2.561733968 0.638770267 0)
(2.569045148 0.6388372213 0)
(2.57022465 0.6415208213 0)
(2.571528913 0.6374309459 0)
(2.579181937 0.6282228472 0)
(2.584386997 0.6173810272 0)
(2.587021272 0.6113407966 0)
(2.588377463 0.6139436028 0)
(2.58837694 0.6160608902 0)
(2.596014199 0.6081173234 0)
(2.610167531 0.5947936704 0)
(2.619593977 0.5807208892 0)
(2.624392206 0.573062921 0)
(2.622633211 0.5734732944 0)
(2.614626305 0.5774259198 0)
(2.609003714 0.5757785061 0)
(2.613302786 0.5658121943 0)
(2.623092585 0.5521749444 0)
(2.63252256 0.5396824936 0)
(2.637561634 0.5300112056 0)
(2.63554803 0.5259111759 0)
(2.629600686 0.5226234174 0)
(2.623774666 0.519135328 0)
(2.620756581 0.514394135 0)
(2.625435512 0.5033654101 0)
(2.632589155 0.491306103 0)
(2.637424083 0.4803059771 0)
(2.558841625 0.6925869535 0)
(2.535831693 0.7438732799 0)
(2.527441517 0.7352148884 0)
(2.536368526 0.6983466434 0)
(2.556727886 0.6534720366 0)
(2.563977993 0.6372586424 0)
(2.572179086 0.6402354206 0)
(2.572239406 0.643719844 0)
(2.569570222 0.6407128437 0)
(2.575792426 0.6318360061 0)
(2.580740395 0.6216001143 0)
(2.584254294 0.6163812064 0)
(2.587281302 0.619269217 0)
(2.589718233 0.6189603369 0)
(2.599607741 0.6095735605 0)
(2.611362724 0.5965908718 0)
(2.617812778 0.58492567 0)
(2.619880164 0.5803776785 0)
(2.615907656 0.5834020416 0)
(2.60903833 0.5856862638 0)
(2.608979528 0.5798114172 0)
(2.618081383 0.5670333029 0)
(2.62930711 0.5531156224 0)
(2.637648521 0.5417423471 0)
(2.639337043 0.5350124403 0)
(2.63375088 0.533585187 0)
(2.62683992 0.5307002842 0)
(2.623256891 0.5253677309 0)
(2.624334759 0.517678503 0)
(2.632389726 0.5050053772 0)
(2.639332591 0.4945919593 0)
(2.642274316 0.4857551577 0)
(2.564889688 0.6663990605 0)
(2.551675969 0.7500070764 0)
(2.525960784 0.7311272264 0)
(2.545942918 0.6879920126 0)
(2.559010449 0.6493039654 0)
(2.569037237 0.6406467289 0)
(2.574683844 0.647373776 0)
(2.570841708 0.6512094005 0)
(2.567330174 0.6452829214 0)
(2.573511328 0.6338997689 0)
(2.578008706 0.6237497588 0)
(2.582798944 0.6211933505 0)
(2.586630536 0.6250621607 0)
(2.590186737 0.6230904602 0)
(2.600806907 0.6128903894 0)
(2.610089882 0.6000572465 0)
(2.614468848 0.5901889794 0)
(2.614883277 0.5887336426 0)
(2.610115986 0.5930717542 0)
(2.605763006 0.5926143272 0)
(2.61138054 0.5827210207 0)
(2.622873226 0.5675841757 0)
(2.63311921 0.5542393157 0)
(2.637751653 0.5466724484 0)
(2.634540784 0.5439939762 0)
(2.626726637 0.5436210458 0)
(2.622605404 0.5388398888 0)
(2.623595027 0.5309935021 0)
(2.629520559 0.52063339 0)
(2.639168189 0.5078215205 0)
(2.64456488 0.4994812537 0)
(2.644898231 0.4916734941 0)
(2.683473295 0.4909728288 0)
(2.568874381 0.7454878903 0)
(2.548795133 0.7247358439 0)
(2.562914651 0.6719276891 0)
(2.569665247 0.6435006369 0)
(2.577548045 0.64161095 0)
(2.575253164 0.6551885442 0)
(2.564326683 0.6601656291 0)
(2.564274343 0.6517211575 0)
(2.570438058 0.6379216981 0)
(2.575759957 0.6273142926 0)
(2.582987356 0.6255585082 0)
(2.58796114 0.6288708243 0)
(2.591826225 0.6254302806 0)
(2.601237047 0.615334902 0)
(2.607548338 0.6038456745 0)
(2.609827575 0.5964254699 0)
(2.608471818 0.598477336 0)
(2.603155162 0.6029708996 0)
(2.603809105 0.5987415759 0)
(2.614158371 0.5850981587 0)
(2.625521582 0.5683624131 0)
(2.633805476 0.5563328847 0)
(2.635293971 0.5519022132 0)
(2.628869868 0.5520024496 0)
(2.621014009 0.5509193887 0)
(2.620983205 0.5434889519 0)
(2.626429465 0.5333557524 0)
(2.635485144 0.5218659162 0)
(2.645075447 0.5095679241 0)
(2.647460252 0.5044903671 0)
(2.644879172 0.4982271196 0)
(2.913065336 0.149378981 0)
(2.633092828 0.6466509362 0)
(2.585018151 0.723066716 0)
(2.580966386 0.6623187392 0)
(2.584396285 0.6476860026 0)
(2.585028879 0.6529064707 0)
(2.573333998 0.6693331346 0)
(2.562188222 0.6671658043 0)
(2.564031256 0.6541534823 0)
(2.567998376 0.6391751737 0)
(2.574392907 0.630001854 0)
(2.583126282 0.6311173279 0)
(2.587668348 0.635128527 0)
(2.591014728 0.6309047511 0)
(2.599129905 0.6206671373 0)
(2.60379353 0.6092120309 0)
(2.605146077 0.6035169791 0)
(2.603666329 0.6070825907 0)
(2.599907625 0.6092611752 0)
(2.604643765 0.6012858962 0)
(2.615851363 0.5854523305 0)
(2.624770088 0.5698105802 0)
(2.629433529 0.5611686996 0)
(2.62690033 0.5605757906 0)
(2.619480183 0.5614172265 0)
(2.616367932 0.5565196284 0)
(2.621553885 0.545806585 0)
(2.630139242 0.5341689974 0)
(2.63987492 0.522913501 0)
(2.646594881 0.5144737442 0)
(2.644881207 0.5127393216 0)
(2.641860706 0.5057566528 0)
(3.06335304 -0.1757066056 0)
(2.852360947 0.2853858485 0)
(2.672561878 0.6392225154 0)
(2.617193851 0.6355847819 0)
(2.597694129 0.6540343353 0)
(2.583511517 0.6733258121 0)
(2.563709378 0.6869110752 0)
(2.551995583 0.6781488234 0)
(2.555633582 0.6653388792 0)
(2.563480869 0.6456712544 0)
(2.573580746 0.6340443725 0)
(2.585125763 0.6344965161 0)
(2.589543596 0.6381939074 0)
(2.591183403 0.6346155367 0)
(2.596656518 0.6251276444 0)
(2.598840057 0.6155147271 0)
(2.599387725 0.6125508784 0)
(2.598303142 0.6165360767 0)
(2.597755563 0.615551382 0)
(2.605919497 0.6038422572 0)
(2.615918692 0.5860317769 0)
(2.622277472 0.5715024279 0)
(2.624040131 0.5662805752 0)
(2.618615937 0.568722868 0)
(2.611793087 0.5682635724 0)
(2.614006568 0.5599798722 0)
(2.622729474 0.5474383773 0)
(2.632625033 0.5352780033 0)
(2.641711834 0.5243769346 0)
(2.645164073 0.5191914672 0)
(2.640619781 0.5193426256 0)
(2.63893403 0.5117595447 0)
(3.090976718 -0.26018446 0)
(3.049627964 -0.1284631485 0)
(2.85213074 0.3248621352 0)
(2.691153266 0.5726709765 0)
(2.61282201 0.634397802 0)
(2.588628079 0.6732201075 0)
(2.560977036 0.6912848291 0)
(2.547585284 0.6823371442 0)
(2.552264976 0.6689010664 0)
(2.562470333 0.6467654036 0)
(2.576270484 0.6353236826 0)
(2.588613077 0.6383338039 0)
(2.590825148 0.6438335574 0)
(2.589044324 0.6415894525 0)
(2.592376532 0.6323273872 0)
(2.593876396 0.6222910411 0)
(2.594892351 0.6202357502 0)
(2.595488009 0.6235817477 0)
(2.597610865 0.6204240943 0)
(2.606528219 0.6066184927 0)
(2.613912582 0.5886567785 0)
(2.617312319 0.5756610228 0)
(2.616290974 0.5736779022 0)
(2.609363621 0.5770957839 0)
(2.605884233 0.5733387411 0)
(2.613299812 0.5619259154 0)
(2.623531816 0.5480253469 0)
(2.633224981 0.5363608025 0)
(2.640019039 0.5283872667 0)
(2.638604527 0.5275195324 0)
(2.633889708 0.5268101545 0)
(2.636345224 0.517268969 0)
(3.091662462 -0.2551002039 0)
(3.08979532 -0.248148144 0)
(3.051625668 -0.1317863611 0)
(2.841256623 0.3202851273 0)
(2.68220419 0.546254132 0)
(2.581345037 0.68543815 0)
(2.549897467 0.7048289554 0)
(2.538750202 0.6951379977 0)
(2.552214128 0.6700996094 0)
(2.564944158 0.6429906957 0)
(2.581708858 0.6326186578 0)
(2.593488072 0.6409842213 0)
(2.592645462 0.6492486886 0)
(2.588366323 0.6475278063 0)
(2.590642175 0.6378480652 0)
(2.591584818 0.6272637629 0)
(2.592846762 0.6254525513 0)
(2.594718979 0.6283817805 0)
(2.598285766 0.6241959696 0)
(2.606274176 0.6094810014 0)
(2.611171296 0.5917753912 0)
(2.612026707 0.5807346994 0)
(2.608820733 0.581804712 0)
(2.601997295 0.5839413701 0)
(2.603060182 0.5763027232 0)
(2.613130578 0.562782734 0)
(2.622783086 0.5492548553 0)
(2.630985877 0.5393277869 0)
(2.634841736 0.5347205273 0)
(2.629568344 0.5362646443 0)
(2.628176579 0.5327387077 0)
(2.634818299 0.5213225032 0)
(3.089575014 -0.2435560572 0)
(3.090280556 -0.2450592773 0)
(3.088543181 -0.2393833003 0)
(3.043055334 -0.1175350166 0)
(2.815913862 0.3374405065 0)
(2.627620251 0.6168790454 0)
(2.556945727 0.7068566742 0)
(2.539782373 0.6939587981 0)
(2.559110522 0.6633923144 0)
(2.572265698 0.6351567436 0)
(2.589153879 0.6288436598 0)
(2.599759858 0.6431930196 0)
(2.593382708 0.6560940805 0)
(2.584173364 0.6564951409 0)
(2.585128781 0.6472817419 0)
(2.586335619 0.6368483443 0)
(2.589179263 0.6338180842 0)
(2.593813666 0.6339719202 0)
(2.599310412 0.6270041633 0)
(2.605606941 0.6116293988 0)
(2.607785451 0.5950748793 0)
(2.606270578 0.5869045591 0)
(2.601627437 0.5900468685 0)
(2.596299824 0.5897351289 0)
(2.60197169 0.5789647974 0)
(2.612571218 0.5638953723 0)
(2.621027542 0.550953291 0)
(2.627564937 0.5430470258 0)
(2.628309907 0.5424054153 0)
(2.621491535 0.5433783216 0)
(2.624704382 0.5371059602 0)
(2.633541254 0.5245864212 0)
(3.087452063 -0.2305767611 0)
(3.087941911 -0.2347648386 0)
(3.090450924 -0.240306579 0)
(3.087719462 -0.2321976766 0)
(3.007811397 -0.04380122164 0)
(2.788272875 0.3795904405 0)
(2.579269448 0.706473834 0)
(2.542411094 0.6940719864 0)
(2.566149739 0.6497330441 0)
(2.579417964 0.6291895746 0)
(2.595904405 0.6309749227 0)
(2.602594602 0.6517326661 0)
(2.591751836 0.6663214897 0)
(2.583058597 0.6627171376 0)
(2.583752377 0.6514533052 0)
(2.584289434 0.6409346804 0)
(2.58828089 0.6385312188 0)
(2.59290746 0.6397082748 0)
(2.597017795 0.6327180342 0)
(2.601524918 0.616867464 0)
(2.602291252 0.6003533564 0)
(2.600365257 0.5940277559 0)
(2.596644588 0.5968277676 0)
(2.594143231 0.5933561304 0)
(2.602335587 0.5805471954 0)
(2.611502002 0.5652950852 0)
(2.618224951 0.5535338551 0)
(2.622574881 0.5483324647 0)
(2.6203124 0.5508664563 0)
(2.614911329 0.54919238 0)
(2.622299706 0.5409356199 0)
(2.631946889 0.5273819154 0)
(3.085388426 -0.2172220178 0)
(3.086056283 -0.2211531144 0)
(3.087481115 -0.2267259654 0)
(3.088745471 -0.225127832 0)
(3.081850361 -0.2078061176 0)
(2.986561007 0.04737131102 0)
(2.696113414 0.5581798405 0)
(2.596885121 0.6468028073 0)
(2.589556888 0.6277142172 0)
(2.595391544 0.6199125451 0)
(2.60398557 0.6320083816 0)
(2.596614663 0.6649595829 0)
(2.578847612 0.6802228685 0)
(2.572798002 0.6749479668 0)
(2.576881934 0.6637028894 0)
(2.580593096 0.6496531543 0)
(2.587411575 0.6444976982 0)
(2.592948693 0.6442390782 0)
(2.595536934 0.6365896041 0)
(2.597591504 0.6208898222 0)
(2.596565783 0.6056381363 0)
(2.594465815 0.6015709556 0)
(2.592071709 0.6040164034 0)
(2.592609068 0.5984213943 0)
(2.602228779 0.5839247427 0)
(2.609914791 0.5677554708 0)
(2.614800956 0.5565656063 0)
(2.617109014 0.5543860611 0)
(2.613311134 0.5580856928 0)
(2.610904627 0.5536847469 0)
(2.620461389 0.5435360968 0)
(2.629728826 0.5302535492 0)
(3.083110112 -0.2038035814 0)
(3.08480778 -0.2100110064 0)
(3.086024028 -0.2153840988 0)
(3.088444455 -0.2216456918 0)
(3.088688773 -0.2193028841 0)
(3.075361774 -0.1727643447 0)
(2.951152101 0.1454962074 0)
(2.679835158 0.5992923385 0)
(2.610344051 0.6004972322 0)
(2.608975496 0.6271812809 0)
(2.604650364 0.6475073919 0)
(2.59032441 0.6806534757 0)
(2.574549466 0.6874711169 0)
(2.569653665 0.6789863174 0)
(2.575277012 0.6672616096 0)
(2.580676035 0.6527741818 0)
(2.589418346 0.6476383397 0)
(2.593511347 0.6490693961 0)
(2.592657093 0.642782254 0)
(2.592478149 0.6271598268 0)
(2.591421313 0.6116501208 0)
(2.590907294 0.6069371844 0)
(2.590905008 0.6077461745 0)
(2.593577917 0.6010571686 0)
(2.602311201 0.5865030803 0)
(2.60779287 0.5710536518 0)
(2.610575955 0.5609360183 0)
(2.611221883 0.5614094591 0)
(2.607419578 0.5643718377 0)
(2.608597099 0.5577452923 0)
(2.619131031 0.5454226917 0)
(2.627695632 0.5328861349 0)
(3.081577718 -0.1934431401 0)
(3.082875285 -0.1969806341 0)
(3.084499759 -0.20258728 0)
(3.084854284 -0.2048960899 0)
(3.08887739 -0.2119396794 0)
(3.089393639 -0.2097081468 0)
(3.07100968 -0.1351142352 0)
(2.90968317 0.2254990816 0)
(2.691067336 0.520732534 0)
(2.618254735 0.5971401313 0)
(2.605900591 0.6695566175 0)
(2.579411651 0.700307731 0)
(2.566105454 0.6999847494 0)
(2.566087744 0.6890135042 0)
(2.576298837 0.6704465512 0)
(2.583547057 0.6544033869 0)
(2.593125952 0.6508603531 0)
(2.594973643 0.6540997475 0)
(2.592444296 0.6477477274 0)
(2.591483592 0.6308132717 0)
(2.589499913 0.615434794 0)
(2.589202919 0.6115006869 0)
(2.590634075 0.612229074 0)
(2.594419385 0.6053969914 0)
(2.601999862 0.5902812717 0)
(2.605969782 0.5746760304 0)
(2.607205104 0.5655897835 0)
(2.607172489 0.5673188377 0)
(2.603967878 0.5688572489 0)
(2.60822118 0.5606480789 0)
(2.617935067 0.5476241672 0)
(2.625361026 0.5365400662 0)
(3.078622392 -0.1802200132 0)
(3.080218808 -0.1839203217 0)
(3.08183015 -0.1883032408 0)
(3.083797318 -0.1944635059 0)
(3.085044903 -0.196453384 0)
(3.089520827 -0.200889811 0)
(3.08997876 -0.1970577181 0)
(3.066936056 -0.118437703 0)
(2.857468507 0.271483696 0)
(2.67763445 0.5099456053 0)
(2.599212702 0.6681311124 0)
(2.570844176 0.7179740627 0)
(2.563629479 0.7123662418 0)
(2.566341427 0.6981477275 0)
(2.580620061 0.6715304031 0)
(2.589904784 0.6543840142 0)
(2.598682024 0.6539386669 0)
(2.595403438 0.6607745793 0)
(2.586698381 0.6569687194 0)
(2.585094126 0.6402583752 0)
(2.585855045 0.6232784922 0)
(2.588243533 0.6155657608 0)
(2.591962391 0.6140077879 0)
(2.596455414 0.6069498686 0)
(2.601602267 0.593360628 0)
(2.60321124 0.5798813815 0)
(2.603052516 0.572850438 0)
(2.602953435 0.5749325988 0)
(2.6011978 0.574412248 0)
(2.608735737 0.5641164546 0)
(2.61716874 0.5502308342 0)
(2.623432314 0.5402323291 0)
(3.0773468 -0.1712209441 0)
(3.07822333 -0.1734301819 0)
(3.080227056 -0.1784441082 0)
(3.082216557 -0.1820296394 0)
(3.084852272 -0.1868429253 0)
(3.086494432 -0.1906241722 0)
(3.092590995 -0.1934320169 0)
(3.09210111 -0.1881777749 0)
(3.045392554 -0.08074631797 0)
(2.831451791 0.3104369633 0)
(2.627337686 0.603984876 0)
(2.574151318 0.7350669911 0)
(2.559299486 0.7313632389 0)
(2.57059557 0.701531936 0)
(2.58752592 0.6685688716 0)
(2.598315979 0.6549014138 0)
(2.603230508 0.660941947 0)
(2.593512525 0.6706359945 0)
(2.583157704 0.663307145 0)
(2.583900902 0.6422096946 0)
(2.584957281 0.6253727469 0)
(2.587854847 0.6192691782 0)
(2.592037474 0.6188682104 0)
(2.596559952 0.6117242875 0)
(2.600845211 0.5974196376 0)
(2.601856493 0.5840603495 0)
(2.601942132 0.5777778635 0)
(2.6024035 0.5795524743 0)
(2.60155834 0.577916462 0)
(2.61010826 0.5664208285 0)
(2.616167877 0.5536327611 0)
(2.620727591 0.5451328152 0)
(3.075219562 -0.1569831312 0)
(3.076642027 -0.1626731011 0)
(3.077288479 -0.1648793946 0)
(3.079777906 -0.1694797449 0)
(3.083256172 -0.1728904325 0)
(3.085745024 -0.1758384221 0)
(3.088782841 -0.1795311478 0)
(3.092935792 -0.1807099563 0)
(3.090085246 -0.1726252809 0)
(3.013822875 0.006096607352 0)
(2.751438109 0.4252691197 0)
(2.5963484 0.7111565121 0)
(2.578551946 0.7249631952 0)
(2.5882725 0.6905270619 0)
(2.598676743 0.6668950702 0)
(2.606523865 0.6575062362 0)
(2.602150461 0.6712676326 0)
(2.583688032 0.6829639211 0)
(2.574877047 0.672418283 0)
(2.579311759 0.6503815598 0)
(2.58232242 0.6325712138 0)
(2.587751254 0.6236132275 0)
(2.593350938 0.6215291262 0)
(2.597571823 0.6143967704 0)
(2.59962497 0.6016780499 0)
(2.598947237 0.5905844905 0)
(2.598839242 0.5859158182 0)
(2.59966414 0.5875805543 0)
(2.600631045 0.5845296806 0)
(2.610092754 0.5710277416 0)
(2.614967655 0.5576916283 0)
(2.61826625 0.5496622124 0)
(3.072410769 -0.1431173416 0)
(3.074722191 -0.1491071798 0)
(3.076150642 -0.1539287233 0)
(3.077248682 -0.1570781815 0)
(3.080771202 -0.1599015988 0)
(3.08452794 -0.1623632952 0)
(3.087176473 -0.1654412103 0)
(3.092069968 -0.170898003 0)
(3.09305861 -0.170245854 0)
(3.084107045 -0.1425860783 0)
(2.963288378 0.1205574007 0)
(2.683943558 0.5774093822 0)
(2.607712657 0.7340596344 0)
(2.600006758 0.686477929 0)
(2.606809263 0.6671458521 0)
(2.61005387 0.6680273905 0)
(2.596845954 0.6890645421 0)
(2.57696234 0.6942793388 0)
(2.571708447 0.6737236067 0)
(2.577733615 0.6486557285 0)
(2.581533004 0.633318535 0)
(2.588460405 0.6269521182 0)
(2.592404175 0.6279492816 0)
(2.594923657 0.6214570042 0)
(2.59743976 0.6072442134 0)
(2.597332744 0.5953872377 0)
(2.598267653 0.5893875769 0)
(2.599844302 0.5900592626 0)
(2.601437719 0.5875606067 0)
(2.609989391 0.574073982 0)
(2.612670599 0.5630276992 0)
(2.614932221 0.5554879072 0)
(3.07058348 -0.1333572132 0)
(3.072911839 -0.1385819266 0)
(3.075464887 -0.1442092291 0)
(3.076708063 -0.1474971542 0)
(3.079246647 -0.1506319406 0)
(3.083578207 -0.1519221023 0)
(3.086563568 -0.1549211373 0)
(3.08934856 -0.1571795575 0)