/*--------------------------------*- C++ -*----------------------------------*\
  =========                 |
  \\      /  F ield         | OpenFOAM: The Open Source CFD Toolbox
   \\    /   O peration     | Website:  https://openfoam.org
    \\  /    A nd           | Version:  7
     \\/     M anipulation  |
\*---------------------------------------------------------------------------*/
FoamFile
{
    version     2.0;
    format      ascii;
    class       volVectorField;
    location    "5";
    object      U;
}
// * * * * * * * * * * * * * * * * * * * * * * * * * * * * * * * * * * * * * //

dimensions      [0 1 -1 0 0 0 0];

internalField   nonuniform List<vector> 
555
(
(3 -1.095312114e-15 0)
(3 -2.091169794e-15 0)
(3 -3.784396484e-15 0)
(3 -5.002624787e-15 0)
(3 -5.6211149e-15 0)
(3 -6.561330032e-15 0)
(3 -7.720372965e-15 0)
(3 -1.04271944e-14 0)
(3 -1.263127579e-14 0)
(3 -1.41814816e-14 0)
(3 -1.577987088e-14 0)
(3 -1.508343371e-14 0)
(3 -1.400051079e-14 0)
(3 -1.358759766e-14 0)
(3 -1.241875653e-14 0)
(3 -1.130568983e-14 0)
(3 -1.26722058e-14 0)
(3 -3.737775827e-16 0)
(3 -6.775358942e-16 0)
(3 -2.022440964e-16 0)
(3 -1.746026299e-16 0)
(3 7.953186698e-16 0)
(3 1.54079239e-15 0)
(3 3.014280355e-16 0)
(3 6.656341283e-16 0)
(3 1.757599409e-16 0)
(3 -1.91094982e-15 0)
(3 -3.190424047e-15 0)
(3 -4.874132845e-15 0)
(3 -4.755671608e-15 0)
(3 -4.095501494e-15 0)
(3 -3.17473269e-15 0)
(3 -2.797425072e-15 0)
(3 -4.212651294e-15 0)
(3 -1.693497885e-16 0)
(3 -1.024262486e-15 0)
(3 1.163460709e-17 0)
(3 1.036009489e-15 0)
(3 2.54006884e-15 0)
(3 4.898680639e-15 0)
(3 5.313676575e-15 0)
(3 5.288199246e-15 0)
(3 5.418122275e-15 0)
(3 4.946928214e-15 0)
(3 4.135042011e-15 0)
(3 3.827675884e-15 0)
(3 4.188600415e-15 0)
(3 1.835937266e-15 0)
(3 6.605459232e-16 0)
(3 -2.776389264e-15 0)
(3 -5.222789072e-15 0)
(3 7.290395259e-15 0)
(3 6.158518314e-15 0)
(3 5.522084421e-15 0)
(3 5.747669346e-15 0)
(3 6.201408329e-15 0)
(3 6.382523174e-15 0)
(3 7.597565964e-15 0)
(3 8.351663483e-15 0)
(3 9.00743776e-15 0)
(3 9.23198015e-15 0)
(3 8.949799184e-15 0)
(3 9.393333746e-15 0)
(3 7.58837213e-15 0)
(3 2.984326731e-15 0)
(3 -2.183574488e-15 0)
(3 -6.189606174e-15 0)
(3 -9.650202861e-15 0)
(3 8.762138613e-15 0)
(3 9.37403507e-15 0)
(3 7.920619082e-15 0)
(3 5.44500601e-15 0)
(3 1.274919793e-15 0)
(3 7.683089658e-16 0)
(3 2.248399982e-15 0)
(3 3.935055029e-15 0)
(3 6.620350699e-15 0)
(3 9.233029987e-15 0)
(3 9.508388954e-15 0)
(3 7.8840364e-15 0)
(3 6.42244949e-15 0)
(3 2.5530676e-15 0)
(3 -6.442992904e-16 0)
(3 -4.300170319e-15 0)
(3 -5.818196874e-15 0)
(3 3.744070504e-15 0)
(3 3.041198785e-15 0)
(3 4.61002233e-17 0)
(3 -3.676937868e-15 0)
(3 -4.94473049e-15 0)
(3 -4.852001773e-15 0)
(3 -4.422937271e-15 0)
(3 -4.434662537e-15 0)
(3 -5.18780257e-15 0)
(3 -6.059096436e-15 0)
(3 -6.51780912e-15 0)
(3 -7.978641624e-15 0)
(3 -8.464295826e-15 0)
(3 -8.524044746e-15 0)
(3 -8.462944224e-15 0)
(3 -7.596169572e-15 0)
(3 -5.495748463e-15 0)
(3 -1.002371305e-14 0)
(3 -1.166544698e-14 0)
(3 -1.527115943e-14 0)
(3 -1.715061829e-14 0)
(3 -1.772863607e-14 0)
(3 -1.78704944e-14 0)
(3 -1.740754804e-14 0)
(3 -1.828678302e-14 0)
(3 -2.080533162e-14 0)
(3 -2.291582187e-14 0)
(3 -2.314122644e-14 0)
(3 -2.063225132e-14 0)
(3 -1.900225436e-14 0)
(3 -1.829435728e-14 0)
(3 -1.612800934e-14 0)
(3 -7.524947574e-15 0)
(3 1.118256523e-15 0)
(3 -2.194263898e-14 0)
(3 -2.263814738e-14 0)
(3 -2.119043578e-14 0)
(3 -1.847499014e-14 0)
(3 -1.741727414e-14 0)
(3 -1.759333632e-14 0)
(3 -1.93467012e-14 0)
(3 -2.063226734e-14 0)
(3 -2.009150719e-14 0)
(3 -1.890051506e-14 0)
(3 -1.763201675e-14 0)
(3 -1.549936097e-14 0)
(3 -1.108234293e-14 0)
(3 -6.61339576e-15 0)
(3 -1.283093881e-15 0)
(3 3.001980212e-15 0)
(3 3.917013836e-15 0)
(3 -1.024360508e-14 0)
(3 -1.095688965e-14 0)
(3 -1.213557705e-14 0)
(3 -1.267698083e-14 0)
(3 -1.277573236e-14 0)
(3 -1.23914098e-14 0)
(3 -1.182850962e-14 0)
(3 -1.088693793e-14 0)
(3 -9.388693386e-15 0)
(3 -8.176415431e-15 0)
(3 -7.648134487e-15 0)
(3 -7.200932406e-15 0)
(3 -5.626061687e-15 0)
(3 -1.827116159e-15 0)
(3 3.180008514e-15 0)
(3 4.455901932e-15 0)
(3 5.695489668e-15 0)
(3 -3.516156277e-15 0)
(3 -2.990969008e-15 0)
(3 -3.549135701e-15 0)
(3 -3.620267566e-15 0)
(3 -5.112688462e-15 0)
(3 -6.682097347e-15 0)
(3 -6.391804094e-15 0)
(3 -6.176163117e-15 0)
(3 -6.558237051e-15 0)
(3 -6.347004836e-15 0)
(3 -3.662341547e-15 0)
(3 -1.541789284e-15 0)
(3 8.332895341e-16 0)
(3 2.796021834e-15 0)
(3 2.355445471e-15 0)
(3 2.27198331e-15 0)
(3 4.222071397e-15 0)
(3 4.507915777e-15 0)
(3 4.639730333e-15 0)
(3 4.074650674e-15 0)
(3 3.489380326e-15 0)
(3 3.498649822e-15 0)
(3 2.538277131e-15 0)
(3 2.239783418e-15 0)
(3 1.609780362e-15 0)
(3 2.201551309e-16 0)
(3 -2.196743243e-16 0)
(3 -4.50311802e-16 0)
(3 -6.461039769e-16 0)
(3 -1.284903227e-15 0)
(3 8.039798441e-16 0)
(3 7.384547056e-16 0)
(3 -1.019043036e-15 0)
(3 -4.472468494e-16 0)
(3 6.730234481e-15 0)
(3 6.348376292e-15 0)
(3 6.441965411e-15 0)
(3 6.696249742e-15 0)
(3 8.03165484e-15 0)
(3 8.245934045e-15 0)
(3 7.625903549e-15 0)
(3 6.715346363e-15 0)
(3 5.794065048e-15 0)
(3 4.726033288e-15 0)
(3 4.365084651e-15 0)
(3 4.453596396e-15 0)
(3 4.080478887e-15 0)
(3 1.706833811e-15 0)
(3 -8.056423916e-16 0)
(3 -9.235740646e-16 0)
(3 3.514940403e-16 0)
(3 4.330606305e-15 0)
(3 5.580766454e-15 0)
(3 7.477859143e-15 0)
(3 8.456367231e-15 0)
(3 9.774351628e-15 0)
(3 1.105947387e-14 0)
(3 1.214703964e-14 0)
(3 1.422051877e-14 0)
(3 1.589106616e-14 0)
(3 1.568012618e-14 0)
(3 1.398526366e-14 0)
(3 1.09323986e-14 0)
(3 7.10702139e-15 0)
(3 3.032630539e-15 0)
(3 9.59430277e-16 0)
(3 2.004693154e-15 0)
(3 2.811386624e-15 0)
(3 1.557240388e-15 0)
(3 3.150425634e-15 0)
(3 5.004347702e-15 0)
(3 6.081804342e-15 0)
(3 4.701633984e-15 0)
(3 3.40437278e-15 0)
(3 4.557618149e-15 0)
(3 7.334529317e-15 0)
(3 8.300826444e-15 0)
(3 7.939375994e-15 0)
(3 7.58472973e-15 0)
(3 6.462081741e-15 0)
(3 5.423676042e-15 0)
(3 6.355485928e-15 0)
(3 7.068962862e-15 0)
(3 5.447571653e-15 0)
(3 4.870542568e-15 0)
(3 -2.055995764e-15 0)
(3 -1.672559456e-15 0)
(3 -1.424797403e-15 0)
(3 -1.801622326e-15 0)
(3 -5.344993615e-15 0)
(3 -5.565813468e-15 0)
(3 -4.112093542e-15 0)
(3 -3.150234841e-15 0)
(3 -2.816709312e-15 0)
(3 -1.524519752e-15 0)
(3 3.911995317e-17 0)
(3 1.437331953e-15 0)
(3 3.953634108e-15 0)
(3 5.857391442e-15 0)
(3 5.979864848e-15 0)
(3 5.557173722e-15 0)
(3 5.475679908e-15 0)
(3 4.114438694e-15 0)
(3 2.662769425e-15 0)
(3 7.248809764e-16 0)
(3 -1.727081492e-15 0)
(3 -4.536234597e-15 0)
(3 -5.984344433e-15 0)
(3 -6.865807166e-15 0)
(3 -6.470693821e-15 0)
(3 -5.600472657e-15 0)
(3 -3.671238365e-15 0)
(3 -2.116117855e-15 0)
(3 -2.716864549e-16 0)
(3 1.963308088e-15 0)
(3 2.290329626e-15 0)
(3 2.851061967e-15 0)
(3 3.370151894e-15 0)
(3 4.01827476e-15 0)
(3 9.057803393e-15 0)
(3 1.001153799e-14 0)
(3 1.086837989e-14 0)
(3 1.189085655e-14 0)
(3 1.159660645e-14 0)
(3 6.906004424e-15 0)
(3 4.009435939e-15 0)
(3 3.584598601e-15 0)
(3 3.274752542e-15 0)
(3 2.801757171e-15 0)
(3 2.888655898e-15 0)
(3 2.919438715e-15 0)
(3 4.214692889e-15 0)
(3 4.724082516e-15 0)
(3 2.687006338e-15 0)
(3 4.452014167e-16 0)
(3 -8.532624972e-17 0)
(3 1.633855949e-14 0)
(3 1.135881269e-14 0)
(3 6.075590956e-15 0)
(3 3.084249066e-15 0)
(3 2.145017391e-15 0)
(3 1.493783142e-15 0)
(3 3.883716198e-16 0)
(3 1.641484506e-14 0)
(3 1.625733501e-14 0)
(3 8.893981255e-15 0)
(3 9.04467787e-15 0)
(3 9.140864701e-15 0)
(3 1.12472826e-14 0)
(3 9.075855821e-15 0)
(3 6.542680125e-15 0)
(3 7.86591955e-15 0)
(3 5.890656583e-15 0)
(3 6.199570148e-15 0)
(3 5.46082146e-15 0)
(3 4.807871213e-15 0)
(3 3.345421788e-15 0)
(3 1.006465505e-15 0)
(3 1.465294983e-15 0)
(3 1.9389602e-14 0)
(3 1.57481272e-14 0)
(3 1.213444064e-14 0)
(3 6.300614473e-15 0)
(3 -5.707886637e-16 0)
(3 -1.947581553e-15 0)
(3 -2.168193419e-15 0)
(3 -6.022754348e-15 0)
(3 -7.912614242e-15 0)
(3 -6.734888729e-15 0)
(3 5.178935121e-16 0)
(3 2.090259704e-15 0)
(3 3.276321966e-15 0)
(3 4.52160951e-15 0)
(3 5.290125898e-15 0)
(3 2.034835635e-15 0)
(3 4.320590419e-15 0)
(3 4.435938096e-15 0)
(3 3.988877295e-15 0)
(3 -9.34725267e-17 0)
(3 -3.401459397e-15 0)
(3 -7.05405293e-15 0)
(3 -7.46305243e-15 0)
(3 -7.478152436e-15 0)
(3 -9.461503804e-15 0)
(3 -8.249202686e-15 0)
(3 -4.971569758e-15 0)
(3 -6.388441346e-16 0)
(3 6.246945391e-15 0)
(3 8.515677278e-15 0)
(3 8.725121098e-15 0)
(3 6.927722635e-15 0)
(3 -1.50937852e-14 0)
(3 -1.344235171e-14 0)
(3 -6.162560026e-15 0)
(3 -3.658222269e-15 0)
(3 -2.848722928e-15 0)
(3 -3.62817821e-15 0)
(3 -5.318583211e-15 0)
(3 -5.366301562e-15 0)
(3 -5.715667746e-15 0)
(3 -4.414844312e-15 0)
(3 2.160739422e-15 0)
(3 4.493835592e-15 0)
(3 6.287445128e-15 0)
(3 7.153069249e-15 0)
(3 8.835750984e-15 0)
(3 9.030758274e-15 0)
(3 -2.467525334e-14 0)
(3 -2.297327351e-14 0)
(3 -1.870291679e-14 0)
(3 -1.105403365e-14 0)
(3 -8.471422256e-15 0)
(3 -7.488298411e-15 0)
(3 -4.267792459e-15 0)
(3 -1.765391093e-15 0)
(3 5.361199906e-16 0)
(3 1.976021432e-15 0)
(3 3.863178253e-15 0)
(3 4.07460415e-15 0)
(3 4.648646664e-16 0)
(3 -3.739840301e-16 0)
(3 2.428275863e-15 0)
(3 4.406855189e-15 0)
(3 -2.085216195e-14 0)
(3 -2.028011199e-14 0)
(3 -1.955139383e-14 0)
(3 -1.479402013e-14 0)
(3 -1.055960341e-14 0)
(3 -8.435532121e-15 0)
(3 -5.456622371e-15 0)
(3 -1.985119374e-15 0)
(3 -5.694636865e-16 0)
(3 5.40913969e-16 0)
(3 -1.539150469e-15 0)
(3 -1.139155448e-15 0)
(3 -2.172207577e-15 0)
(3 -5.003774369e-15 0)
(3 -6.185254893e-15 0)
(3 -7.204677512e-15 0)
(3 -2.20371677e-14 0)
(3 -2.301533546e-14 0)
(3 -2.120640426e-14 0)
(3 -1.841605013e-14 0)
(3 -1.419535332e-14 0)
(3 -1.203935026e-14 0)
(3 -8.673488846e-15 0)
(3 -1.718422047e-15 0)
(3 6.784586662e-16 0)
(3 1.628632456e-15 0)
(3 -8.934362137e-17 0)
(3 -1.560611755e-16 0)
(3 1.431704416e-16 0)
(3 -2.421116737e-15 0)
(3 -1.249662667e-14 0)
(3 -1.818108528e-14 0)
(3 -1.252303592e-14 0)
(3 -1.242955256e-14 0)
(3 -1.35022592e-14 0)
(3 -1.333644875e-14 0)
(3 -1.211701826e-14 0)
(3 -1.032365184e-14 0)
(3 -6.888741293e-15 0)
(3 -4.761635452e-15 0)
(3 -1.533172199e-15 0)
(3 -9.919376002e-17 0)
(3 7.394758604e-17 0)
(3 6.627209323e-16 0)
(3 -2.028533939e-15 0)
(3 -3.625989723e-15 0)
(3 -4.622089271e-15 0)
(3 -6.214975656e-15 0)
(3 -6.143200786e-15 0)
(3 -5.498744762e-15 0)
(3 -6.10637206e-15 0)
(3 -7.943864692e-15 0)
(3 -9.142944774e-15 0)
(3 -9.918585817e-15 0)
(3 -9.442804429e-15 0)
(3 -7.915343347e-15 0)
(3 -7.496443971e-15 0)
(3 -4.618601528e-15 0)
(3 -4.381170128e-15 0)
(3 -5.230965491e-15 0)
(3 -7.848670277e-15 0)
(3 -7.210663181e-15 0)
(3 -3.93666657e-15 0)
(3 -3.16639037e-15 0)
(3 -5.292150586e-15 0)
(3 -2.231266242e-15 0)
(3 -1.627368339e-15 0)
(3 -3.60983041e-15 0)
(3 -6.326424767e-15 0)
(3 -8.211572917e-15 0)
(3 -1.042486002e-14 0)
(3 -1.137336291e-14 0)
(3 -1.040977031e-14 0)
(3 -6.008862866e-15 0)
(3 -1.52317697e-16 0)
(3 2.474649948e-16 0)
(3 1.508827537e-15 0)
(3 1.827997338e-15 0)
(3 4.144185364e-15 0)
(3 4.343401257e-15 0)
(3 -6.474193383e-15 0)
(3 -8.879564778e-15 0)
(3 -1.105819945e-14 0)
(3 -1.120835502e-14 0)
(3 -1.115140646e-14 0)
(3 -1.030722959e-14 0)
(3 -1.166513021e-14 0)
(3 -1.054198526e-14 0)
(3 -6.837615954e-15 0)
(3 -4.079550059e-15 0)
(3 -2.605160288e-15 0)
(3 -3.711932441e-16 0)
(3 1.860595051e-15 0)
(3 3.467653546e-15 0)
(3 3.26763265e-15 0)
(3 5.750489183e-15 0)
(3 -4.235194084e-15 0)
(3 -7.954272313e-15 0)
(3 -1.232523855e-14 0)
(3 -1.682608445e-14 0)
(3 -1.589760581e-14 0)
(3 -1.538569108e-14 0)
(3 -1.137403066e-14 0)
(3 -7.726828835e-15 0)
(3 -6.798474634e-15 0)
(3 -6.233715218e-15 0)
(3 -7.245963134e-15 0)
(3 -5.842624471e-15 0)
(3 -1.817449653e-15 0)
(3 8.250298722e-16 0)
(3 8.362815926e-16 0)
(3 3.076608446e-15 0)
(3 7.875428858e-15 0)
(3 5.661865941e-15 0)
(3 3.907543562e-15 0)
(3 -1.39652264e-15 0)
(3 2.100767143e-16 0)
(3 2.499634123e-16 0)
(3 3.154253876e-15 0)
(3 3.725244865e-15 0)
(3 8.005726297e-16 0)
(3 -2.805178808e-15 0)
(3 -3.808705939e-15 0)
(3 -3.650417381e-15 0)
(3 -3.535052171e-15 0)
(3 -1.995659066e-15 0)
(3 -1.915944791e-15 0)
(3 4.411693303e-16 0)
(3 1.798336879e-14 0)
(3 1.967701969e-14 0)
(3 1.819229501e-14 0)
(3 1.994457137e-14 0)
(3 1.764889483e-14 0)
(3 1.600703782e-14 0)
(3 1.4853329e-14 0)
(3 1.157992918e-14 0)
(3 9.462827971e-15 0)
(3 8.637924374e-15 0)
(3 4.330004562e-15 0)
(3 5.441127825e-16 0)
(3 -3.458928158e-15 0)
(3 -5.334324704e-15 0)
(3 -4.835536053e-15 0)
(3 -3.225010959e-15 0)
(3 2.223173565e-14 0)
(3 2.669306573e-14 0)
(3 2.54405259e-14 0)
(3 2.53989255e-14 0)
(3 2.122047073e-14 0)
(3 1.591940777e-14 0)
(3 9.419302092e-15 0)
(3 8.522472382e-15 0)
(3 9.38362373e-15 0)
(3 1.107452115e-14 0)
(3 7.670151599e-15 0)
(3 5.84322026e-15 0)
(3 7.536112664e-15 0)
(3 9.941407132e-15 0)
(3 8.77058212e-15 0)
(3 6.690408471e-15 0)
(3 1.635351953e-14 0)
(3 1.824976076e-14 0)
(3 2.337885085e-14 0)
(3 3.0519392e-14 0)
(3 3.317778426e-14 0)
(3 3.035569729e-14 0)
(3 2.599329347e-14 0)
(3 1.711403453e-14 0)
(3 1.383297918e-14 0)
(3 8.234383319e-15 0)
(3 6.962016023e-15 0)
(3 9.400203365e-15 0)
(3 9.804941321e-15 0)
(3 9.822337493e-15 0)
(3 9.084433555e-15 0)
(3 8.6317154e-15 0)
(3 5.406258268e-15 0)
(3 6.676257013e-15 0)
(3 6.760986752e-15 0)
)
;

boundaryField
{
    inlet
    {
        type            fixedValue;
        value           nonuniform 0();
    }
    outlet
    {
        type            inletOutlet;
        inletValue      nonuniform 0();
        value           nonuniform 0();
    }
    bottom
    {
        type            slip;
    }
    top
    {
        type            slip;
    }
    obstacle
    {
        type            slip;
    }
    defaultFaces
    {
        type            empty;
    }
    procBoundary25to19
    {
        type            processor;
        value           nonuniform List<vector> 
34
(
(3 -1.958738285e-15 0)
(3 -4.145796685e-15 0)
(3 -6.817176809e-15 0)
(3 -9.527637751e-15 0)
(3 -1.285102292e-14 0)
(3 -1.585064553e-14 0)
(3 -1.68514082e-14 0)
(3 -1.894555737e-14 0)
(3 -2.139698191e-14 0)
(3 -2.126497908e-14 0)
(3 -2.110813006e-14 0)
(3 -1.978071824e-14 0)
(3 -1.816665855e-14 0)
(3 -1.566010083e-14 0)
(3 -1.420309542e-14 0)
(3 -1.498400517e-14 0)
(3 -1.664228143e-14 0)
(3 2.163458552e-14 0)
(3 1.642512248e-14 0)
(3 1.147832558e-14 0)
(3 6.960279375e-15 0)
(3 2.11662509e-15 0)
(3 2.004906773e-15 0)
(3 -4.482179641e-17 0)
(3 2.120523569e-14 0)
(3 2.080941081e-14 0)
(3 1.961380418e-14 0)
(3 2.039935297e-14 0)
(3 2.093688393e-14 0)
(3 2.237523958e-14 0)
(3 2.163287182e-14 0)
(3 2.113472759e-14 0)
(3 2.263341979e-14 0)
(3 2.263341979e-14 0)
)
;
    }
    procBoundary25to20
    {
        type            processor;
        value           uniform (3 -1.394322266e-14 0);
    }
    procBoundary25to24
    {
        type            processor;
        value           nonuniform List<vector> 
16
(
(3 1.78439563e-14 0)
(3 2.183905025e-14 0)
(3 3.468692901e-15 0)
(3 -1.321046065e-14 0)
(3 -2.00833188e-14 0)
(3 -2.014459513e-14 0)
(3 -2.095433678e-14 0)
(3 -1.415676324e-14 0)
(3 -7.483293253e-15 0)
(3 -6.961682324e-15 0)
(3 -5.873767349e-15 0)
(3 -7.30535751e-16 0)
(3 1.212239455e-14 0)
(3 1.874831535e-14 0)
(3 1.997734569e-14 0)
(3 1.303330399e-14 0)
)
;
    }
    procBoundary25to26
    {
        type            processor;
        value           nonuniform List<vector> 
16
(
(3 -5.63863882e-15 0)
(3 -6.493413388e-15 0)
(3 -9.763832012e-15 0)
(3 -5.476911447e-15 0)
(3 -4.833087741e-17 0)
(3 5.788188189e-15 0)
(3 3.937633501e-15 0)
(3 6.2693867e-15 0)
(3 4.546257527e-15 0)
(3 8.715015389e-16 0)
(3 1.795520805e-15 0)
(3 1.842125922e-15 0)
(3 4.221059179e-15 0)
(3 5.877342656e-15 0)
(3 4.12473996e-15 0)
(3 -1.794678269e-18 0)
)
;
    }
    procBoundary25to30
    {
        type            processor;
        value           uniform (3 5.565997353e-15 0);
    }
    procBoundary25to31
    {
        type            processor;
        value           nonuniform List<vector> 
34
(
(3 1.474981535e-14 0)
(3 1.661206292e-14 0)
(3 1.757869174e-14 0)
(3 1.752688933e-14 0)
(3 1.715816723e-14 0)
(3 1.445387803e-14 0)
(3 1.300126361e-14 0)
(3 1.213589546e-14 0)
(3 1.048028903e-14 0)
(3 6.305815515e-15 0)
(3 2.972874665e-15 0)
(3 2.137144181e-15 0)
(3 1.535437076e-15 0)
(3 1.748605974e-15 0)
(3 1.799417531e-15 0)
(3 1.90938335e-15 0)
(3 1.579979646e-15 0)
(3 1.241444639e-14 0)
(3 1.737458172e-14 0)
(3 1.75002345e-14 0)
(3 1.555517704e-14 0)
(3 1.396275596e-14 0)
(3 9.841065504e-15 0)
(3 5.829205244e-15 0)
(3 7.361648187e-15 0)
(3 7.78175637e-15 0)
(3 7.90437386e-15 0)
(3 9.083499633e-15 0)
(3 1.118757505e-14 0)
(3 1.476539359e-14 0)
(3 1.538299127e-15 0)
(3 -4.954322319e-17 0)
(3 1.241444639e-14 0)
(3 -1.275280664e-15 0)
)
;
    }
}


// ************************************************************************* //
