/*--------------------------------*- C++ -*----------------------------------*\
  =========                 |
  \\      /  F ield         | OpenFOAM: The Open Source CFD Toolbox
   \\    /   O peration     | Website:  https://openfoam.org
    \\  /    A nd           | Version:  7
     \\/     M anipulation  |
\*---------------------------------------------------------------------------*/
FoamFile
{
    version     2.0;
    format      ascii;
    class       volVectorField;
    location    "0.6";
    object      U;
}
// * * * * * * * * * * * * * * * * * * * * * * * * * * * * * * * * * * * * * //

dimensions      [0 1 -1 0 0 0 0];

internalField   nonuniform List<vector> 
2222
(
(3 -1.536390161e-15 0)
(3 -1.821247545e-15 0)
(3 -3.520125985e-15 0)
(3 -4.195434855e-15 0)
(3 -2.367947022e-15 0)
(3 -1.518162457e-15 0)
(3 -1.021416079e-16 0)
(3 8.980680424e-16 0)
(3 2.478648247e-15 0)
(3 3.352537106e-15 0)
(3 1.713623025e-15 0)
(3 5.325841213e-17 0)
(3 1.098317506e-15 0)
(3 2.713601066e-15 0)
(3 1.879479522e-15 0)
(3 -5.329809548e-16 0)
(3 -3.101368369e-16 0)
(3 3.312813949e-17 0)
(3 1.000286271e-15 0)
(3 9.525725595e-16 0)
(3 -1.15803697e-15 0)
(3 -6.621177649e-16 0)
(3 -1.782020398e-15 0)
(3 -3.765870889e-15 0)
(3 -3.123368048e-15 0)
(3 -2.330782727e-15 0)
(3 -2.557005307e-15 0)
(3 -1.575189602e-15 0)
(3 1.271908724e-16 0)
(3 1.154003724e-15 0)
(3 6.275451175e-16 0)
(3 5.785541416e-16 0)
(3 3.070906052e-16 0)
(3 5.546786439e-16 0)
(3 1.381652348e-15 0)
(3 -1.698353332e-15 0)
(3 -2.982538193e-15 0)
(3 -8.22298647e-16 0)
(3 -3.034789807e-16 0)
(3 9.592398728e-18 0)
(3 -1.847485918e-16 0)
(3 -2.104632343e-16 0)
(3 6.329861056e-16 0)
(3 1.270891548e-15 0)
(3 7.052643833e-17 0)
(3 7.216341168e-16 0)
(3 3.695034039e-15 0)
(3 3.86050968e-15 0)
(3 1.968331104e-15 0)
(3 -1.335497839e-15 0)
(3 -9.320603801e-16 0)
(3 -8.144510709e-16 0)
(3 -3.206966498e-16 0)
(3 -6.010232716e-16 0)
(3 -2.296266131e-15 0)
(3 -2.785497497e-15 0)
(3 -3.786797534e-15 0)
(3 -3.719040491e-15 0)
(3 -2.792937902e-15 0)
(3 -1.739882411e-15 0)
(3 -6.456584182e-16 0)
(3 8.830767158e-16 0)
(3 8.103973163e-16 0)
(3 -1.533922521e-16 0)
(3 -8.010409699e-16 0)
(3 -3.151945668e-16 0)
(3 -7.656908556e-17 0)
(3 -9.238955827e-17 0)
(3 1.290820167e-15 0)
(3 2.601599696e-17 0)
(3 7.262702655e-16 0)
(3 -1.937325139e-16 0)
(3 -1.271670049e-16 0)
(3 5.160925813e-16 0)
(3 -1.484159603e-16 0)
(3 -3.218190045e-15 0)
(3 -4.854610716e-15 0)
(3 -3.846827614e-15 0)
(3 -4.93144413e-16 0)
(3 3.364393245e-15 0)
(3 3.695515445e-15 0)
(3 2.902373706e-15 0)
(3 2.11917329e-15 0)
(3 1.134261064e-15 0)
(3 -8.720541867e-16 0)
(3 -8.643251522e-16 0)
(3 -1.559996208e-15 0)
(3 -2.831038168e-15 0)
(3 -3.57543382e-15 0)
(3 -6.556107576e-15 0)
(3 -6.76271412e-15 0)
(3 -5.94851009e-15 0)
(3 -2.734019598e-15 0)
(3 4.869608014e-16 0)
(3 1.466372384e-15 0)
(3 1.212699464e-15 0)
(3 -1.257643994e-15 0)
(3 -1.588556835e-15 0)
(3 -1.010179231e-15 0)
(3 5.554420291e-16 0)
(3 1.558136908e-15 0)
(3 4.543220526e-16 0)
(3 -2.668566444e-16 0)
(3 -6.005215549e-16 0)
(3 9.956508458e-16 0)
(3 -7.139984784e-16 0)
(3 -1.087892383e-15 0)
(3 -1.177680188e-15 0)
(3 -8.26870527e-16 0)
(3 -1.020475502e-15 0)
(3 -7.378114763e-16 0)
(3 -5.226739884e-16 0)
(3 4.879606358e-16 0)
(3 3.616597288e-15 0)
(3 3.858479976e-15 0)
(3 3.817630685e-15 0)
(3 3.349345932e-15 0)
(3 3.312314103e-15 0)
(3 1.15245388e-15 0)
(3 2.815028846e-16 0)
(3 -5.647604157e-16 0)
(3 -1.743459701e-15 0)
(3 -3.134478774e-15 0)
(3 -4.993239309e-15 0)
(3 -6.256185087e-15 0)
(3 -6.098562303e-15 0)
(3 -5.245565824e-15 0)
(3 -1.334320868e-15 0)
(3 -2.375908246e-15 0)
(3 -4.04194682e-15 0)
(3 -4.313421762e-15 0)
(3 -2.906826254e-15 0)
(3 4.398878876e-16 0)
(3 3.608653844e-15 0)
(3 4.157156568e-15 0)
(3 4.831855124e-15 0)
(3 -2.799622146e-15 0)
(3 -2.098170613e-15 0)
(3 -1.059558868e-15 0)
(3 -3.82320496e-16 0)
(3 -4.655466977e-16 0)
(3 -5.529216442e-16 0)
(3 1.496320959e-15 0)
(3 1.637088491e-15 0)
(3 1.440916091e-15 0)
(3 1.52033141e-15 0)
(3 3.193808705e-15 0)
(3 5.157643283e-15 0)
(3 6.212713063e-15 0)
(3 6.638801628e-15 0)
(3 5.98817237e-15 0)
(3 3.198696109e-15 0)
(3 1.803566565e-15 0)
(3 1.322741882e-15 0)
(3 -1.017943943e-15 0)
(3 -1.562474797e-15 0)
(3 -2.791783383e-15 0)
(3 -3.330523401e-15 0)
(3 -4.165954642e-15 0)
(3 -3.287521539e-15 0)
(3 -2.856062066e-15 0)
(3 -3.975780379e-15 0)
(3 -5.793928076e-15 0)
(3 -4.921054111e-15 0)
(3 -2.581888884e-15 0)
(3 -1.998668257e-15 0)
(3 -1.003436409e-15 0)
(3 -6.930901695e-16 0)
(3 1.13444528e-15 0)
(3 1.478788778e-15 0)
(3 -5.008354023e-15 0)
(3 -4.254913787e-15 0)
(3 -5.582536006e-15 0)
(3 -3.799415881e-15 0)
(3 -6.998525284e-16 0)
(3 1.689250454e-15 0)
(3 2.911118385e-15 0)
(3 1.761257099e-15 0)
(3 2.002699526e-15 0)
(3 3.396262056e-15 0)
(3 4.335887705e-15 0)
(3 5.327824361e-15 0)
(3 4.743672567e-15 0)
(3 5.094137965e-15 0)
(3 4.911479819e-15 0)
(3 3.924312498e-15 0)
(3 4.509843401e-15 0)
(3 4.365644194e-15 0)
(3 3.434634286e-15 0)
(3 2.174772088e-15 0)
(3 -7.746824541e-16 0)
(3 -2.155503028e-15 0)
(3 -2.938895746e-15 0)
(3 -3.609941214e-15 0)
(3 -2.75386356e-15 0)
(3 -5.890179695e-16 0)
(3 -6.482497643e-16 0)
(3 -1.015803079e-16 0)
(3 8.226081546e-16 0)
(3 -4.409209264e-16 0)
(3 -3.28015517e-15 0)
(3 -6.651943314e-15 0)
(3 -5.162010638e-15 0)
(3 -3.974684672e-15 0)
(3 -4.898590189e-15 0)
(3 -7.504326285e-15 0)
(3 -6.994432789e-15 0)
(3 -4.18686876e-15 0)
(3 -9.224373211e-16 0)
(3 -5.355705652e-16 0)
(3 5.649408469e-16 0)
(3 1.687685535e-15 0)
(3 2.982448131e-15 0)
(3 2.441573666e-15 0)
(3 2.058912702e-15 0)
(3 2.400333061e-15 0)
(3 3.370046992e-15 0)
(3 3.877542943e-15 0)
(3 4.0868312e-15 0)
(3 5.238284731e-15 0)
(3 6.01796513e-15 0)
(3 4.184936853e-15 0)
(3 4.401810425e-15 0)
(3 3.316476556e-15 0)
(3 2.825450692e-15 0)
(3 1.749704706e-15 0)
(3 -3.998591301e-16 0)
(3 -5.060514411e-15 0)
(3 -4.867709419e-15 0)
(3 -4.089560437e-15 0)
(3 -1.264353657e-15 0)
(3 -2.356201897e-15 0)
(3 -3.846830885e-15 0)
(3 -5.778799082e-15 0)
(3 -5.938355834e-15 0)
(3 -6.22801138e-15 0)
(3 -7.38008038e-15 0)
(3 -7.649620541e-15 0)
(3 -2.84005219e-15 0)
(3 -3.411907897e-15 0)
(3 -1.780622989e-15 0)
(3 1.461906062e-15 0)
(3 2.50741501e-15 0)
(3 1.786241514e-15 0)
(3 2.158089762e-15 0)
(3 2.105818262e-15 0)
(3 1.797758184e-15 0)
(3 1.219902542e-15 0)
(3 2.38754038e-15 0)
(3 3.805570739e-15 0)
(3 5.369191795e-15 0)
(3 5.298733072e-15 0)
(3 6.03374621e-15 0)
(3 5.171868628e-15 0)
(3 4.059358269e-15 0)
(3 4.128165557e-15 0)
(3 4.308072548e-15 0)
(3 3.04917861e-15 0)
(3 2.07767296e-15 0)
(3 1.226351408e-15 0)
(3 -6.998207779e-16 0)
(3 -1.998130425e-15 0)
(3 -1.522722017e-15 0)
(3 -2.846493113e-15 0)
(3 -1.917800499e-15 0)
(3 -2.00683479e-15 0)
(3 -2.88434551e-15 0)
(3 -3.506075483e-15 0)
(3 -4.189420623e-15 0)
(3 -4.068400704e-15 0)
(3 -4.864925208e-15 0)
(3 -7.742452084e-15 0)
(3 -3.371581003e-15 0)
(3 -8.541626165e-17 0)
(3 3.49156111e-15 0)
(3 2.870866429e-15 0)
(3 1.12816511e-15 0)
(3 2.846403757e-15 0)
(3 3.900820113e-15 0)
(3 4.114980541e-15 0)
(3 2.897840208e-15 0)
(3 4.176360022e-15 0)
(3 5.013857473e-15 0)
(3 5.089120627e-15 0)
(3 4.813545028e-15 0)
(3 4.791669419e-15 0)
(3 4.339137295e-15 0)
(3 3.999355965e-15 0)
(3 3.285131916e-15 0)
(3 4.002735819e-15 0)
(3 3.158324118e-15 0)
(3 2.856208485e-15 0)
(3 1.745225726e-15 0)
(3 1.901695179e-15 0)
(3 5.618372796e-16 0)
(3 6.376506947e-17 0)
(3 -9.064632037e-16 0)
(3 -1.410293343e-15 0)
(3 -1.162255945e-15 0)
(3 -1.836170998e-15 0)
(3 -1.915081025e-15 0)
(3 -2.627689397e-15 0)
(3 -3.376116358e-15 0)
(3 -4.018861074e-15 0)
(3 -4.727949486e-15 0)
(3 -6.24806437e-15 0)
(3 -2.468670126e-15 0)
(3 2.196574371e-16 0)
(3 1.521160242e-15 0)
(3 2.957713296e-15 0)
(3 3.204350288e-15 0)
(3 3.24265128e-15 0)
(3 2.633825882e-15 0)
(3 2.957740282e-15 0)
(3 3.053939366e-15 0)
(3 4.310142247e-15 0)
(3 4.560904485e-15 0)
(3 3.585774985e-15 0)
(3 3.692013495e-15 0)
(3 3.201898365e-15 0)
(3 2.380623343e-15 0)
(3 3.611401391e-15 0)
(3 3.7616322e-15 0)
(3 2.560547445e-15 0)
(3 1.637857073e-15 0)
(3 1.487852213e-15 0)
(3 3.314887505e-15 0)
(3 3.105863682e-15 0)
(3 1.343087568e-15 0)
(3 4.396237752e-16 0)
(3 -2.021688208e-15 0)
(3 -2.182122172e-15 0)
(3 -1.913818976e-15 0)
(3 -2.271390437e-15 0)
(3 -3.496307735e-15 0)
(3 -3.135106147e-15 0)
(3 -3.015008895e-15 0)
(3 -4.162271723e-15 0)
(3 -6.143501853e-15 0)
(3 -5.727364044e-15 0)
(3 4.467935927e-17 0)
(3 1.365404352e-15 0)
(3 3.054515177e-15 0)
(3 4.036960061e-15 0)
(3 4.05505057e-15 0)
(3 4.317290545e-15 0)
(3 4.103263548e-15 0)
(3 3.660612938e-15 0)
(3 4.830538396e-15 0)
(3 4.756298395e-15 0)
(3 4.399126713e-15 0)
(3 2.930155103e-15 0)
(3 3.633132528e-15 0)
(3 3.379508288e-15 0)
(3 2.409944789e-15 0)
(3 2.977379352e-15 0)
(3 3.128591111e-15 0)
(3 3.300370883e-15 0)
(3 2.063762003e-15 0)
(3 1.285230925e-15 0)
(3 1.862694454e-15 0)
(3 1.243704795e-15 0)
(3 9.494620386e-16 0)
(3 -2.238764615e-16 0)
(3 -4.832051137e-16 0)
(3 -7.039813637e-16 0)
(3 -5.65951193e-16 0)
(3 -1.297385427e-15 0)
(3 -2.812563853e-15 0)
(3 -3.704944239e-15 0)
(3 -5.700880595e-15 0)
(3 -6.943596098e-15 0)
(3 -5.831255909e-15 0)
(3 -4.488037453e-15 0)
(3 2.455018406e-15 0)
(3 4.660107376e-15 0)
(3 4.650903354e-15 0)
(3 2.940776208e-15 0)
(3 3.378850672e-15 0)
(3 5.317579965e-15 0)
(3 7.344354277e-15 0)
(3 6.487842141e-15 0)
(3 5.625479564e-15 0)
(3 4.894045979e-15 0)
(3 3.403982801e-15 0)
(3 3.022215079e-15 0)
(3 3.521729432e-15 0)
(3 3.634190407e-15 0)
(3 2.045184073e-15 0)
(3 1.453926743e-16 0)
(3 -2.121826424e-16 0)
(3 6.255082976e-16 0)
(3 6.485661522e-16 0)
(3 5.236269947e-16 0)
(3 6.843203418e-16 0)
(3 1.439354267e-15 0)
(3 1.274510886e-15 0)
(3 3.967944465e-16 0)
(3 6.561970152e-16 0)
(3 -1.343926354e-15 0)
(3 -2.458027343e-15 0)
(3 -3.011531291e-15 0)
(3 -4.03518786e-15 0)
(3 -4.630222329e-15 0)
(3 -5.494179981e-15 0)
(3 -4.584600653e-15 0)
(3 -2.924657297e-15 0)
(3 -3.285694223e-15 0)
(3 2.466596985e-16 0)
(3 1.693354189e-15 0)
(3 8.019296786e-16 0)
(3 -2.092367207e-16 0)
(3 1.694036623e-15 0)
(3 2.501724364e-15 0)
(3 3.913456722e-15 0)
(3 6.108607225e-15 0)
(3 5.330516915e-15 0)
(3 5.516763805e-15 0)
(3 5.635697045e-15 0)
(3 5.36295923e-15 0)
(3 1.764576917e-15 0)
(3 1.120108842e-15 0)
(3 1.248039666e-15 0)
(3 4.975080609e-16 0)
(3 -2.996292997e-15 0)
(3 -3.56054598e-15 0)
(3 -4.054459647e-15 0)
(3 -3.315787131e-15 0)
(3 -2.687185692e-15 0)
(3 -2.474357477e-15 0)
(3 -2.110802607e-15 0)
(3 -1.642814115e-15 0)
(3 -1.099956795e-15 0)
(3 -3.327375477e-15 0)
(3 -6.139619421e-15 0)
(3 -6.290647544e-15 0)
(3 -5.275196531e-15 0)
(3 -4.376376644e-15 0)
(3 -3.271384295e-15 0)
(3 -2.768023793e-15 0)
(3 -3.212919726e-15 0)
(3 -2.085101081e-15 0)
(3 1.782380852e-15 0)
(3 6.44396559e-16 0)
(3 -8.230686736e-16 0)
(3 -9.252525466e-16 0)
(3 -1.290994963e-15 0)
(3 -6.791840403e-16 0)
(3 9.069751549e-16 0)
(3 3.494112195e-15 0)
(3 6.878605652e-15 0)
(3 5.913596278e-15 0)
(3 4.846663379e-15 0)
(3 1.330853551e-15 0)
(3 -1.406060298e-15 0)
(3 -1.872462652e-15 0)
(3 1.076211288e-17 0)
(3 1.675950893e-15 0)
(3 5.412832018e-16 0)
(3 -2.155808826e-15 0)
(3 -4.021119515e-15 0)
(3 -5.276944297e-15 0)
(3 -5.65114552e-15 0)
(3 -4.414043005e-15 0)
(3 -4.350999364e-15 0)
(3 -3.811704013e-15 0)
(3 -4.063332275e-15 0)
(3 -4.617839207e-15 0)
(3 -4.718043065e-15 0)
(3 -5.318191618e-15 0)
(3 -3.849987717e-15 0)
(3 -3.427567801e-15 0)
(3 -2.640122286e-15 0)
(3 -2.497212247e-15 0)
(3 -2.795781878e-15 0)
(3 -1.726824052e-15 0)
(3 3.758987896e-15 0)
(3 2.031206944e-15 0)
(3 1.098539835e-15 0)
(3 1.91276562e-15 0)
(3 1.604189449e-15 0)
(3 1.194226951e-15 0)
(3 1.652481047e-16 0)
(3 -9.974237405e-16 0)
(3 2.302967033e-15 0)
(3 2.689247213e-15 0)
(3 1.433129405e-15 0)
(3 2.042315275e-16 0)
(3 -1.759717623e-15 0)
(3 -1.938515586e-15 0)
(3 -2.234430595e-15 0)
(3 -1.240282545e-15 0)
(3 7.653168063e-16 0)
(3 -4.824046621e-17 0)
(3 1.117004504e-15 0)
(3 -1.101176951e-16 0)
(3 -2.706049366e-15 0)
(3 -3.942775741e-15 0)
(3 -4.074057681e-15 0)
(3 -3.681693114e-15 0)
(3 -3.362497583e-15 0)
(3 -3.227534268e-15 0)
(3 -2.828005049e-15 0)
(3 -3.122094926e-15 0)
(3 -3.421781576e-15 0)
(3 -2.731823172e-15 0)
(3 -2.059948635e-15 0)
(3 8.877197968e-16 0)
(3 2.041521084e-15 0)
(3 2.332970138e-15 0)
(3 1.290082071e-15 0)
(3 2.748923515e-16 0)
(3 1.468452432e-15 0)
(3 2.614690128e-15 0)
(3 3.064997265e-15 0)
(3 3.316923351e-15 0)
(3 1.088919862e-15 0)
(3 -4.50180961e-16 0)
(3 -3.960187601e-16 0)
(3 1.680030181e-17 0)
(3 5.946624932e-16 0)
(3 5.939187473e-16 0)
(3 -2.460768825e-16 0)
(3 -9.340909436e-16 0)
(3 -1.323200673e-15 0)
(3 -1.311385275e-15 0)
(3 -1.857114777e-15 0)
(3 -2.101346413e-15 0)
(3 -1.475819346e-15 0)
(3 -1.230218973e-15 0)
(3 -2.583667314e-15 0)
(3 -4.737035304e-15 0)
(3 -3.832377006e-15 0)
(3 -3.346109255e-15 0)
(3 -3.218253369e-15 0)
(3 -2.237986479e-15 0)
(3 -2.662194487e-15 0)
(3 -2.965574222e-15 0)
(3 -3.48488977e-15 0)
(3 1.97980995e-17 0)
(3 -1.125870707e-15 0)
(3 -4.313418279e-16 0)
(3 1.001505497e-15 0)
(3 -3.234714693e-17 0)
(3 1.736500752e-15 0)
(3 2.809962035e-16 0)
(3 3.945412866e-16 0)
(3 1.5871149e-15 0)
(3 1.461293276e-15 0)
(3 1.930734004e-15 0)
(3 2.300090768e-15 0)
(3 -8.157548565e-16 0)
(3 -2.464973112e-15 0)
(3 -3.284428427e-15 0)
(3 -3.538841812e-15 0)
(3 -2.746863148e-15 0)
(3 -1.030565088e-15 0)
(3 -2.654742342e-16 0)
(3 -7.292109248e-17 0)
(3 8.468959735e-17 0)
(3 -9.6349749e-16 0)
(3 -1.496820127e-15 0)
(3 -3.306615498e-15 0)
(3 -3.070190744e-15 0)
(3 -2.875788904e-15 0)
(3 -1.926130348e-15 0)
(3 -2.946899881e-15 0)
(3 -4.021781562e-15 0)
(3 -5.239944785e-15 0)
(3 -3.972008303e-15 0)
(3 -3.133697202e-15 0)
(3 -2.022687619e-15 0)
(3 -2.036244648e-16 0)
(3 1.558609965e-17 0)
(3 -6.853135935e-16 0)
(3 -2.206725361e-15 0)
(3 -3.497616148e-15 0)
(3 -4.430770532e-15 0)
(3 2.717503179e-15 0)
(3 3.0011464e-15 0)
(3 1.936329199e-15 0)
(3 1.353826746e-15 0)
(3 5.950837827e-16 0)
(3 5.444235831e-16 0)
(3 8.167109753e-16 0)
(3 7.179526736e-16 0)
(3 -8.246066339e-17 0)
(3 -6.367430496e-16 0)
(3 -3.003380241e-15 0)
(3 -1.619403175e-15 0)
(3 -1.743591884e-15 0)
(3 -1.079414115e-15 0)
(3 -2.785354748e-15 0)
(3 -2.478653013e-15 0)
(3 -2.053417466e-15 0)
(3 -2.62870746e-15 0)
(3 -4.53120709e-15 0)
(3 -5.503231236e-15 0)
(3 -5.085129294e-15 0)
(3 -4.217861355e-15 0)
(3 -4.783144881e-15 0)
(3 -5.859097847e-15 0)
(3 -8.288385412e-15 0)
(3 -8.17519505e-15 0)
(3 -6.715367592e-15 0)
(3 -2.822632136e-15 0)
(3 -2.848122009e-15 0)
(3 -5.272463922e-15 0)
(3 -5.790148893e-15 0)
(3 -6.293496378e-15 0)
(3 -6.011147807e-15 0)
(3 -4.651856484e-15 0)
(3 2.992532108e-15 0)
(3 3.605058769e-15 0)
(3 2.486763907e-15 0)
(3 9.043619709e-16 0)
(3 2.168299799e-18 0)
(3 7.164192339e-16 0)
(3 2.309005576e-16 0)
(3 -1.833884679e-16 0)
(3 -1.137808864e-15 0)
(3 -1.136697609e-15 0)
(3 -6.40639852e-16 0)
(3 -1.370485876e-15 0)
(3 -2.797109492e-15 0)
(3 -3.539661842e-15 0)
(3 -4.393669516e-15 0)
(3 -4.464084247e-15 0)
(3 -4.174763544e-15 0)
(3 -5.580383079e-15 0)
(3 -5.251589643e-15 0)
(3 -7.335429905e-15 0)
(3 -7.841934171e-15 0)
(3 -9.05195563e-15 0)
(3 -7.057949901e-15 0)
(3 -6.376661115e-15 0)
(3 -5.143443305e-15 0)
(3 -5.250564105e-15 0)
(3 -4.094706502e-15 0)
(3 -1.015136037e-15 0)
(3 -2.475752835e-15 0)
(3 -2.882410834e-15 0)
(3 -2.052539201e-15 0)
(3 -2.285539414e-15 0)
(3 -1.786417212e-15 0)
(3 -1.258598747e-15 0)
(3 2.689314809e-15 0)
(3 1.745115528e-15 0)
(3 -9.769938057e-16 0)
(3 -1.121982986e-15 0)
(3 -1.398785305e-15 0)
(3 -1.246181284e-15 0)
(3 -5.846950256e-16 0)
(3 -1.707990403e-15 0)
(3 -7.564856115e-16 0)
(3 -5.406820552e-16 0)
(3 1.16998639e-15 0)
(3 -4.952896196e-16 0)
(3 -1.258638639e-16 0)
(3 -1.740205593e-15 0)
(3 -4.103886899e-16 0)
(3 -1.543491426e-15 0)
(3 -4.086724758e-15 0)
(3 -4.726219372e-15 0)
(3 -4.9314182e-15 0)
(3 -4.533246764e-15 0)
(3 -4.110120682e-15 0)
(3 -3.418884497e-15 0)
(3 -1.76166655e-15 0)
(3 1.337668864e-15 0)
(3 1.503650472e-15 0)
(3 -1.139238476e-15 0)
(3 -1.324943151e-15 0)
(3 -1.130317683e-15 0)
(3 1.538002654e-15 0)
(3 2.732909515e-15 0)
(3 4.067701249e-15 0)
(3 3.208160789e-15 0)
(3 2.543101259e-15 0)
(3 1.210311244e-15 0)
(3 2.602475318e-15 0)
(3 2.146805298e-15 0)
(3 1.09957463e-15 0)
(3 6.383178177e-16 0)
(3 2.581097386e-15 0)
(3 3.144302353e-15 0)
(3 1.639069783e-15 0)
(3 1.276605655e-15 0)
(3 -1.242344712e-15 0)
(3 -1.871603944e-15 0)
(3 -2.157681253e-17 0)
(3 8.459940243e-16 0)
(3 5.824620467e-16 0)
(3 -3.616091875e-16 0)
(3 3.510879443e-16 0)
(3 -9.379036407e-16 0)
(3 -3.136488163e-15 0)
(3 -1.460089356e-15 0)
(3 -2.335370621e-15 0)
(3 -2.103010746e-15 0)
(3 -1.044629214e-15 0)
(3 1.809136865e-15 0)
(3 2.923920173e-15 0)
(3 2.909817045e-15 0)
(3 3.305787805e-15 0)
(3 3.259875164e-15 0)
(3 9.110312489e-16 0)
(3 -6.321844331e-16 0)
(3 -9.298830037e-16 0)
(3 -5.608027024e-16 0)
(3 -1.670456939e-15 0)
(3 -2.1671517e-15 0)
(3 -1.205983603e-15 0)
(3 -1.229871289e-15 0)
(3 -1.219228817e-16 0)
(3 2.282612194e-16 0)
(3 1.210866296e-15 0)
(3 3.002674674e-15 0)
(3 4.531678691e-15 0)
(3 5.567216766e-15 0)
(3 3.751981716e-15 0)
(3 3.639465271e-15 0)
(3 3.460122603e-15 0)
(3 2.31143081e-15 0)
(3 9.315377213e-16 0)
(3 1.219818901e-15 0)
(3 1.52381957e-16 0)
(3 1.251215458e-16 0)
(3 -1.855005876e-15 0)
(3 -1.806340609e-15 0)
(3 9.064349518e-16 0)
(3 2.156983065e-15 0)
(3 3.531550156e-15 0)
(3 3.809028771e-15 0)
(3 3.375861776e-15 0)
(3 1.839447247e-15 0)
(3 8.832498358e-16 0)
(3 1.199504873e-15 0)
(3 5.044944303e-15 0)
(3 7.896780581e-15 0)
(3 5.693448029e-15 0)
(3 2.882112662e-15 0)
(3 -6.193160252e-16 0)
(3 2.51714164e-16 0)
(3 -1.700341706e-15 0)
(3 -1.353351076e-15 0)
(3 -1.757385939e-15 0)
(3 -2.903566769e-15 0)
(3 -9.147788876e-16 0)
(3 -7.25839331e-16 0)
(3 3.004681463e-15 0)
(3 3.643288797e-15 0)
(3 2.565474659e-15 0)
(3 1.779804654e-15 0)
(3 4.582690523e-15 0)
(3 3.59121731e-15 0)
(3 3.781062285e-15 0)
(3 3.517534087e-15 0)
(3 2.575915705e-15 0)
(3 2.116988763e-15 0)
(3 2.012997348e-15 0)
(3 1.522823085e-15 0)
(3 -1.351681872e-15 0)
(3 -1.689507806e-15 0)
(3 -1.727565208e-15 0)
(3 -3.017839529e-15 0)
(3 -7.23941886e-16 0)
(3 3.117805294e-15 0)
(3 3.869923648e-15 0)
(3 3.005078439e-15 0)
(3 3.103168414e-15 0)
(3 3.938663704e-15 0)
(3 5.494699532e-15 0)
(3 3.57368411e-15 0)
(3 2.259821807e-15 0)
(3 1.570817212e-15 0)
(3 2.494549135e-16 0)
(3 -1.847074999e-15 0)
(3 -1.271765172e-15 0)
(3 -9.948636216e-16 0)
(3 -1.983887504e-15 0)
(3 -2.183775774e-15 0)
(3 -9.088799756e-17 0)
(3 -1.900542671e-16 0)
(3 1.980945545e-15 0)
(3 3.178143433e-15 0)
(3 2.242130945e-15 0)
(3 1.537470347e-15 0)
(3 2.049423257e-15 0)
(3 2.508901113e-15 0)
(3 2.06681712e-15 0)
(3 1.233525796e-15 0)
(3 1.250501899e-16 0)
(3 -1.152765948e-18 0)
(3 -1.033033779e-16 0)
(3 -1.681200082e-17 0)
(3 -8.930409288e-16 0)
(3 -8.875375872e-16 0)
(3 -3.335621626e-15 0)
(3 -1.980618754e-15 0)
(3 -5.136667635e-16 0)
(3 2.627244194e-15 0)
(3 4.325438593e-15 0)
(3 4.157461359e-15 0)
(3 3.835092152e-15 0)
(3 3.023665551e-15 0)
(3 2.443803955e-15 0)
(3 1.782021367e-15 0)
(3 2.069587777e-15 0)
(3 1.764630889e-15 0)
(3 3.323195314e-16 0)
(3 -2.426083102e-16 0)
(3 -6.258078572e-16 0)
(3 -1.263628859e-15 0)
(3 -2.477488575e-15 0)
(3 -4.137445708e-15 0)
(3 1.299362181e-16 0)
(3 4.810206564e-16 0)
(3 -8.010092399e-16 0)
(3 -2.326113963e-16 0)
(3 -3.814017429e-16 0)
(3 -1.99262886e-15 0)
(3 -1.921564688e-15 0)
(3 1.893847871e-15 0)
(3 4.089133273e-15 0)
(3 2.281829688e-15 0)
(3 1.210787067e-15 0)
(3 -1.615779912e-15 0)
(3 -8.074242717e-16 0)
(3 1.848007835e-16 0)
(3 1.826575532e-15 0)
(3 1.21826898e-15 0)
(3 -2.769759996e-15 0)
(3 -4.312840309e-16 0)
(3 2.914078293e-16 0)
(3 1.566585155e-15 0)
(3 4.723372416e-15 0)
(3 4.3609443e-15 0)
(3 1.948992738e-15 0)
(3 8.174284334e-16 0)
(3 1.136923057e-15 0)
(3 7.005044807e-16 0)
(3 2.526852532e-15 0)
(3 2.839453033e-15 0)
(3 4.508845073e-15 0)
(3 4.607894521e-15 0)
(3 2.76303064e-15 0)
(3 1.424714661e-15 0)
(3 -1.020158093e-15 0)
(3 -3.806092826e-15 0)
(3 -1.507953527e-15 0)
(3 -2.007715275e-15 0)
(3 -2.732552781e-15 0)
(3 -1.687634172e-15 0)
(3 -1.04810081e-15 0)
(3 -2.411965384e-15 0)
(3 -1.567027574e-15 0)
(3 4.107903345e-16 0)
(3 1.11315364e-15 0)
(3 4.486291238e-15 0)
(3 4.875235399e-15 0)
(3 4.426289388e-15 0)
(3 3.664199374e-15 0)
(3 3.23395018e-15 0)
(3 4.903355609e-15 0)
(3 5.198620171e-15 0)
(3 4.645986779e-15 0)
(3 6.324788535e-16 0)
(3 8.511957752e-16 0)
(3 7.141363821e-16 0)
(3 1.418627388e-15 0)
(3 3.642269133e-15 0)
(3 2.628634552e-15 0)
(3 2.088827767e-15 0)
(3 9.322360477e-16 0)
(3 -1.084863205e-15 0)
(3 3.704793433e-17 0)
(3 1.302932511e-15 0)
(3 2.193429677e-15 0)
(3 1.774460029e-15 0)
(3 1.345491837e-15 0)
(3 3.811801982e-16 0)
(3 -1.481978115e-15 0)
(3 -6.673128352e-16 0)
(3 3.893717908e-16 0)
(3 4.906279163e-16 0)
(3 1.042588319e-15 0)
(3 2.158290967e-15 0)
(3 2.376681334e-15 0)
(3 1.634547987e-15 0)
(3 2.045079649e-15 0)
(3 1.542156089e-16 0)
(3 9.521907896e-16 0)
(3 3.216449693e-15 0)
(3 4.451343856e-15 0)
(3 4.732309753e-15 0)
(3 6.101045368e-15 0)
(3 5.940111695e-15 0)
(3 4.847251757e-15 0)
(3 4.142288317e-15 0)
(3 4.028615816e-15 0)
(3 1.80331584e-15 0)
(3 6.953511468e-16 0)
(3 -3.532429923e-16 0)
(3 -5.659215783e-16 0)
(3 -5.271558816e-17 0)
(3 6.37999947e-16 0)
(3 -2.35784237e-16 0)
(3 -2.258389273e-15 0)
(3 -2.49353616e-15 0)
(3 -1.829328832e-15 0)
(3 -7.368793689e-16 0)
(3 -2.100468361e-15 0)
(3 -1.671030306e-15 0)
(3 -1.714466185e-15 0)
(3 -1.066060381e-15 0)
(3 -1.052305794e-15 0)
(3 -6.875751428e-16 0)
(3 4.027881052e-15 0)
(3 4.248565991e-15 0)
(3 3.215860842e-15 0)
(3 2.628214103e-15 0)
(3 1.435756257e-15 0)
(3 2.794738853e-15 0)
(3 2.038845323e-15 0)
(3 1.550810613e-15 0)
(3 2.040887073e-15 0)
(3 8.661233037e-16 0)
(3 2.914998022e-15 0)
(3 3.902080538e-15 0)
(3 4.339387035e-15 0)
(3 4.730464566e-15 0)
(3 4.290739732e-15 0)
(3 3.14703011e-15 0)
(3 4.61113352e-15 0)
(3 4.635599298e-15 0)
(3 1.934161255e-15 0)
(3 -1.362393246e-16 0)
(3 -7.470780138e-16 0)
(3 -9.884417135e-17 0)
(3 6.406564594e-16 0)
(3 -2.721703686e-16 0)
(3 -9.899838352e-16 0)
(3 -5.367772182e-16 0)
(3 -9.615209871e-16 0)
(3 -5.190466027e-16 0)
(3 2.199888642e-15 0)
(3 2.721525716e-15 0)
(3 2.465059155e-15 0)
(3 1.285205616e-15 0)
(3 1.36759785e-15 0)
(3 8.864226147e-16 0)
(3 2.941026477e-15 0)
(3 2.877588178e-15 0)
(3 1.264063369e-15 0)
(3 6.897218313e-16 0)
(3 2.383001062e-16 0)
(3 6.208303212e-16 0)
(3 1.497779883e-15 0)
(3 2.983745958e-15 0)
(3 4.499899402e-15 0)
(3 4.751717642e-15 0)
(3 5.205863755e-15 0)
(3 5.698381961e-15 0)
(3 5.666553593e-15 0)
(3 5.193848329e-15 0)
(3 4.732156433e-15 0)
(3 5.422220139e-15 0)
(3 6.549869399e-15 0)
(3 6.667844182e-15 0)
(3 4.504891308e-15 0)
(3 2.144009055e-15 0)
(3 5.144730333e-16 0)
(3 7.01664397e-16 0)
(3 2.124780756e-17 0)
(3 -1.834283639e-17 0)
(3 6.371647904e-16 0)
(3 2.329625388e-15 0)
(3 1.996748077e-15 0)
(3 2.163592578e-15 0)
(3 2.938083071e-15 0)
(3 3.324573251e-15 0)
(3 2.637016798e-15 0)
(3 4.577250658e-16 0)
(3 -1.865716603e-16 0)
(3 -2.201763145e-16 0)
(3 4.04213755e-15 0)
(3 3.022561517e-15 0)
(3 2.515644229e-15 0)
(3 9.308520709e-16 0)
(3 1.893481016e-15 0)
(3 1.48810567e-15 0)
(3 2.365037079e-15 0)
(3 2.972977832e-15 0)
(3 3.21185547e-15 0)
(3 5.907891782e-15 0)
(3 7.053350645e-15 0)
(3 7.467048169e-15 0)
(3 7.436613911e-15 0)
(3 5.601700335e-15 0)
(3 3.285185963e-15 0)
(3 3.777053153e-15 0)
(3 4.038713922e-15 0)
(3 5.242682606e-15 0)
(3 4.727594561e-15 0)
(3 3.443764192e-15 0)
(3 1.498982354e-15 0)
(3 1.003146812e-15 0)
(3 -1.255509383e-16 0)
(3 -1.436371064e-15 0)
(3 -1.26938225e-16 0)
(3 7.705259112e-16 0)
(3 2.548998279e-15 0)
(3 2.718668373e-15 0)
(3 3.021158844e-15 0)
(3 1.618895247e-15 0)
(3 -1.151870467e-15 0)
(3 -1.856554867e-15 0)
(3 -2.578577023e-15 0)
(3 -2.447843119e-15 0)
(3 3.71422193e-15 0)
(3 3.379367516e-15 0)
(3 5.577625969e-15 0)
(3 4.66416286e-15 0)
(3 3.543714081e-15 0)
(3 1.157665793e-15 0)
(3 1.861197747e-15 0)
(3 2.996743312e-15 0)
(3 2.465261842e-15 0)
(3 1.794070809e-15 0)
(3 4.315336207e-15 0)
(3 5.380575768e-15 0)
(3 5.003573544e-15 0)
(3 3.669885669e-15 0)
(3 3.837886151e-15 0)
(3 2.791867098e-15 0)
(3 3.394672242e-15 0)
(3 2.412390505e-15 0)
(3 2.156757311e-15 0)
(3 1.983286193e-15 0)
(3 2.48745884e-16 0)
(3 5.160766181e-16 0)
(3 2.028920518e-15 0)
(3 1.442138533e-15 0)
(3 -1.330254321e-15 0)
(3 -2.184584259e-15 0)
(3 1.046006286e-15 0)
(3 2.485092358e-15 0)
(3 2.305084399e-15 0)
(3 1.167267962e-15 0)
(3 1.840716818e-16 0)
(3 -4.840806136e-17 0)
(3 -1.774418885e-15 0)
(3 -1.645281467e-15 0)
(3 1.683548245e-15 0)
(3 2.956640397e-15 0)
(3 4.381658567e-15 0)
(3 4.185359571e-15 0)
(3 2.847108448e-15 0)
(3 2.357972481e-15 0)
(3 7.792276764e-16 0)
(3 7.371426517e-16 0)
(3 4.291147323e-16 0)
(3 6.756580328e-16 0)
(3 8.938760413e-16 0)
(3 2.291039275e-15 0)
(3 2.319303288e-15 0)
(3 2.815641685e-15 0)
(3 3.219619798e-15 0)
(3 2.052332779e-15 0)
(3 1.198257138e-15 0)
(3 -9.451589905e-16 0)
(3 -8.157292822e-16 0)
(3 3.609360891e-16 0)
(3 -3.279486467e-16 0)
(3 -8.024363465e-16 0)
(3 -2.805753073e-16 0)
(3 1.833625761e-15 0)
(3 7.020862905e-16 0)
(3 3.135417959e-16 0)
(3 4.64953141e-16 0)
(3 -5.45344026e-16 0)
(3 -1.960231902e-16 0)
(3 -6.383121467e-16 0)
(3 2.147153374e-15 0)
(3 1.989111713e-15 0)
(3 1.975080306e-15 0)
(3 2.16996656e-15 0)
(3 2.456571138e-15 0)
(3 2.474925061e-15 0)
(3 1.702112223e-15 0)
(3 2.20756882e-15 0)
(3 4.022827115e-15 0)
(3 3.671930394e-15 0)
(3 1.943893257e-15 0)
(3 -4.077027458e-16 0)
(3 -1.143677711e-15 0)
(3 -1.01707603e-16 0)
(3 -6.277272115e-16 0)
(3 2.395613472e-16 0)
(3 1.344414089e-15 0)
(3 2.209792931e-15 0)
(3 2.119991743e-15 0)
(3 1.415361229e-15 0)
(3 -1.282978277e-15 0)
(3 -3.149460045e-15 0)
(3 -3.251444955e-15 0)
(3 -1.977207533e-15 0)
(3 -6.828483239e-16 0)
(3 2.101835829e-16 0)
(3 -6.312292173e-16 0)
(3 -5.993031423e-16 0)
(3 -1.565897931e-15 0)
(3 -1.103122648e-15 0)
(3 -3.078363017e-16 0)
(3 -5.990318393e-16 0)
(3 -6.906615842e-16 0)
(3 -6.977514329e-16 0)
(3 -2.100021902e-16 0)
(3 -2.39157881e-16 0)
(3 2.976379761e-16 0)
(3 3.412421888e-16 0)
(3 -1.167544503e-15 0)
(3 -1.555522843e-15 0)
(3 -6.065881719e-16 0)
(3 9.499430354e-16 0)
(3 1.19166371e-15 0)
(3 1.22744989e-15 0)
(3 8.831557847e-16 0)
(3 6.497416185e-16 0)
(3 5.617023356e-16 0)
(3 6.449582175e-16 0)
(3 6.768566175e-16 0)
(3 6.324142656e-16 0)
(3 1.579291963e-16 0)
(3 3.525312598e-16 0)
(3 6.810434691e-16 0)
(3 1.038520329e-15 0)
(3 2.09683721e-15 0)
(3 2.38780291e-15 0)
(3 2.274915962e-15 0)
(3 2.3364615e-15 0)
(3 -6.128146064e-16 0)
(3 -4.613387833e-17 0)
(3 -9.006722783e-18 0)
(3 -5.140795241e-16 0)
(3 -4.921347202e-16 0)
(3 2.350307122e-16 0)
(3 2.416359391e-16 0)
(3 -4.6463036e-16 0)
(3 -9.243144308e-16 0)
(3 -6.72536924e-16 0)
(3 -1.173491817e-15 0)
(3 -1.541398707e-15 0)
(3 -2.268413767e-15 0)
(3 -2.916172498e-15 0)
(3 -1.985821059e-15 0)
(3 -1.23601622e-15 0)
(3 -9.299563741e-16 0)
(3 5.842165144e-16 0)
(3 7.414992672e-16 0)
(3 6.639994057e-16 0)
(3 3.241208921e-16 0)
(3 5.54318651e-16 0)
(3 1.247513009e-15 0)
(3 1.778234587e-16 0)
(3 -1.016902817e-15 0)
(3 -1.178102497e-15 0)
(3 -2.185399934e-15 0)
(3 -2.64777838e-16 0)
(3 1.406593388e-16 0)
(3 1.089407843e-15 0)
(3 1.701667637e-15 0)
(3 1.482081394e-15 0)
(3 1.397401903e-15 0)
(3 -5.204058102e-16 0)
(3 3.770045027e-16 0)
(3 4.30843452e-16 0)
(3 6.641162683e-16 0)
(3 -1.4413901e-15 0)
(3 -1.715112406e-15 0)
(3 -1.066986814e-15 0)
(3 -1.784343341e-15 0)
(3 -3.050240157e-15 0)
(3 -3.569766543e-15 0)
(3 -3.762661183e-15 0)
(3 -5.349637539e-15 0)
(3 -5.437054369e-15 0)
(3 -4.668592569e-15 0)
(3 -3.10833403e-15 0)
(3 -3.08897393e-15 0)
(3 -4.208823383e-15 0)
(3 -3.565087215e-15 0)
(3 -1.878508437e-15 0)
(3 -6.955497964e-16 0)
(3 -5.200827407e-16 0)
(3 -1.719139734e-16 0)
(3 8.359469706e-16 0)
(3 1.183355361e-15 0)
(3 1.479130277e-15 0)
(3 2.741553007e-15 0)
(3 2.154355674e-15 0)
(3 1.738509644e-15 0)
(3 7.619150864e-16 0)
(3 -1.084652569e-15 0)
(3 -2.674409669e-15 0)
(3 -3.33055498e-15 0)
(3 -4.97211536e-15 0)
(3 4.220172626e-15 0)
(3 2.561643283e-15 0)
(3 -7.625319171e-16 0)
(3 -1.710840688e-15 0)
(3 -3.844899024e-15 0)
(3 -5.306636538e-15 0)
(3 -5.628703764e-15 0)
(3 -6.03099256e-15 0)
(3 -6.359848581e-15 0)
(3 -6.418065683e-15 0)
(3 -6.350145953e-15 0)
(3 -5.973521304e-15 0)
(3 -5.685354113e-15 0)
(3 -5.484232247e-15 0)
(3 -5.214077993e-15 0)
(3 -5.019015886e-15 0)
(3 -4.264153802e-15 0)
(3 -4.075125988e-15 0)
(3 -3.990382707e-15 0)
(3 -3.114115025e-15 0)
(3 -7.653084668e-16 0)
(3 -2.617911055e-16 0)
(3 2.921715679e-16 0)
(3 3.121097829e-16 0)
(3 4.23499251e-16 0)
(3 -3.52467664e-16 0)
(3 -8.215522433e-16 0)
(3 -1.463000965e-15 0)
(3 -1.768088338e-15 0)
(3 -2.042387111e-15 0)
(3 -1.482405333e-15 0)
(3 -1.092609845e-15 0)
(3 -1.729579933e-15 0)
(3 2.585484379e-15 0)
(3 2.438179815e-15 0)
(3 7.202182188e-16 0)
(3 -1.075865155e-16 0)
(3 -4.949184578e-16 0)
(3 -8.218660203e-16 0)
(3 -2.571749361e-15 0)
(3 -4.29008971e-15 0)
(3 -5.324858073e-15 0)
(3 -6.170302769e-15 0)
(3 -6.385486819e-15 0)
(3 -5.139882474e-15 0)
(3 -4.525593705e-15 0)
(3 -5.686235918e-15 0)
(3 -6.920259272e-15 0)
(3 -6.860167261e-15 0)
(3 -4.598315638e-15 0)
(3 -3.300623915e-15 0)
(3 -3.354650333e-15 0)
(3 -3.009395754e-15 0)
(3 -1.892049228e-15 0)
(3 -4.813901793e-16 0)
(3 -6.971298154e-16 0)
(3 -1.192698055e-15 0)
(3 -1.467057557e-15 0)
(3 -1.354438328e-15 0)
(3 -2.422318068e-15 0)
(3 -4.401624712e-15 0)
(3 -5.359020758e-15 0)
(3 -4.729296997e-15 0)
(3 -3.842861531e-15 0)
(3 -1.592286115e-15 0)
(3 -2.093298258e-16 0)
(3 -3.931509645e-15 0)
(3 -3.574203893e-15 0)
(3 -2.198447841e-15 0)
(3 -2.216274216e-15 0)
(3 -6.736390289e-16 0)
(3 6.853045091e-16 0)
(3 4.258917676e-16 0)
(3 -7.482932756e-16 0)
(3 -3.336789025e-15 0)
(3 -4.158380512e-15 0)
(3 -4.308324847e-15 0)
(3 -3.432705156e-15 0)
(3 -3.204099504e-15 0)
(3 -3.354366187e-15 0)
(3 -3.435639015e-15 0)
(3 -4.043976654e-15 0)
(3 -3.592035429e-15 0)
(3 -1.357911981e-15 0)
(3 -3.228440817e-16 0)
(3 -8.801618293e-16 0)
(3 -3.046601137e-15 0)
(3 -3.169351625e-15 0)
(3 -3.178432311e-15 0)
(3 -3.1392069e-15 0)
(3 -2.449701651e-15 0)
(3 -1.10264953e-15 0)
(3 -4.890369498e-16 0)
(3 -3.944735295e-16 0)
(3 -2.813464447e-16 0)
(3 -1.638538381e-15 0)
(3 -3.528814443e-15 0)
(3 -4.187547825e-15 0)
(3 -3.149118116e-15 0)
(3 -6.973687858e-15 0)