/*--------------------------------*- C++ -*----------------------------------*\
  =========                 |
  \\      /  F ield         | OpenFOAM: The Open Source CFD Toolbox
   \\    /   O peration     | Website:  https://openfoam.org
    \\  /    A nd           | Version:  7
     \\/     M anipulation  |
\*---------------------------------------------------------------------------*/
FoamFile
{
    version     2.0;
    format      ascii;
    class       volScalarField;
    location    "3.4";
    object      T;
}
// * * * * * * * * * * * * * * * * * * * * * * * * * * * * * * * * * * * * * //

dimensions      [0 0 0 1 0 0 0];

internalField   nonuniform List<scalar> 
5000
(
1
1
1
1
1
1
1
1
1
1
1
1
1
1
1
1
1
1
1
1
1
1
1
1
1
1
1
1
1
1
1
1
1
1
1
1
1
1
1
1
1
1
1
1
1
1
1
1
1
1
1
1
1
1
1
1
1
1
1
1
1
1
1
1
1
1
1
1
1
1
1
1
1
1
1
1
1
1
1
1
1
1
1
1
1
1
1
1
1
1
1
1
1
1
1
1
1
1
1
1
1
1
1
1
1
1
1
1
1
1
1
1
1
1
1
1
1
1
1
1
1
1
1
1
1
1
1
1
1
1
1
1
1
1
1
1
1
1
1
1
1
1
1
1
1
1
1
1
1
1
1
1
1
1
1
1
1
1
1
1
1
1
1
1
1
1
1
1
1
1
1
1
1
1
1
1
1
1
1
1
1
1
1
1
1
1
1
1
1
1
1
1
1
1
1
1
1
1
1
1
1
1
1
1
1
1
1
1
1
1
1
1
1
1
1
1
1
1
1
1
1
1
1
1
1
1
1
1
1
1
1
1
1
1
1
1
1
1
1
1
1
1
1
1
1
1
1
1
1
1
1
1
1
1
1
1
1
1
1
1
1
1
1
1
1
1
1
1
1
1
1
1
1
1
1
1
1
1
1
1
1
1
1
1
1
1
1
1
1
1
1
1
1
1
1
1
1
1
1
1
1
1
1
1
1
1
1
1
1
1
1
1
1
1
1
1
1
1
1
1
1
1
1
1
1
1
1
1
1
1
1
1
1
1
1
1
1
1
1
1
1
1
1
1
1
1
1
1
1
1
1
1
1
1
1
1
1
1
1
1
1
1
1
1
1
1
1
1
1
1
1
1
1
1
1
1
1
1
1
1
1
1
1
1
1
1
1
1
1
1
1
1
1
1
1
1
1
1
1
1
1
1
1
1
1
1
1
1
1
1
1
1
1
1
1
1
1
1
1
1
1
1
1
1
1
1
1
1
1
1
1
1
1
1
1
1
1
1
1
1
1
1
1
1
1
1
1
1
1
1
1
1
1
1
1
1
1
1
1
1
1
1
1
1
1
1
1
1
1
1
1
1
1
1
1
1
1
1
1
1
1
1
1
1
1
1
1
1
1
1
1
1
1
1
1
1
1
1
1
1
1
1
1
1
1
1
1
1
1
1
1
1
1
1
1
1
1
1
1
1
1
1
1
1
1
1
1
1
1
1
1
1
1
1
1
1
1
1
1
1
1
1
1
1
1
1
1
1
1
1
1
1
1
1
1
1
1
1
1
1
1
1
1
1
1
1
1
1
1
1
1
1
1
1
1
1
1
1
1
1
1
1
1
1
1
1
1
1
1
1
1
1
1
1
1
1
1
1
1
1
1
1
1
1
1
1
1
1
1
1
1
1
1
1
1
1
1
1
1
1
1
1
1
1
1
1
1
1
1
1
1
1
1
1
1
1
1
1
1
1
1
1
1
1
1
1
1
1
1
1
1
1
1
1
1
1
1
1
1
1
1
1
1
1
1
1
1
1
1
1
1
1
1
1
1
1
1
1
1
1
1
1
1
1
1
1
1
1
1
1
1
1
1
1
1
1
1
1
1
1
1
1
1
1
1
1
1
1
1
1
1
1
1
1
1
1
1
1
1
1
1
1
1
1
1
1
1
1
1
1
1
1
1
1
1
1
1
1
1
1
1
1
1
1
1
1
1
1
1
1
1
1
1
1
1
1
1
1
1
1
1
1
1
1
1
1
1
1
1
1
1
1
1
1
1
1
1
1
1
1
1
1
1
1
1
1
1
1
1
1
1
1
1
1
1
1
1
1
1
1
1
1
1
1
1
1
1
1
1
1
1
1
1
1
1
1
1
1
1
1
1
1
1
1
1
1
1
1
1
1
1
1
1
1
1
1
1
1
1
1
1
1
1
1
1
1
1
1
1
1
1
1
1
1
1
1
1
1
1
1
1
1
1
1
1
1
1
1
1
1
1
1
1
1
1
1
1
1
1
1
1
1
1
1
1
1
1
1
1
1
1
1
1
1
1
1
1
1
1
1
1
1
1
1
1
1
1
1
1
1
1
1
1
1
1
1
1
1
1
1
1
1
1
1
1
1
1
1
1
1
1
1
1
1
1
1
1
1
1
1
1
1
1
1
1
1
1
1
1
1
1
1
1
1
1
1
1
1
1
1
1
1
1
1
1
1
1
1
1
1
1
1
1
1
0.9999999999
1
1
1
1
1
1
1
1
1
1
1
1
1
1
1
1
1
1
1
1
1
1
1
1
0.9999999951
1
1
1
1
1
1
1
1
1
1
1
1
1
1
1
1
1
1
1
1
1
1
1
1.000000002
0.9999998946
1
1
1
1
1
1
1
1
1
1
1
1
1
1
1
1
1
1
1
1
1.000000001
1.000000006
1.000000035
1.000000803
0.9999995176
1
1
1
1
1
1
1
1
1
1
1
1
1
1
1
1
1.000000002
1.000000013
1.000000075
1.000000353
1.000001571
1.000005998
1.000020512
1.000101125
1.000107114
1
1
1
1
1
1
1
1
1
1
1
1.000000001
1.000000005
1.000000033
1.000000167
1.000000716
1.000002759
1.00000936
1.00003095
1.000088717
1.000252124
1.000603094
1.001436769
1.00302475
1.005001561
1
1
1
1
1
1
1
1.000000001
1.00000001
1.000000067
1.000000339
1.000001448
1.000005387
1.00001758
1.00005294
1.000139307
1.000353682
1.000792823
1.001795105
1.003519723
1.006786036
1.011367044
1.018820975
1.027951176
1.03772147
1
1
1
1.000000001
1.000000011
1.000000095
1.000000559
1.000002524
1.000009705
1.000031216
1.000092267
1.000233484
1.000561878
1.001191837
1.00245842
1.004504026
1.008166349
1.013282111
1.021311301
1.030760219
1.042468777
1.054650275
1.067291172
1.079745347
1.089782408
1.000000003
1.000000047
1.000000488
1.000003042
1.000013911
1.000049315
1.000150615
1.000383657
1.000892517
1.001838163
1.00359624
1.006226835
1.0104629
1.016137864
1.024006035
1.033945314
1.045874645
1.057926134
1.070325036
1.082212979
1.090616711
1.099305252
1.105385685
1.111459448
1.114188305
1.000007872
1.000043888
1.000186892
1.00055861
1.001395621
1.002868895
1.005455735
1.009198493
1.014451298
1.021208158
1.030025344
1.039528681
1.05051754
1.062089128
1.074295468
1.087480353
1.097833184
1.106054577
1.112671117
1.115740179
1.118498508
1.122817293
1.123839525
1.123855758
1.123622326
1.001046759
1.003220039
1.007564069
1.013365881
1.020815834
1.028965396
1.038928523
1.047772577
1.056598973
1.066830365
1.075418711
1.08258098
1.089793121
1.097055293
1.102518281
1.10592664
1.109514703
1.114538351
1.118990841
1.121642562
1.123694805
1.12414578
1.12430816
1.123431252
1.122815621
1.01566396
1.033581048
1.051754426
1.069125119
1.084581732
1.098988973
1.110640607
1.121134324
1.131140985
1.138232024
1.141952136
1.146427948
1.150103576
1.150429492
1.149061015
1.145734572
1.141522665
1.137985038
1.134355007
1.131020164
1.127103539
1.123979278
1.121823034
1.119764987
1.118595569
1
1
1
1
1
1
1
1
1
1
1
1.000000004
1.000000165
1.000003676
1.000063168
1.000618914
1.00424985
1.017922503
1.04955993
1.093408643
1.127871959
1.156773617
1.168693145
1.163356688
1.144003839
1
1
1
1
1
1
1
1
1
1
1.000000004
1.000000139
1.00000405
1.000055263
1.000639923
1.00373189
1.016074455
1.038173121
1.065301075
1.087961376
1.113959554
1.129560876
1.145984497
1.144837315
1.134466835
1
1
1
1
1
1
1
1
1
1.000000003
1.000000152
1.000003186
1.000062692
1.000534812
1.004166715
1.014676787
1.039193754
1.064102794
1.077708994
1.082856755
1.091471852
1.104057476
1.11837979
1.129802406
1.122703906
1
1
1
1
1
1
1
1
1.000000002
1.000000101
1.000003578
1.00004836
1.000633227
1.003492807
1.016604393
1.039389914
1.062196739
1.078774217
1.082929145
1.082562653
1.080901438
1.080971731
1.081937795
1.092732834
1.090888741
1
1
1
1
1
1
1
1.000000002
1.000000089
1.00000235
1.000054778
1.000486995
1.004071682
1.01499211
1.040108835
1.068415814
1.079544826
1.082349472
1.082881621
1.080068397
1.072058401
1.059000171
1.049987532
1.050868211
1.057884944
1
1
1
1
1
1
1.000000001
1.000000066
1.000002379
1.000037206
1.000560739
1.00328362
1.016371053
1.041272262
1.063838533
1.082241496
1.085810237
1.08487991
1.080648034
1.07073083
1.057389278
1.041461738
1.023878646
1.016441336
1.021844149
1
1
1
1
1
1.000000001
1.000000042
1.00000169
1.000041571
1.000411758
1.003732519
1.014689474
1.040380387
1.072692216
1.080576645
1.084136311
1.085537935
1.08186518
1.071741176
1.056897115
1.038398244
1.024306491
1.005722956
0.9925329856
0.9877314611
1
1
1
1
1
1.000000039
1.000001267
1.000030017
1.000479045
1.003008091
1.015781141
1.041929722
1.065667514
1.085995307
1.087937662
1.086777345
1.082297958
1.071473457
1.055195229
1.038560569
1.019281938
1.004193264
0.9894706601
0.9742830033
0.9615378942
1
1
1
1
1.000000018
1.00000118
1.00002569
1.00036275
1.003438057
1.014294877
1.040606885
1.074979838
1.081673224
1.086458329
1.088009898
1.083455877
1.071328015
1.055054234
1.035091275
1.018373057
1.000663198
0.9840741278
0.9709925713
0.9548649839
0.9384695197
1
1
1
1.000000015
1.000000587
1.000023546
1.00033343
1.002841514
1.01537604
1.041348705
1.067687278
1.090089035
1.090674574
1.089189183
1.083786972
1.071569801
1.052737463
1.033964779
1.01423032
0.9967803121
0.9817761
0.9644467639
0.9528759909
0.9383170381
0.9279304651
1
1
1.000000003
1.00000052
1.000013059
1.00031083
1.002688474
1.01413245
1.040704728
1.076119417
1.084897429
1.090720928
1.091259802
1.085350626
1.071455154
1.052461257
1.031400421
1.011593244
0.9931048858
0.9746209463
0.9600110758
0.9435753806
0.9307670445
0.9207172746
0.9212640748
1
1.000000002
1.000000163
1.000012876
1.000193563
1.00267068
1.01313533
1.042006331
1.071147187
1.092859696
1.092654848
1.091547531
1.085492869
1.071508626
1.050246245
1.029381727
1.00768571
0.9889652029
0.9717971078
0.9534320493
0.9408537955
0.928551001
0.9214691529
0.9179523132
0.9208368279
1
1.000000117
1.000005005
1.000206966
1.001850492
1.013791783
1.04043392
1.073313981
1.08908446
1.095849094
1.095048368
1.087516808
1.070306001
1.049767153
1.02589627
1.003839976
0.9837812253
0.9628603828
0.9476489918
0.9304632771
0.9193698555
0.9153263876
0.9165530874
0.9183840607
0.9381642809
1
1.000003845
1.000096825
1.002009565
1.011187455
1.0403549
1.078639511
1.094659982
1.09483504
1.095720497
1.088683953
1.071532954
1.047470927
1.021882806
1.000353171
0.9780570001
0.9598767313
0.9414938909
0.9272350758
0.9196188461
0.9137781185
0.914118089
0.9189623025
0.9332952037
0.9681135592
1.000000034
1.000079462
1.001156981
1.01166136
1.039871985
1.072248829
1.098300813
1.10064253
1.098571517
1.08861587
1.069963793
1.04473733
1.019278364
0.9937478476
0.970193504
0.9498287715
0.9322175459
0.9172440798
0.9104648612
0.9124155675
0.9141182131
0.9239020751
0.9448634701
0.965720656
0.9894666119
1.000003948
1.001005815
1.008575985
1.038310089
1.083216534
1.094950335
1.100511792
1.100272569
1.090873359
1.069821409
1.042246494
1.015284084
0.9877069565
0.9657075849
0.9449243878
0.9250582094
0.9162921386
0.9095571011
0.9087394072
0.9132985269
0.927649813
0.9550983529
0.9818386113
0.9956811153
1.002136827
1.000172742
1.007788172
1.036280586
1.07429328
1.10478573
1.105584797
1.103311996
1.091463385
1.067930344
1.039185378
1.007625061
0.9806743351
0.95505758
0.9289230627
0.9166299038
0.9065445931
0.9075631854
0.9094502641
0.9176071906
0.9410377139
0.9668796445
0.9849933316
0.994243539
1.001770044
1.00434568
1.003378112
1.032783374
1.085009289
1.099199231
1.105828468
1.105292513
1.093446805
1.066787277
1.034317641
1.003087947
0.9732600712
0.9467030091
0.9272726148
0.9094747639
0.9011545731
0.9016790731
0.9062351715
0.9256552547
0.9530890101
0.9758993513
0.9958367555
1.003127247
1.002783583
1.003782446
1.004412972
1.026002024
1.074237129
1.111320234
1.111922018
1.108952571
1.09355703
1.064686632
1.029886109
0.9915682113
0.9607409667
0.9341424309
0.9095617137
0.8996100999
0.9001165096
0.9018007122
0.9111349422
0.9357341837
0.969284881
0.9948556063
0.9992325603
1.004356094
1.006951944
1.007070266
1.006795406
1.00656287
1.079566176
1.102839688
1.111394137
1.110503468
1.094841132
1.063909264
1.020983962
0.9875157838
0.9538703954
0.9205831494
0.905880218
0.8910636264
0.8918839691
0.8973478287
0.9220089609
0.9528704984
0.9829504928
0.9936624547
1.004283308
1.007019192
1.007920665
1.008798935
1.009179947
1.009259997
1.009393539
1.115243332
1.118718075
1.114631886
1.095201855
1.056944561
1.015441034
0.9710046121
0.9292144158
0.9089271907
0.8890485724
0.890761771
0.8921869356
0.9064409923
0.9356221101
0.9698590722
0.9966232776
1.009280785
1.008948824
1.009846675
1.010615141
1.010389335
1.010329977
1.010468746
1.010861686
1.011423393
1.118886127
1.117300599
1.097307224
1.056422366
1.005229428
0.9598572821
0.9282767101
0.8966498356
0.876966923
0.8779656594
0.8864806324
0.9162844062
0.9589989372
0.9955500784
1.003759791
1.010060804
1.014095156
1.013568664
1.012152355
1.011445307
1.010958952
1.010948435
1.011257107
1.011993711
1.012581319
1.121935658
1.100361841
1.048118518
0.9889563604
0.936725068
0.8938484338
0.8791495628
0.8760243172
0.877116852
0.8947029321
0.9349223603
0.9809196202
1.000271378
1.012222936
1.012551912
1.012877003
1.012622738
1.011688374
1.010424703
1.010352018
1.010577015
1.010938891
1.011673095
1.012676779
1.012592354
1.106563557
1.044535321
0.9716021564
0.9089819311
0.8777734168
0.8500872256
0.8510860765
0.8614405822
0.9002466147
0.9596496784
0.9925020735
1.003934532
1.004743684
1.008997165
1.00880517
1.007687947
1.007038412
1.006753765
1.00694881
1.007470275
1.008110834
1.00874639
1.009568399
1.009496529
1.009224319
1.050315844
0.8995539806
0.8440469225
0.8290425658
0.8324166403
0.8353158887
0.8567533574
0.9187011615
0.9738322536
0.986690342
0.996938327
1.000828398
0.9985068909
0.9987733407
0.9997510653
0.9999429839
1.000347278
1.001243541
1.002366773
1.003248703
1.003661422
1.003951095
1.0043344
1.004639732
1.005019709
0.9082443
0.9162327699
0.8518829678
0.8342152615
0.8346978054
0.8437722597
0.8959371591
0.97019689
0.9969474651
0.987556871
0.992553837
0.9952474772
0.9932221494
0.9929885737
0.9947746761
0.9953946551
0.9962972654
0.9981397919
1.000004951
1.000900429
1.000704549
1.000014336
1.000111199
1.00081213
1.002119215
0.9108589841
0.916145584
0.8626973665
0.8378565726
0.8375623039
0.8531350108
0.916434321
0.9768737396
0.9940616123
0.9867729689
0.9906576724
0.9919354555
0.99068854
0.9911782116
0.9934265114
0.9940692145
0.9948116166
0.9968828182
0.9996214512
1.000699177
1.00010677
0.9988523039
0.9987272238
0.9992173963
1.000682147
0.9169855115
0.9138614543
0.8678526978
0.8418778302
0.8399361711
0.8621820649
0.9296778411
0.9780105619
0.9923095213
0.9870779832
0.9899436165
0.989657952
0.9883623965
0.9892733798
0.9914955437
0.9923615553
0.9932269774
0.9950217449
0.9974592793
0.9992316649
0.9990960951
0.9982835543
0.9979856336
0.998367689
0.9997402751
0.9203276781
0.9110116822
0.8728605374
0.8457398175
0.845228143
0.8794746459
0.9449082618
0.9801352272
0.9906138256
0.9881081194
0.9910998579
0.9905616597
0.988419111
0.9879351682
0.9897479947
0.9909664716
0.9917804997
0.9930702432
0.9954168288
0.9973990131
0.9985214275
0.9993948533
0.9996277027
0.9997518512
0.9999146582
0.9227306995
0.9080267084
0.8774298003
0.8489876694
0.8516235572
0.8944363288
0.9575684518
0.9830868952
0.9905922766
0.9866808042
0.9904337908
0.9905852507
0.9892652624
0.9882536875
0.9897615913
0.9916618343
0.9926874343
0.9931698119
0.9944569828
0.9964134229
0.9983174534
0.9997482395
1.000513282
1.001214666
1.001595978
0.9236148863
0.9062565201
0.8806308212
0.8545848067
0.8619381959
0.9056839344
0.9630770999
0.9835045237
0.990564986
0.9853686047
0.9894861812
0.9897960479
0.9890885357
0.9886530594
0.990383117
0.992568912
0.9943398195
0.995037272
0.9956887329
0.9967703697
0.99806667
0.9991094244
0.9999617664
1.001179459
1.002338831
0.923272696
0.9052270326
0.8832910835
0.8612269394
0.8726914903
0.9233316661
0.9668430439
0.9833704393
0.9896867847
0.984888538
0.9890926657
0.9891487828
0.9889426694
0.9896473565
0.9914435332
0.9931045979
0.9948395898
0.9960484591
0.9970441304
0.9976281379
0.9977914566
0.9982350881
0.9989069788
1.000256567
1.001820074
0.9220852454
0.9057798603
0.8867712331
0.8689630314
0.8864738806
0.942589486
0.9747458868
0.9865315639
0.9905426206
0.9871364433
0.9905559516
0.9899377403
0.9903729636
0.9914157459
0.9928390184
0.9937350336
0.9951371716
0.9968617763
0.9982143797
0.9988270515
0.9983743997
0.9983455217
0.9986442498
0.9996071625
1.001330623
0.9216125649
0.906592735
0.8912759625
0.8795742406
0.9089679476
0.9597444019
0.9880672238
0.9949066429
0.9964472073
0.9945071216
0.9966458904
0.9948755692
0.9945837699
0.9949067313
0.9959181026
0.9961955666
0.9971733452
0.9991366192
1.000791653
1.001637846
1.001705437
1.001742448
1.001637178
1.001775006
1.002929806
0.9201768573
0.9080500622
0.8971022319
0.8917118754
0.9301035478
0.9809758286
1.003426117
1.005667607
1.004307081
1.00280028
1.004026276
1.001866853
1.000529519
1.000860886
1.00218978
1.00244234
1.002740496
1.003893789
1.005674015
1.006675939
1.006807877
1.006896777
1.006930884
1.007102859
1.007783463
0.9182180913
0.9098319583
0.9045957771
0.9064658099
0.9498318819
1.00382864
1.015159982
1.016619635
1.013368027
1.010960282
1.011994253
1.01013721
1.008562749
1.009040949
1.010681661
1.011157384
1.011180454
1.011200683
1.012196081
1.012865678
1.012917715
1.012958887
1.013080156
1.01361299
1.014260459
0.9185105388
0.9122997117
0.9131238588
0.9235798508
0.9773677446
1.016054147
1.02438667
1.027616108
1.024000527
1.019536971
1.021125856
1.02003985
1.01897
1.018809635
1.020251021
1.021086489
1.021010289
1.020335144
1.020349385
1.020550673
1.020352317
1.02046668
1.020705254
1.02149372
1.022147916
0.9188094278
0.9170006139
0.9216085624
0.9422181696
1.002623799
1.025256692
1.031647436
1.034100813
1.03242293
1.029228568
1.031722658
1.030871438
1.030236492
1.029006003
1.030192837
1.03129114
1.031356481
1.030599247
1.029915134
1.029857659
1.030000726
1.030135538
1.030257292
1.030934558
1.031546071
0.919910222
0.9210148683
0.9323941514
0.9709373562
1.025237586
1.037425627
1.040123255
1.042587768
1.042874352
1.041112061
1.043592147
1.042162214
1.041247016
1.040083348
1.041052886
1.041998767
1.042177968
1.041766097
1.041076535
1.040995164
1.041250618
1.041081418
1.04081997
1.041358044
1.042236299
0.9216238962
0.9246378814
0.9465309319
1.002071102
1.053304138
1.052679834
1.051717027
1.051764732
1.054178648
1.052951483
1.054427408
1.052854435
1.051938795
1.050604284
1.051373231
1.05194
1.053718692
1.05400686
1.054093037
1.054007788
1.053888411
1.053602597
1.053220834
1.053453196
1.05429458
0.9242761235
0.930304759
0.9608420417
1.027869223
1.075529444
1.072072436
1.066560624
1.064899404
1.06439473
1.063368586
1.064262613
1.062103916
1.061489564
1.061916055
1.062919231
1.06344948
1.064885614
1.066081101
1.067170772
1.06726768
1.066794316
1.066591538
1.066581272
1.066826709
1.067631227
0.9285189331
0.937954098
0.98016924
1.06025898
1.091077366
1.085677189
1.080416057
1.077401277
1.075128087
1.073029515
1.073301279
1.072043321
1.072351142
1.073947582
1.075548669
1.076008118
1.077049728
1.078237798
1.079746476
1.080050511
1.079606314
1.079571116
1.079740929
1.080083962
1.080995936
0.9315948033
0.9483469852
1.007057789
1.089133603
1.102991961
1.095791799
1.08905712
1.086581198
1.084189685
1.082000574
1.083819477
1.083282426
1.084132336
1.085544318
1.088056591
1.088523649
1.08919792
1.089519932
1.090309149
1.090648379
1.090510271
1.090868966
1.091584308
1.092380544
1.093239778
0.9354639493
0.9619251116
1.038394006
1.105045165
1.110652831
1.09764495
1.091745107
1.093792147
1.09351233
1.092957078
1.095763366
1.095316808
1.095203758
1.095770069
1.098545276
1.099439994
1.099547328
1.099323655
1.099508329
1.099934752
1.10003333
1.10024482
1.100707679
1.10167658
1.102480831
0.939386779
0.9755438954
1.063749333
1.11668689
1.114170671
1.100354766
1.098746639
1.102890538
1.105204898
1.104702998
1.107076866
1.105948532
1.104454503
1.104580413
1.107262544
1.10850901
1.108503987
1.108037226
1.107862421
1.107955503
1.108400925
1.108502268
1.10861791
1.109178555
1.109732901
0.9426833416
0.9905124969
1.090970125
1.128632916
1.121331405
1.106946399
1.107680402
1.113363938
1.116557867
1.114568827
1.115675597
1.113078922
1.111170791
1.111387281
1.114309669
1.115163512
1.11470817
1.113410651
1.113544201
1.114071582
1.11455176
1.114573866
1.114138305
1.114724185
1.115088722
0.9505284313
1.018836347
1.121642575
1.146766798
1.133732197
1.1185424
1.117260169
1.121383669
1.122973153
1.120298805
1.121158049
1.117958728
1.116190184
1.117385576
1.119398079
1.118669372
1.118869871
1.118460758
1.118971433
1.119034622
1.118739627
1.118409335
1.118073543
1.11764985
1.118005214
0.9704635265
1.06711361
1.152566804
1.165770505
1.145676953
1.130285534
1.127942103
1.126725265
1.12269327
1.120892068
1.122665108
1.121609496
1.120274041
1.120625059
1.121486251
1.122118373
1.122456973
1.121909653
1.1219364
1.121526665
1.1206305
1.120300056
1.120407898
1.120451923
1.121085882
0.987979259
1.11811668
1.176943219
1.174734338
1.150086824
1.135187512
1.133437161
1.129778755
1.123906775
1.121065274
1.122515633
1.122864806
1.1220572
1.120722213
1.122259039
1.123842023
1.124116363
1.123108437
1.122325469
1.121322864
1.120595481
1.120787512
1.121278539
1.122210866
1.122709694
1.013758863
1.163420291
1.187165816
1.171267573
1.145527838
1.133166174
1.134204265
1.132177035
1.126218234
1.123235727
1.124587038
1.12252601
1.121458355
1.121967624
1.123802376
1.123578196
1.123746873
1.122277891
1.121168406
1.120373696
1.120422087
1.120999134
1.121639206
1.122760033
1.122943357
1.01149569
1.152375734
1.180313892
1.16878052
1.142238884
1.127283651
1.129629479
1.132129699
1.130320288
1.126294758
1.126527917
1.122562504
1.120589523
1.122054075
1.12443456
1.123584604
1.122305478
1.120942896
1.120453982
1.120342172
1.120385789
1.120971699
1.121422354
1.121951716
1.121743253
0.9849883903
1.101685045
1.166887231
1.162221614
1.138488889
1.12246747
1.124683287
1.129885979
1.131521056
1.127052579
1.12686131
1.122283502
1.119626055
1.12060264
1.124140153
1.12272425
1.121381645
1.12012781
1.120040937
1.120109398
1.120167923
1.1206371
1.120797216
1.120747252
1.12040004
0.9705992247
1.060154648
1.149906683
1.153517296
1.136126821
1.120291514
1.124123916
1.128873501
1.127465395
1.123818615
1.124293717
1.12100368
1.118491999
1.118967897
1.122618228
1.121334966
1.120756408
1.119723515
1.119923223
1.120571891
1.120581029
1.120213285
1.119743806
1.11920383
1.119080223
0.9521401948
1.025660385
1.123095113
1.151585978
1.137125383
1.120299848
1.120437493
1.122466579
1.119321262
1.116989756
1.118561935
1.118862282
1.11774083
1.117391127
1.119471328
1.120033621
1.120108061
1.119527936
1.119573423
1.119837049
1.119605598
1.119115115
1.118780776
1.1184509
1.118679995
0.9433202043
0.9981975889
1.095780534
1.142205291
1.133882632
1.119047292
1.113839379
1.11372088
1.111722374
1.110821767
1.113213082
1.112900222
1.112775805
1.113850238
1.115097457
1.115873693
1.116446087
1.116414345
1.1162321
1.115847717
1.115156371
1.114863826
1.115040697
1.11558333
1.11620474
0.9388251536
0.9746551804
1.06434743
1.126050073
1.121638065
1.112036135
1.106437072
1.105917295
1.104514994
1.103526962
1.105605341
1.103812864
1.104252582
1.105709868
1.107250747
1.108303417
1.109570906
1.109709631
1.109631165
1.109107378
1.108175374
1.108105344
1.108637797
1.109864675
1.111163792
0.9342745807
0.9580216456
1.032944605
1.106352732
1.107533023
1.097848929
1.092652051
1.094107708
1.095838833
1.094833144
1.096176007
1.094332667
1.094260584
1.095123043
1.097046668
1.09857634
1.099973929
1.100163031
1.100260753
1.099542367
1.09896866
1.099417697
1.100481483
1.101953596
1.103275538
0.9316630072
0.9472989197
1.007132142
1.080446074
1.094178592
1.084290685
1.079852138
1.082485342
1.085261044
1.08503876
1.086982139
1.085198584
1.083988629
1.084054194
1.086145335
1.087809722
1.088446342
1.088329938
1.088424367
1.088108524
1.088143135
1.089043187
1.09057118
1.091904073
1.092492641
0.9279009362
0.939068149
0.9851292993
1.058065333
1.081920314
1.074161206
1.071045467
1.072947717
1.073840684
1.072950425
1.075721855
1.074881279
1.074111172
1.073179747
1.075767435
1.077085748
1.076788757
1.076136528
1.076270956
1.076740691
1.077604739
1.078854011
1.07986062
1.080125408
1.079891049
0.9247920277
0.9317654093
0.9618241344
1.03014092
1.070956148
1.06809028
1.065109087
1.064563923
1.063358848
1.061177184
1.063534946
1.063154012
1.062631994
1.062753092
1.065085201
1.065610936
1.065566531
1.06473751
1.065022434
1.066162188
1.067216935
1.067462808
1.067429151
1.067197851
1.066767934
0.9222817607
0.9258439226
0.9439148314
0.9952200194
1.05699322
1.061304565
1.060641778
1.058627129
1.055023286
1.05117456
1.052158053
1.051480003
1.051178177
1.051554871
1.053297514
1.053529088
1.05387367
1.054242692
1.054725608
1.055358968
1.055149421
1.054776758
1.054646726
1.054351762
1.054261905
0.9199248744
0.9199993297
0.9319578363
0.9692577751
1.037430528
1.04855242
1.049745963
1.046673376
1.043772011
1.041629484
1.04226613
1.040350068
1.03960983
1.040476728
1.041426715
1.04162491
1.042305801
1.043057893
1.043345399
1.043325375
1.04290341
1.042277963
1.041892219
1.041740641
1.042595333
0.9185330641
0.9153805607
0.9223143557
0.9470250983
1.007991324
1.032481219
1.035268016
1.03385291
1.0332238
1.0320015
1.032584423
1.030176221
1.028907273
1.029381823
1.02964934
1.029680186
1.03058577
1.031878403
1.03210441
1.031345342
1.030238909
1.029610178
1.029677827
1.030296381
1.031512041
0.9182718756
0.9128861747
0.9127008103
0.9233627
0.9773234095
1.009082575
1.018764713
1.02159815
1.022468841
1.020966081
1.022593262
1.0203107
1.019193918
1.018483473
1.019105671
1.019100757
1.019748317
1.020381047
1.020788389
1.019782666
1.018845383
1.018863763
1.019501392
1.020434138
1.021677235
0.9190442856
0.9099497451
0.904693768
0.9061738937
0.9513399579
0.9889754994
1.005535743
1.011995933
1.012794374
1.008953229
1.011520484
1.010270699
1.010059376
1.009187186
1.009960209
1.010312728
1.010770804
1.010973447
1.011005555
1.010416989
1.010432873
1.011066125
1.012016947
1.012886722
1.013694865
0.9202707683
0.9079202406
0.8972259067
0.8913253484
0.9241803482
0.977094252
0.9969418781
1.004645579
1.004286378
0.9994749386
1.002007257
1.001374798
1.00169942
1.001377193
1.002508972
1.003621575
1.004069862
1.004108557
1.004104042
1.004369495
1.005299271
1.006319263
1.007293886
1.007891356
1.00791085
0.9211098809
0.9067362898
0.8913395486
0.8792675305
0.9047837685
0.9633718201
0.9912307708
0.9989192658
0.9986863089
0.994212106
0.9965449288
0.9959556481
0.9950471864
0.9952330421
0.9970163944
0.9988224963
0.9995138432
0.9996921273
1.000308619
1.001566243
1.002856373
1.003763952
1.004452044
1.004716468
1.004423001
0.9224447195
0.9058970279
0.8868184392
0.8700087893
0.8910241211
0.9445427069
0.9854588438
0.9933238572
0.9942008264
0.9912504887
0.9936547086
0.9929318098
0.9910378664
0.9910789199
0.9929914571
0.9946531613
0.9956675543
0.9965073017
0.9982445381
1.000218224
1.001221927
1.001400677
1.001477067
1.001634656
1.002069188
0.9232959381
0.9052660567
0.8832440685
0.8611606977
0.8744003247
0.9288299342
0.9752693473
0.9863449355
0.9891501885
0.9881088699
0.9907703045
0.989759039
0.9882370887
0.988549423
0.9904018587
0.9913436663
0.9922885011
0.9940640497
0.996705435
0.9983583017
0.9985171844
0.9982596302
0.9985063259
0.9991056644
1.000455256
0.9235880441
0.9062675566
0.8806440387
0.8544514361
0.8605013969
0.9103208887
0.960922323
0.9792607075
0.9852321611
0.9844920215
0.9880623363
0.9868881152
0.9861976137
0.9877725352
0.9898442314
0.990576456
0.9917113119
0.9940103452
0.9961363471
0.9962489269
0.9959214656
0.9965616534
0.997900253
0.9989880756
1.000420914
0.9227785399
0.9080672758
0.8774719655
0.8490312523
0.8510914165
0.8879186092
0.9480057497
0.974639563
0.9873708785
0.9833039947
0.9872179372
0.9865230902
0.9867700007
0.9882133127
0.9903731349
0.9914467762
0.992865744
0.9948467779
0.9962920497
0.9960695391
0.9964496588
0.9972188913
0.9987077808
1.000083985
1.000960705
0.9203029901
0.9109927425
0.8729875702
0.8457053224
0.8450068156
0.8732564974
0.9391964571
0.9765026192
0.9916742824
0.9842782049
0.9884241861
0.9889085089
0.9892990527
0.9898340933
0.9914824806
0.9929031442
0.9944107904
0.9957564177
0.9968995731
0.9974130615
0.9980458904
0.9992521176
1.000313791
1.001098816
1.001518302
0.9168915682
0.9138145514
0.8679036423
0.8419470766
0.840147033
0.865342383
0.9296905064
0.9782511219
0.9957793795
0.9872638753
0.9914370591
0.9927681314
0.992067976
0.9913193168
0.9924029789
0.9938956051
0.9953859969
0.9962938771
0.9973958604
0.9988119581
0.9999469233
1.000626271
1.001189031
1.00143903
1.001676782
0.9107887054
0.9161378346
0.8626927545
0.8379049469
0.8374811248
0.8548290752
0.9181429537
0.9803777764
0.9981158384
0.990027553
0.9946581735
0.9957543224
0.9939990625
0.9915393881
0.9924070729
0.9937694183
0.9947624612
0.9955299652
0.9972559951
0.9997139637
1.00090783
1.001009619
1.000798194
1.000700314
1.001129359
0.9082044163
0.9162471223
0.8518791244
0.8341868336
0.8346703745
0.8437815509
0.8987291356
0.9758945565
0.9983298367
0.989013262
0.9953185823
0.9967130361
0.9938248508
0.9917818844
0.9933416082
0.9943351553
0.9952222295
0.9964945709
0.9982516888
0.9999167273
1.000430663
1.000446194
1.000659585
1.001028632
1.001594079
1.050318579
0.8995435563
0.8440329762
0.8290362007
0.8324260544
0.8353115664
0.8567396737
0.9186849347
0.9735771217
0.9865280825
0.9969958313
1.000616383
0.9982511032
0.9987255142
0.9998511711
0.9999649857
1.000307157
1.00121848
1.002338178
1.003046625
1.003487742
1.003919956
1.004439707
1.00474691
1.004926212
1.106563725
1.044535003
0.9716020102
0.9089847467
0.8777715902
0.8500746956
0.8510866946
0.8613691597
0.9001334107
0.9598242012
0.992700245
1.003774161
1.004743034
1.009067881
1.008833491
1.0077116
1.007016934
1.006714759
1.006947221
1.007574607
1.008230014
1.008812887
1.009359455
1.009387058
1.00924178
1.121935599
1.100361379
1.048120013
0.9889557569
0.9367252204
0.8938455432
0.8791526507
0.876029807
0.8771245332
0.8947083411
0.9349393931
0.980908552
1.00023855
1.01220978
1.012585238
1.012934409
1.012628374
1.011601556
1.010280767
1.010283771
1.010567178
1.01107791
1.011870656
1.012661701
1.012535655
1.11888693
1.117300995
1.097307649
1.056422761
1.005231203
0.9598554236
0.9282781527
0.8966489739
0.8769679498
0.8779666001
0.8864538218
0.9163799621
0.9590121021
0.9954798549
1.003766666
1.010173364
1.01409113
1.013513322
1.012034442
1.011399776
1.010955992
1.011019032
1.011383204
1.012078207
1.012540624
1.115243484
1.11871829
1.114631906
1.09520265
1.056945261
1.015441431
0.9710062572
0.9292121601
0.9089305207
0.8890473014
0.8907504176
0.8921899557
0.9064441119
0.9355781776
0.9698163975
0.9968383827
1.009271825
1.008927592
1.009801114
1.010618896
1.010400011
1.010352895
1.010519425
1.010956495
1.011461601
1.079566947
1.102838234
1.111393503
1.110503433
1.094840506
1.063908955
1.020984808
0.9875180594
0.9538712125
0.9205808232
0.9058830429
0.891065892
0.8918820883
0.8973376318
0.9219937659
0.9529300505
0.9828710888
0.993704169
1.004350075
1.007034587
1.007901144
1.008758019
1.009171593
1.009292278
1.009439798
1.026002178
1.074236128
1.111319253
1.111922346
1.108951997
1.093556888
1.064686044
1.029891114
0.991564641
0.9607491523
0.934136771
0.9095612139
0.8996012636
0.9001031069
0.9017937512
0.911109485
0.9358751299
0.9693316416
0.9947423233
0.9991214212
1.004296845
1.006914619
1.007041944
1.00679672
1.006585831
1.003377985
1.032783236
1.085009563
1.099200336
1.105827487
1.105291793
1.093447662
1.066788737
1.034318239
1.003085285
0.9732594854
0.946710531
0.9272750776
0.9094643896
0.9011474172
0.9016761892
0.9062725147
0.9256618261
0.953009999
0.9758956709
0.9959653236
1.00309425
1.002786706
1.003775095
1.004361252
1.00017273
1.007788289
1.036280411
1.074292892
1.104786041
1.105584422
1.103312571
1.091462557
1.067931981
1.03918221
1.007627176
0.9806749305
0.9550610262
0.9289136791
0.9166270943
0.9065505
0.9075804379
0.9094608124
0.9176119258
0.9409478828
0.9669293637
0.984895404
0.9943053613
1.001777697
1.004259591
1.000003947
1.001005848
1.00857586
1.03831003
1.083219227
1.094951892
1.100511705
1.100272525
1.090872142
1.069822225
1.042244179
1.015284438