/*--------------------------------*- C++ -*----------------------------------*\
  =========                 |
  \\      /  F ield         | OpenFOAM: The Open Source CFD Toolbox
   \\    /   O peration     | Website:  https://openfoam.org
    \\  /    A nd           | Version:  7
     \\/     M anipulation  |
\*---------------------------------------------------------------------------*/
FoamFile
{
    version     2.0;
    format      ascii;
    class       volScalarField;
    location    "3.2";
    object      rho;
}
// * * * * * * * * * * * * * * * * * * * * * * * * * * * * * * * * * * * * * //

dimensions      [1 -3 0 0 0 0 0];

internalField   nonuniform List<scalar> 
22
(
1.36092961
1.369511558
1.37038084
1.355393275
1.367192209
1.369833716
1.339617353
1.343297275
1.365713138
1.369625783
1.34092423
1.30909716
1.364747096
1.370207934
1.342359183
1.273995876
1.338906206
1.352857515
1.212753991
1.256941033
1.32982458
1.283638788
)
;

boundaryField
{
    inlet
    {
        type            calculated;
        value           nonuniform 0();
    }
    outlet
    {
        type            calculated;
        value           nonuniform 0();
    }
    bottom
    {
        type            calculated;
        value           nonuniform 0();
    }
    top
    {
        type            calculated;
        value           nonuniform 0();
    }
    obstacle
    {
        type            calculated;
        value           nonuniform 0();
    }
    defaultFaces
    {
        type            empty;
    }
    procBoundary28to21
    {
        type            processor;
        value           nonuniform List<scalar> 2(1.286835083 1.247418473);
    }
    procBoundary28to22
    {
        type            processor;
        value           nonuniform List<scalar> 3(1.362795547 1.360954711 1.359454078);
    }
    procBoundary28to27
    {
        type            processor;
        value           nonuniform List<scalar> 6(1.210564702 1.154092016 1.18760464 1.18760464 1.196662737 1.360764075);
    }
    procBoundary28to29
    {
        type            processor;
        value           nonuniform List<scalar> 7(1.335629362 1.335629362 1.346689221 1.349170952 1.350608054 1.362055224 1.362919707);
    }
    procBoundary28to34
    {
        type            processor;
        value           nonuniform List<scalar> 4(1.267407246 1.277644211 1.267407246 1.40220748);
    }
}


// ************************************************************************* //
