/*--------------------------------*- C++ -*----------------------------------*\
  =========                 |
  \\      /  F ield         | OpenFOAM: The Open Source CFD Toolbox
   \\    /   O peration     | Website:  https://openfoam.org
    \\  /    A nd           | Version:  7
     \\/     M anipulation  |
\*---------------------------------------------------------------------------*/
FoamFile
{
    version     2.0;
    format      ascii;
    class       volVectorField;
    location    "3.8";
    object      U;
}
// * * * * * * * * * * * * * * * * * * * * * * * * * * * * * * * * * * * * * //

dimensions      [0 1 -1 0 0 0 0];

internalField   nonuniform List<vector> 
2222
(
(2.994186205 0.00795765838 0)
(2.995089461 0.007430379056 0)
(2.996232815 0.001923924329 0)
(2.996517108 -6.390962482e-05 0)
(2.996139635 0.002194782303 0)
(2.996526076 0.0006472751429 0)
(2.996711723 -0.00261625165 0)
(2.996288278 -0.002586969586 0)
(3.368172722 0.4560064255 0)
(3.283843719 0.4523397212 0)
(3.168549718 0.4235646908 0)
(3.069064047 0.3975974996 0)
(3.002039717 0.3862466951 0)
(2.976927678 0.3785655424 0)
(2.970469129 0.3836751714 0)
(2.96940908 0.3849027827 0)
(2.979417621 0.3870016427 0)
(2.996482247 0.3856718967 0)
(3.009906332 0.3864229647 0)
(3.019947436 0.3881194828 0)
(3.032488188 0.3927571683 0)
(3.046717543 0.3974512415 0)
(3.060090017 0.3993883017 0)
(3.069498393 0.3999646295 0)
(3.075908636 0.3991439878 0)
(3.0812618 0.396069852 0)
(3.085644427 0.3796080368 0)
(3.072168965 0.2971402151 0)
(3.033109147 0.1354026827 0)
(3.010579 0.02867504097 0)
(3.001030808 0.002805643983 0)
(2.996868712 0.001306659442 0)
(2.994110333 0.00451304483 0)
(2.993146741 0.00661162856 0)
(2.994260195 0.006301288535 0)
(2.995564463 0.001115851755 0)
(2.995768826 -0.0003424134511 0)
(2.995156876 0.001975982608 0)
(2.995310071 0.0005776071001 0)
(2.995389701 -0.002129250502 0)
(2.994946565 -0.001806253149 0)
(3.388908071 0.4334968727 0)
(3.361444652 0.4581215434 0)
(3.280772914 0.4492101663 0)
(3.168340678 0.4215453197 0)
(3.070511811 0.3967399234 0)
(3.004766682 0.3851082822 0)
(2.97862065 0.3790308113 0)
(2.970399164 0.385186103 0)
(2.968039825 0.3848292789 0)
(2.978839292 0.3866659797 0)
(2.996813146 0.3857191085 0)
(3.010162812 0.386626301 0)
(3.020097052 0.3885292968 0)
(3.032630179 0.3933384803 0)
(3.04704431 0.3974938037 0)
(3.060049568 0.3990091828 0)
(3.06861657 0.3997051713 0)
(3.074937659 0.3988101587 0)
(3.079883485 0.392992771 0)
(3.080030596 0.3583972296 0)
(3.061629479 0.2482145758 0)
(3.028692757 0.1071715441 0)
(3.005424546 0.03212165519 0)
(2.997223522 0.00619692555 0)
(2.99462677 0.003038546844 0)
(2.992768844 0.005146733991 0)
(2.991963622 0.00622019748 0)
(2.993282874 0.004607203835 0)
(2.994703541 0.0003877468971 0)
(2.994729742 -0.001025993352 0)
(2.994035288 0.001167059828 0)
(2.993874217 8.364614792e-05 0)
(2.993795556 -0.001991340189 0)
(2.993331547 -0.001508817236 0)
(3.384916806 0.4323174497 0)
(3.354434403 0.4588949764 0)
(3.276783013 0.4455102426 0)
(3.169903236 0.4193877786 0)
(3.074761978 0.3948779531 0)
(3.010075871 0.3837984163 0)
(2.981610102 0.3792414237 0)
(2.970257308 0.3866464107 0)
(2.966805116 0.385504034 0)
(2.978343419 0.3860684703 0)
(2.997042333 0.3858290602 0)
(3.010233767 0.386789021 0)
(3.020391498 0.388974441 0)
(3.03289823 0.3939564736 0)
(3.047152608 0.3976643872 0)
(3.059700852 0.3986894657 0)
(3.06791984 0.3992412544 0)
(3.07390578 0.3980576383 0)
(3.078497161 0.3882962365 0)
(3.077243692 0.343301819 0)
(3.054921878 0.2227372314 0)
(3.018663511 0.1029618728 0)
(3.00030323 0.02745742722 0)
(2.994830942 0.007810827861 0)
(2.992328771 0.005268958248 0)
(2.991256519 0.006038824595 0)
(2.990726335 0.006495650554 0)
(2.992086317 0.003681481674 0)
(2.993346873 -0.0004068721606 0)
(2.993298539 -0.001391680441 0)
(2.992752941 0.000218366773 0)
(2.992738469 -0.001156435766 0)
(2.99235196 -0.002490982264 0)
(3.380967133 0.4310398912 0)
(3.347670305 0.4582740943 0)
(3.272423848 0.4426800513 0)
(3.172383252 0.4178893043 0)
(3.080510591 0.394020648 0)
(3.016453716 0.3827777051 0)
(2.985226023 0.3794393122 0)
(2.970155177 0.3874467808 0)
(2.965862322 0.3863599506 0)
(2.977957824 0.3858348333 0)
(2.997034966 0.3858713585 0)
(3.010206803 0.3870014749 0)
(3.020691081 0.389375624 0)
(3.032987712 0.3945975767 0)
(3.046954338 0.3978969217 0)
(3.059171899 0.3985932558 0)
(3.067074496 0.3988918091 0)
(3.072745209 0.3965847216 0)
(3.076732059 0.3827501815 0)
(3.071160663 0.3311360393 0)
(3.045559548 0.2104979445 0)
(3.009382561 0.08136372715 0)
(2.997021281 0.01762537879 0)
(2.992553042 0.007274567054 0)
(2.990683886 0.006234167517 0)
(2.989496656 0.007478180186 0)
(2.989660058 0.007063957429 0)
(2.99089627 0.003563832442 0)
(2.992020372 -0.000801908398 0)
(2.991789243 -0.001712942098 0)
(2.991072776 -0.0005136129718 0)
(2.991259609 -0.002131064939 0)
(2.990705069 -0.003277984402 0)
(3.377539689 0.4303681344 0)
(3.341810914 0.4574338184 0)
(3.269308269 0.4403011076 0)
(3.17524651 0.4173731947 0)
(3.087920891 0.3943804165 0)
(3.022805107 0.3828473423 0)
(2.988486514 0.3797347974 0)
(2.970042929 0.3872601507 0)
(2.965215436 0.3871058107 0)
(2.977768004 0.3858967594 0)
(2.996868735 0.3858894904 0)
(3.010180555 0.387138483 0)
(3.020685325 0.3899380455 0)
(3.032597137 0.3952706618 0)
(3.046253861 0.3981043429 0)
(3.05779352 0.3985545422 0)
(3.065574657 0.3983997054 0)
(3.071606067 0.3946177203 0)
(3.074566947 0.3759265177 0)
(3.060808333 0.2999659095 0)
(3.030757878 0.1615551833 0)
(3.000429178 0.04263806645 0)
(2.993334121 0.009261862277 0)
(2.989383888 0.005863529879 0)
(2.988827342 0.006066625317 0)
(2.987967001 0.007826311062 0)
(2.988807263 0.007535492146 0)
(2.989759057 0.00436498598 0)
(2.990694446 -0.0005502467113 0)
(2.990390211 -0.00162553294 0)
(2.989552267 -0.0008038181885 0)
(2.98939144 -0.002689103706 0)
(2.988478138 -0.00382040752 0)
(3.375219992 0.4300943834 0)
(3.337356435 0.4546152194 0)
(3.26557781 0.4399922193 0)
(3.178325205 0.4160658743 0)
(3.094479985 0.3944479299 0)
(3.029091642 0.3838779716 0)
(2.991247324 0.3804985046 0)
(2.969833907 0.38711642 0)
(2.964790339 0.3870365819 0)
(2.977750784 0.3860111805 0)
(2.99662003 0.3859013508 0)
(3.010107468 0.3872738519 0)
(3.020780923 0.3906772699 0)
(3.031910859 0.3957806402 0)
(3.044854069 0.3981533132 0)
(3.055814637 0.3985335683 0)
(3.064279286 0.3978253432 0)
(3.070424159 0.3914820369 0)
(3.071411154 0.3633372772 0)
(3.0541578 0.2613818398 0)
(3.016666651 0.09807983277 0)
(2.999285573 0.01778128586 0)
(2.990009592 0.001583177952 0)
(2.986628493 0.002736093968 0)
(2.986451904 0.00424601003 0)
(2.986461006 0.007068514259 0)
(2.987216335 0.007615383296 0)
(2.988216829 0.004976509988 0)
(2.989152119 0.000526338968 0)
(2.988756861 -0.0004265709748 0)
(2.987938953 -0.0003017758967 0)
(2.987512393 -0.002419891622 0)
(2.986677856 -0.003644741206 0)
(3.373235953 0.4309976265 0)
(3.334959638 0.4530783339 0)
(3.263217971 0.4389202097 0)
(3.180515984 0.4134015686 0)
(3.100285315 0.3933034874 0)
(3.034163409 0.3848478325 0)
(2.993347374 0.3820386038 0)
(2.96990929 0.3881700326 0)
(2.964361428 0.385942533 0)
(2.977842161 0.3860275301 0)
(2.996238908 0.3859001407 0)
(3.010023541 0.3873765325 0)
(3.020516456 0.3911434496 0)
(3.030956288 0.3957759439 0)
(3.042836009 0.3977921659 0)
(3.053589529 0.397988423 0)
(3.062706712 0.3969455276 0)
(3.069260475 0.3883668718 0)
(3.067640471 0.3385176967 0)
(3.045963959 0.2215525945 0)
(3.011592475 0.07507452943 0)
(2.993183211 0.01844618168 0)
(2.98471822 0.002183649655 0)
(2.984447167 0.002674529921 0)
(2.984290109 0.003396037119 0)
(2.984709528 0.006080901908 0)
(2.985433259 0.006895420388 0)
(2.986153245 0.004875403132 0)
(2.986847445 0.0009496182251 0)
(2.986477056 0.0003382623279 0)
(2.985852082 0.0008698328105 0)
(2.985617909 -0.0008823803943 0)
(2.98491667 -0.002556019974 0)
(3.370827472 0.4353480951 0)
(3.334344354 0.4541827151 0)
(3.264295661 0.436041883 0)
(3.183000285 0.4106178982 0)
(3.106163185 0.3921377235 0)
(3.039825567 0.3850009249 0)
(2.995623153 0.3847628423 0)
(2.970007683 0.3897499713 0)
(2.964012288 0.3851570144 0)
(2.977834599 0.3858191266 0)
(2.995778522 0.385868029 0)
(3.009711991 0.3875821576 0)
(3.020106138 0.3917290216 0)
(3.029947218 0.396084105 0)
(3.040941036 0.3972680997 0)
(3.051126208 0.3971819984 0)
(3.060647079 0.3953593184 0)
(3.067219559 0.3813237009 0)
(3.065366286 0.3285139162 0)
(3.038757913 0.1843065667 0)
(3.001866392 0.07660893354 0)
(2.986194177 0.01939206719 0)
(2.981962359 0.006100382683 0)
(2.982692819 0.004052477675 0)
(2.982965039 0.00466500566 0)
(2.982870538 0.006420993112 0)
(2.983731285 0.006007138605 0)
(2.984180028 0.003764807916 0)
(2.9843627 0.0004209794912 0)
(2.98401814 0.0002378931825 0)
(2.983332031 0.001280851632 0)
(2.983108185 -0.0003232593139 0)
(2.982223201 -0.001723616281 0)
(3.368679775 0.4397717602 0)
(3.33489037 0.4532255443 0)
(3.265731591 0.4342713884 0)
(3.186263545 0.4087871929 0)
(3.110690934 0.3906774945 0)
(3.045241016 0.3851434941 0)
(2.998471495 0.3859096377 0)
(2.970233645 0.391153923 0)
(2.964231752 0.3857034325 0)
(2.977737609 0.385418201 0)
(2.995209441 0.3857819011 0)
(3.009476294 0.3877740341 0)
(3.019692967 0.3925459324 0)
(3.029225082 0.3966046918 0)
(3.039410936 0.3971497518 0)
(3.049381033 0.3963241291 0)
(3.058792832 0.3933877197 0)
(3.065106331 0.3731247566 0)
(3.055056093 0.2956808158 0)
(3.032250872 0.1772565049 0)
(2.996062871 0.06452011654 0)
(2.982028737 0.01442410675 0)
(2.979987922 0.008017983288 0)
(2.980190423 0.00555947155 0)
(2.981306156 0.005583326187 0)
(2.981455376 0.007634462922 0)
(2.981867438 0.005646832755 0)
(2.982233948 0.002808743944 0)
(2.982388262 -0.0004367634606 0)
(2.981790568 -0.0004920869512 0)
(2.980372738 0.0006036137866 0)
(2.98012763 -0.0001434191263 0)
(2.979768901 -0.001045140153 0)
(3.366748908 0.4388188837 0)
(3.335264971 0.4509740572 0)
(3.268878874 0.4331510555 0)
(3.18949142 0.4088475738 0)
(3.114052107 0.3904934585 0)
(3.048762144 0.3855300383 0)
(3.000359798 0.3867974978 0)
(2.970921266 0.3915896076 0)
(2.964895127 0.3862741022 0)
(2.977696805 0.385201948 0)
(2.994607864 0.3857069966 0)
(3.009166378 0.3883091704 0)
(3.019376216 0.3935604123 0)
(3.028214562 0.3971419868 0)
(3.037155924 0.3971902353 0)
(3.047257712 0.3954859186 0)
(3.057038627 0.3899796003 0)
(3.062408415 0.3619608292 0)
(3.048584228 0.2679009376 0)
(3.015935548 0.1369248913 0)
(2.985616608 0.03672012115 0)
(2.977894003 0.01017636522 0)
(2.977756042 0.006695556419 0)
(2.978160637 0.006366827025 0)
(2.979008393 0.005985261779 0)
(2.97991994 0.008015810029 0)
(2.979983165 0.005871888919 0)
(2.980548002 0.001699374685 0)
(2.980090291 -0.00114445301 0)
(2.979503269 -0.00148347341 0)
(2.97824871 -0.000598581001 0)
(2.977943965 -0.001481568232 0)
(2.977476591 -0.002131749729 0)
(3.365490811 0.4367646781 0)
(3.335211543 0.4487497922 0)
(3.273032869 0.431538985 0)
(3.194951876 0.4087216308 0)
(3.116913345 0.3915603321 0)
(3.051217094 0.3869228151 0)
(3.00191589 0.3879583307 0)
(2.972056231 0.3910243268 0)
(2.96599256 0.3866384338 0)
(2.977646004 0.3851660054 0)
(2.994004691 0.3857412365 0)
(3.008866036 0.3888244737 0)
(3.018684564 0.3945335121 0)
(3.027067414 0.3973752115 0)
(3.035598124 0.3967825335 0)
(3.045651672 0.3949314399 0)
(3.055448092 0.3858586263 0)
(3.057481158 0.3429669045 0)
(3.041679 0.2340207243 0)
(3.002616926 0.08416353388 0)
(2.982720625 0.0116074745 0)
(2.975040914 0.0051325604 0)
(2.975301657 0.00532533833 0)
(2.976516644 0.005901977548 0)
(2.977256787 0.006144074847 0)
(2.977769753 0.008014400844 0)
(2.977649994 0.005755791015 0)
(2.977904495 0.001436060319 0)
(2.977217785 -0.001855580837 0)
(2.976599339 -0.002380060421 0)
(2.976168009 -0.002135010546 0)
(2.975881164 -0.003343555656 0)
(3.364433675 0.4350442857 0)
(3.336103299 0.4457740129 0)
(3.278056712 0.4293501231 0)
(3.202153488 0.4082690295 0)
(3.120522646 0.3931380686 0)
(3.052996274 0.3892240266 0)
(3.003488411 0.3894676806 0)
(2.973550269 0.3906962675 0)
(2.967246118 0.3865201032 0)
(2.977681338 0.3849662814 0)
(2.993289833 0.3857555308 0)
(3.008585717 0.3897956769 0)
(3.01816874 0.3945996384 0)
(3.025923197 0.3972776362 0)
(3.034606642 0.3959984211 0)
(3.044576335 0.3935587507 0)
(3.053609214 0.3805703007 0)
(3.052961824 0.3203981127 0)
(3.030841509 0.1880985914 0)
(2.997341706 0.04687169125 0)
(2.978046279 0.009139627889 0)
(2.973064255 0.002002466595 0)
(2.973694253 0.002580761682 0)
(2.974344939 0.003738121134 0)
(2.975487217 0.005503599171 0)
(2.975198785 0.007799774606 0)
(2.975025507 0.005742361872 0)
(2.975089493 0.001724722166 0)
(2.974414564 -0.001959852368 0)
(2.973759775 -0.00247102164 0)
(2.972803742 -0.002567193762 0)
(2.972565496 -0.003852871546 0)
(3.363556231 0.4348498435 0)
(3.337146116 0.4444063882 0)
(3.282734875 0.4255889284 0)
(3.209355341 0.406923682 0)
(3.124871396 0.3936410102 0)
(3.054884174 0.391221973 0)
(3.004624381 0.3910492737 0)
(2.975120258 0.3910289184 0)
(2.968179901 0.3860859011 0)
(2.977876135 0.3846896065 0)
(2.992581172 0.3857438498 0)
(3.007929972 0.3903759196 0)
(3.017486922 0.3946875235 0)
(3.025020704 0.396789241 0)
(3.033555311 0.3952022942 0)
(3.042752271 0.3903545953 0)
(3.050730845 0.3703443177 0)
(3.049792945 0.3027552718 0)
(3.021184161 0.1373788776 0)
(2.987240588 0.05055370431 0)
(2.972714074 0.01305832925 0)
(2.970406281 0.003365493118 0)
(2.971562638 0.002393925952 0)
(2.972139223 0.002771408754 0)
(2.97290999 0.004578583812 0)
(2.972811104 0.007376061626 0)
(2.972433301 0.005740137163 0)
(2.972473718 0.002373706394 0)
(2.971838139 -0.00118687473 0)
(2.971284506 -0.001871001073 0)
(2.970509526 -0.002209163205 0)
(2.970409816 -0.003545043406 0)
(3.364042255 0.4383711648 0)
(3.338936201 0.4441082054 0)
(3.285889895 0.4239801487 0)
(3.215011907 0.4054039274 0)
(3.129377578 0.3938267447 0)
(3.056891989 0.3932565841 0)
(3.005858545 0.3925242082 0)
(2.976796349 0.3914223071 0)
(2.968971879 0.3855625723 0)
(2.977955467 0.3847178583 0)
(2.991979382 0.3859083736 0)
(3.00694094 0.3911929766 0)
(3.016893017 0.3949444397 0)
(3.02435522 0.3962783051 0)
(3.03259674 0.3938319348 0)
(3.041777329 0.3874298546 0)
(3.048448214 0.3593556189 0)
(3.037302126 0.2545507939 0)
(3.010424308 0.1359040291 0)
(2.977346736 0.04472714754 0)
(2.969350486 0.01119092701 0)
(2.968648032 0.006386755869 0)
(2.969520501 0.003705219606 0)
(2.970279067 0.003490032959 0)
(2.970175116 0.004455427566 0)
(2.970180935 0.006593888947 0)
(2.969430977 0.006099913192 0)
(2.969518534 0.003215017949 0)
(2.96892088 0.000110313061 0)
(2.968443756 -0.0004127201098 0)
(2.968356454 -0.0010101368 0)
(2.968199902 -0.003014057918 0)
(3.364938316 0.441598335 0)
(3.339987951 0.4437100692 0)
(3.289067778 0.4235864913 0)
(3.2200005 0.4040395182 0)
(3.132533573 0.393643648 0)
(3.058222077 0.3951903895 0)
(3.007072982 0.3933750266 0)
(2.978719461 0.3917253834 0)
(2.970312191 0.3854263249 0)
(2.977821927 0.3846711978 0)
(2.991385618 0.3864924632 0)
(3.006213719 0.3921896196 0)
(3.015706492 0.3952617958 0)
(3.023032247 0.3960869647 0)
(3.031429412 0.3928681938 0)
(3.04044784 0.382867192 0)
(3.044312812 0.3410401788 0)
(3.030695729 0.2340848712 0)
(2.992550391 0.1100879583 0)
(2.970803819 0.02957758373 0)
(2.966539016 0.00911441048 0)
(2.966824776 0.007807863657 0)
(2.96716401 0.005566316002 0)
(2.967788613 0.00468220866 0)
(2.967673199 0.005557102618 0)
(2.967117316 0.006049410178 0)
(2.966227426 0.005610050652 0)
(2.966091622 0.002999954377 0)
(2.965638499 3.111584315e-05 0)
(2.965244121 -0.0005239177445 0)
(2.964930563 -0.0006647629607 0)
(2.964817628 -0.001898069883 0)
(3.365656753 0.4416679615 0)
(3.341127982 0.4433825305 0)
(3.29204322 0.4232065019 0)
(3.223479241 0.4041648697 0)
(3.134598976 0.3943753135 0)
(3.058996431 0.3964684488 0)
(3.008032217 0.3934959693 0)
(2.980787332 0.3917715312 0)
(2.971859856 0.385248234 0)
(2.977687809 0.3845011926 0)
(2.990760759 0.3870327488 0)
(3.004862745 0.3930172369 0)
(3.01436013 0.3956089182 0)
(3.021804585 0.3958692794 0)
(3.030235955 0.3914752218 0)
(3.039004413 0.3779719702 0)
(3.039140318 0.3185082425 0)
(3.019485843 0.2044420375 0)
(2.976629479 0.06504814536 0)
(2.966310422 0.01282179858 0)
(2.963128103 0.005397293462 0)
(2.964143575 0.006045359077 0)
(2.964458498 0.005893696713 0)
(2.964896695 0.005586273119 0)
(2.964755882 0.006313914621 0)
(2.963919619 0.005946121571 0)
(2.96316575 0.004298800708 0)
(2.96276012 0.001918170728 0)
(2.962305927 5.730090632e-05 0)
(2.962061017 -0.0002023576402 0)
(2.961716046 -5.582658723e-05 0)
(2.961545835 -0.00104764098 0)
(3.36754931 0.441404072 0)
(3.343601005 0.4428623602 0)
(3.295545159 0.4227525121 0)
(3.225974539 0.4051563027 0)
(3.136396972 0.39621969 0)
(3.059190215 0.3980783437 0)
(3.00862328 0.3934202787 0)
(2.982116932 0.3913448859 0)
(2.973123138 0.384960779 0)
(2.977566008 0.3843746716 0)
(2.99020075 0.3874138666 0)
(3.003404534 0.3932181114 0)
(3.012490565 0.3959927534 0)
(3.02075616 0.3950749234 0)
(3.029256156 0.3887081945 0)
(3.03668127 0.3685055951 0)
(3.033912431 0.298641549 0)
(3.001861726 0.1496936623 0)
(2.972061325 0.03041097702 0)
(2.96320178 0.00485629065 0)
(2.960848418 0.0024545547 0)
(2.960947626 0.003863901267 0)
(2.961437708 0.004979625526 0)
(2.961723618 0.004919748924 0)
(2.961063881 0.006600382188 0)
(2.960316002 0.005718684528 0)
(2.960072166 0.003104617968 0)
(2.959623002 0.0005166560379 0)
(2.959149581 -0.0008578948574 0)
(2.959010332 -0.001053411399 0)
(2.95894766 -0.001230412244 0)
(2.959063825 -0.0017408522 0)
(3.370609037 0.4402208875 0)
(3.347512146 0.4411877649 0)
(3.299889808 0.4217849872 0)
(3.227910657 0.4067815867 0)
(3.136761982 0.399197407 0)
(3.058293141 0.4004097243 0)
(3.008822291 0.393668034 0)
(2.982972207 0.3911478566 0)
(2.97407755 0.3850402673 0)
(2.977457723 0.3844269458 0)
(2.989967673 0.3879002053 0)
(3.002594185 0.3931348406 0)
(3.011224047 0.3958559498 0)
(3.01997024 0.394336185 0)
(3.028270567 0.3839368249 0)
(3.033962083 0.3552461948 0)
(3.02567982 0.2645792257 0)
(2.992323685 0.09713033299 0)
(2.965445293 0.03009634621 0)
(2.957820121 0.007742487833 0)
(2.95788744 0.002489097877 0)
(2.95796174 0.002570610179 0)
(2.958245435 0.002852365519 0)
(2.958286804 0.004082510162 0)
(2.957494012 0.006259990988 0)
(2.956836086 0.005941661897 0)
(2.956604704 0.002502236032 0)
(2.956192116 -0.0005709330887 0)
(2.955682469 -0.001735878902 0)
(2.955669033 -0.001964884345 0)
(2.955902474 -0.00225959978 0)
(3.373353762 0.4384967092 0)
(3.351835492 0.4385281764 0)
(3.304557557 0.4206926155 0)
(3.230058011 0.4070224106 0)
(3.135173664 0.4008876059 0)
(3.055899231 0.4025571017 0)
(3.008601482 0.3937564892 0)
(2.98402742 0.3909560679 0)
(2.974772094 0.3851419675 0)
(2.977516878 0.3848847848 0)
(2.98984012 0.3889112362 0)
(3.002245728 0.3933595766 0)
(3.010321187 0.395028996 0)
(3.018596964 0.3927260139 0)
(3.027167082 0.3798540893 0)
(3.031205737 0.3399041141 0)
(3.01283592 0.209628456 0)
(2.980662635 0.09044901251 0)
(2.957530262 0.02649184626 0)
(2.953744259 0.008310605839 0)
(2.954376536 0.004215144274 0)
(2.954703511 0.003166006185 0)
(2.954826762 0.002540936078 0)
(2.95463395 0.002674955462 0)
(2.95374248 0.00586723756 0)
(2.953133894 0.005689675484 0)
(2.953140468 0.003221451383 0)
(2.952868989 -0.0001108095963 0)
(2.95255866 -0.002714173003 0)
(2.952460251 -0.002994833027 0)
(2.952477284 -0.002978472298 0)
(3.374980448 0.4379148994 0)
(3.355040939 0.4374704106 0)
(3.308574861 0.4187850017 0)
(3.229269241 0.4069608374 0)
(3.130940161 0.4015005226 0)
(3.052129238 0.4038313901 0)
(3.007732332 0.3938533291 0)
(2.984496662 0.3905956265 0)
(2.975227773 0.3848873775 0)
(2.977690107 0.3854744692 0)
(2.989976554 0.3899755189 0)
(3.00176438 0.3932957491 0)
(3.009309231 0.3939498232 0)
(3.016974465 0.3899864196 0)
(3.025512149 0.3744670292 0)
(3.024806145 0.3139435192 0)
(3.005382063 0.1925978199 0)
(2.967072688 0.07808890797 0)
(2.951831643 0.0170652886 0)
(2.950847766 0.007357748222 0)
(2.951161059 0.005908982393 0)
(2.951127605 0.00464346622 0)
(2.95137793 0.003656932716 0)
(2.951030912 0.003077685977 0)
(2.949860555 0.005442759598 0)
(2.948972822 0.006322376618 0)
(2.949528204 0.004170438703 0)
(2.949427581 0.0004659566438 0)
(2.949375866 -0.00183236493 0)
(2.949432747 -0.002293917475 0)
(2.949512412 -0.002593793122 0)
(3.375233812 0.4375409372 0)
(3.356665824 0.4373908754 0)
(3.310966984 0.4177766984 0)
(3.226893011 0.4086246826 0)
(3.12680903 0.4048345803 0)
(3.047670252 0.4036686983 0)
(3.006212259 0.3938838569 0)
(2.984964447 0.3902501336 0)
(2.975522541 0.3846322003 0)
(2.977882141 0.3864514333 0)
(2.990197333 0.3910211969 0)
(3.001304087 0.3933018273 0)
(3.00808313 0.3928527823 0)
(3.016115496 0.3871303328 0)
(3.022860091 0.3632790331 0)
(3.018802637 0.2860883285 0)
(2.995065485 0.1709004481 0)
(2.955707898 0.05190039109 0)
(2.948140785 0.01076197895 0)
(2.946911919 0.006014028965 0)
(2.947002896 0.005810249807 0)
(2.947332571 0.00585606045 0)
(2.947395877 0.004811435292 0)
(2.947300731 0.004066488034 0)
(2.94612855 0.005907577892 0)
(2.944849857 0.005706094697 0)
(2.945266418 0.005126790381 0)
(2.945501467 0.0021236518 0)
(2.945723445 -6.866973727e-05 0)
(2.946207668 -0.0008896582206 0)
(2.946669511 -0.001832770735 0)
(3.373668939 0.4370471327 0)
(3.357046319 0.4372639062 0)
(3.312133162 0.4176940155 0)
(3.224497848 0.4103669452 0)
(3.122077306 0.4071413906 0)
(3.04364313 0.403383512 0)
(3.005031086 0.3934008031 0)
(2.985104529 0.3900399636 0)
(2.975963522 0.3844109912 0)
(2.97855592 0.3868936052 0)
(2.990550216 0.3914119103 0)
(3.000803233 0.3935961803 0)
(3.007269519 0.3920276617 0)
(3.015219943 0.3823602245 0)
(3.020184087 0.3469228351 0)
(3.013300419 0.2644673422 0)
(2.9735387 0.1112221024 0)
(2.95171198 0.02344744874 0)
(2.94403116 0.004187488916 0)
(2.943011197 0.003529340356 0)
(2.942984935 0.004044264336 0)
(2.943312545 0.005012181769 0)
(2.943191804 0.005083263086 0)
(2.942881462 0.005037205314 0)
(2.942091458 0.006363033669 0)
(2.941158959 0.005639310698 0)
(2.941262694 0.003784127088 0)
(2.94171885 0.001199903076 0)
(2.941889477 -0.0005238261856 0)
(2.942177887 -0.0008819883825 0)
(2.942445732 -0.001158083305 0)
(3.370588174 0.4367260587 0)
(3.355536447 0.4370753029 0)
(3.311966978 0.4181453151 0)
(3.222463244 0.4122569471 0)
(3.118460516 0.4092277414 0)
(3.041649504 0.4044151953 0)
(3.004887043 0.3924461355 0)
(2.985345485 0.38993042 0)
(2.976394814 0.3841589743 0)
(2.979419476 0.3868665123 0)
(2.990721516 0.3913152915 0)
(3.000209324 0.3939714571 0)
(3.00696905 0.3914643454 0)
(3.014347729 0.3771201923 0)
(3.017240608 0.3308315747 0)
(3.001159246 0.218557174 0)
(2.965248361 0.06377184318 0)
(2.946051604 0.01289859697 0)
(2.939013528 0.003952014168 0)
(2.939647521 0.003068430908 0)
(2.939510881 0.002811184234 0)
(2.939222158 0.003744946396 0)
(2.939201713 0.004173241534 0)
(2.938626486 0.004808264559 0)
(2.937613238 0.006396033442 0)
(2.937556691 0.005043672621 0)
(2.9379064 0.002965520888 0)
(2.938252911 0.001239087443 0)
(2.938282485 -0.0001672220516 0)
(2.938473473 -0.0002747831854 0)
(2.938450545 -0.000694983476 0)
(3.365287924 0.4368210014 0)
(3.35131669 0.4367705332 0)
(3.30972865 0.4181239791 0)
(3.220588988 0.4129948166 0)
(3.118418833 0.4110428403 0)
(3.041193762 0.4051387269 0)
(3.005170659 0.3918438665 0)
(2.985890981 0.3898881887 0)
(2.976908577 0.3843172406 0)
(2.980207449 0.3871942986 0)
(2.990624853 0.3911877518 0)
(2.999594036 0.3934543371 0)
(3.006600063 0.3900224624 0)
(3.013287301 0.3718698201 0)
(3.013440264 0.3109127925 0)
(2.988225545 0.159308764 0)
(2.956553911 0.05598958192 0)
(2.938908279 0.01583954707 0)
(2.934858889 0.005888832153 0)
(2.93552084 0.003847313388 0)
(2.935893099 0.003013346103 0)
(2.935720516 0.002743678892 0)
(2.935248076 0.002716630104 0)
(2.934623288 0.004061045685 0)
(2.93348533 0.006137188607 0)
(2.933409164 0.00453798731 0)
(2.934500881 0.00200588116 0)
(2.934594899 0.0005751592861 0)
(2.934578893 -0.0007444112009 0)
(2.934668732 -0.001062873681 0)
(2.934472102 -0.0009926409075 0)
(3.358876067 0.4370991363 0)
(3.344522918 0.4355860351 0)
(3.305572687 0.4177425147 0)
(3.219757024 0.4152075363 0)
(3.119761509 0.4118763801 0)
(3.042324796 0.4053580815 0)
(3.006011855 0.3914997127 0)
(2.986611606 0.389843126 0)
(2.977418667 0.3847245799 0)
(2.980834889 0.3879114575 0)
(2.990464662 0.3908945859 0)
(2.99855699 0.3922761398 0)
(3.006242206 0.3876249943 0)
(3.011832737 0.3622259521 0)
(3.003405926 0.2694997898 0)
(2.981246605 0.1419606882 0)
(2.946484823 0.04905824305 0)
(2.933819457 0.01095413051 0)
(2.931863893 0.006452682394 0)
(2.932135102 0.005519455745 0)
(2.93236544 0.003873577188 0)
(2.931986561 0.003231311801 0)
(2.931460037 0.002258828521 0)
(2.930787331 0.002851016281 0)
(2.929857888 0.00527406892 0)
(2.92947978 0.00420799399 0)
(2.930301611 0.001879517775 0)
(2.930612783 -4.181133013e-05 0)
(2.930658277 -0.00146259761 0)
(2.930576441 -0.001792020565 0)
(2.930423634 -0.001727741011 0)
(3.352392503 0.4363902969 0)
(3.335984796 0.4337628195 0)
(3.299990501 0.4181376294 0)
(3.220475494 0.4175997259 0)
(3.121701028 0.4121081419 0)
(3.045193289 0.405097106 0)
(3.007766918 0.3912520723 0)
(2.98757101 0.3898651757 0)
(2.977657664 0.3853658414 0)
(2.981243539 0.3885761698 0)
(2.990139317 0.390594178 0)
(2.997652501 0.3907320295 0)
(3.005721089 0.3833038496 0)
(3.008465004 0.3421660165 0)
(2.998344194 0.24406715 0)
(2.970623193 0.1313697968 0)
(2.937652836 0.03139884314 0)
(2.92947158 0.007305031464 0)
(2.928974163 0.00670781329 0)
(2.928829741 0.006143362492 0)
(2.928636622 0.004845383038 0)
(2.928131946 0.004271783378 0)
(2.927724013 0.003113163329 0)
(2.926862449 0.002386304256 0)
(2.925937003 0.004714964153 0)
(2.92602724 0.003964946391 0)
(2.926590769 0.00237434863 0)
(2.926755695 -0.0002486744469 0)
(2.926695987 -0.001933683302 0)
(2.926669121 -0.002478336258 0)
(3.34603358 0.4358374993 0)
(3.327402934 0.4328118493 0)
(3.294321155 0.4192064518 0)
(3.22262476 0.4188445635 0)
(3.124447926 0.4121555469 0)
(3.048024638 0.4046800001 0)
(3.009881246 0.3908790837 0)
(2.988447008 0.3901176116 0)
(2.977470285 0.3861148053 0)
(2.981392579 0.3891740168 0)
(2.989519353 0.3904118447 0)
(2.996452088 0.3895404045 0)
(3.004369567 0.3746997708 0)
(3.006354802 0.3233681179 0)
(2.99209363 0.2281629756 0)
(2.944510343 0.08571469827 0)
(2.930704755 0.01706981209 0)
(2.925218209 0.003237591221 0)
(2.925032378 0.004253520024 0)
(2.925108474 0.004849432841 0)
(2.924878815 0.004731038768 0)
(2.924374099 0.004793267624 0)
(2.923713528 0.003775449431 0)
(2.922930465 0.00334059965 0)
(2.92208907 0.0041620869 0)
(2.922515911 0.003498198769 0)
(2.923294821 0.002457577149 0)
(2.923552866 0.0003488792499 0)
(2.923270736 -0.001115724077 0)
(2.923192005 -0.001741060706 0)
(3.339250912 0.4367999484 0)
(3.320642255 0.4336004461 0)
(3.290157082 0.4205424566 0)
(3.222728308 0.4204054177 0)
(3.127237259 0.412836861 0)
(3.051461619 0.4042666059 0)
(3.012529744 0.390403883 0)
(2.98916657 0.3901577115 0)
(2.977269711 0.3863024999 0)
(2.980995711 0.3892304255 0)
(2.988352607 0.3906465447 0)
(2.995559753 0.3869468434 0)
(3.003326084 0.3668184796 0)
(3.00272281 0.3091427104 0)
(2.971389497 0.1676500302 0)
(2.939931133 0.04904957462 0)
(2.924500458 0.005422695369 0)
(2.921775856 0.0006878675371 0)
(2.921904517 0.002228867029 0)
(2.921689372 0.002851777001 0)
(2.921074304 0.00358120368 0)
(2.920682857 0.004244049653 0)
(2.919950796 0.003978764328 0)
(2.91912674 0.004280094395 0)
(2.918613578 0.004059745711 0)
(2.918812909 0.003112047934 0)
(2.919592307 0.002323697805 0)
(2.920177607 0.0003027474673 0)
(2.919834203 -0.0008601800065 0)
(2.919737676 -0.001171879881 0)
(3.333366448 0.4376463252 0)
(3.314732566 0.4341189977 0)
(3.285198686 0.421941602 0)
(3.222415705 0.4217591879 0)
(3.129642707 0.4133943565 0)
(3.055539538 0.4038521149 0)
(3.015322102 0.3898243634 0)
(2.989847721 0.3900383563 0)
(2.97741469 0.3860170674 0)
(2.980670047 0.3887324518 0)
(2.98692513 0.3897241474 0)
(2.994989526 0.3851926531 0)
(3.001457716 0.3597167854 0)
(2.992130313 0.2690651808 0)
(2.960775748 0.1100081287 0)
(2.934036483 0.02541027319 0)
(2.918416425 0.006945850307 0)
(2.917635437 0.001443557738 0)
(2.918556637 0.002314818545 0)
(2.918263989 0.002532403552 0)
(2.9178314 0.002549987241 0)
(2.917145447 0.00313959385 0)
(2.916449801 0.003142090322 0)
(2.915575369 0.004553841081 0)
(2.915478266 0.004335120218 0)
(2.915628998 0.002487040627 0)
(2.916027454 0.001081274877 0)
(2.916391183 0.0001990619082 0)
(2.916321446 -0.0005089944921 0)
(2.916236302 -0.0006553931328 0)
(3.329303917 0.4372476503 0)
(3.311028034 0.4335626558 0)
(3.281384694 0.4235175795 0)
(3.220816239 0.4229779397 0)
(3.132294873 0.4145614642 0)
(3.05991372 0.4034640435 0)
(3.018013779 0.3894352259 0)
(2.990873955 0.390396263 0)
(2.978042764 0.3863504001 0)
(2.980015404 0.3878900747 0)
(2.985640423 0.3883116338 0)
(2.994183008 0.3828694979 0)
(2.997528775 0.342311892 0)
(2.981607833 0.2155934383 0)
(2.951820935 0.08749411502 0)
(2.922761681 0.02791862957 0)
(2.913675454 0.007760329888 0)
(2.914308238 0.004692605207 0)
(2.91470884 0.003611281665 0)
(2.914768014 0.00329236919 0)
(2.914264172 0.002676889565 0)
(2.913886083 0.00233826919 0)
(2.913504599 0.002077368683 0)
(2.912458836 0.00414598363 0)
(2.912400301 0.00465073593 0)
(2.912736884 0.002726542388 0)
(2.9132426 0.000730143194 0)
(2.913237013 -0.0001639886691 0)
(2.913182458 -0.0008854602756 0)
(2.913086882 -0.0009478647311 0)
(3.325221062 0.4360108094 0)
(3.307593072 0.4312970111 0)
(3.278668727 0.4244651028 0)
(3.219722015 0.423944495 0)
(3.13516967 0.415227904 0)
(3.064290032 0.4031180064 0)
(3.020607113 0.389302569 0)
(2.992191045 0.3910239669 0)
(2.978597974 0.3866094912 0)
(2.979653612 0.3872701323 0)
(2.984477725 0.3866868231 0)
(2.99180144 0.374647439 0)
(2.991734212 0.311212385 0)
(2.975523066 0.193253439 0)
(2.939229458 0.0840127122 0)
(2.913471316 0.01792074565 0)
(2.910476479 0.005458006868 0)
(2.910834309 0.006161365941 0)
(2.910953982 0.004987851004 0)
(2.910975105 0.00418441114 0)
(2.910493007 0.003572063873 0)
(2.910146832 0.002647663854 0)
(2.910242724 0.00144674134 0)
(2.909729665 0.003438496463 0)