/*--------------------------------*- C++ -*----------------------------------*\
  =========                 |
  \\      /  F ield         | OpenFOAM: The Open Source CFD Toolbox
   \\    /   O peration     | Website:  https://openfoam.org
    \\  /    A nd           | Version:  7
     \\/     M anipulation  |
\*---------------------------------------------------------------------------*/
FoamFile
{
    version     2.0;
    format      ascii;
    class       volScalarField;
    location    "5";
    object      rho;
}
// * * * * * * * * * * * * * * * * * * * * * * * * * * * * * * * * * * * * * //

dimensions      [1 -3 0 0 0 0 0];

internalField   nonuniform List<scalar> 
555
(
1.412063305
1.411293132
1.410508178
1.410320359
1.411735791
1.414083881
1.415352619
1.415863698
1.4153502
1.412556236
1.410408403
1.394213645
1.404008795
1.402465143
1.403292562
1.40684554
1.409912687
1.410606477
1.409711166
1.408867184
1.408818829
1.409819449
1.411115387
1.411827428
1.411726949
1.410030005
1.408340952
1.408176499
1.390336135
1.401105807
1.399800004
1.40077567
1.404710255
1.4072099
1.407463612
1.406943931
1.406419912
1.406362418
1.40630765
1.405978627
1.406467368
1.406598052
1.406073969
1.406021846
1.406129602
1.386715386
1.398386176
1.397208632
1.398017332
1.401497659
1.40261732
1.402514703
1.402270503
1.402244289
1.402195968
1.401445072
1.401351119
1.402364197
1.403319273
1.403404933
1.403570953
1.404127603
1.395714331
1.394781905
1.394514674
1.396991787
1.396685911
1.396320503
1.396471121
1.39694522
1.396875566
1.39714904
1.397814122
1.398721088
1.399698781
1.400843066
1.401407921
1.402551117
1.393329373
1.392142892
1.390663281
1.392362586
1.392102524
1.392288503
1.392634446
1.393071706
1.393153664
1.393676454
1.39468736
1.395678766
1.396963103
1.398221291
1.399943825
1.401776322
1.390710097
1.389506435
1.387800587
1.38931655
1.38965165
1.389958524
1.390359187
1.390735404
1.390701251
1.391361029
1.392708045
1.39395991
1.395375803
1.397377931
1.399199661
1.399825806
1.388594962
1.387192483
1.385768435
1.3873122
1.388421105
1.389532565
1.389942724
1.390004315
1.38975915
1.390159529
1.391361409
1.392494554
1.394012457
1.395331352
1.397425855
1.397221826
1.396189732
1.386673336
1.385174154
1.384466835
1.386443086
1.388483912
1.389348922
1.389374788
1.389126473
1.389056694
1.389455247
1.390562363
1.391801595
1.392951029
1.393924532
1.39492149
1.393623667
1.390375706
1.383986103
1.383080167
1.383369606
1.385591367
1.387811117
1.388404012
1.38826382
1.388049378
1.387967191
1.388326726
1.38953401
1.390762725
1.391829449
1.392393847
1.392129014
1.388866536
1.387273046
1.381591703
1.381197168
1.382023073
1.384547741
1.386387776
1.38641572
1.385790889
1.385531545
1.38583598
1.386660412
1.38819821
1.389161686
1.389770372
1.389441992
1.387650817
1.385440522
1.385903694
1.380486634
1.380796978
1.3803314
1.382432581
1.383296066
1.382575737
1.381865047
1.382118114
1.382809
1.383279848
1.383934511
1.384162177
1.384649302
1.38441558
1.383406583
1.383993585
1.385018349
1.38056019
1.379253053
1.380494851
1.381051528
1.380185595
1.3796514
1.380205816
1.38100336
1.380605445
1.380305613
1.380273908
1.380795427
1.381363191
1.381771762
1.382899861
1.385055589
1.380379442
1.378610128
1.379243991
1.380256772
1.379346107
1.378835212
1.379340864
1.379804109
1.37918053
1.37893841
1.379204496
1.379515163
1.380051429
1.380687088
1.381901507
1.384643417
1.379324301
1.377863889
1.378178791
1.379414974
1.378520082
1.378267609
1.378782576
1.378582838
1.377949944
1.377959673
1.378672412
1.379220286
1.379759743
1.380093829
1.381462437
1.383106842
1.378005548
1.376737285
1.377099855
1.378768177
1.377961522
1.377679667
1.377702049
1.377247146
1.377081401
1.377061507
1.377897967
1.378995263
1.380311558
1.381011451
1.38177162
1.381929323
1.3755754
1.375216138
1.375507559
1.377510408
1.376580222
1.375916209
1.376260592
1.376270862
1.376656425
1.377771555
1.379452902
1.381049541
1.382914387
1.38364238
1.382947807
1.381425858
1.374156175
1.373104866
1.373147774
1.375558801
1.37514824
1.374437641
1.374742429
1.37541633
1.376554583
1.379173895
1.381656558
1.383594888
1.385523677
1.38598499
1.384404264
1.38117889
1.372972047
1.372348765
1.372003555
1.374583379
1.373941522
1.373224099
1.374015006
1.375508805
1.376813641
1.379083776
1.3809226
1.382373711
1.383805008
1.384117799
1.382823977
1.381064567
1.373247585
1.372347038
1.37174527
1.374644007
1.373931112
1.373038043
1.373849419
1.375152458
1.375799995
1.376888904
1.377831083
1.378668234
1.379843812
1.380632958
1.380238119
1.379528106
1.374907636
1.369635262
1.37229886
1.375369035
1.374409435
1.373275883
1.373713146
1.374396994
1.374930954
1.375333979
1.375709827
1.37607911
1.37686225
1.377799783
1.378379222
1.378639788
1.351255691
1.359114346
1.375175392
1.376336164
1.373763298
1.37196012
1.373907228
1.376496567
1.377563444
1.377822127
1.378088811
1.378105202
1.378149002
1.378282113
1.378636062
1.378888783
1.274250726
1.332097721
1.372574108
1.375423636
1.374427878
1.376246654
1.378899022
1.379222337
1.378722154
1.377643202
1.377121044
1.378108708
1.37850211
1.378508227
1.378885819
1.379444572
1.109149721
1.228785197
1.342316794
1.355978215
1.370542643
1.380598256
1.380234167
1.379725613
1.379225407
1.377473443
1.377125325
1.378852983
1.379459235
1.379457096
1.379471094
1.379968656
0.9483169359
1.033645392
1.161904233
1.263474663
1.360160646
1.377044581
1.370664452
1.375644901
1.375129156
1.373894589
1.375025112
1.378865642
1.380697286
1.380573382
1.380218194
1.380448615
0.9183057312
0.9295209997
0.9755327575
1.091421521
1.232572551
1.302120091
1.337708889
1.376141388
1.374484031
1.376067037
1.380874165
1.383405402
1.382280034
1.380623912
1.379322104
1.379533416
0.92235683
0.9275047456
0.9303431217
0.9531223127
1.019657659
1.150003256
1.27328872
1.353052174
1.363203841
1.379654012
1.386995193
1.384826542
1.380873369
1.380304258
1.37994373
1.380433902
0.9572690675
0.947132312
0.9361137777
0.9318248428
0.9367770753
0.9813113837
1.072225131
1.192137534
1.277823064
1.36092861
1.377300721
1.368917549
1.374947616
1.379594079
1.382229255
1.38466663
0.9918521258
0.9690164227
0.9584649433
0.9405868413
0.9381068895
0.9428465253
0.9628243601
1.019274585
1.136292661
1.254241819
1.311088204
1.34025902
1.379542011
1.383646888
1.384525323
1.386473914
1.052211026
1.015889061
1.00734722
0.9888122186
0.9603106884
0.9509878875
0.9508685736
0.9545362974
0.9856632228
1.058265222
1.180280918
1.294063058
1.364149204
1.369928035
1.378018478
1.382937299
1.123706768
1.077256089
1.040012864
1.022476222
0.9942002928
0.9634110139
0.9617303614
0.9600538277
0.9590743579
0.9673170383
1.017491057
1.114341412
1.234279133
1.292454331
1.348997857
1.36527745
1.172545368
1.136085002
1.086884699
1.069291921
1.054223635
1.018569148
0.9943040625
0.9857250131
0.9718053597
0.9606356787
0.9637990606
0.9885843991
1.052905168
1.173479892
1.298125859
1.341322947
1.230036715
1.200141779
1.158865038
1.120645187
1.099245002
1.067951686
1.024589781
1.010595254
0.9997828694
0.9751525716
0.9663914878
0.9708765543
0.981152205
1.023607503
1.107612928
1.225497343
1.297734091
1.255574143
1.213977456
1.165990571
1.137255441
1.119065002
1.084426714
1.053696387
1.044315443
1.023055942
0.9937828982
0.9844858176
0.9784812753
0.9794039781
0.9950409334
1.063919399
1.365760336
1.315160009
1.274084476
1.227040407
1.187642953
1.168283398
1.139582735
1.096056478
)
;

boundaryField
{
    inlet
    {
        type            calculated;
        value           nonuniform 0();
    }
    outlet
    {
        type            calculated;
        value           nonuniform 0();
    }
    bottom
    {
        type            calculated;
        value           nonuniform 0();
    }
    top
    {
        type            calculated;
        value           nonuniform 0();
    }
    obstacle
    {
        type            calculated;
        value           nonuniform 0();
    }
    defaultFaces
    {
        type            empty;
    }
    procBoundary28to21
    {
        type            processor;
        value           nonuniform List<scalar> 8(1.397532614 1.394337541 1.391207757 1.383447256 1.383447256 1.380823201 1.377051308 1.373897179);
    }
    procBoundary28to22
    {
        type            processor;
        value           nonuniform List<scalar> 
18
(
1.412933349
1.412080148
1.411396203
1.411207416
1.412664436
1.41564858
1.417364322
1.418469266
1.418746733
1.417848176
1.415318901
1.39886781
1.407283016
1.405070536
1.405536714
1.408916723
1.411411827
1.411411827
)
;
    }
    procBoundary28to23
    {
        type            processor;
        value           uniform 1.410863286;
    }
    procBoundary28to27
    {
        type            processor;
        value           nonuniform List<scalar> 
28
(
1.370838449
1.367256666
1.364278352
1.361523649
1.379689915
1.379689915
1.379664778
1.379309472
1.377749383
1.3752039
1.371817166
1.369624198
1.369251968
1.371675977
1.340113442
1.182930518
0.9760605707
0.9151149249
0.917363687
0.9231844779
0.9796783179
1.03789549
1.085615761
1.14837615
1.207343368
1.278783299
1.355850994
1.422794851
)
;
    }
    procBoundary28to29
    {
        type            processor;
        value           nonuniform List<scalar> 
34
(
1.408682806
1.40686311
1.405441811
1.404799488
1.402983332
1.400352629
1.400352629
1.393368474
1.389325363
1.387474214
1.386701124
1.387141254
1.387485527
1.385744079
1.383004353
1.381311582
1.379524839
1.37873494
1.379845014
1.379606068
1.378819146
1.379042189
1.380161302
1.380763045
1.381073037
1.380439469
1.381618133
1.386504011
1.388599604
1.384283793
1.370111342
1.359593383
1.316290413
1.160239205
)
;
    }
    procBoundary28to34
    {
        type            processor;
        value           nonuniform List<scalar> 
17
(
1.071995915
1.058263459
1.031718305
1.004556568
0.994906777
0.9838112529
0.9838222361
0.9909259938
1.431211566
1.376932728
1.334866786
1.290918613
1.240276031
1.20673687
1.183709656
1.071995915
1.148088308
)
;
    }
}


// ************************************************************************* //
