/*--------------------------------*- C++ -*----------------------------------*\
  =========                 |
  \\      /  F ield         | OpenFOAM: The Open Source CFD Toolbox
   \\    /   O peration     | Website:  https://openfoam.org
    \\  /    A nd           | Version:  7
     \\/     M anipulation  |
\*---------------------------------------------------------------------------*/
FoamFile
{
    version     2.0;
    format      ascii;
    class       volScalarField;
    location    "0.9";
    object      p;
}
// * * * * * * * * * * * * * * * * * * * * * * * * * * * * * * * * * * * * * //

dimensions      [1 -1 -2 0 0 0 0];

internalField   nonuniform List<scalar> 
555
(
1
1
1
1
1
1
1
1
1
1
1
1
1.000000002
1.000000068
1.00000223
1.000036727
1
1
1
1
1
1
1
1
1
1
1
1.000000002
1.000000087
1.000002025
1.00004458
1.000481087
1
1
1
1
1
1
1
1
1
1
1.000000002
1.000000073
1.000002545
1.000037804
1.000564422
1.003935624
1
1
1
1
1
1
1
1
1
1.000000002
1.000000096
1.000002101
1.000047949
1.000481354
1.00454254
1.021962714
1
1
1
1
1
1
1
1
1.000000002
1.00000008
1.000002749
1.000039351
1.000587807
1.004015644
1.023823961
1.081562578
1
1
1
1
1
1
1
1.000000002
1.000000099
1.000002142
1.000049228
1.000482765
1.004663244
1.021966098
1.083328546
1.191803399
1
1
1
1
1
1
1.000000003
1.000000083
1.000002707
1.000038456
1.000575095
1.003948407
1.02399583
1.081769949
1.185214824
1.31115694
1
1
1
1
1
1.000000002
1.000000103
1.000002121
1.000048022
1.000465305
1.004540131
1.021407029
1.083220601
1.194079213
1.310182167
1.358572904
1
1
1
1
1.000000003
1.000000077
1.000002542
1.000037306
1.000551831
1.003915482
1.023353433
1.081032857
1.185753989
1.312400236
1.388904434
1.397181
1
1
1
1.000000002
1.000000094
1.000001948
1.000043144
1.000447925
1.004377412
1.021771522
1.081999985
1.193112154
1.315768297
1.365586773
1.401152116
1.406007645
1
1
1.000000002
1.000000072
1.000002254
1.000035902
1.000497467
1.003890152
1.022620366
1.084056639
1.186544188
1.307871312
1.396842157
1.405736027
1.411395311
1.40838494
1
1.000000002
1.000000082
1.000001876
1.000038905
1.000459515
1.004077828
1.022572975
1.080134695
1.201398104
1.313577218
1.3717587
1.405267529
1.41327707
1.41200114
1.400092987
1.000000002
1.000000067
1.000002021
1.000035951
1.000469685
1.004076543
1.022429427
1.085416566
1.193160116
1.308640881
1.392605013
1.411195222
1.413727154
1.414023048
1.403436665
1.377857735
1.000000072
1.000001896
1.000035728
1.000486902
1.003874676
1.02407145
1.080383969
1.201897677
1.331011978
1.374227958
1.401744336
1.416485488
1.415504271
1.405405531
1.380822121
1.346457498
1.000001862
1.000037963
1.000448237
1.004351602
1.021632482
1.088723776
1.196112094
1.306377101
1.396882538
1.413366344
1.41372079
1.413653063
1.404960159
1.382230597
1.348085504
1.309929022
1.000034174
1.000517564
1.00377365
1.025058218
1.079547316
1.200852369
1.33319563
1.388952242
1.405591249
1.416925807
1.415666692
1.406541229
1.383932607
1.349839285
1.311983477
1.271499701
1.00043534
1.004508017
1.021449024
1.088321952
1.200659031
1.303173538
1.395119011
1.418352375
1.417272272
1.415053428
1.406534213
1.385085122
1.352518044
1.312794083
1.273879937
1.234653668
1.003680178
1.025243382
1.080223734
1.197185277
1.337476007
1.399754826
1.413787321
1.419149784
1.417518222
1.40804995
1.386228253
1.35285562
1.314784638
1.275094232
1.234593836
1.198053928
1.02121926
1.087527202
1.204820491
1.304822086
1.392988668
1.425113473
1.423802349
1.42043401
1.409637738
1.387443404
1.353714476
1.315534019
1.275404001
1.234584186
1.195832338
1.160662722
1.081314739
1.195901759
1.338627202
1.411542653
1.423419786
1.424938419
1.423368338
1.412657815
1.38980703
1.355896006
1.315931799
1.275714503
1.234411655
1.193922161
1.158763605
1.124550128
1.209448543
1.311588535
1.385794287
1.429788998
1.430167791
1.426999465
1.415499716
1.391509135
1.357539763
1.316831549
1.273906318
1.235662122
1.192732587
1.155418952
1.122545375
1.083352117
1.34199529
1.411341865
1.429255243
1.430973601
1.429576208
1.419225254
1.394752593
1.359833216
1.318033688
1.2748919
1.233234494
1.193820371
1.151487135
1.116222788
1.083183531
1.041985094
1.384951229
1.430279858
1.434122753
1.432030891
1.421452667
1.397706538
1.361603926
1.319830876
1.275528158
1.231864207
1.191678281
1.149112818
1.11090943
1.07770626
1.042919447
1.006148041
1.428350927
1.434813336
1.433481606
1.424037834
1.4005797
1.364987428
1.320887895
1.276479769
1.23125712
1.187948782
1.146825133
1.107069165
1.072642429
1.037544762
1.002357542
0.9676454195
1.437044937
1.435319415
1.425730098
1.403222261
1.36741698
1.324144161
1.275979024
1.230507704
1.186153432
1.14249517
1.104040247
1.06674788
1.031054265
0.9943920672
0.9634951341
0.9341872451
1.438018062
1.428207062
1.405453315
1.370858264
1.326592291
1.278310613
1.22919395
1.183465155
1.14150653
1.096214368
1.060691928
1.024157531
0.9869334296
0.9571163266
0.9275270333
0.8989381657
1.430961464
1.408804885
1.373608608
1.329264963
1.280805362
1.229621552
1.18056978
1.137510162
1.093178281
1.04923418
1.018495243
0.9831244547
0.9483002737
0.9197598147
0.8888092922
0.8600865188
1.410743863
1.376123733
1.331941091
1.281458919
1.231861192
1.179081915
1.131004096
1.089918325
1.043411764
1.006458456
0.9775111065
0.9387390033
0.9059938996
0.8796628149
0.8531367494
0.8280837201
1.37766821
1.334033928
1.283113681
1.229851963
1.180968427
1.125252249
1.082387061
1.041416626
0.9963040636
0.9642824824
0.9324233025
0.896841303
0.8671453495
0.8454832123
0.818627886
0.792865432
1.333827373
1.28481369
1.229610949
1.176459169
1.127205545
1.072149229
1.033906427
0.9907419163
0.949089571
0.9203086937
0.8894794698
0.8578486776
0.8314935873
0.8111888624
0.782367577
0.7590672502
1.28404375
1.231111053
1.171090656
1.123119894
1.070861428
1.02025423
0.9833864677
0.9424723149
0.9066344791
0.8783815173
0.8484511834
0.8154873378
0.7924704485
0.7725472359
0.7478876393
0.7310955939
1.23042741
1.170967317
1.113120057
1.067855542
1.01336408
0.9678330511
0.9331241386
0.8961147914
0.8603864084
0.8361090451
0.8085470401
0.7799960268
0.759708251
0.7380991217
0.7150129193
0.6950362461
1.172755118
1.105807277
1.056084803
1.009750698
0.9576274559
0.9183639182
0.8856857203
0.8492120582
0.815028397
0.7945871057
0.7676100945
0.7444705641
0.7256532504
0.7056549877
0.681063719
0.6644872951
1.106207113
1.041927506
0.997399524
0.9519389501
0.9013740064
0.8668444678
0.8393820653
0.8038913352
0.7792879483
0.7581609129
0.7304500772
0.7045127307
0.6846514459
0.6653783044
0.6418675313
0.6324049736
1.03535924
0.9820141578
0.9405379631
0.8958583312
0.8491464801
0.8197488551
0.7911971031
0.7569873505
0.735884658
0.7180598784
0.694377259
)
;

boundaryField
{
    inlet
    {
        type            fixedValue;
        value           nonuniform 0();
    }
    outlet
    {
        type            zeroGradient;
    }
    bottom
    {
        type            slip;
    }
    top
    {
        type            slip;
    }
    obstacle
    {
        type            zeroGradient;
    }
    defaultFaces
    {
        type            empty;
    }
    procBoundary4to3
    {
        type            processor;
        value           nonuniform List<scalar> 
30
(
1
1
1
1
1
1
1
1
1
1
1
1
1
1.000000002
1.000000065
1.000001978
1.00004013
1.000532777
1.004480144
1.024698595
1.086368025
1.195910041
1.325521262
1.415617925
1.432152314
1.44006346
1.439875742
1.43283998
1.412816767
1.378827209
)
;
    }
    procBoundary4to5
    {
        type            processor;
        value           nonuniform List<scalar> 
34
(
1.00049913
1.004243654
1.023566573
1.082871035
1.186728486
1.312418307
1.386087187
1.393313229
1.400976828
1.403268403
1.394195587
1.373358572
1.341997697
1.307573522
1.270046879
1.232950876
1.196868977
1.160163171
1.124253271
1.086275379
1.047739392
1.013186436
0.9780219228
0.9423936936
0.9089812213
0.8714648428
0.8369927348
0.8085152557
0.775753331
0.742587609
0.7149087238
0.6795916926
0.6497147245
0.6232292152
)
;
    }
    procBoundary4to9
    {
        type            processor;
        value           nonuniform List<scalar> 5(1.334193094 1.281151274 1.223911532 1.165816453 1.100539008);
    }
    procBoundary4to10
    {
        type            processor;
        value           nonuniform List<scalar> 
17
(
0.6718829521
0.6574915964
0.6348267483
0.6222219279
0.6211331307
0.9687967099
0.9201465533
0.8795726025
0.8379335655
0.799668048
0.778976352
0.7482593776
0.7176277794
0.6948215817
0.676227981
0.6718829521
0.6510623581
)
;
    }
}


// ************************************************************************* //
