/*--------------------------------*- C++ -*----------------------------------*\
  =========                 |
  \\      /  F ield         | OpenFOAM: The Open Source CFD Toolbox
   \\    /   O peration     | Website:  https://openfoam.org
    \\  /    A nd           | Version:  7
     \\/     M anipulation  |
\*---------------------------------------------------------------------------*/
FoamFile
{
    version     2.0;
    format      ascii;
    class       volScalarField;
    location    "0.3";
    object      T;
}
// * * * * * * * * * * * * * * * * * * * * * * * * * * * * * * * * * * * * * //

dimensions      [0 0 0 1 0 0 0];

internalField   nonuniform List<scalar> 8(1.026275516 1.010158025 1.015139966 1.012385026 1.003546866 1.007286972 1.000287023 1.001973159);

boundaryField
{
    inlet
    {
        type            fixedValue;
        value           nonuniform 0();
    }
    outlet
    {
        type            inletOutlet;
        inletValue      nonuniform 0();
        value           nonuniform 0();
    }
    bottom
    {
        type            slip;
    }
    top
    {
        type            slip;
    }
    obstacle
    {
        type            zeroGradient;
    }
    defaultFaces
    {
        type            empty;
    }
    procBoundary33to26
    {
        type            processor;
        value           uniform 1.027505377;
    }
    procBoundary33to27
    {
        type            processor;
        value           nonuniform List<scalar> 2(1.051212897 0.9876800907);
    }
    procBoundary33to32
    {
        type            processor;
        value           nonuniform List<scalar> 3(1.001724856 1.000008876 1.000000057);
    }
    procBoundary33to34
    {
        type            processor;
        value           nonuniform List<scalar> 4(0.9859334962 0.9994776846 1.004136728 1.002282674);
    }
}


// ************************************************************************* //
