/*--------------------------------*- C++ -*----------------------------------*\
  =========                 |
  \\      /  F ield         | OpenFOAM: The Open Source CFD Toolbox
   \\    /   O peration     | Website:  https://openfoam.org
    \\  /    A nd           | Version:  7
     \\/     M anipulation  |
\*---------------------------------------------------------------------------*/
FoamFile
{
    version     2.0;
    format      ascii;
    class       volScalarField;
    location    "4";
    object      T;
}
// * * * * * * * * * * * * * * * * * * * * * * * * * * * * * * * * * * * * * //

dimensions      [0 0 0 1 0 0 0];

internalField   nonuniform List<scalar> 
560
(
0.8747481389
0.8789717336
0.9003688685
0.9334107948
0.964789766
0.9919002012
1.002654419
1.001422238
1.003163675
1.003176067
1.002951982
1.003697203
1.005199289
1.005844648
1.006302275
1.006269418
0.8761920134
0.8761762989
0.8781530573
0.8888878773
0.9182976926
0.9497058192
0.975988778
0.9875055954
0.9999694535
1.001372055
1.003464689
1.005332453
1.006262019
1.005888274
1.00580259
1.005521485
0.8870968107
0.8813402648
0.8782298244
0.8785145744
0.8836576905
0.8994574276
0.9316433821
0.967153236
0.9921928016
0.9973721105
1.002460321
1.00560775
1.005589075
1.004697681
1.004590193
1.004656824
0.8968632666
0.8909806943
0.8830277054
0.8790151999
0.8803886395
0.8828020479
0.8924789543
0.9162320003
0.9460391724
0.9703837952
0.9937222259
1.002234385
1.001074589
1.00186431
1.003052481
1.004376737
0.9080601251
0.9040424206
0.8971542645
0.8881843955
0.8845886979
0.8828992459
0.8828496004
0.8863129813
0.90011789
0.9331865906
0.9646518649
0.9829607083
0.9926289149
1.000881161
1.003515002
1.004129963
0.918183054
0.912841849
0.9083043025
0.9008563504
0.8918953766
0.8861619634
0.8835432632
0.8846849287
0.88647471
0.8955121847
0.9153667264
0.947116344
0.9797268231
0.996933017
0.9997269119
1.001457525
0.9312428635
0.9226641046
0.9193894903
0.9140862982
0.9060786856
0.8982461738
0.8921536125
0.8891120383
0.8870582757
0.8868254491
0.889374567
0.9040893258
0.9314386578
0.9616649561
0.9798488413
0.9937900473
0.9443263879
0.9338407577
0.9267770566
0.9231685195
0.917100623
0.9093429791
0.9026949728
0.8954089133
0.8904991987
0.8879264178
0.8884595431
0.8893694294
0.8962109945
0.9174648758
0.9473733815
0.9848799378
0.9548466695
0.9468626217
0.9364745223
0.9318904983
0.9277370616
0.9217683443
0.9146548461
0.9074110534
0.9008954878
0.8964489246
0.8931072007
0.8897631781
0.8890878316
0.8922608298
0.9040422784
0.9464856325
0.963508432
0.9585698644
0.9494232995
0.9404714288
0.9362545732
0.9311344215
0.9249026704
0.9182139913
0.9105459547
0.9042680396
0.8994806856
0.8947018836
0.8899597793
0.890645723
0.8920109909
0.911031214
0.9727484112
0.9674682352
0.9606317991
0.9514388645
0.9438087056
0.9395481133
0.9348493123
0.9293039996
0.9227178721
0.9144785042
0.9095276855
0.9056209724
0.8990641206
0.8944145468
0.8924068237
0.8946565704
0.9837949758
0.9761571664
0.9705955813
0.9633659889
0.9541043649
0.9476271942
0.942436357
0.9379283574
0.9324094892
0.9249694352
0.9177876043
0.9136260528
0.90931223
0.9018339373
0.894851682
0.8950184839
0.9952093449
0.9858230133
0.9791649082
0.9733457753
0.965327873
0.9573268808
0.9504511144
0.9450551499
0.941023421
0.9358296855
0.9277490862
0.9220321977
0.9186613449
0.9136999085
0.9063553615
0.8997861201
1.007066927
0.9964220624
0.9880428489
0.9822496161
0.9751512196
0.9678275568
0.9601828948
0.95348097
0.9482188322
0.9442258824
0.9384502602
0.9300159575
0.9252127802
0.9221060442
0.9169394169
0.9071386008
1.017480849
1.008255154
0.99825482
0.9905532404
0.9849215191
0.9775417641
0.9695953725
0.9631329693
0.9556533558
0.951049405
0.9472385753
0.9408793558
0.9331768827
0.9291956537
0.9261159218
0.9177136306
1.025761256
1.01905224
1.009919673
0.9992937325
0.9933438915
0.987213523
0.9793385165
0.9723774951
0.9652696013
0.9586494306
0.9539916604
0.9499922409
0.9431690413
0.9358346674
0.9325343975
0.9258164269
1.034405362
1.027187413
1.020838083
1.010768013
1.001382435
0.9952039981
0.9893244606
0.9817908085
0.974425855
0.9680573761
0.9610393602
0.9568970318
0.952396542
0.9452303713
0.9397928647
0.9332153415
1.045383978
1.035101295
1.028508779
1.021946561
1.012238037
1.002301103
0.9974568521
0.9911303771
0.9836261625
0.9769925695
0.9697372631
0.9642069191
0.9595112203
0.9544671686
0.9485804782
0.940342811
1.055894261
1.045867641
1.035642332
1.029843962
1.02313897
1.01276642
1.004559585
0.9986212252
0.9931866501
0.9858166508
0.9786080855
0.9726288031
0.9662439299
0.9617812449
0.9569670987
0.9483621502
1.06437352
1.056413693
1.046036902
1.036680462
1.030585538
1.023953669
1.014269673
1.005419545
1.000701481
0.9943294873
0.9876457074
0.980929528
0.9740545281
0.9691844211
0.9641271228
0.955690852
1.072490749
1.064219632
1.056418083
1.046427024
1.037211491
1.031611025
1.02460688
1.015311822
1.00762541
1.001451605
0.9963856416
0.9890590957
0.9823720403
0.9769921475
0.9709450495
0.9628450881
1.081576136
1.072024336
1.064371082
1.056446972
1.046673987
1.038163084
1.032034637
1.025606453
1.016609197
1.008639378
1.003461685
0.9969394911
0.9912174739
0.9842302562
0.9777528533
0.9711452846
1.089880638
1.081275098
1.071950883
1.063982027
1.056303556
1.046822237
1.038744132
1.032886246
1.025943108
1.018071997
1.010386669
1.00419077
0.9993562468
0.9907963907
0.9848071741
0.9826063139
1.096693831
1.089633648
1.080676615
1.071602917
1.064000496
1.056164996
1.04749631
1.03937542
1.033269686
1.026780381
1.018616731
1.012309047
1.005326308
0.9972991391
0.9945374327
0.9994582933
1.101595137
1.096518806
1.089221545
1.080610185
1.071584138
1.06400467
1.05621838
1.047668903
1.040324361
1.033318861
1.027351639
1.019873224
1.011552472
1.007237128
1.007642612
1.022600051
1.103013934
1.100923576
1.096092089
1.088853387
1.080290999
1.071815821
1.063833313
1.056598095
1.048142923
1.040905308
1.03402104
1.026222699
1.021740018
1.022040061
1.026708518
1.053114533
1.101898308
1.102749579
1.100790414
1.095729386
1.088841449
1.08041467
1.07220713
1.063920526
1.056419626
1.048644034
1.04033917
1.035371959
1.035917648
1.042905905
1.058133915
1.084862105
1.1025013
1.103001111
1.102244924
1.100136885
1.095413248
1.088643023
1.080096725
1.071669177
1.063876319
1.055539391
1.050068448
1.050649654
1.056485876
1.072521301
1.098935474
1.107731879
1.099671106
1.099680853
1.100698017
1.101645818
1.099969151
1.095132365
1.087677303
1.079868672
1.071007486
1.06533095
1.065925689
1.073003061
1.090206861
1.109233058
1.126629302
1.123596999
1.080867599
1.091152176
1.100205082
1.102038635
1.10152857
1.098895686
1.09395467
1.087240093
1.08120885
1.082111599
1.089569981
1.105602427
1.127706009
1.13716082
1.136145001
1.129951123
1.050577516
1.081425332
1.09762185
1.101122648
1.100470896
1.100075365
1.098355327
1.09638141
1.098477594
1.108271899
1.126047553
1.14429324
1.157318967
1.155035071
1.146399228
1.131511302
1.023495856
1.053133251
1.077434081
1.092423569
1.098178179
1.100063047
1.104264626
1.112191673
1.126204524
1.143950242
1.160864571
1.166566915
1.165417057
1.162376549
1.156466345
1.140240896
1.007144477
1.022379711
1.050614584
1.080501614
1.094491707
1.103793847
1.118134052
1.136223767
1.160952773
1.182675544
1.188106553
1.183747192
1.173169088
1.163738665
1.155412772
1.137214897
1.001342115
1.006541886
1.023948048
1.051877326
1.082457364
1.111546406
1.143465819
1.16450436
1.182535531
1.193635654
1.194002677
1.190265165
1.180706759
1.167805867
1.156159324
1.1363209
1.000164151
1.001326812
1.007466115
1.027787617
1.070533902
1.122250507
1.160355728
1.196922366
1.208467884
1.206760458
1.200456927
1.192666963
1.183944172
1.171384384
1.157320888
1.135768874
)
;

boundaryField
{
    inlet
    {
        type            fixedValue;
        value           nonuniform 0();
    }
    outlet
    {
        type            inletOutlet;
        inletValue      uniform 1;
        value           nonuniform List<scalar> 
35
(
1.006270178
1.005522286
1.004654736
1.004368849
1.004135102
1.0014849
0.9937877912
0.9848589116
0.9465008487
0.9110437446
0.8946600207
0.8950210429
0.8997801911
0.9071196498
0.9177056215
0.9258312293
0.9332339941
0.9403365392
0.948348274
0.9556889662
0.9628483945
0.9711489238
0.9826035683
0.9994543829
1.022601935
1.053112049
1.084859087
1.107732784
1.123597789
1.129951277
1.13151011
1.140238631
1.137212228
1.136319724
1.135768031
)
;
    }
    bottom
    {
        type            slip;
    }
    top
    {
        type            slip;
    }
    obstacle
    {
        type            zeroGradient;
    }
    defaultFaces
    {
        type            empty;
    }
    procBoundary35to29
    {
        type            processor;
        value           nonuniform List<scalar> 
16
(
0.8862727105
0.9140568376
0.9550648371
0.9868320191
0.9950806312
1.002180119
1.006417904
1.006139003
1.006209997
1.005823971
1.004916488
1.004808347
1.005341794
1.006026149
1.006374016
1.006592365
)
;
    }
    procBoundary35to34
    {
        type            processor;
        value           nonuniform List<scalar> 
35
(
0.8756020913
0.8800075351
0.8917964516
0.9011659174
0.9155128141
0.928338188
0.9403842587
0.9509348846
0.9596805113
0.9700446222
0.9822163734
0.9937431169
1.004887908
1.015059082
1.024402107
1.0339511
1.045100953
1.055612958
1.063824256
1.072449443
1.082153244
1.090518998
1.097193844
1.101720224
1.103848668
1.10385009
1.100148777
1.093433241
1.081459784
1.05284509
1.02313872
1.006565818
1.001195943
1.000150338
1.000012035
)
;
    }
}


// ************************************************************************* //
