/*--------------------------------*- C++ -*----------------------------------*\
  =========                 |
  \\      /  F ield         | OpenFOAM: The Open Source CFD Toolbox
   \\    /   O peration     | Website:  https://openfoam.org
    \\  /    A nd           | Version:  7
     \\/     M anipulation  |
\*---------------------------------------------------------------------------*/
FoamFile
{
    version     2.0;
    format      ascii;
    class       volVectorField;
    location    "5";
    object      U;
}
// * * * * * * * * * * * * * * * * * * * * * * * * * * * * * * * * * * * * * //

dimensions      [0 1 -1 0 0 0 0];

internalField   nonuniform List<vector> 
2225
(
(3.13300223 -0.6371685318 0)
(3.132163806 -0.6363125442 0)
(3.127684684 -0.6224041439 0)
(3.108966418 -0.5508477085 0)
(3.10063778 -0.3998148672 0)
(3.051841504 -0.1935244144 0)
(3.026912636 -0.1150785411 0)
(2.997077299 -0.01139014142 0)
(2.832564636 0.3249641531 0)
(2.722707714 0.4812501664 0)
(2.623314643 0.5743242473 0)
(2.5916567 0.6312689865 0)
(2.550549457 0.6668411314 0)
(2.538468844 0.6622107117 0)
(2.555798517 0.6447882941 0)
(2.576421275 0.6237755036 0)
(3.129502124 -0.5908485668 0)
(3.128704536 -0.5954118781 0)
(3.128601804 -0.596646999 0)
(3.129888504 -0.5966310517 0)
(3.130332434 -0.5997512143 0)
(3.129611657 -0.6040811604 0)
(3.12936624 -0.6054123141 0)
(3.13051731 -0.6055839091 0)
(3.1310614 -0.6080372623 0)
(3.130482559 -0.6121713718 0)
(3.130040926 -0.613916291 0)
(3.131000286 -0.6143697056 0)
(3.13171877 -0.6152269119 0)
(3.131472746 -0.6192329511 0)
(3.1308283 -0.6221629037 0)
(3.131333387 -0.6233848179 0)
(3.132527238 -0.6244672759 0)
(3.132362021 -0.6295892159 0)
(3.131985458 -0.6297951095 0)
(3.131533049 -0.628066009 0)
(3.129098895 -0.6168812132 0)
(3.114918111 -0.5617465729 0)
(3.096519135 -0.4627641723 0)
(3.078314564 -0.3278802241 0)
(2.999702499 -0.06559510875 0)
(2.872547194 0.2957031462 0)
(2.68695641 0.5440248224 0)
(2.586073083 0.6932040803 0)
(2.53932628 0.6964515883 0)
(2.536619698 0.6839219198 0)
(2.561949271 0.6522447481 0)
(2.585119739 0.6362437278 0)
(3.128159939 -0.5754694571 0)
(3.128161745 -0.5806434062 0)
(3.12735061 -0.5841568308 0)
(3.127847128 -0.5849053007 0)
(3.129061615 -0.5855567541 0)
(3.129156052 -0.5902073125 0)
(3.128402565 -0.5938268693 0)
(3.12867069 -0.5947403802 0)
(3.129881903 -0.5951071126 0)
(3.129908049 -0.5984705378 0)
(3.129307193 -0.6021946922 0)
(3.129314463 -0.6035554564 0)
(3.130565676 -0.6037720618 0)
(3.130723799 -0.6053445218 0)
(3.130108158 -0.6094275418 0)
(3.129742137 -0.6110976851 0)
(3.130636113 -0.6114483854 0)
(3.131282248 -0.612432332 0)
(3.131444972 -0.6177682891 0)
(3.130856666 -0.6207051772 0)
(3.131391246 -0.6205536493 0)
(3.131337601 -0.6196071613 0)
(3.129326278 -0.6145520418 0)
(3.12510095 -0.5961416987 0)
(3.110013092 -0.5287507469 0)
(3.038054687 -0.2483506954 0)
(2.87722608 0.2105069585 0)
(2.596132048 0.6407313903 0)
(2.522015198 0.7444114386 0)
(2.517822681 0.6986952835 0)
(2.561896268 0.6573455589 0)
(2.587982604 0.6453240243 0)
(3.126261454 -0.5625062507 0)
(3.127141396 -0.5650654289 0)
(3.126680944 -0.570531511 0)
(3.126142805 -0.5728620401 0)
(3.127213214 -0.5732735166 0)
(3.128117049 -0.575108281 0)
(3.127871362 -0.5802121232 0)
(3.127203992 -0.5829744305 0)
(3.127963808 -0.5836429974 0)
(3.129001234 -0.584891775 0)
(3.128914908 -0.5893256597 0)
(3.128285134 -0.5923916471 0)
(3.128607107 -0.593537138 0)
(3.129830614 -0.5942297097 0)
(3.129919091 -0.5974254397 0)
(3.12930445 -0.6013770424 0)
(3.129048017 -0.6028836983 0)
(3.130212308 -0.6028166032 0)
(3.130805802 -0.6046382527 0)
(3.1303257 -0.6091895056 0)
(3.130103564 -0.6106032231 0)
(3.131045787 -0.6117161673 0)
(3.13171477 -0.6133460412 0)
(3.131260952 -0.6139103356 0)
(3.130370988 -0.6126634119 0)
(3.124758261 -0.5920489797 0)
(3.072440872 -0.3347644745 0)
(2.632773912 0.4542935557 0)
(2.546523803 0.6794101141 0)
(2.551522357 0.6258688843 0)
(2.582687193 0.6318994428 0)
(2.596572906 0.6370845944 0)
(3.124025129 -0.5504482519 0)
(3.125428049 -0.5507496393 0)
(3.125810576 -0.555020618 0)
(3.125146516 -0.5598252239 0)
(3.125169424 -0.5613387435 0)
(3.126575447 -0.5616644516 0)
(3.126948711 -0.564860399 0)
(3.126362373 -0.5696384987 0)
(3.126111802 -0.5714643172 0)
(3.127335463 -0.571739323 0)
(3.127916585 -0.5738105661 0)
(3.127624271 -0.5786512825 0)
(3.12707968 -0.5811328802 0)
(3.127991607 -0.5818649251 0)
(3.129002918 -0.582721104 0)
(3.128705266 -0.5867009787 0)
(3.12807028 -0.5900374635 0)
(3.128268545 -0.5912646452 0)
(3.129552113 -0.5914990847 0)
(3.129828886 -0.5945845577 0)
(3.129189107 -0.5990230454 0)
(3.129121294 -0.6001403177 0)
(3.130329976 -0.6005343463 0)
(3.131066639 -0.6046922173 0)
(3.129956538 -0.6084203598 0)
(3.130413463 -0.6074825085 0)
(3.126123798 -0.5920326301 0)
(2.958552978 -0.2057376021 0)
(2.652205734 0.4608300594 0)
(2.562312297 0.6341464039 0)
(2.573896626 0.6871394501 0)
(2.578365122 0.658454003 0)
(3.122414259 -0.5381564447 0)
(3.123240685 -0.5391169222 0)
(3.124536562 -0.5404113435 0)
(3.124547093 -0.5459676137 0)
(3.123824776 -0.5497481302 0)
(3.124413772 -0.5507754979 0)
(3.125711327 -0.5514588747 0)
(3.125784366 -0.5560721812 0)
(3.125113511 -0.5602535178 0)
(3.125330458 -0.5615991042 0)
(3.126681622 -0.5618168013 0)
(3.126830689 -0.5648930664 0)
(3.12631137 -0.5693473584 0)
(3.126123544 -0.5711467229 0)
(3.127364373 -0.5716102295 0)
(3.127926523 -0.5733651395 0)
(3.127499447 -0.577868509 0)
(3.12692883 -0.5803833779 0)
(3.127765166 -0.5810429356 0)
(3.128871001 -0.581708709 0)
(3.128585379 -0.5854002347 0)
(3.12786706 -0.5888637556 0)
(3.128270789 -0.589433737 0)
(3.129448804 -0.5902597487 0)
(3.129697434 -0.5947655492 0)
(3.129129949 -0.5980828186 0)
(3.129446311 -0.5979472199 0)
(3.120594965 -0.5677766005 0)
(2.963745335 -0.1733962461 0)
(2.743749351 0.3451806751 0)
(2.618672851 0.5432996275 0)
(2.533306889 0.6468838652 0)
(3.121403637 -0.5243446814 0)
(3.121089598 -0.5267981988 0)
(3.122402997 -0.5271573452 0)
(3.123139146 -0.5296443832 0)
(3.122918818 -0.5356152419 0)
(3.122447676 -0.5384947626 0)
(3.123632841 -0.5391904832 0)
(3.124566875 -0.5409311112 0)
(3.124400406 -0.5463239763 0)
(3.123787362 -0.5496468757 0)
(3.124505965 -0.5506866734 0)
(3.125743482 -0.5516182793 0)
(3.125802792 -0.5561996563 0)
(3.125142852 -0.560202044 0)
(3.125301791 -0.5616428929 0)
(3.12665343 -0.5622929139 0)
(3.126958912 -0.5651985181 0)
(3.126377425 -0.5692285134 0)
(3.126133979 -0.5710465408 0)
(3.127255042 -0.5714943838 0)
(3.127976129 -0.5733090129 0)
(3.127531716 -0.5776194609 0)
(3.126984221 -0.5798622903 0)
(3.127828391 -0.5797171092 0)
(3.128732133 -0.5818000547 0)
(3.128520395 -0.5861697604 0)
(3.128311985 -0.5887714496 0)
(3.12883572 -0.5885099244 0)
(3.121801237 -0.5640010576 0)
(3.06591995 -0.3226619941 0)
(2.615935224 0.4078998953 0)
(2.459495406 0.6600547682 0)
(3.120470481 -0.5089680506 0)
(3.119901569 -0.5145557223 0)
(3.120077716 -0.5164375594 0)
(3.121662148 -0.5170969592 0)
(3.1220747 -0.5212698235 0)
(3.121485614 -0.5265106236 0)
(3.121504265 -0.5283769599 0)
(3.122918498 -0.5288465916 0)
(3.123417497 -0.5320547593 0)
(3.123002804 -0.5373319076 0)
(3.122656577 -0.5397859225 0)
(3.123894839 -0.5406320405 0)
(3.124751853 -0.5420644191 0)
(3.124337427 -0.5467462486 0)
(3.123800663 -0.5499856808 0)
(3.124487642 -0.5510922275 0)
(3.125759407 -0.5519352114 0)
(3.125840527 -0.5560675082 0)
(3.125192441 -0.5598561161 0)
(3.125304429 -0.561294708 0)
(3.126618049 -0.5617347379 0)
(3.126977503 -0.5646737642 0)
(3.126357414 -0.5686413761 0)
(3.126245069 -0.5700142666 0)
(3.127269581 -0.569900052 0)
(3.127818166 -0.5736790552 0)
(3.127326671 -0.576768572 0)
(3.127651173 -0.5789153856 0)
(3.128046434 -0.5795567388 0)
(3.125834581 -0.5678203006 0)
(3.002152365 -0.2816670794 0)
(2.510417589 0.4844354588 0)
(3.119002038 -0.4937101621 0)
(3.118924157 -0.4998672634 0)
(3.118302763 -0.5040262827 0)
(3.119147489 -0.5050633457 0)
(3.120363686 -0.5060572427 0)
(3.120561642 -0.5118624069 0)
(3.119971532 -0.5163304315 0)
(3.120517285 -0.5176634337 0)
(3.121900906 -0.5184071338 0)
(3.122091779 -0.5228570368 0)
(3.121586657 -0.527448812 0)
(3.121671084 -0.5294155942 0)
(3.123043764 -0.5303385855 0)
(3.123489733 -0.5329852369 0)
(3.123095722 -0.5379278763 0)
(3.122795024 -0.5406816135 0)
(3.12389081 -0.5415552745 0)
(3.124795988 -0.5424418634 0)
(3.124485744 -0.5469169781 0)
(3.123950309 -0.5501097708 0)
(3.124617776 -0.5510281411 0)
(3.125708598 -0.5516691462 0)
(3.125725688 -0.5560444881 0)
(3.125059175 -0.5593288673 0)
(3.125508024 -0.5598775632 0)
(3.126460985 -0.5606886476 0)
(3.1266535 -0.565463293 0)
(3.126217729 -0.567440541 0)
(3.12694994 -0.5701591004 0)
(3.127159431 -0.5709665926 0)
(3.127805439 -0.5608629254 0)
(2.689158689 0.2141472737 0)
(3.116479514 -0.480295369 0)
(3.117249386 -0.4835453195 0)
(3.117236628 -0.4904233652 0)
(3.116886707 -0.4936663272 0)
(3.118299125 -0.4945808415 0)
(3.119317057 -0.4970796772 0)
(3.119119666 -0.5032406645 0)
(3.118660668 -0.5065951271 0)
(3.119738434 -0.5078647494 0)
(3.120977655 -0.5096252524 0)
(3.120827255 -0.5146060059 0)
(3.120273025 -0.518485211 0)
(3.120739726 -0.520307529 0)
(3.122164957 -0.521194284 0)
(3.122303556 -0.5243218146 0)
(3.12193479 -0.5290649699 0)
(3.121832894 -0.5314345784 0)
(3.123084882 -0.5322126004 0)
(3.123693955 -0.5342235979 0)
(3.123425035 -0.5391507246 0)
(3.123034142 -0.5416178034 0)
(3.124012188 -0.5420997564 0)
(3.124816852 -0.543566158 0)
(3.124587139 -0.5485300621 0)
(3.124109095 -0.5507010409 0)
(3.124983781 -0.5508463113 0)
(3.125840003 -0.5535496445 0)
(3.125316605 -0.5573517658 0)
(3.125267247 -0.5580381702 0)
(3.126259246 -0.5617198769 0)
(3.126406643 -0.5625591189 0)
(3.009401214 -0.2476325415 0)
(3.113917976 -0.4699430778 0)
(3.115712175 -0.4709636382 0)
(3.116229458 -0.4758973351 0)
(3.115677423 -0.4816555116 0)
(3.115858568 -0.4837288059 0)
(3.117336953 -0.4843213956 0)
(3.117749056 -0.4881151815 0)
(3.117450619 -0.4937392766 0)
(3.117428334 -0.4963410377 0)
(3.118824562 -0.4974798939 0)
(3.119468241 -0.4995689587 0)
(3.119107589 -0.5046607816 0)
(3.118848279 -0.5083829416 0)
(3.119795237 -0.5100473013 0)
(3.121024419 -0.5109751471 0)
(3.120885756 -0.515054538 0)
(3.12046847 -0.5196562018 0)
(3.120758794 -0.5214003463 0)
(3.122108623 -0.5218552299 0)
(3.122482646 -0.5252175908 0)
(3.122128783 -0.5302459275 0)
(3.122016777 -0.5321353983 0)
(3.123219914 -0.5324020548 0)
(3.123735716 -0.53536234 0)
(3.12325131 -0.5400635829 0)
(3.123229676 -0.5411359532 0)
(3.124182105 -0.5414356818 0)
(3.124728938 -0.5459993758 0)
(3.124227768 -0.5487039012 0)
(3.124556594 -0.5494949657 0)
(3.125599013 -0.5537475624 0)
(3.116887716 -0.5129092951 0)
(3.111856577 -0.4574646921 0)
(3.112870634 -0.4586403046 0)
(3.113991563 -0.4598279096 0)
(3.114299191 -0.4663965967 0)
(3.113892832 -0.4714082609 0)
(3.114628068 -0.4731973961 0)
(3.11621573 -0.4748999831 0)
(3.116593592 -0.4801755171 0)
(3.116193636 -0.4851359364 0)
(3.116447658 -0.4877089915 0)
(3.117909569 -0.4892110869 0)
(3.118334925 -0.4919627449 0)
(3.118035727 -0.4970327398 0)
(3.117885735 -0.500261713 0)
(3.11901299 -0.5014613892 0)
(3.119947801 -0.5026146071 0)
(3.119793854 -0.507509903 0)
(3.119349402 -0.5114433175 0)
(3.120061022 -0.5126024403 0)
(3.121234506 -0.5129909901 0)
(3.121261715 -0.5173292109 0)
(3.120732857 -0.5215005581 0)
(3.121167123 -0.5225529039 0)
(3.122301496 -0.5230718296 0)
(3.122615355 -0.5278156044 0)
(3.121966579 -0.5315901207 0)
(3.122466272 -0.5319449581 0)
(3.123447972 -0.5337223099 0)
(3.123473784 -0.5385637108 0)
(3.123232256 -0.5397587364 0)
(3.123949576 -0.5430412536 0)
(3.123844002 -0.5424661094 0)
(3.110467359 -0.443708712 0)
(3.110256817 -0.4476291957 0)
(3.111817249 -0.4490852195 0)
(3.113067663 -0.4522249141 0)
(3.112919685 -0.4587442016 0)
(3.112635423 -0.4623759046 0)
(3.113903179 -0.463909598 0)
(3.115007098 -0.465513787 0)
(3.114725391 -0.4704085327 0)
(3.11449128 -0.4749945394 0)
(3.115188602 -0.4773252416 0)
(3.116567306 -0.4783462011 0)
(3.116703377 -0.4818991279 0)
(3.116621497 -0.487588526 0)
(3.116636241 -0.49057852 0)
(3.118038585 -0.4915505903 0)
(3.118714309 -0.4937616208 0)
(3.118586448 -0.4993252586 0)
(3.118204047 -0.5024638746 0)
(3.119221475 -0.5032989495 0)
(3.120212287 -0.5049517051 0)
(3.120186629 -0.5103545914 0)
(3.119661435 -0.5133794425 0)
(3.120514666 -0.5137767443 0)
(3.121419519 -0.5153089632 0)
(3.121223394 -0.520444508 0)
(3.120891941 -0.5222658431 0)
(3.121661246 -0.5223324857 0)
(3.122522009 -0.5263995384 0)
(3.122154479 -0.5295170781 0)
(3.122279387 -0.530772312 0)
(3.123319366 -0.535041581 0)
(3.109314645 -0.4292986458 0)
(3.108916157 -0.4355967351 0)
(3.109233333 -0.4381538403 0)
(3.110794187 -0.4390259729 0)
(3.111161482 -0.4429966329 0)
(3.111088687 -0.4492423991 0)
(3.111188293 -0.4525367415 0)
(3.112652066 -0.4543417603 0)
(3.113531684 -0.457002015 0)
(3.113456008 -0.4625775817 0)
(3.113332156 -0.46695935 0)
(3.114304903 -0.4690089848 0)
(3.115566611 -0.4698009387 0)
(3.115408436 -0.4738902644 0)
(3.115108339 -0.4790969192 0)
(3.115523505 -0.481174899 0)
(3.116931376 -0.4816425579 0)
(3.117279222 -0.4852077478 0)
(3.117020219 -0.4908706146 0)
(3.116971151 -0.4931433543 0)
(3.118321705 -0.493464259 0)
(3.118912984 -0.4964624039 0)
(3.1186789 -0.5019644048 0)
(3.118472109 -0.5040163355 0)
(3.119623259 -0.5043570276 0)
(3.120484624 -0.5083886751 0)
(3.11993588 -0.513094111 0)
(3.120090502 -0.5138056127 0)
(3.121068076 -0.515144133 0)
(3.121424428 -0.5200458022 0)
(3.121176591 -0.5214158636 0)
(3.121815646 -0.524488459 0)
(3.106581007 -0.4127927093 0)
(3.10687152 -0.4194003605 0)
(3.106844587 -0.4253379968 0)
(3.107670925 -0.427754078 0)
(3.109356233 -0.4297403471 0)
(3.109893414 -0.4352743505 0)
(3.109719869 -0.4410013313 0)
(3.110151212 -0.4440942043 0)
(3.111786647 -0.4457240045 0)
(3.112227062 -0.4485355518 0)
(3.112096428 -0.4543369104 0)
(3.112024215 -0.4582110006 0)
(3.113178049 -0.459745705 0)
(3.114180824 -0.461257173 0)
(3.114285236 -0.4668632277 0)
(3.1139519 -0.4713531344 0)
(3.114694209 -0.4728928785 0)
(3.116032561 -0.4736684177 0)
(3.116179578 -0.4783854151 0)
(3.115709438 -0.4829987804 0)
(3.116155819 -0.4844328232 0)
(3.117436738 -0.4849462144 0)
(3.117793448 -0.4896376761 0)
(3.11723959 -0.4941387599 0)
(3.117688521 -0.495069485 0)
(3.118765887 -0.495584147 0)
(3.119011736 -0.5008159516 0)
(3.118538995 -0.503679611 0)
(3.119117776 -0.5039560015 0)
(3.119994416 -0.5069898008 0)
(3.120059747 -0.5108858909 0)
(3.120225633 -0.5141756673 0)
(3.104092822 -0.4022368966 0)
(3.105606578 -0.4058693018 0)
(3.105877892 -0.413041427 0)
(3.105715043 -0.4176191254 0)
(3.107005229 -0.4197297291 0)
(3.108246143 -0.4212560548 0)
(3.108067022 -0.4263188698 0)
(3.107992952 -0.4315150363 0)
(3.108764516 -0.4340237837 0)
(3.110137237 -0.4351185362 0)
(3.110356041 -0.4391013707 0)
(3.110447557 -0.4454977321 0)
(3.110617778 -0.4489000443 0)
(3.112183195 -0.4501549662 0)
(3.112942131 -0.4525874944 0)
(3.112890799 -0.4587483604 0)
(3.112622694 -0.4624425855 0)
(3.113778694 -0.4636035949 0)
(3.114800762 -0.4653257082 0)
(3.114914296 -0.471194458 0)
(3.114442535 -0.4749092234 0)
(3.115326698 -0.4757458825 0)
(3.116385301 -0.4770638965 0)
(3.116546655 -0.4827740589 0)
(3.116063034 -0.4858578506 0)
(3.11688518 -0.4863066046 0)
(3.117959964 -0.4892807423 0)
(3.117806511 -0.4945360238 0)
(3.117710095 -0.4959603961 0)
(3.118645311 -0.4974904028 0)
(3.11918218 -0.5009677471 0)
(3.119156923 -0.5046128858 0)
(3.101542666 -0.3921820622 0)
(3.103223394 -0.3932919819 0)
(3.103578225 -0.3963373193 0)
(3.103694615 -0.403208029 0)
(3.103917503 -0.4074209133 0)
(3.105358651 -0.4093718068 0)
(3.106350983 -0.4122953535 0)
(3.106785715 -0.4190287902 0)
(3.106776529 -0.4241479009 0)
(3.107822976 -0.4266526926 0)
(3.109349898 -0.4281682444 0)
(3.109380717 -0.4326998751 0)
(3.109095435 -0.4379924795 0)
(3.109588718 -0.4403137533 0)
(3.111027445 -0.4409982305 0)
(3.111304299 -0.4445016603 0)
(3.111203801 -0.4505450393 0)
(3.111310213 -0.4532668793 0)
(3.112752252 -0.4539377058 0)
(3.113349731 -0.4568431674 0)
(3.113304074 -0.4629497425 0)
(3.113148965 -0.465734165 0)
(3.114450949 -0.4663004528 0)
(3.115280469 -0.4694864517 0)
(3.115001968 -0.4752188537 0)
(3.114955614 -0.4768529606 0)
(3.116001901 -0.4771853795 0)
(3.116751468 -0.4820345941 0)
(3.116364809 -0.4855861491 0)
(3.116753171 -0.4864011293 0)
(3.117650222 -0.4891065877 0)
(3.11796275 -0.4939265477 0)
(3.098789904 -0.3778700962 0)
(3.099630296 -0.3813290513 0)
(3.101362147 -0.3834246006 0)
(3.102200477 -0.3890801533 0)
(3.102430511 -0.3960311899 0)
(3.102856455 -0.3997519506 0)
(3.104633868 -0.401606975 0)
(3.105298598 -0.4044718273 0)
(3.105186632 -0.4106109924 0)
(3.10528775 -0.4147822987 0)
(3.106584972 -0.4164787851 0)
(3.107458857 -0.4183987625 0)
(3.107730895 -0.424696517 0)
(3.107629173 -0.4298699969 0)
(3.10847356 -0.4320574284 0)
(3.110037249 -0.4335745462 0)
(3.11041374 -0.4386609189 0)
(3.110076365 -0.4438568921 0)
(3.110510022 -0.4458889566 0)
(3.111928048 -0.4466281486 0)
(3.112312869 -0.4509220209 0)
(3.111955646 -0.4561105644 0)
(3.112272609 -0.4577155235 0)
(3.113507976 -0.4580636609 0)
(3.114005295 -0.4629538595 0)
(3.113537069 -0.4674710126 0)
(3.114059632 -0.4681952702 0)
(3.115122952 -0.4699462284 0)
(3.115428779 -0.475574356 0)
(3.115241201 -0.4775135083 0)
(3.115865354 -0.4788550299 0)
(3.116757155 -0.4836869834 0)
(3.097777768 -0.3660346831 0)
(3.097794889 -0.3718893312 0)
(3.098953812 -0.3747127848 0)
(3.100526907 -0.3762501641 0)
(3.100678825 -0.3814610975 0)
(3.100692353 -0.3874429238 0)
(3.10144298 -0.3902677906 0)
(3.102829643 -0.391522928 0)
(3.10320805 -0.3959755796 0)
(3.103553631 -0.4028286304 0)
(3.103886734 -0.4066147612 0)
(3.105526687 -0.4084150508 0)
(3.106427801 -0.4111445235 0)
(3.106342807 -0.417251277 0)
(3.106296483 -0.4213273472 0)
(3.107580917 -0.4227564577 0)
(3.10847826 -0.4241704867 0)
(3.108601328 -0.4301436303 0)
(3.108414269 -0.4347629267 0)
(3.109345723 -0.4361643189 0)
(3.110470681 -0.4374076374 0)
(3.110961954 -0.443450501 0)
(3.110598076 -0.4479450424 0)
(3.111389111 -0.4490468974 0)
(3.112571172 -0.4508455029 0)
(3.112827961 -0.4568567131 0)
(3.112470547 -0.4595953693 0)
(3.113338517 -0.4602268997 0)
(3.114325093 -0.4640331175 0)
(3.114168126 -0.4682412373 0)
(3.114313947 -0.4696663842 0)
(3.115361507 -0.4737346719 0)
(3.094919949 -0.3481920505 0)
(3.0952049 -0.355535514 0)
(3.095601946 -0.3610812313 0)
(3.097039367 -0.3633188041 0)
(3.098116473 -0.3659125948 0)
(3.098929477 -0.3734169482 0)
(3.09917659 -0.3794012677 0)
(3.100287005 -0.3824204585 0)
(3.102021884 -0.3848193625 0)
(3.102404042 -0.389998754 0)
(3.10232939 -0.3957712967 0)
(3.102935534 -0.398827565 0)
(3.104429073 -0.4000817746 0)
(3.104681586 -0.4034804107 0)
(3.104772123 -0.4098138643 0)
(3.104964759 -0.4132997015 0)
(3.106420261 -0.4146159292 0)
(3.107282377 -0.4175000878 0)
(3.107454788 -0.4239311539 0)
(3.107332512 -0.4275331261 0)
(3.108660651 -0.4285521189 0)
(3.109529034 -0.4306414825 0)
(3.109500024 -0.4367866529 0)
(3.109294901 -0.4396788741 0)
(3.110393414 -0.4399324001 0)
(3.1112809 -0.4434664958 0)
(3.11117071 -0.449229525 0)
(3.111344063 -0.4505936978 0)
(3.112390597 -0.4520734624 0)
(3.11301916 -0.4570896863 0)
(3.112882381 -0.459624878 0)
(3.11358719 -0.4633283614 0)
(3.092590532 -0.3372724031 0)
(3.093708049 -0.3424736911 0)
(3.094265502 -0.3504375165 0)
(3.094589284 -0.3551007086 0)
(3.09637459 -0.3574774571 0)
(3.097562157 -0.3606285621 0)
(3.097670813 -0.3670912022 0)
(3.097820633 -0.3715245701 0)
(3.099177066 -0.3734379839 0)
(3.100003966 -0.375099055 0)
(3.100091797 -0.3809355798 0)
(3.10039516 -0.386745264 0)
(3.101387956 -0.3896604306 0)
(3.102945847 -0.3915670766 0)
(3.10348449 -0.3967156411 0)
(3.10351669 -0.4028130315 0)
(3.104017022 -0.4056883592 0)
(3.105580599 -0.4066838964 0)
(3.105977506 -0.4104067735 0)
(3.105929061 -0.4164478357 0)
(3.106121253 -0.4189896908 0)
(3.107398276 -0.4195461606 0)
(3.108064336 -0.4236869083 0)
(3.108039185 -0.4297710006 0)
(3.108279012 -0.4316649773 0)
(3.109507139 -0.4323245422 0)
(3.110225684 -0.4378398303 0)
(3.109862835 -0.4416641754 0)
(3.110434054 -0.4424554681 0)
(3.111504153 -0.4455672715 0)
(3.111758081 -0.4497798323 0)
(3.112023348 -0.4537493316 0)
(3.089590163 -0.3277434706 0)
(3.091424454 -0.3292527072 0)
(3.091864547 -0.3341187342 0)
(3.0921329 -0.3411547762 0)
(3.092899133 -0.3446352074 0)
(3.094410919 -0.3461400517 0)
(3.094963692 -0.3507859655 0)
(3.095636136 -0.3583460537 0)
(3.096174562 -0.3628983079 0)
(3.097833467 -0.3656906736 0)
(3.099037956 -0.3693295656 0)
(3.09927412 -0.3756148619 0)
(3.099415485 -0.3803960704 0)
(3.100686536 -0.3826211224 0)
(3.101803594 -0.3838889402 0)
(3.101798022 -0.3891603657 0)
(3.101839148 -0.3945658131 0)
(3.102695932 -0.3966088031 0)
(3.103894816 -0.397702343 0)
(3.104536921 -0.4034967906 0)
(3.104489942 -0.4093227763 0)
(3.105115954 -0.4113196691 0)
(3.106540339 -0.4124192997 0)
(3.107140116 -0.4181218838 0)
(3.106758203 -0.4227697859 0)
(3.107453952 -0.4237198123 0)
(3.108591805 -0.4258603158 0)
(3.108903977 -0.4318816586 0)
(3.108774205 -0.4341467486 0)
(3.109692621 -0.4356843424 0)
(3.110459751 -0.4392054824 0)
(3.110681236 -0.4438299935 0)
(3.08667675 -0.3148769866 0)
(3.088036556 -0.3179252148 0)
(3.089524097 -0.3204152662 0)
(3.090485429 -0.3280238292 0)
(3.090814796 -0.3349123212 0)
(3.091792459 -0.3384156067 0)
(3.093709475 -0.3412542462 0)
(3.094456261 -0.3466174503 0)
(3.094544121 -0.3525940997 0)
(3.095257369 -0.3561005555 0)
(3.096835324 -0.357753665 0)
(3.097090638 -0.3606501279 0)
(3.097301179 -0.3671109206 0)
(3.097710723 -0.3716413434 0)
(3.09910197 -0.3735356115 0)
(3.10003096 -0.3761911161 0)
(3.100663387 -0.3831467756 0)
(3.100685244 -0.3879856531 0)
(3.101919605 -0.3897905695 0)
(3.103124144 -0.3913684824 0)
(3.10328504 -0.3973615224 0)
(3.103088821 -0.401555522 0)
(3.104118761 -0.4023802127 0)
(3.104896849 -0.4040363299 0)
(3.105336041 -0.4107622802 0)
(3.105220451 -0.4139546653 0)
(3.106245516 -0.414473786 0)
(3.107317276 -0.418830405 0)
(3.107356982 -0.4240012936 0)
(3.107683343 -0.4256594396 0)
(3.108674445 -0.4283017429 0)
(3.109367623 -0.4336686013 0)
(3.08485695 -0.3027376544 0)
(3.085248331 -0.3087715487 0)
(3.086836382 -0.3111437226 0)
(3.088201706 -0.3137508927 0)
(3.088739281 -0.3209849494 0)
(3.089042429 -0.3263322267 0)
(3.090471673 -0.3287044874 0)
(3.091566933 -0.3307699493 0)
(3.091832449 -0.3367952795 0)
(3.092403889 -0.3432255594 0)
(3.093510471 -0.3469656769 0)
(3.095112722 -0.3494176767 0)
(3.09577199 -0.354332431 0)
(3.09616915 -0.3611042418 0)
(3.0966936 -0.3650338324 0)
(3.098369422 -0.36666939 0)
(3.099019068 -0.3695860405 0)
(3.099161373 -0.3760977045 0)
(3.099330305 -0.3797552603 0)
(3.100632694 -0.3806888109 0)
(3.1012944 -0.383788394 0)
(3.101850106 -0.3909222793 0)
(3.101802354 -0.3943946561 0)
(3.103133143 -0.3953152869 0)
(3.104270758 -0.3994741031 0)
(3.104181101 -0.4054295518 0)
(3.104411793 -0.4071460175 0)
(3.105591314 -0.4084361542 0)
(3.106337941 -0.41392202 0)
(3.106180191 -0.4171460131 0)
(3.106692396 -0.4186948866 0)
(3.10785952 -0.4237753421 0)
(3.081657948 -0.2853278252 0)
(3.082767617 -0.2943029338 0)
(3.083528025 -0.2995304816 0)
(3.08534413 -0.3017096443 0)
(3.086415013 -0.3061112287 0)
(3.087203949 -0.314281582 0)
(3.087669622 -0.3193123183 0)
(3.089280318 -0.3224925494 0)
(3.09073043 -0.3264429048 0)
(3.091182193 -0.3327307609 0)
(3.091514527 -0.338130057 0)
(3.092768237 -0.341279328 0)
(3.094183794 -0.3429874039 0)
(3.094301225 -0.3475381892 0)
(3.094519556 -0.3535686687 0)
(3.09529899 -0.3564664575 0)
(3.096584268 -0.3574788133 0)
(3.097099956 -0.3622627089 0)
(3.097586663 -0.3692632766 0)
(3.098039993 -0.3723419719 0)
(3.099618906 -0.3734431086 0)
(3.100384367 -0.3780214449 0)
(3.100376217 -0.3842624184 0)
(3.100829895 -0.3863066946 0)
(3.102029681 -0.3868816367 0)
(3.102706589 -0.3926170316 0)
(3.102515274 -0.3972622478 0)
(3.103201647 -0.3981654519 0)
(3.104366114 -0.4012360703 0)
(3.104762799 -0.406627942 0)
(3.104878188 -0.4089843367 0)
(3.106061324 -0.4135740983 0)
(3.079785575 -0.275698049 0)
(3.080797499 -0.2812347178 0)
(3.081496293 -0.2892854503 0)
(3.082278678 -0.2933451039 0)
(3.084071753 -0.2952810659 0)
(3.085009563 -0.3003722012 0)
(3.08549027 -0.3075490068 0)
(3.086245224 -0.3116051985 0)
(3.08797412 -0.3138550865 0)
(3.08856105 -0.3170089081 0)
(3.088847526 -0.3234073322 0)
(3.089542011 -0.3287943238 0)
(3.091002138 -0.3315360331 0)
(3.092034291 -0.3340361305 0)
(3.092794605 -0.3409075848 0)
(3.093194629 -0.3470600318 0)
(3.094246298 -0.3498775727 0)
(3.095816859 -0.3517300851 0)
(3.096387646 -0.3574703957 0)
(3.096353198 -0.363061502 0)
(3.097172523 -0.3649754326 0)
(3.098277291 -0.3657411232 0)
(3.098826768 -0.3717630219 0)
(3.098772258 -0.3769963155 0)
(3.099629187 -0.3782693061 0)
(3.100802649 -0.3804971459 0)
(3.101508406 -0.3874258623 0)
(3.101438212 -0.3904592773 0)
(3.102475254 -0.391834017 0)
(3.103544756 -0.3964329374 0)
(3.103559531 -0.3998428347 0)
(3.104177658 -0.403990671 0)
(3.075804753 -0.2629180782 0)
(3.077346471 -0.2652606399 0)
(3.078324197 -0.2725823728 0)
(3.079337552 -0.2804705756 0)
(3.080709211 -0.2841938856 0)
(3.082406839 -0.2867153728 0)
(3.083222213 -0.2931328003 0)
(3.083876181 -0.300176087 0)
(3.084912672 -0.3043050897 0)
(3.086641824 -0.3073811728 0)
(3.087504684 -0.3121910763 0)
(3.088017761 -0.3189938479 0)
(3.088608307 -0.3238382359 0)
(3.090220253 -0.3262942416 0)
(3.091217732 -0.3287020261 0)
(3.09151838 -0.3350222753 0)
(3.091769087 -0.3398228917 0)
(3.09306938 -0.3413130684 0)
(3.093684528 -0.3428376592 0)
(3.094408638 -0.3499520282 0)
(3.094599327 -0.35522785 0)
(3.095806695 -0.3568362606 0)
(3.097017038 -0.3593790994 0)
(3.097708647 -0.3665889165 0)
(3.097627885 -0.3703068016 0)
(3.098843892 -0.3710858411 0)
(3.099929213 -0.3750663083 0)
(3.099959219 -0.3805832008 0)
(3.100274228 -0.3824033418 0)
(3.101309887 -0.3846113286 0)
(3.102000149 -0.3891020603 0)
(3.102459054 -0.394257424 0)
(3.073450113 -0.2547647538 0)
(3.075079595 -0.2583183223 0)
(3.076757601 -0.2617209543 0)
(3.077717505 -0.2691843151 0)
(3.078251761 -0.2754707551 0)
(3.07966093 -0.2786424906 0)
(3.081162438 -0.2813905481 0)
(3.08187928 -0.2878155901 0)
(3.082416608 -0.2940368989 0)
(3.083635278 -0.2975943538 0)
(3.085179131 -0.299753417 0)
(3.085499494 -0.3040823423 0)
(3.086055097 -0.3107556255 0)
(3.086957916 -0.314988718 0)
(3.08848103 -0.3167281987 0)
(3.088979753 -0.3204287098 0)
(3.089876462 -0.3281445176 0)
(3.090320187 -0.3326844538 0)
(3.091855669 -0.3345434187 0)
(3.092944907 -0.3381425 0)
(3.093433802 -0.3452470611 0)
(3.093603912 -0.3488472683 0)
(3.095048336 -0.3497134434 0)
(3.095805648 -0.3532404731 0)
(3.096010148 -0.3598762361 0)
(3.096327366 -0.3620797553 0)
(3.097417793 -0.36311283 0)
(3.098535877 -0.3693270503 0)
(3.098536899 -0.3737128243 0)
(3.099259086 -0.3757881273 0)
(3.100428926 -0.37924102 0)
(3.101124174 -0.3847547803 0)
(3.070103442 -0.239433978 0)
(3.07112866 -0.2450967448 0)
(3.072971303 -0.2478302094 0)
(3.073881573 -0.2518357951 0)
(3.075003774 -0.260095802 0)
(3.076113588 -0.2662266005 0)
(3.077957657 -0.2695003307 0)
(3.079136065 -0.2729351115 0)
(3.07991591 -0.2800656151 0)
(3.080792864 -0.2864153442 0)
(3.082253646 -0.2900921051 0)
(3.08371604 -0.2929580135 0)
(3.084399048 -0.2989359181 0)
(3.085003288 -0.3056970597 0)
(3.085914535 -0.3095429934 0)
(3.087582701 -0.3116237046 0)
(3.088354611 -0.3163104439 0)
(3.088711634 -0.3230165812 0)
(3.089314435 -0.3262347482 0)
(3.09075147 -0.3269980212 0)
(3.091221631 -0.3312866263 0)
(3.091650649 -0.3382055788 0)
(3.092183099 -0.3408767118 0)
(3.093407207 -0.341820497 0)
(3.094513414 -0.3479808346 0)
(3.094605485 -0.3537883463 0)
(3.095372044 -0.3554211381 0)
(3.096715337 -0.3579193535 0)
(3.097279023 -0.3638073108 0)
(3.097400199 -0.3666784206 0)
(3.098174887 -0.3685888696 0)
(3.099334323 -0.3742396217 0)
(3.06801886 -0.2267324247 0)
(3.069196738 -0.235335321 0)
(3.070216757 -0.2403782236 0)
(3.072251391 -0.2440390906 0)
(3.073643751 -0.2494276943 0)
(3.074447383 -0.2566600129 0)
(3.075325005 -0.2618787933 0)
(3.077028025 -0.2650801679 0)
(3.078115195 -0.2686255663 0)
(3.078815964 -0.2753320253 0)
(3.079530155 -0.2809443435 0)
(3.081010217 -0.2838148435 0)
(3.082113106 -0.2859891321 0)
(3.082595825 -0.2920585374 0)
(3.083209155 -0.2982113868 0)
(3.084480299 -0.3010054206 0)
(3.085582227 -0.3023275222 0)
(3.086115573 -0.308368512 0)
(3.086796226 -0.3152373339 0)
(3.087794242 -0.3179959208 0)
(3.089128043 -0.3196323238 0)
(3.090150711 -0.3262971509 0)
(3.090338029 -0.3323045296 0)
(3.091284378 -0.3342264197 0)
(3.092634279 -0.3360943001 0)
(3.093332424 -0.3427979711 0)
(3.093320166 -0.3466147183 0)
(3.094278352 -0.3476536197 0)
(3.09547233 -0.352010323 0)
(3.095747607 -0.3571193598 0)
(3.096087967 -0.3597436906 0)
(3.097539893 -0.3651747563 0)
(3.065159111 -0.2138221787 0)
(3.066228073 -0.2203759363 0)
(3.067120882 -0.2277109855 0)
(3.068486749 -0.2316113244 0)
(3.070031997 -0.2342652644 0)
(3.070646559 -0.2398484146 0)
(3.071747456 -0.2473441043 0)
(3.073193572 -0.2525703985 0)
(3.075000239 -0.2556219259 0)
(3.075717551 -0.2598198507 0)
(3.076819229 -0.2675613832 0)
(3.077882398 -0.2732952559 0)
(3.079561893 -0.2761886867 0)
(3.080633557 -0.2795739759 0)
(3.081529562 -0.2870190913 0)
(3.082058615 -0.2926912852 0)
(3.083415584 -0.295407859 0)
(3.084759525 -0.2981195265 0)
(3.085585956 -0.3050795224 0)
(3.085773099 -0.3104351197 0)
(3.087018763 -0.3123721972 0)
(3.08815644 -0.3141428121 0)
(3.088820547 -0.3210510351 0)
(3.088912172 -0.3254516958 0)
(3.090059709 -0.3263547379 0)
(3.090985454 -0.329633839 0)
(3.091658833 -0.3366765963 0)
(3.091967433 -0.3395167419 0)
(3.09321419 -0.3414265311 0)
(3.094292116 -0.3467280434 0)
(3.094482799 -0.3503150583 0)
(3.09545967 -0.3550290209 0)
(3.061372765 -0.2025527653 0)
(3.06294949 -0.2060606016 0)
(3.064630978 -0.2147529236 0)
(3.065754843 -0.2221254536 0)
(3.067294302 -0.226495427 0)
(3.069220472 -0.2307934947 0)
(3.07038221 -0.2373143342 0)
(3.071261716 -0.2440436908 0)
(3.072506901 -0.2488430595 0)