/*--------------------------------*- C++ -*----------------------------------*\
  =========                 |
  \\      /  F ield         | OpenFOAM: The Open Source CFD Toolbox
   \\    /   O peration     | Website:  https://openfoam.org
    \\  /    A nd           | Version:  7
     \\/     M anipulation  |
\*---------------------------------------------------------------------------*/
FoamFile
{
    version     2.0;
    format      ascii;
    class       volScalarField;
    location    "0.2";
    object      T;
}
// * * * * * * * * * * * * * * * * * * * * * * * * * * * * * * * * * * * * * //

dimensions      [0 0 0 1 0 0 0];

internalField   nonuniform List<scalar> 5(1.0028353 1.015072867 1.003396354 1.014861743 1.003588018);

boundaryField
{
    inlet
    {
        type            fixedValue;
        value           nonuniform 0();
    }
    outlet
    {
        type            inletOutlet;
        inletValue      uniform 1;
        value           nonuniform List<scalar> 3(1.002690822 1.003244917 1.003442993);
    }
    bottom
    {
        type            slip;
    }
    top
    {
        type            slip;
    }
    obstacle
    {
        type            zeroGradient;
    }
    defaultFaces
    {
        type            empty;
    }
    procBoundary23to16
    {
        type            processor;
        value           nonuniform List<scalar> 2(1.022190502 1.024488671);
    }
    procBoundary23to17
    {
        type            processor;
        value           nonuniform List<scalar> 3(1.00226917 1.013778508 1.013778508);
    }
    procBoundary23to29
    {
        type            processor;
        value           nonuniform List<scalar> 2(1.015071426 1.003577759);
    }
}


// ************************************************************************* //
