/*--------------------------------*- C++ -*----------------------------------*\
  =========                 |
  \\      /  F ield         | OpenFOAM: The Open Source CFD Toolbox
   \\    /   O peration     | Website:  https://openfoam.org
    \\  /    A nd           | Version:  7
     \\/     M anipulation  |
\*---------------------------------------------------------------------------*/
FoamFile
{
    version     2.0;
    format      ascii;
    class       volVectorField;
    location    "2.8";
    object      U;
}
// * * * * * * * * * * * * * * * * * * * * * * * * * * * * * * * * * * * * * //

dimensions      [0 1 -1 0 0 0 0];

internalField   nonuniform List<vector> 
555
(
(3 -4.815273407e-15 0)
(3 -4.421908378e-15 0)
(3 -8.262263803e-15 0)
(3 -9.308108627e-15 0)
(3 -9.319043277e-15 0)
(3 -1.1229127e-14 0)
(3 -6.529375832e-17 0)
(3 -8.491676539e-16 0)
(3 -1.922188041e-15 0)
(3 -1.72341115e-15 0)
(3 -4.004165705e-15 0)
(3 -3.345067896e-15 0)
(3 -2.667202619e-15 0)
(3 -2.363823262e-15 0)
(3 -3.954982265e-15 0)
(3 -4.523622027e-15 0)
(3 -5.589710846e-15 0)
(3 -6.188651124e-15 0)
(3 -5.93044335e-15 0)
(3 -7.658040393e-15 0)
(3 -6.174105363e-15 0)
(3 -2.294400547e-15 0)
(3 7.399208291e-16 0)
(3 3.740175713e-15 0)
(3 6.775521929e-15 0)
(3 9.038930146e-15 0)
(3 9.214250664e-15 0)
(3 8.919987174e-15 0)
(3 5.274838885e-15 0)
(3 2.607796183e-15 0)
(3 1.577851022e-15 0)
(3 -1.529735442e-15 0)
(3 -3.008551498e-15 0)
(3 -6.826949187e-15 0)
(3 -8.90220167e-15 0)
(3 -8.754692392e-15 0)
(3 -9.1511683e-15 0)
(3 -9.069856333e-15 0)
(3 -8.112154828e-15 0)
(3 -1.092839283e-17 0)
(3 -2.523874554e-17 0)
(3 8.296725402e-16 0)
(3 1.128116034e-15 0)
(3 3.411345316e-15 0)
(3 4.25436184e-15 0)
(3 3.77908624e-15 0)
(3 9.554067105e-16 0)
(3 -2.550103943e-15 0)
(3 -3.630078652e-15 0)
(3 -3.231901316e-15 0)
(3 -2.861096458e-15 0)
(3 -1.191965546e-15 0)
(3 2.492936062e-16 0)
(3 2.625007753e-15 0)
(3 2.90202626e-15 0)
(3 6.067951465e-15 0)
(3 9.74229694e-15 0)
(3 1.549585935e-14 0)
(3 1.724885259e-14 0)
(3 1.553437187e-14 0)
(3 7.72228995e-15 0)
(3 2.395217293e-15 0)
(3 -2.999335886e-15 0)
(3 -5.319977623e-15 0)
(3 -3.782476756e-15 0)
(3 -4.602011798e-15 0)
(3 -6.883296082e-15 0)
(3 -7.049698866e-15 0)
(3 -6.352879193e-15 0)
(3 -4.816088966e-15 0)
(3 -5.086503485e-15 0)
(3 -1.965033079e-15 0)
(3 8.060715972e-17 0)
(3 6.704100732e-16 0)
(3 2.819065734e-15 0)
(3 5.825085457e-15 0)
(3 9.410366414e-15 0)
(3 1.194637033e-14 0)
(3 1.054525573e-14 0)
(3 7.700484833e-15 0)
(3 4.816361085e-15 0)
(3 2.016562924e-15 0)
(3 1.376309501e-15 0)
(3 1.234837646e-15 0)
(3 1.037964953e-15 0)
(3 2.81449429e-15 0)
(3 3.253379892e-15 0)
(3 -7.391694463e-17 0)
(3 -7.385693287e-16 0)
(3 3.648331891e-15 0)
(3 1.133145416e-14 0)
(3 1.370600863e-14 0)
(3 1.192041145e-14 0)
(3 8.219077085e-15 0)
(3 5.604322714e-15 0)
(3 -2.221119505e-15 0)
(3 -5.174608839e-15 0)
(3 -6.151615257e-15 0)
(3 -9.869402473e-15 0)
(3 -8.893397293e-15 0)
(3 -5.922604198e-15 0)
(3 -2.377007683e-15 0)
(3 2.126863981e-15 0)
(3 1.503594633e-15 0)
(3 3.664024966e-15 0)
(3 1.069407901e-16 0)
(3 1.508155339e-15 0)
(3 3.342290824e-15 0)
(3 6.423870533e-15 0)
(3 9.496423218e-15 0)
(3 1.371155989e-14 0)
(3 1.240989652e-14 0)
(3 1.115477703e-14 0)
(3 1.088609219e-14 0)
(3 8.284957488e-15 0)
(3 4.882502007e-15 0)
(3 4.864850889e-15 0)
(3 3.127353579e-15 0)
(3 2.046787668e-15 0)
(3 7.789668422e-16 0)
(3 -2.016292039e-15 0)
(3 -3.418507811e-15 0)
(3 -3.567219053e-15 0)
(3 -2.542492252e-15 0)
(3 -3.871527095e-15 0)
(3 -2.820720902e-15 0)
(3 -1.067231252e-16 0)
(3 8.113159678e-16 0)
(3 2.543212527e-15 0)
(3 3.966091398e-15 0)
(3 2.803278267e-15 0)
(3 1.225666908e-15 0)
(3 2.203994505e-15 0)
(3 2.007136342e-15 0)
(3 4.286361596e-15 0)
(3 5.197132693e-15 0)
(3 4.451530145e-15 0)
(3 4.945703864e-15 0)
(3 -8.666197147e-16 0)
(3 3.503456004e-16 0)
(3 4.107362089e-15 0)
(3 5.328339949e-15 0)
(3 5.457775084e-15 0)
(3 2.637493814e-15 0)
(3 -1.895671506e-16 0)
(3 -5.020268556e-17 0)
(3 1.124851365e-15 0)
(3 2.984783584e-15 0)
(3 1.30108622e-15 0)
(3 2.076234668e-15 0)
(3 3.018660814e-15 0)
(3 2.488477467e-15 0)
(3 2.089411178e-15 0)
(3 1.349579951e-15 0)
(3 -4.134279947e-16 0)
(3 -3.053064965e-15 0)
(3 -8.042132885e-15 0)
(3 -1.206548772e-14 0)
(3 -1.225748005e-14 0)
(3 -9.974531751e-15 0)
(3 -5.987627177e-15 0)
(3 -1.699594517e-16 0)
(3 1.397620889e-15 0)
(3 4.589423818e-15 0)
(3 6.86619455e-15 0)
(3 7.344651503e-15 0)
(3 8.785803779e-15 0)
(3 8.255831032e-15 0)
(3 8.762027142e-15 0)
(3 8.666798836e-15 0)
(3 7.43576884e-15 0)
(3 -2.357324128e-16 0)
(3 6.955861725e-16 0)
(3 2.166222733e-15 0)
(3 4.009672568e-15 0)
(3 3.245751279e-15 0)
(3 5.172678921e-16 0)
(3 -2.587456347e-15 0)
(3 -2.504819537e-15 0)
(3 -1.544694344e-15 0)
(3 1.446885891e-15 0)
(3 1.639699723e-15 0)
(3 3.245002452e-15 0)
(3 4.4961769e-15 0)
(3 4.501106798e-15 0)
(3 5.586737243e-15 0)
(3 7.75225723e-15 0)
(3 6.381437875e-15 0)
(3 3.249338887e-15 0)
(3 -3.912158329e-16 0)
(3 -5.563802182e-15 0)
(3 -5.954944057e-15 0)
(3 -2.643033375e-15 0)
(3 1.467061677e-15 0)
(3 2.306753962e-15 0)
(3 3.280893438e-15 0)
(3 2.93580236e-15 0)
(3 3.974242075e-15 0)
(3 4.165125826e-15 0)
(3 7.412908371e-15 0)
(3 6.315575816e-15 0)
(3 7.884402842e-15 0)
(3 9.210590039e-15 0)
(3 8.388666379e-15 0)
(3 2.503139141e-16 0)
(3 -7.087553001e-16 0)
(3 -2.200612537e-15 0)
(3 -7.140095769e-16 0)
(3 -1.54619139e-16 0)
(3 -1.100248261e-15 0)
(3 7.297932793e-16 0)
(3 2.191665356e-15 0)
(3 1.991204266e-15 0)
(3 2.004655913e-15 0)
(3 8.783235388e-16 0)
(3 -3.017959681e-16 0)
(3 -1.405858546e-15 0)
(3 -6.668605697e-16 0)
(3 1.49572204e-16 0)
(3 1.025467141e-15 0)
(3 -1.339151773e-16 0)
(3 -1.361570354e-15 0)
(3 2.391821967e-16 0)
(3 2.60325902e-15 0)
(3 6.766431551e-15 0)
(3 7.55159705e-15 0)
(3 1.046557732e-14 0)
(3 1.295530729e-14 0)
(3 1.199089757e-14 0)
(3 1.120740113e-14 0)
(3 1.050664183e-14 0)
(3 8.807831481e-15 0)
(3 3.975866749e-15 0)
(3 1.374117119e-15 0)
(3 -1.968751854e-15 0)
(3 6.901319113e-16 0)
(3 1.197825753e-15 0)
(3 1.685966856e-17 0)
(3 -1.266909691e-15 0)
(3 -4.685949976e-15 0)
(3 -5.923684911e-15 0)
(3 -5.870491755e-15 0)
(3 -4.660744169e-15 0)
(3 -7.373728652e-16 0)
(3 2.258427468e-15 0)
(3 2.789363495e-15 0)
(3 1.499375e-15 0)
(3 8.588763148e-16 0)
(3 -8.336936098e-16 0)
(3 -2.856749635e-15 0)
(3 -2.541177701e-15 0)
(3 -1.066065365e-15 0)
(3 -8.887464703e-16 0)
(3 3.58460908e-16 0)
(3 7.323018053e-17 0)
(3 3.554820577e-15 0)
(3 8.471585589e-15 0)
(3 1.108657664e-14 0)
(3 1.064998954e-14 0)
(3 1.292221032e-14 0)
(3 1.604556556e-14 0)
(3 1.740307607e-14 0)
(3 1.518997673e-14 0)
(3 1.223531976e-14 0)
(3 9.683239957e-15 0)
(3 7.408347683e-15 0)
(3 5.888335635e-15 0)
(3 2.293802971e-15 0)
(3 -3.987754815e-17 0)
(3 -7.267237633e-16 0)
(3 4.401718273e-16 0)
(3 1.531627692e-15 0)
(3 5.423881641e-16 0)
(3 -1.753684566e-15 0)
(3 -2.678352388e-15 0)
(3 -2.582558637e-15 0)
(3 -7.614877789e-16 0)
(3 8.840882159e-16 0)
(3 7.696214849e-16 0)
(3 -9.967563324e-16 0)
(3 -8.352565866e-16 0)
(3 -1.438970459e-15 0)
(3 1.926244223e-16 0)
(3 3.052294381e-15 0)
(3 4.80266225e-15 0)
(3 8.075510912e-15 0)
(3 1.35390784e-14 0)
(3 1.816203808e-14 0)
(3 1.996336608e-14 0)
(3 1.98581999e-14 0)
(3 1.893476812e-14 0)
(3 1.668891436e-14 0)
(3 1.423710022e-14 0)
(3 1.157867478e-14 0)
(3 1.063618437e-14 0)
(3 4.91127075e-15 0)
(3 1.83153348e-15 0)
(3 -7.134023934e-16 0)
(3 -7.540332034e-16 0)
(3 -1.924545326e-16 0)
(3 1.73303317e-15 0)
(3 -3.25462974e-16 0)
(3 -6.379623254e-15 0)
(3 7.343422836e-17 0)
(3 5.476469526e-16 0)
(3 2.035271327e-15 0)
(3 1.125428378e-15 0)
(3 -2.767999948e-16 0)
(3 -2.349466172e-15 0)
(3 -3.154826301e-15 0)
(3 -4.705211981e-15 0)
(3 -6.489338626e-15 0)
(3 -5.8491085e-15 0)
(3 -4.189907847e-15 0)
(3 -1.138684715e-15 0)
(3 3.791858181e-15 0)
(3 8.123744036e-15 0)
(3 1.148649367e-14 0)
(3 1.594521625e-14 0)
(3 2.346190385e-14 0)
(3 2.635659275e-14 0)
(3 2.502083643e-14 0)
(3 2.380660624e-14 0)
(3 1.927867882e-14 0)
(3 1.507321435e-14 0)
(3 9.22862286e-15 0)
(3 6.413788575e-15 0)
(3 -1.066594353e-15 0)
(3 -4.341380374e-15 0)
(3 -4.641916907e-15 0)
(3 -5.282355192e-15 0)
(3 -6.385160281e-15 0)
(3 -6.888816292e-15 0)
(3 -5.904161639e-15 0)
(3 -7.918190981e-15 0)
(3 -9.09611961e-15 0)
(3 5.229704942e-17 0)
(3 -3.093354495e-15 0)
(3 -3.332888211e-15 0)
(3 -3.348371963e-15 0)
(3 -2.302586995e-15 0)
(3 -1.708821719e-15 0)
(3 -2.531132594e-15 0)
(3 -4.850117098e-15 0)
(3 -4.160380034e-15 0)
(3 -2.536860098e-15 0)
(3 1.533334736e-15 0)
(3 4.26674179e-15 0)
(3 5.068701467e-15 0)
(3 4.335288492e-15 0)
(3 5.225629081e-15 0)
(3 5.883620863e-15 0)
(3 8.089548178e-15 0)
(3 8.958444699e-15 0)
(3 9.763060262e-15 0)
(3 8.264108493e-15 0)
(3 3.501720686e-15 0)
(3 -1.305319949e-16 0)
(3 -5.736882099e-15 0)
(3 -1.23559281e-14 0)
(3 -1.645953227e-14 0)
(3 -1.682947019e-14 0)
(3 -1.543148235e-14 0)
(3 -1.517872206e-14 0)
(3 -1.345825802e-14 0)
(3 -1.208931301e-14 0)
(3 -1.318612964e-14 0)
(3 -1.235789475e-14 0)
(3 -1.11295548e-14 0)
(3 7.512092482e-16 0)
(3 -7.556033087e-16 0)
(3 -1.276226397e-15 0)
(3 -2.38875856e-16 0)
(3 1.505877066e-15 0)
(3 9.639090241e-16 0)
(3 -5.303905739e-16 0)
(3 -1.563380364e-15 0)
(3 -6.755780471e-16 0)
(3 -8.763005369e-16 0)
(3 -9.977068208e-16 0)
(3 -6.002821427e-16 0)
(3 6.463278041e-16 0)
(3 8.440733953e-16 0)
(3 2.271063392e-15 0)
(3 1.610842414e-15 0)
(3 -1.410520483e-15 0)
(3 -1.604629208e-15 0)
(3 -3.345803034e-15 0)
(3 -7.093603163e-15 0)
(3 -1.166070102e-14 0)
(3 -1.515965651e-14 0)
(3 -1.640089918e-14 0)
(3 -1.834088922e-14 0)
(3 -1.982941266e-14 0)
(3 -2.143097622e-14 0)
(3 -2.153075551e-14 0)
(3 -2.11911812e-14 0)
(3 -1.809310029e-14 0)
(3 -1.372134556e-14 0)
(3 -9.128484476e-15 0)
(3 -6.935313057e-15 0)
(3 -7.254451363e-15 0)
(3 2.586092961e-16 0)
(3 9.64970736e-16 0)
(3 8.920579214e-16 0)
(3 1.482666451e-15 0)
(3 1.34752556e-15 0)
(3 5.832225201e-16 0)
(3 -2.537545075e-15 0)
(3 -3.333802105e-15 0)
(3 -3.009290114e-15 0)
(3 -4.319654533e-15 0)
(3 -3.25325417e-15 0)
(3 -3.176315489e-15 0)
(3 -2.614285198e-15 0)
(3 -2.873103113e-15 0)
(3 -4.744943645e-15 0)
(3 -7.677079708e-15 0)
(3 -8.39289388e-15 0)
(3 -1.197904282e-14 0)
(3 -1.425460235e-14 0)
(3 -1.437802826e-14 0)
(3 -1.317151222e-14 0)
(3 -9.844814253e-15 0)
(3 -9.567672792e-15 0)
(3 -8.788002002e-15 0)
(3 -1.199708259e-14 0)
(3 -1.452615317e-14 0)
(3 -2.040336857e-14 0)
(3 -1.768390233e-14 0)
(3 -1.580102471e-14 0)
(3 -1.314464148e-14 0)
(3 -7.46992293e-15 0)
(3 -7.515751193e-15 0)
(3 -6.118217049e-15 0)
(3 -2.113800066e-15 0)
(3 -1.817568495e-15 0)
(3 -1.325882003e-15 0)
(3 -1.03171204e-15 0)
(3 -2.832674013e-15 0)
(3 -3.708492465e-15 0)
(3 -4.286037863e-15 0)
(3 -4.679041277e-15 0)
(3 -4.178169737e-15 0)
(3 -5.962519948e-15 0)
(3 -5.973036641e-15 0)
(3 -6.481928517e-15 0)
(3 -8.689355816e-15 0)
(3 -1.139974495e-14 0)
(3 -1.384297571e-14 0)
(3 -1.424174768e-14 0)
(3 -1.504978771e-14 0)
(3 -1.424962701e-14 0)
(3 -1.325388673e-14 0)
(3 -9.564340749e-15 0)
(3 -4.823899e-15 0)
(3 1.499588041e-16 0)
(3 1.486326866e-15 0)
(3 3.318889003e-15 0)
(3 4.042924281e-15 0)
(3 8.799250066e-16 0)
(3 -7.694855581e-16 0)
(3 -8.111103686e-16 0)
(3 -6.439532224e-15 0)
(3 -1.101181002e-14 0)
(3 -1.22873691e-14 0)
(3 -1.17259284e-14 0)
(3 -9.590369615e-15 0)
(3 -1.099777507e-15 0)
(3 -1.499209825e-15 0)
(3 -2.05208185e-15 0)
(3 -2.530888339e-15 0)
(3 -3.658059398e-15 0)
(3 -3.551002989e-15 0)
(3 -1.747907683e-15 0)
(3 -2.216217037e-15 0)
(3 -4.700658507e-15 0)
(3 -4.239449981e-15 0)
(3 -4.697928518e-15 0)
(3 -5.80748555e-15 0)
(3 -5.561879515e-15 0)
(3 -4.862354165e-15 0)
(3 -6.619926265e-15 0)
(3 -5.462733822e-15 0)
(3 -4.437984486e-15 0)
(3 -4.00227311e-15 0)
(3 -3.334721809e-15 0)
(3 -1.201036583e-15 0)
(3 4.093192987e-15 0)
(3 4.74022849e-15 0)
(3 8.142434311e-15 0)
(3 8.763375385e-15 0)
(3 1.329567184e-14 0)
(3 1.299082282e-14 0)
(3 1.60287355e-14 0)
(3 1.151028136e-14 0)
(3 3.217424131e-16 0)
(3 -3.989789065e-15 0)
(3 -6.19890358e-15 0)
(3 -5.537718932e-15 0)
(3 -5.140504329e-15 0)
(3 1.518690517e-15 0)
(3 1.415843808e-15 0)
(3 -1.27937895e-15 0)
(3 -5.292266666e-15 0)
(3 -4.328618458e-15 0)
(3 -3.236690449e-15 0)
(3 1.383700682e-16 0)
(3 2.21877395e-15 0)
(3 9.122392842e-16 0)
(3 1.523298579e-15 0)
(3 7.753603928e-16 0)
(3 3.612322632e-16 0)
(3 1.5562388e-16 0)
(3 -4.398553744e-16 0)
(3 -1.458903513e-15 0)
(3 -2.502049819e-15 0)
(3 -2.670085921e-15 0)
(3 -1.505665196e-15 0)
(3 1.699594868e-15 0)
(3 4.37364077e-15 0)
(3 2.122918959e-15 0)
(3 -2.415591462e-16 0)
(3 2.133259832e-15 0)
(3 6.089727436e-15 0)
(3 9.025546308e-15 0)
(3 1.078621705e-14 0)
(3 9.818441197e-15 0)
(3 6.620226611e-15 0)
(3 2.784040043e-15 0)
(3 2.808745052e-15 0)
(3 -2.735033424e-16 0)
(3 2.804485471e-15 0)
(3 2.782879094e-15 0)
(3 4.117974891e-16 0)
(3 1.176833631e-15 0)
(3 1.216798949e-15 0)
(3 -2.619638938e-16 0)
(3 -1.943955188e-15 0)
(3 -7.994757709e-16 0)
(3 2.760012e-15 0)
(3 2.960311451e-15 0)
(3 5.075854819e-15 0)
(3 4.898939553e-15 0)
(3 2.418469257e-15 0)
(3 -1.173530078e-15 0)
(3 -2.126914883e-15 0)
(3 -1.305560576e-15 0)
(3 -1.189149589e-15 0)
(3 -2.154643556e-15 0)
(3 -2.095089823e-15 0)
(3 5.435846707e-17 0)
(3 2.502510646e-15 0)
(3 1.176502316e-15 0)
(3 -3.40777803e-15 0)
)
;

boundaryField
{
    inlet
    {
        type            fixedValue;
        value           uniform (3 0 0);
    }
    outlet
    {
        type            inletOutlet;
        inletValue      nonuniform 0();
        value           nonuniform 0();
    }
    bottom
    {
        type            slip;
    }
    top
    {
        type            slip;
    }
    obstacle
    {
        type            slip;
    }
    defaultFaces
    {
        type            empty;
    }
    procBoundary6to0
    {
        type            processor;
        value           nonuniform List<vector> 
34
(
(3 4.667793952e-15 0)
(3 4.362692409e-15 0)
(3 7.762048307e-16 0)
(3 -6.421103308e-15 0)
(3 -8.709317702e-15 0)
(3 -1.091801659e-14 0)
(3 -9.019469749e-16 0)
(3 -3.083159665e-15 0)
(3 -4.58353835e-15 0)
(3 -5.124654643e-15 0)
(3 -9.65452015e-15 0)
(3 -1.099632045e-14 0)
(3 -8.406493326e-15 0)
(3 -5.005920342e-15 0)
(3 -1.655755702e-15 0)
(3 -8.466883447e-16 0)
(3 -2.414682582e-15 0)
(3 -3.033762798e-15 0)
(3 -2.509075603e-15 0)
(3 -2.142577818e-15 0)
(3 -3.018994166e-15 0)
(3 -2.232980002e-15 0)
(3 -3.472248606e-15 0)
(3 -3.923124701e-15 0)
(3 -5.228844978e-15 0)
(3 -2.019952284e-15 0)
(3 -7.368995082e-16 0)
(3 1.39444309e-15 0)
(3 3.092719323e-15 0)
(3 3.98514849e-15 0)
(3 5.722656036e-15 0)
(3 4.09247087e-15 0)
(3 -9.7246274e-17 0)
(3 -9.7246274e-17 0)
)
;
    }
    procBoundary6to1
    {
        type            processor;
        value           uniform (3 -1.222617614e-14 0);
    }
    procBoundary6to7
    {
        type            processor;
        value           nonuniform List<vector> 
16
(
(3 -8.448551663e-15 0)
(3 -1.430168685e-15 0)
(3 4.446628685e-15 0)
(3 4.650129016e-15 0)
(3 6.972841464e-15 0)
(3 4.420964256e-15 0)
(3 2.163230327e-15 0)
(3 -2.408654409e-15 0)
(3 -9.53666735e-15 0)
(3 -9.464412051e-15 0)
(3 -9.619270787e-15 0)
(3 -8.68492872e-15 0)
(3 -8.090010966e-15 0)
(3 -8.636997454e-15 0)
(3 -3.624782713e-15 0)
(3 3.131351185e-15 0)
)
;
    }
    procBoundary6to12
    {
        type            processor;
        value           nonuniform List<vector> 
34
(
(3 -3.665016522e-15 0)
(3 -5.524129055e-15 0)
(3 -1.974061137e-15 0)
(3 1.148954365e-15 0)
(3 3.882896674e-15 0)
(3 3.244909025e-15 0)
(3 3.750664318e-15 0)
(3 6.177832605e-15 0)
(3 5.268287915e-15 0)
(3 4.602968563e-15 0)
(3 4.789201027e-15 0)
(3 5.760566532e-15 0)
(3 -1.118979891e-17 0)
(3 -6.956476279e-16 0)
(3 1.592574799e-16 0)
(3 1.457573482e-15 0)
(3 -7.2518801e-16 0)
(3 7.565808588e-17 0)
(3 1.756938895e-17 0)
(3 -2.476051914e-16 0)
(3 1.471520851e-15 0)
(3 1.222064317e-15 0)
(3 7.080391406e-16 0)
(3 -6.157843348e-16 0)
(3 -1.225286233e-16 0)
(3 4.769431858e-16 0)
(3 -7.346656393e-16 0)
(3 4.610018712e-16 0)
(3 6.464723959e-16 0)
(3 4.647942194e-17 0)
(3 -3.830043306e-15 0)
(3 -9.450504275e-15 0)
(3 -3.665016522e-15 0)
(3 -9.472788488e-15 0)
)
;
    }
}


// ************************************************************************* //
