/*--------------------------------*- C++ -*----------------------------------*\
  =========                 |
  \\      /  F ield         | OpenFOAM: The Open Source CFD Toolbox
   \\    /   O peration     | Website:  https://openfoam.org
    \\  /    A nd           | Version:  7
     \\/     M anipulation  |
\*---------------------------------------------------------------------------*/
FoamFile
{
    version     2.0;
    format      ascii;
    class       volVectorField;
    location    "3.1";
    object      U;
}
// * * * * * * * * * * * * * * * * * * * * * * * * * * * * * * * * * * * * * //

dimensions      [0 1 -1 0 0 0 0];

internalField   nonuniform List<vector> 
138
(
(3 2.598375229e-12 0)
(3 4.95343576e-12 0)
(3 8.618214405e-12 0)
(3 1.077386413e-11 0)
(3 1.278572149e-11 0)
(3 2.054025252e-11 0)
(3 2.083586931e-11 0)
(3 1.983429698e-11 0)
(3 2.394912304e-11 0)
(3 -5.917019692e-12 0)
(3 1.254754945e-10 0)
(3 -5.835314345e-10 0)
(3 1.906689194e-11 0)
(3 1.92642955e-11 0)
(3 1.947106216e-11 0)
(3 1.995053417e-11 0)
(3 1.738636114e-11 0)
(3 7.947397787e-11 0)
(3 -5.574283546e-10 0)
(3 5.999234059e-10 0)
(2.999999996 -8.537041776e-09 0)
(2.999999987 -1.719176206e-08 0)
(2.999999888 -1.99155798e-07 0)
(2.999999592 -6.161923136e-07 0)
(2.999997786 -3.924309816e-06 0)
(2.999993162 -1.113965566e-05 0)
(2.999971892 -5.044438148e-05 0)
(2.999927159 -0.0001885296059 0)
(2.999862455 -0.0002748051386 0)
(3 4.210250754e-11 0)
(3 -5.945243713e-11 0)
(3 2.829656912e-10 0)
(2.999999999 -2.125474084e-09 0)
(2.999999993 -8.588516982e-09 0)
(2.999999952 -7.524119543e-08 0)
(2.99999978 -3.31508279e-07 0)
(2.999999016 -1.608956932e-06 0)
(2.999996465 -5.69608907e-06 0)
(2.999987625 -2.125097168e-05 0)
(2.999961852 -6.377506438e-05 0)
(2.999888079 -0.0001983381362 0)
(2.999697753 -0.0005267993746 0)
(2.999276687 -0.001352128632 0)
(2.998367269 -0.003030877674 0)
(2.996732992 -0.006576644531 0)
(2.994343879 -0.01101052511 0)
(2.999999984 -2.316501221e-08 0)
(2.999999908 -1.324413627e-07 0)
(2.999999529 -7.409198984e-07 0)
(2.999998102 -3.007092897e-06 0)
(2.99999292 -1.182800501e-05 0)
(2.999977891 -3.733600954e-05 0)
(2.999934254 -0.000114582247 0)
(2.999831237 -0.0003002894631 0)
(2.99957138 -0.0007802481892 0)
(2.999080014 -0.001715149186 0)
(2.997911105 -0.004017776216 0)
(2.996222647 -0.007441299593 0)
(2.992368187 -0.01551000948 0)
(2.988868769 -0.02353361732 0)
(2.979844867 -0.04470969279 0)
(2.975822926 -0.05636853241 0)
(2.960472784 -0.09073263212 0)
(2.999988105 -2.01064465e-05 0)
(2.999961562 -6.926572143e-05 0)
(2.999893526 -0.0001915180408 0)
(2.999725289 -0.0005255627735 0)
(2.99938498 -0.001186498755 0)
(2.998706813 -0.002650464686 0)
(2.997446913 -0.005277621505 0)
(2.995517419 -0.00965610847 0)
(2.991918308 -0.01780759188 0)
(2.987726345 -0.02865770969 0)
(2.980535777 -0.0473307334 0)
(2.975452516 -0.06224896495 0)
(2.962288242 -0.09718497022 0)
(2.957614224 -0.1138595639 0)
(2.943992128 -0.1504851018 0)
(2.941049502 -0.1621368418 0)
(2.925848369 -0.196928602 0)
(2.999055911 -0.002047423597 0)
(2.998201891 -0.004120501361 0)
(2.996472731 -0.008246270895 0)
(2.994316306 -0.01384400122 0)
(2.990114357 -0.0254257262 0)
(2.986947019 -0.03617083417 0)
(2.978987295 -0.05884850333 0)
(2.975230893 -0.07627965666 0)
(2.962732544 -0.115345123 0)
(2.961683394 -0.1324131706 0)
(2.948051358 -0.1784499343 0)
(2.945942434 -0.1912476031 0)
(2.931919833 -0.2262362808 0)
(2.931989789 -0.2321713281 0)
(2.916180516 -0.2603316697 0)
(2.911837112 -0.2642156034 0)
(2.903947354 -0.2791029747 0)
(2.988447004 -0.03054737898 0)
(2.985388394 -0.04157029984 0)
(2.979019715 -0.06103351288 0)
(2.973948035 -0.0783312266 0)
(2.967969091 -0.1027159882 0)
(2.965575933 -0.1181368956 0)
(2.95782781 -0.1480782335 0)
(2.956215991 -0.1640634461 0)
(2.947024744 -0.1899274329 0)
(2.939108517 -0.2103027704 0)
(2.93143933 -0.2267543732 0)
(2.928415786 -0.2350978169 0)
(2.912107932 -0.2526953842 0)
(2.905452782 -0.2619165845 0)
(2.902641623 -0.2617826101 0)
(2.899627021 -0.263043021 0)
(2.898801586 -0.2657901461 0)
(2.929504194 -0.1747260964 0)
(2.924228167 -0.1987844726 0)
(2.911053978 -0.2297114919 0)
(2.903897324 -0.2517114257 0)
(2.889643597 -0.2829168118 0)
(2.884244441 -0.294367176 0)
(2.875346483 -0.3149911087 0)
(2.869287424 -0.3122100874 0)
(2.865235978 -0.3114311958 0)
(2.861423942 -0.3059505549 0)
(2.857363894 -0.2982542219 0)
(2.857447536 -0.290261196 0)
(2.859702852 -0.2860597367 0)
(2.861772129 -0.2822386293 0)
(2.867015082 -0.2792280131 0)
(2.870901516 -0.2750141314 0)
(2.874253395 -0.2718096409 0)
(2.853840784 -0.2573804296 0)
(2.854954908 -0.2603943634 0)
(2.857357899 -0.2643422154 0)
(2.860600686 -0.2623433908 0)
(2.860908942 -0.2650305049 0)
(2.86163158 -0.261229348 0)
(2.86165752 -0.2645299789 0)
)
;

boundaryField
{
    inlet
    {
        type            fixedValue;
        value           nonuniform 0();
    }
    outlet
    {
        type            inletOutlet;
        inletValue      nonuniform 0();
        value           nonuniform 0();
    }
    bottom
    {
        type            slip;
    }
    top
    {
        type            slip;
    }
    obstacle
    {
        type            slip;
    }
    defaultFaces
    {
        type            empty;
    }
    procBoundary14to7
    {
        type            processor;
        value           uniform (3 9.292406406e-13 0);
    }
    procBoundary14to8
    {
        type            processor;
        value           nonuniform List<vector> 
18
(
(3 4.552005402e-14 0)
(3 2.35782358e-13 0)
(3 6.503467985e-13 0)
(3 1.672785619e-12 0)
(3 2.726327932e-12 0)
(3 5.056291922e-12 0)
(3 7.749936872e-12 0)
(3 1.09706257e-11 0)
(3 1.475367542e-11 0)
(3 1.381410407e-11 0)
(3 1.468328106e-11 0)
(3 1.44612798e-11 0)
(2.999999999 -6.11305453e-10 0)
(2.999999999 -6.11305453e-10 0)
(2.999999991 -1.567690437e-08 0)
(2.999999953 -6.791973282e-08 0)
(2.999999211 -1.841509213e-06 0)
(3.000000784 1.532553494e-06 0)
)
;
    }
    procBoundary14to9
    {
        type            processor;
        value           nonuniform List<vector> 8((2.997356256 -0.006469704715 0) (2.980818431 -0.05461932629 0) (2.957078593 -0.1398185311 0) (2.924904448 -0.2215366735 0) (2.896963006 -0.2740390997 0) (2.896443765 -0.2677802622 0) (2.8915965 -0.2394589472 0) (2.954792028 0.0311444634 0));
    }
    procBoundary14to13
    {
        type            processor;
        value           nonuniform List<vector> 7((3 1.195345593e-11 0) (3 3.126869672e-11 0) (2.999999999 -1.248946338e-09 0) (2.999996656 -5.61937156e-06 0) (2.999588065 -0.0008327635784 0) (2.992230046 -0.0190861548 0) (2.947165538 -0.132157387 0));
    }
    procBoundary14to20
    {
        type            processor;
        value           nonuniform List<vector> 
11
(
(2.898219264 -0.1147439674 0)
(2.899243471 -0.1199381464 0)
(2.884724935 -0.143018921 0)
(2.879627876 -0.1625426429 0)
(2.873852034 -0.1774687306 0)
(2.87036393 -0.192902111 0)
(2.866192665 -0.2098846818 0)
(2.859636332 -0.2237018963 0)
(2.855997368 -0.2355198482 0)
(2.854576961 -0.246812299 0)
(2.854576961 -0.246812299 0)
)
;
    }
}


// ************************************************************************* //
