/*--------------------------------*- C++ -*----------------------------------*\
  =========                 |
  \\      /  F ield         | OpenFOAM: The Open Source CFD Toolbox
   \\    /   O peration     | Website:  https://openfoam.org
    \\  /    A nd           | Version:  7
     \\/     M anipulation  |
\*---------------------------------------------------------------------------*/
FoamFile
{
    version     2.0;
    format      ascii;
    class       volScalarField;
    location    "1.9";
    object      rho;
}
// * * * * * * * * * * * * * * * * * * * * * * * * * * * * * * * * * * * * * //

dimensions      [1 -3 0 0 0 0 0];

internalField   nonuniform List<scalar> 
2222
(
1.173157662
1.157384179
1.166122364
1.178277904
1.170069609
1.163113795
1.169290423
1.177864849
1.177975941
1.178943176
1.18388182
1.186307833
1.186064896
1.188838666
1.193977729
1.197312193
1.196329388
1.194902553
1.197340359
1.203075855
1.205344858
1.20493667
1.204232712
1.203261936
1.20235563
1.200077174
1.199152798
0.4238962154
0.4275739625
0.5707773845
0.9791171171
1.169802546
1.133503294
1.166361006
1.181944466
1.16104956
1.16064123
1.177483299
1.178451782
1.164916352
1.168415001
1.177583516
1.180383527
1.180810029
1.185285348
1.190617919
1.192709897
1.196105808
1.199119091
1.198724863
1.1958768
1.194224119
1.196537656
1.201897815
1.20509266
1.205719431
1.206086649
1.206332426
1.205925509
1.2034787
1.203201885
0.4243918406
0.4286864601
0.4307291105
0.8341394026
1.154665086
1.143567478
1.151231635
1.181952632
1.172060537
1.15970202
1.170626973
1.181749627
1.173363048
1.168468578
1.177403265
1.184243919
1.184529729
1.188507522
1.195195599
1.197708811
1.199617602
1.200461973
1.199314472
1.194698873
1.192891688
1.195253446
1.200834959
1.20490147
1.207535749
1.208873248
1.209704979
1.209382499
1.207570497
1.207393608
0.4266950349
0.4290115887
0.431915039
0.575943795
0.9974205236
1.165274294
1.132944951
1.177584828
1.186118366
1.162109829
1.163624172
1.182842762
1.183215719
1.172597785
1.177803343
1.18700032
1.188740083
1.190567694
1.195803259
1.198564584
1.200174394
1.200490019
1.199689428
1.194590957
1.192058577
1.194446842
1.200553688
1.206772116
1.210405821
1.212156373
1.212688755
1.212077691
1.210455181
1.209584565
0.43207119
0.430956934
0.4329440523
0.4353065426
0.8323635056
1.159184984
1.120829006
1.167264787
1.190508724
1.173490156
1.163221638
1.175992328
1.187329217
1.17982707
1.178698964
1.186684187
1.191281572
1.191386512
1.195418223
1.197995892
1.199643091
1.200151877
1.19919236
1.195508718
1.193394407
1.196073713
1.202996268
1.20873637
1.211679342
1.21304284
1.213232868
1.212619316
1.211333525
1.210316043
0.4352308849
0.4360638244
0.4370217834
0.4379021931
0.5923108005
1.05199133
1.138618204
1.146965105
1.191563126
1.190016336
1.164920266
1.167837238
1.188161589
1.187471051
1.180088768
1.185595491
1.192239721
1.192252419
1.194384393
1.196672555
1.198119566
1.199342935
1.199203731
1.198085215
1.199704149
1.203776952
1.207824699
1.209700628
1.211461876
1.212843696
1.212898487
1.212298287
1.211041126
1.210436811
0.4361349379
0.4394068731
0.441651863
0.443981541
0.4428338201
0.8430606864
1.151615267
1.124992316
1.182560866
1.196990937
1.175821507
1.166982428
1.181385867
1.190548893
1.182342977
1.184513003
1.191525628
1.193854646
1.193535373
1.195255446
1.198104625
1.1995714
1.200385414
1.20203171
1.207461892
1.212927569
1.213568338
1.211247989
1.211287473
1.212252751
1.212102955
1.211097774
1.209928887
1.210355333
0.4407064168
0.4435895858
0.4460454775
0.4477612327
0.6137809367
1.104594442
1.111383991
1.156666404
1.199110931
1.193560666
1.168359341
1.172879893
1.190703463
1.186749971
1.184498585
1.190682992
1.195662582
1.195395233
1.19623366
1.199132404
1.201342557
1.203482549
1.206049915
1.210651437
1.217912847
1.218055296
1.213660541
1.210491609
1.210919284
1.210863805
1.210010162
1.209756664
1.211028287
0.4412568426
0.4441345262
0.4465990648
0.4505968097
0.4513403046
0.8822035497
1.14538917
1.132015224
1.193398602
1.201993773
1.178546551
1.171635684
1.186961397
1.191299803
1.185827496
1.19026842
1.197455466
1.197897918
1.199454026
1.202709507
1.206000648
1.206226575
1.206612472
1.210969166
1.219523879
1.219884731
1.215885361
1.212455983
1.211734928
1.211286274
1.210246149
1.210813944
1.213947607
1.219746442
0.4422502413
0.4447706263
0.4469574872
0.4504367231
0.4540033886
0.6333379482
1.116293489
1.115305873
1.172567989
1.204704857
1.196816017
1.172428555
1.180504485
1.193826214
1.189301448
1.19134295
1.198871537
1.201719791
1.203954269
1.207187993
1.209600452
1.207059577
1.206151191
1.210810072
1.219098725
1.2193469
1.216492395
1.213749535
1.213129065
1.212945035
1.212829934
1.215163963
1.219756035
1.225446473
0.4463874513
0.4466167843
0.4486532939
0.4509592953
0.4554191913
0.4573818618
0.9294518246
1.142183632
1.144967768
1.200762808
1.205402961
1.180733999
1.179354598
1.195034934
1.194362061
1.194006981
1.200105725
1.204903899
1.206986201
1.209586413
1.211027298
1.20827848
1.206812893
1.211129189
1.218894515
1.219117404
1.216888917
1.215423381
1.215356868
1.216313111
1.217683522
1.220269622
1.223344078
1.227664451
0.4514582313
0.451922543
0.4536882817
0.4543039782
0.4564164291
0.4580023211
0.6551050299
1.118872117
1.12380667
1.180135907
1.208359733
1.198124284
1.179688734
1.192332579
1.199662794
1.196640492
1.200435036
1.206145502
1.207974359
1.210139273
1.211969297
1.209951199
1.208448115
1.212589003
1.219341006
1.21994128
1.217964707
1.2180235
1.218670687
1.220656555
1.221430743
1.222292991
1.224313376
1.227781807
0.453648068
0.4558476898
0.4577207019
0.4596882603
0.4610773239
0.4626950687
0.4690261606
0.9663580557
1.133737929
1.152076883
1.205491833
1.208718824
1.183769075
1.18850603
1.201527634
1.198983937
1.200646948
1.205989279
1.20777379
1.210264053
1.212748154
1.210678004
1.209632504
1.21408535
1.219922841
1.221244264
1.219172729
1.22000622
1.221313627
1.221850262
1.221896799
1.22262155
1.224763147
1.227190379
0.4543960933
0.4573995691
0.4594090574
0.4622533136
0.4650367815
0.4678766041
0.4669877001
0.6888362918
1.125731779
1.134466436
1.185519114
1.212151353
1.195050417
1.18742119
1.201110536
1.201571504
1.201672051
1.20562544
1.207623051
1.210596261
1.213087145
1.210371794
1.209549253
1.214314776
1.220485391
1.220478135
1.2194002
1.22027343
1.221711944
1.221802308
1.221640774
1.222389996
1.224838731
1.226986359
0.4551419131
0.4578964805
0.4599199221
0.4630910427
0.466583662
0.4695530032
0.4712642959
0.4856091669
1.001517214
1.141841465
1.157202336
1.20979838
1.207707396
1.18749916
1.198427931
1.204880651
1.203758456
1.205763442
1.208561192
1.211629854
1.213424054
1.209650542
1.208718896
1.213769433
1.219635297
1.21982099
1.219423703
1.220407029
1.221808996
1.221679797
1.221264731
1.222157572
1.225161447
1.227641119
0.4589706729
0.4608451943
0.4635111459
0.4670519368
0.4701608755
0.473319558
0.4739895001
0.7197101806
1.13835288
1.140053706
1.195531073
1.213311514
1.190478689
1.194379497
1.206658229
1.206020905
1.206966447
1.210901588
1.213824305
1.21355786
1.207528939
1.206951911
1.212992104
1.219105766
1.219442478
1.219494177
1.220961252
1.22211951
1.221487047
1.221077122
1.222303978
1.2261732
1.230381793
0.4636510038
0.4647116357
0.4655414958
0.4678327995
0.4708093729
0.4733417055
0.4759349307
0.501394585
1.022560617
1.149333043
1.168373887
1.212153237
1.198943378
1.193188817
1.207387242
1.208346782
1.209159275
1.213167459
1.215529897
1.213755016
1.206918432
1.206613584
1.212986658
1.220054093
1.219948008
1.220141954
1.221937179
1.223105487
1.22223384
1.222003334
1.223964556
1.229350489
1.23575174
0.4688460918
0.4699700463
0.4711033781
0.4714278779
0.4732661184
0.4749851611
0.4776959229
0.4794499722
0.7473246297
1.147426966
1.14334767
1.206179492
1.210754965
1.193151926
1.205963955
1.210655397
1.211224909
1.213909797
1.216572101
1.214725703
1.20712167
1.208362163
1.218577433
1.224970392
1.223170253
1.222504754
1.224040991
1.225431559
1.224998372
1.225559802
1.228719702
1.235058669
1.239980718
0.471033421
0.4723896578
0.4746180409
0.4764560114
0.4785912608
0.4803680679
0.4800236267
0.4808189315
0.518998975
1.039968985
1.138696425
1.190967945
1.21481353
1.195108571
1.202666656
1.211708173
1.2123645
1.213700173
1.217200926
1.217001838
1.213342171
1.21757261
1.229283046
1.231898447
1.226901322
1.224876481
1.226402087
1.228332908
1.228846069
1.230153146
1.233284767
1.238100386
1.240985752
0.4716862304
0.472926179
0.4758184276
0.4786690414
0.4815835746
0.4839911591
0.4853395832
0.4847899842
0.484928172
0.7815187483
1.152195018
1.156472921
1.212979575
1.202995267
1.198963484
1.21116368
1.212672629
1.213224075
1.217251994
1.219974475
1.220123348
1.226740493
1.236147425
1.235600323
1.228537565
1.225946942
1.227382621
1.23027846
1.231498792
1.232772974
1.235435377
1.238894358
1.240594296
0.4725425104
0.4735027096
0.4760075567
0.4791808281
0.4825823671
0.4852225902
0.487715201
0.4890133589
0.4877167477
0.5460483269
1.066447478
1.131967926
1.209444875
1.212718115
1.197165492
1.210197254
1.212496176
1.212816261
1.217660408
1.222008186
1.223024646
1.230086462
1.237473828
1.235903087
1.228283804
1.225914697
1.227411332
1.231067983
1.232528673
1.233813757
1.236494067
1.239548437
1.239514949
0.4770779639
0.4762212283
0.4772802381
0.4798330098
0.48307263
0.4856657031
0.4882521211
0.4908351251
0.4919331423
0.4903450886
0.8270050712
1.136749737
1.189749365
1.214773575
1.196050139
1.207957616
1.212703974
1.214221066
1.21889993
1.221595304
1.222186486
1.229695661
1.237016909
1.235236628
1.227648428
1.225724135
1.227382059
1.231497946
1.233074323
1.234300418
1.236899851
1.239845896
1.240099643
0.4836065395
0.482888516
0.4826232252
0.4832953696
0.4847857756
0.4869405647
0.4888454511
0.4911173996
0.4940447558
0.4937478094
0.5860634426
1.084902986
1.14050032
1.21315104
1.201232064
1.204500439
1.212840455
1.218023652
1.220279907
1.21656177
1.214798419
1.225401522
1.234611498
1.23291642
1.226344955
1.225850888
1.227917173
1.232325927
1.233869682
1.234863735
1.237309351
1.239749568
1.240807328
0.4870237209
0.4879745699
0.4893397312
0.4903567362
0.4916682082
0.4915662806
0.4923310136
0.4946563801
0.4967158524
0.4958109471
0.8958590982
1.106785977
1.209402739
1.211780213
1.201083415
1.212718202
1.219957202
1.22059262
1.21310809
1.207590877
1.219202921
1.231148401
1.230314756
1.225825984
1.22664513
1.229797037
1.234116677
1.235155744
1.235873031
1.238275261
1.240676886
1.243093362
0.4886661946
0.4902629046
0.4922441327
0.494118426
0.496278309
0.4970978099
0.4970339113
0.4960933233
0.498150252
0.4988498864
0.639126608
1.088317249
1.180903531
1.216559391
1.198417417
1.212178814
1.21984397
1.221099459
1.211711479
1.204829458
1.216309501
1.22945708
1.229235859
1.226883987
1.228806557
1.232759032
1.236662584
1.237153802
1.237757978
1.240431829
1.243928262
1.247738103
1.249794074
0.4892339766
0.4908904002
0.4931049103
0.4953393384
0.4980119499
0.5000417034
0.5014786513
0.5013164952
0.4993616738
0.5002501394
0.5064587494
0.9670055014
1.121933377
1.215179654
1.198581006
1.211295878
1.217971468
1.224110389
1.215559903
1.20491302
1.216313939
1.229517571
1.229488635
1.229581255
1.231715139
1.235416181
1.238575402
1.239220232
1.240402152
1.243645168
1.247449943
1.25010677
1.250306659
0.4904608767
0.4915344574
0.4934625488
0.495462352
0.4983308428
0.5009188364
0.5030946349
0.5049246183
0.5043620122
0.5020083278
0.502720576
0.7130201198
1.069874682
1.209594773
1.209361475
1.209673953
1.215278175
1.228735496
1.222671992
1.212294672
1.222143161
1.232350481
1.231505413
1.232020213
1.233404415
1.236120801
1.238928217
1.240145172
1.241675935
1.245148454
1.248333915
1.249914432
1.250054189
0.4952024637
0.4936908846
0.4948064047
0.4967017932
0.4993570524
0.5013827338
0.5033656761
0.5060003886
0.5078872304
0.5064988383
0.5041749784
0.5292931986
1.004857374
1.165555076
1.218514866
1.203017571
1.213929377
1.23066228
1.226029778
1.223718074
1.234128684
1.238583585
1.234469279
1.23285999
1.233393562
1.235998069
1.238987188
1.2405713
1.242439625
1.245843242
1.248394432
1.249367214
1.249505226
0.5019205859
0.4998775336
0.4987871937
0.5004349763
0.5027071392
0.5032689241
0.5043478518
0.5064293584
0.5089583709
0.5103479747
0.5088474933
0.5076313206
0.8095057699
1.087614736
1.21790452
1.196362584
1.215614113
1.230461571
1.226191402
1.227870484
1.242102033
1.242171209
1.23587834
1.233484524
1.233026877
1.235451686
1.239125897
1.241064482
1.243309701
1.246569751
1.248471493
1.248943306
1.249160976
0.5052027178
0.5048877231
0.5040312619
0.5060527392
0.5084961204
0.5086227391
0.5081598974
0.5081550939
0.5096025126
0.5117555385
0.5127626471
0.5107807405
0.5672314021
1.016090633
1.209841894
1.196774703
1.22187497
1.220130403
1.21951802
1.228753911
1.247810119
1.242761896
1.235318856
1.23492361
1.233988687
1.235885076
1.239212998
1.241270776
1.243901706
1.247363037
1.248879203
1.249053865
1.249780359
0.5066196067
0.5073568561
0.5067857953
0.5089554074
0.511618318
0.5128648674
0.5136151788
0.5134869215
0.5119343389
0.5126516304
0.5142462556
0.515608558
0.5134967987
0.8859161572
1.136486324
1.209978001
1.22265318
1.210839047
1.21321234
1.227554143
1.249181869
1.242131161
1.23453504
1.235450938
1.234763975
1.236366746
1.239636224
1.241894223
1.245130784
1.249100432
1.250192395
1.250250135
1.25179954
0.5091082467
0.5085665498
0.5103261361
0.5129123815
0.5145905678
0.5162227287
0.5176360127
0.5175097826
0.5148094642
0.5149293004
0.5172064332
0.5172998199
0.6295802988
1.02282438
1.212847481
1.215218443
1.209743454
1.212755871
1.226215734
1.248959444
1.239766273
1.234725437
1.2359554
1.235593334
1.237518102
1.241094394
1.24395893
1.247584521
1.250859951
1.251769575
1.25188329
1.252954373
0.5109953573
0.5110073935
0.511984823
0.5137203685
0.515327354
0.5172971326
0.5192941333
0.5209178561
0.5200781426
0.5169898157
0.5179275649
0.5201531812
0.522277692
0.9332524659
1.198371188
1.19875907
1.216521868
1.21468515
1.225621537
1.248399037
1.236212948
1.235544788
1.23692131
1.237172672
1.240171399
1.244033504
1.246105105
1.247629885
1.250336062
1.250987952
1.251163075
1.25239437
0.5157596147
0.5158014516
0.5148174507
0.5162603912
0.516834653
0.5181638031
0.5201241013
0.5223704906
0.5233638419
0.5220738327
0.5193733887
0.5215348651
0.5223737943
0.7140657071
1.069272192
1.19612048
1.238729402
1.217348313
1.225112875
1.2474638
1.232693626
1.236062641
1.238725028
1.238634424
1.24184063
1.245542956
1.245958207
1.2469509
1.248919592
1.249477104
1.249660082
1.250545073
0.5194058447
0.5200931725
0.5192739104
0.5197013171
0.5206197638
0.5207063361
0.5214727721
0.5234630303
0.5250011562
0.525574215
0.524067545
0.5225699202
0.5241836605
0.5387734503
0.9393767066
1.204634567
1.248947633
1.214619191
1.221389614
1.247199709
1.2294023
1.23559933
1.239103364
1.237682246
1.241587451
1.245136526
1.245195313
1.245816108
1.247400891
1.247752766
1.24756057
1.248390198
0.5217639937
0.5220896837
0.5217442498
0.5228533333
0.5243513097
0.5247328766
0.5248479956
0.52532887
0.5262353798
0.5273723573
0.5277147298
0.5258138771
0.5261827724
0.5269788047
0.7956854658
1.163058794
1.246773977
1.197305689
1.217330049
1.248721832
1.225500185
1.235033306
1.237434207
1.234402523
1.23785117
1.242074558
1.24195555
1.242860799
1.244954105
1.245041402
1.245046316
1.246086793
0.524330284
0.5244640453
0.5230598401
0.5244685064
0.5270656508
0.5279858213
0.5285840207
0.529034342
0.5283590749
0.5286841117
0.5295647592
0.5296462649
0.5278501334
0.5281671259
0.5731080496
1.000082724
1.221384679
1.183379597
1.216813955
1.250860244
1.220680079
1.233621551
1.234833285
1.231550835
1.235204237
1.238567814
1.238099759
1.239186787
1.24180685
1.241699471
1.242371722
1.243818681
0.5275663327
0.5277862835
0.5265070546
0.5260071453
0.5284632303
0.5300077141
0.5309899074
0.5321783561
0.5318559372
0.5308137157
0.5309812633
0.5318646183
0.5316909623
0.5300260122
0.5314200851
0.8330683347
1.135777492
1.175424963
1.218896156
1.24831584
1.211631639
1.229347542
1.229745843
1.226389982
1.230669707
1.234223722
1.233910031
1.235872353
1.239537135
1.239999655
1.241616221
1.244220441
0.5307576355
0.5312148332
0.5304318763
0.5294595487
0.531014639
0.5318265294
0.532674638
0.5342532385
0.5345942147
0.5337531125
0.5328916678
0.5333769527
0.5340239012
0.5332948909
0.532080857
0.6121352387
1.038260329
1.182151172
1.217667165
1.244333908
1.203198106
1.227976154
1.227910008
1.223898752
1.228958493
1.23323332
1.234092979
1.236068202
1.239063669
1.240093944
1.241618236
1.244798035
0.5330095775
0.5342880854
0.5339938607
0.532191977
0.5334719249
0.534313167
0.5346838181
0.5362688605
0.5369596431
0.5367462823
0.5360024017
0.5356495387
0.5361076508
0.5365093448
0.5349592855
0.5371831545
0.8458114645
1.150918213
1.205471143
1.240842642
1.195428939
1.227929855
1.225079031
1.222847381
1.22856706
1.233683341
1.234500512
1.236531258
1.238826003
1.239839036
1.240929504
1.244726009
0.5442764871
0.5441210731
0.5440088376
0.5429649945
0.5427918729
0.5432947094
0.5444463954
0.5448935885
0.5449633362
0.5449485135
0.5447172376
0.5438947392
0.5435989844
0.54401244
0.5440739715
0.5843904472
0.8125068808
1.105302895
1.152799666
1.193215755
1.239020393
1.223489418
1.227695219
1.235710135
1.236202669
1.236814643
1.237785605
1.238749058
1.240328776
1.243688456
1.247742618
0.5588522471
0.554880559
0.5550655537
0.5557388267
0.5553103131
0.5553154073
0.5565241588
0.5569109965
0.5563687597
0.5563293586
0.556680365
0.5566839364
0.5561630591
0.5561617464
0.5558332612
0.5553471229
0.5657386925
0.6762213426
0.9070972588
1.12271406
1.210354943
1.216386405
1.241218181
1.250002349
1.240716192
1.242346367
1.244507036
1.245175684
1.247324916
1.253583461
1.257809998
0.5759766813
0.5715747859
0.5706639234
0.5706267539
0.5700272048
0.5698550359
0.5705867136
0.5709167578
0.5703034744
0.5696221199
0.5696189594
0.5693080266
0.5683435541
0.5680624893
0.5678010468
0.566184582
0.5654459838
0.5666240285
0.6082656448
0.760013855
0.9859823828
1.137066308
1.236831463
1.240024112
1.239810858
1.256141088
1.258618794
1.257544202
1.26165151
1.267300402
1.269288147
0.5927958071
0.5887689546
0.5886391059
0.5885472777
0.5869187281
0.5855111773
0.5860891715
0.5858916439
0.5843675054
0.5834917754
0.5834378136
0.5829867666
0.5819829324
0.581209581
0.5801452947
0.5784147816
0.576531312
0.5763204556
0.5767254567
0.5839632692
0.6464073487
0.8426794733
1.083745102
1.174507173
1.226861122
1.268154914
1.265771033
1.267266835
1.276312831
1.275618869
1.274325141
0.6131654744
0.6079719123
0.607672916
0.6076591392
0.6064566644
0.6039954528
0.6032604022
0.6020218477
0.5994908121
0.5983082221
0.5979578379
0.5971102499
0.5954435744
0.5942005287
0.5926632477
0.5901684215
0.5887484937
0.5887206984
0.5884112066
0.5888786432
0.5900287044
0.6097903931
0.7018442891
0.9171868147
1.115499621
1.248528204
1.255783043
1.266171242
1.282264252
1.279322218
1.271205046
0.6330156979
0.6273294863
0.6274007341
0.6269775246
0.6251424666
0.6218033786
0.6197969119
0.6178687038
0.6152156391
0.6139673727
0.6133627212
0.612012792
0.609558359
0.6074700794
0.6057077292
0.6030032429
0.6012446904
0.6011403471
0.6008862136
0.6004035439
0.599944596
0.5999301394
0.6010718256
0.6361795379
0.7687532977
0.9830302864
1.12392962
1.246573445
1.26966941
1.254149098
1.267525043
0.6538374259
0.6471197419
0.6468020188
0.6458241126
0.6431009058
0.6386206837
0.6358138359
0.6339381063
0.6316603538
0.6306499665
0.630043689
0.628362275
0.6255759112
0.6227881398
0.6203620222
0.6170247445
0.6150389249
0.6149575253
0.6145122106
0.6138168533
0.6133682807
0.612173532
0.6088988444
0.6074178883
0.6126667358
0.6657586187
0.8506362685
1.065475142
1.18688396
1.224598675
1.282824113
0.6726633203
0.6665155658
0.6655727643
0.6639708975
0.6607401133
0.6560566965
0.6528354889
0.6506640534
0.6479104558
0.6464786291
0.6455288755
0.643539862
0.6402521774
0.6374883865
0.6353551479
0.6328932494
0.6306260276
0.6299770179
0.6292806158
0.6279834824
0.6273386317
0.6259500907
0.6237592887
0.6190887144
0.6180074163
0.6188614267
0.6361777894
0.7187961626
0.915097975
1.130260631
1.260149366
0.6934140689
0.6872738111
0.684448433
0.6814637229
0.677075331
0.6714926508
0.6686810761
0.6666946742
0.6642429135
0.6621733196
0.6603739484
0.6576733081
0.6534471594
0.6500872748
0.6477379979
0.6457780403
0.6434898677
0.6426018333
0.6418144664
0.6406687719
0.6395060402
0.6380972679
0.636054249
0.6325914385
0.6297621102
0.6293616676
0.629616157
0.6310651604
0.6592875912
0.783773471
0.9950485966
0.7149605676
0.7081838504
0.7047168953
0.7013631126
0.6966322063
0.6903643339
0.6871487413
0.6847689168
0.6821694505
0.6798222552
0.6774808786
0.6743622786
0.6700105383
0.6660286893
0.6629132711
0.6600956507
0.6572437601
0.6557518347
0.654456876
0.6529325208
0.6515659625
0.6500900775
0.6479167128
0.6437149429
0.6409472457
0.6407857031
0.640130811
0.636957108
0.6368615228
0.6427386432
0.6882525738
0.735372291
0.7280805253
0.723736636
0.7195279294
0.7141162161
0.7073119277
0.7037431279
0.7011361782
0.6981213771
0.6957185839
0.6932595782
0.6900371825
0.6859799218
0.6822626296
0.6789647946
0.6756352684
0.6723630735
0.6699330712
0.667712709
0.6652235968
0.6638668837
0.6624178
0.6605064608
0.6564316519
0.6535395096
0.6533194008
0.652196788
0.6497076754
0.6449653314
0.6451234052
0.6465243435
0.7559393946
0.748170814
0.7435449412
0.7390493364
0.7333666142
0.7260495733
0.7220505299
0.7191667293
0.7158229697
0.7128473811
0.7097278804
0.7060066844
0.7016062242
0.6978180104
0.6942273145
0.690683581
0.6871764364
0.684645328
0.6824529641
0.6797525448
0.6777195431
0.6757562445
0.6734172557
0.6696282069
0.6663851398
0.6657689511
0.6646991045
0.6628562592
0.6591033978
0.6572950796
0.655561221
0.7792066572
0.7705641391
0.765140629
0.7596988437
0.7529108207
0.7449588444
0.7399188657
0.7361100709
0.7321476336
0.7287840792
0.7253797592
0.7214492531
0.7168659264
0.7127554204
0.7086586982
0.7044393715
0.700312832
0.6977034076
0.695621705
0.6932227447
0.6913536453
0.6894949622
0.6871502533
0.6830808289
0.6792931421
0.6778793646
0.6763993525
0.6741166665
0.6706862278
0.6693725321
0.66834305
0.8016911664
0.7927710351
0.7864207209
0.779945575
0.7723107695
0.7636026838
0.7579647285
0.7535805713
0.748972159
0.745207479
0.7413855016
0.7370171803
0.7320534809
0.727665654
0.7231307366
0.7181661246
0.7132534976
0.7101527694
0.7076809218
0.7048310551
0.7029937046
0.7010879651
0.6985732099
0.6945189118
0.6907696303
0.6893094945
0.6875876621
0.6851837591
0.6813287166
0.6796758881
0.6782602499
0.8214706197
0.8120981229
0.8060012907
0.7996149937
0.7917254034
0.7826244203
0.7766300753
0.7719642218
0.7671174826
0.7630173255
0.7588916188
0.7543750163
0.7493848875
0.7449430479
0.7401730454
0.7351032675
0.729805517
0.7260631902
0.7230538112
0.7195092695
0.7169198952
0.7144584871
0.7114993231
0.7069069887
0.7027213655
0.7010994095
0.6992522357
0.6967126013
0.6931521527
0.6909349789
0.6892337346
0.8463895699
0.8365703001
0.8296002578
0.8221047788
0.8130433099
0.8027726262
0.7958251768
0.7904866808
0.7848930869
0.7803044593
0.7757374808
0.7707285781
0.7652648425
0.7607216608
0.7558367832
0.7507043224
0.7454748164
0.7413870328
0.7379640347
0.7342403491
0.7313792663
0.7286391289
0.7254648154
0.7209475597
0.7166592058
0.7144995133
0.7121830181
0.7091145299
0.7047520829
0.7023161274
0.7003846688
0.8687734546
0.8579896391
0.8504756748
0.8424236765
0.8330324001
0.8226991982
0.8152848986
0.8094023795
0.8032439834
0.7977609957
0.7923014638
0.7864806859
0.7801606651
0.7751255048
0.769916578
0.7642652757
0.7587588178
0.7548004729
0.751366053
0.7473731872
0.7443892113
0.7415166732
0.7383074449
0.7339706755
0.7297796859
0.7275251876
0.7250201896
0.7218835923
0.7175011637
0.7146211242
0.7121331235
0.890465472
0.8794924049
0.872131762
0.864034088
0.8538963462
0.8428068369
0.8348621458
0.8283601174
0.8218556852
0.8161991085
0.810423148
0.8043621393
0.7978643678
0.7924555693
0.7868458141
0.7807377733
0.7744599092
0.770006263
0.7662599444
0.7617794927
0.7580412665
0.7545981099
0.7510305739
0.7464139241
0.7421907873
0.7396529193
0.736830844
0.7333657095
0.7290041571
0.7260243271
0.7234904403
0.9180518441
0.9060048758
0.8972174017
0.8875412178
0.876112049
0.8640008111
0.8551716218
0.8481300255
0.8410172964
0.83477901
0.828387914
0.8217411919
0.8148161833
0.8091169574
0.803076386
0.7967807268
0.7904772067
0.7853649586
0.7809123595
0.7761683457
0.7721501921
0.7681834891
0.7640565892
0.7587843955
0.7542844043
0.751615754
0.7485066058
0.7447264227
0.7398091948
0.7368747851
0.734354146
0.9389494718
0.9260351887
0.917051283
0.9074426039
0.8960118844
0.8840632934
0.8751977584
0.8677386602
0.8599734208
0.8530648361
0.8460315741
0.8388856811
0.8315731392
0.8256340717
0.8194033528
0.8127928033
0.8063243466
0.8011993915
0.7965763569
0.7914249268
0.7870719283
0.7828720482
0.7786179157
0.7731264412
0.7683123064
0.7652726448
0.7618235546
0.7577046899
0.752580725
0.7494152299
0.7466884164
0.9661967368
0.9528647799
0.9432353152
0.9325554919
0.9195997682
0.9063407912
0.8961118194
0.8874242837
0.8787092591
0.8710737875
0.8633842437
0.8555355841
0.8475721722
0.8413241901
0.83477327
0.8274805341
0.8203910035
0.8151951783
0.8105468706
0.8053255551
0.8008723362
0.796571387
0.7922632716
0.7866621041
0.7816382554
0.7783722551
0.7746886986
0.7703696167
0.7652025016
0.7619026233
0.7590176378
0.9896564858
0.9751825414
0.9644223858
0.9529915205
0.9395694299
0.9261778172
0.916226915
0.9076587749
0.8986531865
0.8906870346
0.8827121276
0.8747114496
0.866332468
0.859453271
0.8523656339
0.8445603622
0.8366495163
0.8306631642
0.8253817208
0.8195556078
0.8147391254
0.8101132936
0.8054395759
0.7995064488
0.794221829
0.790597402
0.7866052586
0.7818786587
0.776154165
0.7728258145
0.7699230897
1.015668478
1.00052769
0.9895016322
0.9777692167
0.9637056647
0.9497071364
0.9387007668
0.92891607
0.9186786793
0.9096487843
0.9009519262
0.892541776
0.8842094001
0.877243895
0.8699084651
0.8620568991
0.8541107604
0.8476847238
0.8419163272
0.8356303383
0.8303859373
0.8253741438
0.8203358395
0.8139378594
0.8081951795
0.8040296942
0.7995743347
0.7943395579
0.7882493238
0.7846985272
0.7817499609
1.041166179
1.025339815
1.013159713
1.000226097
0.9850588812
0.9703697663
0.9587618627
0.9484822499
0.9378681264
0.9283506508
0.9189154451
0.9095318381
0.9004280063
0.8932776872
0.8857424122
0.8772944259
0.8689212099
0.8623777488
0.8563089512
0.8495090137
0.8441458365
0.839235624
0.8343790467
0.8283303877
0.82255433
0.8180324392
0.8131299471
0.8073096674
0.8006842799
0.7968460173
0.7935220525
1.067473504
1.050640705
1.037976534
1.024718829
1.008990731
0.9940640588
0.9821267565
0.9711078423
0.9594972543
0.9490365672
0.93901628
0.9293937544
0.9199121485
0.9121389717
0.9039869441
0.8949163535
0.8856680557
0.87829145
0.871588917
0.8641230299
0.8582708918
0.853121514
0.8481445114
0.8420845059
0.8365725529
0.8320307273
0.8270777416
0.8211191421
0.8141072015
0.8096835308
0.8060079698
1.09397025
1.076182782
1.062530397
1.048424597
1.031615832
1.015574718
1.002529139
0.9908553768
0.9788930579
0.9681334699
0.9577626581
0.9476404239
0.9380904321
0.9301860249
0.9216962556
0.9124953343
0.9032402424
0.89554623
0.8884531795
0.8805142575
0.8742096992
0.8686028209
0.8631249378
0.8563725752
0.8503921161
0.8454541978
0.8400874405
0.8339241571
0.8270344105
0.8225119199
0.8186342864
1.120912414
1.102259644
1.087833146
1.07297852
1.05546654
1.039144179
1.025945066
1.013546929
1.000571476
0.9888593901
0.9773210293
0.9657925253
0.9551246824
0.9468789183
0.9382219758
0.9286225859
0.9191619507
0.9114128094
0.9040519983
0.8955725039
0.8886440659
0.8826445767
0.8768763739
0.8698481266
0.8637861378
0.858628206
0.8529053208
0.8461279694
0.8388831633
0.834261004
0.8301143082
1.148254887
1.128696233
1.11321623
1.09755603
1.079176651
1.062034289
1.047728135
1.034451799
1.02065195
1.008501395
0.9972625254
0.9861111069
0.9752118922
0.9663596869
0.9570939575
0.9465520143
0.9360508728
0.9276143097
0.9199173681
0.9113781147
0.9043931668
0.8982766313
0.8923789829
0.8849317992
0.8785990699
0.8732604063
0.8674607281
0.8606901282
0.8532580089
0.8483326807
0.8440061812
1.174629636
1.154606999
1.138620296
1.122387447
1.103175762
1.085496011
1.070635013
1.05673566
1.04248112
1.029828084
1.017592639
1.005435026
0.9942005881
0.9847217097
0.9747329977
0.9639410641
0.9533606043
0.9446126632
0.9365128887
0.9274939132
0.9201453232
0.9136479106
0.9072930179
0.8992505197
0.8923475336
0.8864915766
0.8803014375
0.8732980429
0.86607079
0.8611362848
0.8566474652
1.203689772
1.182926632
1.165822756
1.14848569
1.128163495
1.109661851
)
;

boundaryField
{
    inlet
    {
        type            calculated;
        value           nonuniform 0();
    }
    outlet
    {
        type            calculated;
        value           nonuniform 0();
    }
    bottom
    {
        type            calculated;
        value           nonuniform 0();
    }
    top
    {
        type            calculated;
        value           nonuniform 0();
    }
    obstacle
    {
        type            calculated;
        value           nonuniform 0();
    }
    defaultFaces
    {
        type            empty;
    }
    procBoundary28to21
    {
        type            processor;
        value           nonuniform List<scalar> 
19
(
0.4191215791
0.4219096144
0.426505015
0.4300450046
0.4311654856
0.431573106
0.4366681637
0.4366681637
0.4378286001
0.4418651321
0.4471102851
0.4494491325
0.4503032897
0.4510077018
0.4536224135
0.4588143633
0.4588143633
0.4645263982
0.4671647521
)
;
    }
    procBoundary28to22
    {
        type            processor;
        value           nonuniform List<scalar> 
35
(
1.16151053
1.15776291
1.173114613
1.176165363
1.163051956
1.163848955
1.173087951
1.177397125
1.176174274
1.178853607
1.183309253
1.183394046
1.182796623
1.184273915
1.188033912
1.191786021
1.193791087
1.194859386
1.197509871
1.203226252
1.204576938
1.203730446
1.202160144
1.200305331
1.198806678
1.197035348
1.1958247
0.423180708
0.4254689155
0.8349746036
1.134351843
1.166496857
1.136466769
1.172180482
1.172180482
)
;
    }
    procBoundary28to23
    {
        type            processor;
        value           nonuniform List<scalar> 2(1.200407639 1.204445845);
    }
    procBoundary28to27
    {
        type            processor;