/*--------------------------------*- C++ -*----------------------------------*\
  =========                 |
  \\      /  F ield         | OpenFOAM: The Open Source CFD Toolbox
   \\    /   O peration     | Website:  https://openfoam.org
    \\  /    A nd           | Version:  7
     \\/     M anipulation  |
\*---------------------------------------------------------------------------*/
FoamFile
{
    version     2.0;
    format      ascii;
    class       volScalarField;
    location    "1.5";
    object      p;
}
// * * * * * * * * * * * * * * * * * * * * * * * * * * * * * * * * * * * * * //

dimensions      [1 -1 -2 0 0 0 0];

internalField   nonuniform List<scalar> 
200
(
1
1
1
1
1
1
1
1
1
1
1
1
1
1
1
1
1
1
1
1
1
1
1
1
1
1
0.9999999849
0.999999983
0.9999999723
1.000000119
1.000000047
0.9999999237
1.000001328
1.000027768
1.000031996
1.000025816
1.000158984
1.000794094
1.002337108
1.005744712
1.003680492
1.01168506
1.027982694
1.047694399
1.09565302
1.055745715
1.122366824
1.195637571
1.261247787
1.362463142
1.00151429
1.020798202
1.053928139
1.071884545
1.057648406
1.014961988
1.041885737
1.050604879
1.044889239
1.023383797
1.059469431
1.058396455
1.033188156
0.9983762211
0.9996343966
1.092935455
1.047007654
0.961525454
0.9583016623
0.9786825594
1.15854205
0.9328156796
0.9498856321
0.972957753
0.9979961502
0.8090629639
0.8652699482
1.018162301
1.023149337
1.012278755
0.8091926047
0.8962708498
1.035274183
1.028719164
1.010632766
0.824674764
0.928677092
1.047727508
1.027098165
1.010111011
0.8370067261
0.9523628899
1.052059418
1.027129878
1.010411459
0.8173352416
0.9942167746
1.061344151
1.024533848
1.010266191
0.8205313497
0.9896451493
1.058609299
1.024966568
1.010043794
0.8361636142
0.9558701925
1.055780393
1.027289694
1.010171851
0.8227483812
0.9341257512
1.048098132
1.02729315
1.009973033
0.8079507211
0.9008083419
1.033963353
1.028306686
1.010560537
0.809640282
0.8632683371
1.017183288
1.023150401
1.012340928
1.158545292
0.9326417809
0.9497624207
0.9729901476
0.9981000295
1.092927627
1.047072627
0.9614535813
0.9582181952
0.9786468724
1.059472966
1.058400284
1.033134604
0.9983072705
0.9996108278
1.014964649
1.041892348
1.050605263
1.044857057
1.023361792
1.001514753
1.020804137
1.05392177
1.071877959
1.057635429
1.055745719
1.122366817
1.195637586
1.261247751
1.362463365
1.003680489
1.011685062
1.027982703
1.047694339
1.095654168
1.000025816
1.000158984
1.000794093
1.00233711
1.005744699
1.000000047
0.9999999237
1.000001328
1.000027764
1.000031994
1
0.9999999848
0.999999983
0.9999999723
1.000000119
1
1
1
1
1
1
1
1
1
1
1
1
1
1
1
1
1
1
1
1
1
1
1
1
1
)
;

boundaryField
{
    inlet
    {
        type            fixedValue;
        value           uniform 1;
    }
    outlet
    {
        type            zeroGradient;
    }
    bottom
    {
        type            slip;
    }
    top
    {
        type            slip;
    }
    obstacle
    {
        type            zeroGradient;
    }
    defaultFaces
    {
        type            empty;
    }
}


// ************************************************************************* //
