/*--------------------------------*- C++ -*----------------------------------*\
  =========                 |
  \\      /  F ield         | OpenFOAM: The Open Source CFD Toolbox
   \\    /   O peration     | Website:  https://openfoam.org
    \\  /    A nd           | Version:  7
     \\/     M anipulation  |
\*---------------------------------------------------------------------------*/
FoamFile
{
    version     2.0;
    format      ascii;
    class       volScalarField;
    location    "0.3";
    object      rho;
}
// * * * * * * * * * * * * * * * * * * * * * * * * * * * * * * * * * * * * * //

dimensions      [1 -3 0 0 0 0 0];

internalField   nonuniform List<scalar> 
2222
(
0.5540221671
0.5538700779
0.5542152632
0.5541502841
0.5542805644
0.5182626528
0.5290536927
0.5253697415
0.5207783545
0.555326933
0.580503099
0.5843563815
0.5726267211
0.5654922955
0.561683855
0.5566660295
0.5524642693
0.551017987
0.5494971454
0.5473873977
0.5520499249
0.5532151484
0.5533859969
0.5535733781
0.5542189126
0.5539115975
0.5542023741
0.554302655
0.5538537033
0.5536620173
0.5540231955
0.5536703811
0.5534859674
0.5536606713
0.5535641248
0.5534862067
0.5538799403
0.553965678
0.5538265774
0.5195379734
0.5340818237
0.5243869629
0.5173962692
0.5526465639
0.5800213026
0.5847428068
0.572618613
0.5642164052
0.5609032757
0.5568596447
0.5525032237
0.550857009
0.5494238285
0.5469952202
0.5515944592
0.5530718067
0.5534361628
0.5536751396
0.554193497
0.5537846964
0.5536479289
0.5539228851
0.5532681181
0.5531924431
0.5535968356
0.5534900506
0.5532642388
0.5534367663
0.5534361704
0.5533821707
0.5538315167
0.554005526
0.5539243993
0.5260792734
0.5356195304
0.5226267917
0.5155073773
0.5510433108
0.5781852615
0.5853849415
0.5729590288
0.5638279357
0.5606755517
0.5568775059
0.552685378
0.550859244
0.5491560013
0.5463292608
0.551033731
0.5533247821
0.5534486441
0.5535976791
0.554007947
0.5530046068
0.5525890218
0.5532467073
0.5530593943
0.5530531359
0.5534889424
0.55358769
0.5532933986
0.5534765869
0.5535138722
0.553443118
0.5538739833
0.5539860074
0.553880512
0.532037295
0.5356083134
0.5214159257
0.5144000842
0.5498000869
0.5770496273
0.585991915
0.5743725394
0.5636796134
0.5606440118
0.5568451549
0.5526962533
0.5507179646
0.5488064339
0.5457681921
0.5509225121
0.553524084
0.5533390116
0.5531373346
0.5532074772
0.5522802035
0.5521457956
0.5529724215
0.5532119233
0.5531297466
0.5535144033
0.5535277996
0.5532217921
0.5533933127
0.5534092922
0.5533330545
0.553740715
0.5538403466
0.5536793238
0.5337834686
0.5351432291
0.5210896013
0.5150643159
0.5484206812
0.5766278456
0.5878247856
0.5750385819
0.563343311
0.5600778657
0.556221309
0.5523776713
0.5502701308
0.5483345801
0.5454099495
0.5510770223
0.5535149195
0.552797736
0.5518545126
0.5522894902
0.5520741542
0.5520480322
0.5530123533
0.5532030252
0.5530358093
0.5533574964
0.5533470252
0.5529707022
0.5530265087
0.5530550058
0.5528578589
0.553040998
0.5531009353
0.5528199485
0.5528323836
0.5339805777
0.5294757178
0.5218487369
0.5187711558
0.546800904
0.5762570832
0.589003521
0.5749290697
0.5614010141
0.5576378668
0.5550644403
0.5516253351
0.5492051132
0.5479708154
0.5451088569
0.5510057421
0.5534164762
0.5518735136
0.5511366943
0.551993281
0.5522695345
0.5521029086
0.5529299421
0.5530648649
0.5527300937
0.5526497141
0.5526927584
0.5521286256
0.5519653627
0.5520756516
0.5518444188
0.552090597
0.5523090869
0.5521863113
0.552297051
0.5322457129
0.5229871368
0.5230163602
0.5191895228
0.5450173759
0.5754047752
0.5898631675
0.5748318391
0.5599045876
0.5561189598
0.5545302947
0.551247405
0.548513959
0.547420388
0.5447972656
0.5508254769
0.5530669469
0.5515191715
0.5509407292
0.552069915
0.5522802187
0.5519810323
0.5525914565
0.5526486268
0.5518802111
0.5517131647
0.5519279224
0.5514842249
0.5513529331
0.5515259122
0.5513821559
0.5517340245
0.5520540933
0.5520099717
0.5521472432
0.5253554354
0.5220721522
0.5237498232
0.5187876781
0.5433779381
0.5741262473
0.5906608402
0.5748474827
0.559298386
0.5555085743
0.5543971789
0.5511967195
0.5482158333
0.5469941558
0.5447042236
0.54996595
0.5523997056
0.5516928186
0.5511035913
0.5520751668
0.5521915894
0.5517040325
0.5515031931
0.5517152469
0.551259859
0.551358197
0.551677052
0.5513270922
0.5511948673
0.5514207492
0.5513336444
0.5517508898
0.5521558571
0.5521184202
0.55222502
0.5180344825
0.5225277286
0.5242521247
0.5181332023
0.5420091282
0.5729520968
0.591117643
0.5749714215
0.5589429056
0.5550372403
0.5546243936
0.551231982
0.5480673645
0.5469880538
0.5453564343
0.5488487694
0.5519845521
0.552214159
0.5510873632
0.5517918828
0.551704846
0.5507178544
0.5506931242
0.5512194105
0.5510957308
0.5513962441
0.5518097163
0.5514596244
0.5512858831
0.5515367839
0.55140464
0.5517129511
0.5520809117
0.5520014787
0.5520768468
0.5149163301
0.5238644404
0.5261495679
0.5170513486
0.5408040892
0.5720431442
0.5911593553
0.5746550871
0.5587166369
0.5545961076
0.55444548
0.5508827252
0.5474458084
0.5467266754
0.5457129882
0.5483692084
0.5518709695
0.5522443373
0.550855359
0.5504007106
0.5504318456
0.5498788033
0.5504214056
0.5511570023
0.5512269102
0.5513473741
0.551724058
0.5513362722
0.5511244906
0.5513796252
0.551210199
0.5513384322
0.5516377611
0.5514009348
0.551265703
0.5142718051
0.5282332639
0.5290642533
0.5146117162
0.5393371426
0.5714041789
0.5910672445
0.5766366666
0.5585285144
0.5533703082
0.5535313873
0.5494916868
0.5458586959
0.5461030489
0.5455863434
0.5482001011
0.5517461157
0.5520807725
0.5499835377
0.5493136167
0.5497809175
0.5495620378
0.5503917062
0.5512144316
0.5510322235
0.5509652244
0.5512980521
0.5508453819
0.5504234491
0.5506574742
0.5503904305
0.5501243881
0.550462488
0.5502904002
0.5501864451
0.5145164769
0.5358450014
0.5293084028
0.5128321283
0.5372684877
0.5710040911
0.5913444351
0.5774683611
0.5584342574
0.5511681521
0.5517468205
0.5486184016
0.5448780251
0.5447913658
0.5451968807
0.5479673305
0.5510985216
0.5512593659
0.5492174576
0.5488773483
0.5495209724
0.5495083255
0.5501729985
0.5510009176
0.550452685
0.5499782924
0.5503261776
0.5499771533
0.5494906199
0.5497647451
0.549583376
0.5494301128
0.549885665
0.54985422
0.5497889508
0.518152985
0.5396575169
0.529100752
0.5127389538
0.5351310363
0.570857293
0.5917145215
0.5776924956
0.5584927724
0.5498317701
0.5508892954
0.5483494709
0.5443975193
0.5439550603
0.5448025231
0.5482457519
0.5502898528
0.5506121736
0.5490099139
0.5487480767
0.5502574179
0.5502136939
0.5501052527
0.5505229972
0.5499241305
0.549503635
0.5499822138
0.5497406774
0.5492362036
0.5495599423
0.5494302396
0.5492981668
0.5497952565
0.5498445552
0.5497761115
0.5500834343
0.5239691569
0.5402326932
0.5288993014
0.5177621071
0.5330230745
0.5710153474
0.5925802855
0.5776944297
0.5587070979
0.5494846856
0.5507958011
0.5496688953
0.5443386299
0.5441055991
0.5455647896
0.5491719789
0.5502321108
0.5506703176
0.5493029151
0.5494141955
0.55115556
0.5505670079
0.5498129693
0.5503974691
0.5499533084
0.5495097593
0.5500473999
0.549926169
0.5493356117
0.5497395794
0.5497968186
0.5496696498
0.5504800871
0.5508718127
0.5507557625
0.5512324028
0.5263028295
0.5351258081
0.5259651045
0.5200394432
0.5317157565
0.5718554593
0.5935724968
0.5782863982
0.5597925795
0.549604194
0.5513124496
0.552562469
0.5451027423
0.5454305995
0.5476605343
0.5499108854
0.5506260777
0.551884138
0.551753304
0.5511013822
0.5516626678
0.5507559032
0.5499556439
0.5507276313
0.5507156254
0.5504014735
0.5514535185
0.5518581386
0.5511877407
0.551757193
0.5519922449
0.551765875
0.5523205733
0.5524527264
0.5522041771
0.5524994681
0.5259381652
0.5252925523
0.5241128423
0.5236412166
0.5313798799
0.5731222952
0.5936619494
0.5779145377
0.5611392053
0.5514586147
0.5533772427
0.5539688442
0.5456886882
0.5459042059
0.5484676289
0.55029029
0.5522765849
0.5544978349
0.5534566014
0.5518684078
0.5519616472
0.5512534384
0.550334928
0.5516141023
0.5526604202
0.5521601786
0.5529854155
0.5532347051
0.552599898
0.5529247992
0.5530518323
0.5526725729
0.5529460871
0.5529551624
0.5525840276
0.5528311309
0.5212669451
0.5221754399
0.5246295214
0.5250717307
0.5322930708
0.5741252861
0.5950091523
0.5789447221
0.5632600787
0.5512818893
0.5534651223
0.5539315416
0.54630781
0.5460656565
0.5487099239
0.5504877721
0.5527449972
0.5555721785
0.5539485343
0.5515020295
0.5520795314
0.5522052837
0.5517080447
0.5535101921
0.5541554375
0.5533690704
0.5536601646
0.5538080698
0.5531378612
0.5532019693
0.5532757456
0.5527433101
0.5528676119
0.5529705099
0.5525855944
0.5528877441
0.5146727148
0.5221853258
0.5250470781
0.5244085072
0.5348263031
0.5757109018
0.5980676486
0.5840736651
0.5679801302
0.5544863644
0.5549054245
0.5543664312
0.5476115672
0.5466225041
0.5488990987
0.5529464313
0.5551069302
0.5561366915
0.5542127319
0.5518931304
0.5535817637
0.5551381324
0.554297051
0.5549547634
0.5550418146
0.5539811037
0.5538585946
0.5540641181
0.5533466527
0.5534451786
0.5536201946
0.553133537
0.5535001846
0.5538697044
0.5535178102
0.5538756451
0.5122999924
0.5224232448
0.5302839301
0.5301717462
0.5446917009
0.5840782486
0.601087972
0.5910180445
0.5739693744
0.5578515004
0.5555768306
0.5598015861
0.549964022
0.5490798183
0.5520729826
0.5571798012
0.5568237382
0.5572172071
0.5574404516
0.5555167474
0.5572166411
0.5574740866
0.5559317843
0.5556904021
0.5561732051
0.5554042707
0.555652481
0.5564165674
0.5557491891
0.5558046103
0.5562223696
0.555793005
0.556179823
0.5565473306
0.5560925665
0.5563154038
0.5129590016
0.533427926
0.5660249779
0.5576649642
0.5618084853
0.6054251757
0.6167923212
0.5989283998
0.5839012501
0.5649879232
0.5638671542
0.5667961281
0.5550786157
0.554474324
0.5571661811
0.560326337
0.5609708882
0.5624159436
0.5623075685
0.5594858947
0.5594705683
0.5598168863
0.5584474383
0.5589601466
0.559897998
0.5591187195
0.5590201752
0.5594827877
0.5587159142
0.5584536002
0.5587021725
0.5581150495
0.5581390273
0.5583032276
0.5577559397
0.5578411995
0.6380722544
0.6152768217
0.6196922388
0.5938700356
0.5873079935
0.6221231405
0.6263273342
0.6088738938
0.5940166547
0.5750639396
0.5695091056
0.5724845028
0.5586904324
0.5593888353
0.5617024997
0.5647728013
0.5647484383
0.5660926046
0.5655986138
0.5622968266
0.5625495309
0.5631371513
0.5616018689
0.5615535955
0.5621558136
0.5612520211
0.5607593542
0.5612538131
0.5605278291
0.5600118717
0.5602957719
0.5597032579
0.5595930614
0.5598196001
0.5592360352
0.5592435501
1.208786088
0.9818129936
0.8193174362
0.7054958787
0.6912185566
0.6944984613
0.6779353981
0.6456662423
0.6276782801
0.608799056
0.5987207413
0.5966425281
0.5935388588
0.5778781897
0.5827179525
0.5846353907
0.582267972
0.5814928892
0.5809545436
0.5772090394
0.5757260959
0.5761434061
0.5745006145
0.5728543466
0.5731825522
0.5723292595
0.5708828774
0.571088015
0.5703948978
0.569207838
0.5692818796
0.568588929
0.5678303077
0.5678805215
0.5672305905
0.5666934508
0.5667796331
1.388517781
1.308686543
1.159726524
1.042247992
0.9567646814
0.8760145203
0.8019372662
0.7358431163
0.7144056171
0.6993488276
0.6796986536
0.667553415
0.6557991853
0.6451924627
0.6413872368
0.6382949842
0.6299481209
0.6231787063
0.6221405516
0.6180186557
0.6115965383
0.6112474004
0.6094203695
0.6039577964
0.6030115037
0.6022527378
0.5986898634
0.5976007534
0.5969218327
0.5942688553
0.5935024361
0.5926516531
0.5902585168
0.5895251944
0.5886428584
0.5867718605
0.5865394798
1.399729061
1.388647854
1.342429448
1.255154586
1.14203882
1.027205691
0.9498473882
0.8823710517
0.8323423793
0.8153354923
0.789189768
0.75817887
0.7462468769
0.7295062659
0.7076528016
0.7019358926
0.6955347944
0.6781061439
0.6732540786
0.6717682888
0.6623084245
0.6552733282
0.6535436946
0.6464911794
0.6403689467
0.6398956753
0.6358575274
0.6306484967
0.6301394826
0.6273600169
0.6238724032
0.6228292518
0.6194956142
0.6164761807
0.6157303001
0.6128422584
0.6111744938
1.400001967
1.399230811
1.39140983
1.360618989
1.298786673
1.212518506
1.130028091
1.062061142
0.9891829352
0.9301182205
0.890979935
0.847957438
0.8200328367
0.8043117336
0.779180864
0.7614146918
0.7539087446
0.7383625886
0.7210370386
0.7169364855
0.7092562522
0.695619196
0.6921328785
0.6873553887
0.6765467651
0.6735396821
0.6704964851
0.6623453866
0.6596409582
0.6573279968
0.6516676544
0.6494923441
0.6468880506
0.6416473253
0.6401899719
0.6380136895
0.6340901556
1.400005026
1.399973061
1.39923213
1.393452964
1.372184732
1.32752073
1.259288994
1.183746725
1.111016998
1.03869559
0.9885672875
0.9461402097
0.9024415133
0.8808642759
0.8604884985
0.8319650634
0.8130373288
0.79862988
0.7761320133
0.7662502715
0.7601306681
0.7437887463
0.7342795801
0.7305979938
0.7190902544
0.7103635086
0.7077114853
0.6995362202
0.6924337995
0.6897668988
0.6831209267
0.6784750389
0.6765433243
0.6707532097
0.6669055165
0.6650002838
0.6600915202
1.40000504
1.400004242
1.399962887
1.399327966
1.395066934
1.379915633
1.346568587
1.29341423
1.231550705
1.16876078
1.107936954
1.058677495
1.007637501
0.9638509902
0.9314770989
0.8981632777
0.8724948553
0.8581906662
0.8368607783
0.8157647675
0.8071254301
0.7918418722
0.7736795785
0.7693471477
0.7609897977
0.746631363
0.7422328116
0.7357066942
0.7247893001
0.7209511829
0.7149913231
0.7060153166
0.7035950023
0.6992167188
0.6930669942
0.6906110563
0.685695708
1.40000504
1.400005028
1.400003635
1.399961659
1.399454075
1.396325069
1.385254035
1.359649164
1.317633978
1.263991641
1.203135879
1.144990754
1.092304751
1.044176988
1.007107233
0.972933461
0.9374751147
0.9171209604
0.899330883
0.8715225096
0.8565259113
0.8448473046
0.8209614571
0.8101066555
0.804371256
0.7886284124
0.778524996
0.7731000944
0.7606025121
0.7536919599
0.7494166901
0.7382308949
0.7322340218
0.7287401091
0.7213382637
0.717480013
0.7134309733
1.40000504
1.40000504
1.400005011
1.400003331
1.399966234
1.399572818
1.397255931
1.389052636
1.369452709
1.335818629
1.290381454
1.238683078
1.188028259
1.138417086
1.094748276
1.057079503
1.015070801
0.9789853008
0.9574482964
0.9293424229
0.9043204567
0.8930572313
0.8731756403
0.8520217788
0.8444211572
0.8303145763
0.8135204049
0.8079136707
0.7973306794
0.784870798
0.7806397767
0.771849472
0.7618097372
0.7573746801
0.7491168371
0.7423665473
0.7393722561
1.40000504
1.40000504
1.40000504
1.400004998
1.400003337
1.399972529
1.399673062
1.397973123
1.391831103
1.376707745
1.349429703
1.310434508
1.264915535
1.215905767
1.165422062
1.1217777
1.084137523
1.044596929
1.016274973
0.9912219379
0.9572910723
0.9395442944
0.925431542
0.9004418205
0.8867699905
0.8753390076
0.8537057056
0.8439686713
0.8364086867
0.8198393073
0.8121285545
0.8059272029
0.7940514892
0.7875667001
0.7800405353
0.768905211
0.7655260963
1.40000504
1.40000504
1.40000504
1.40000504
1.400004993
1.400003504
1.399979259
1.399755964
1.39849983
1.393889039
1.382197211
1.360016436
1.327203013
1.287657433
1.243559062
1.198734765
1.160294607
1.120831913
1.083011254
1.054897998
1.020430962
0.9904230657
0.9742954078
0.9494917742
0.9268454549
0.9165041341
0.8975242279
0.8799560925
0.8727305867
0.8575506436
0.8433756612
0.8372224174
0.8255730893
0.8162764596
0.8104430955
0.79844738
0.7910476364
1.40000504
1.40000504
1.40000504
1.40000504
1.400005039
1.400004994
1.400003761
1.399985179
1.39982013
1.398894029
1.395432862
1.386346376
1.368366943
1.340626089
1.305261536
1.264277124
1.222953601
1.182864352
1.140399007
1.107590814
1.079018777
1.044693632
1.022580146
1.001565014
0.9713605462
0.9569725295
0.943505661
0.9203142392
0.9092389957
0.897948942
0.8788364926
0.8695477146
0.8592807132
0.8458268327
0.840267232
0.8312345424
0.8189544544
1.40000504
1.40000504
1.40000504
1.40000504
1.40000504
1.400005039
1.400005
1.400004021
1.399990149
1.399869638
1.399189778
1.396589767
1.389514165
1.374959526
1.351679555
1.320532439
1.283812648
1.247410541
1.208635573
1.170958797
1.141491717
1.106961717
1.075276091
1.053790179
1.024002664
0.9992438071
0.9858446923
0.9626894056
0.943656608
0.9341633433
0.9165406408
0.9025256245
0.8932861971
0.877324862
0.8677028031
0.8607181704
0.8479083744
1.40000504
1.40000504
1.40000504
1.40000504
1.40000504
1.40000504
1.400005039
1.400005007
1.400004265
1.39999413
1.39990688
1.399409227
1.3974586
1.391950219
1.380210192
1.360714228
1.333018427
1.300132823
1.265263655
1.226771835
1.192505332
1.159828185
1.123510256
1.09853729
1.07494294
1.044448295
1.026975883
1.008811142
0.982521894
0.9697558199
0.9556683942
0.9371766312
0.9273753949
0.9138067681
0.8974971582
0.8896256459
0.8782517725
1.40000504
1.40000504
1.40000504
1.40000504
1.40000504
1.40000504
1.40000504
1.40000504
1.400005014
1.400004468
1.399997176
1.3999345
1.399571911
1.398113952
1.393835972
1.38439671
1.367983732
1.343834365
1.314899015
1.281880584
1.247339131
1.216976445
1.182754359
1.151018657
1.127365287
1.096606007
1.070157022
1.053036288
1.027071077
1.006539423
0.9931655271
0.9725550459
0.9581946163
0.9475936934
0.9306166522
0.9194141631
0.909243139
1.40000504
1.40000504
1.40000504
1.40000504
1.40000504
1.40000504
1.40000504
1.40000504
1.40000504
1.400005021
1.400004628
1.399999465
1.399954849
1.3996923
1.398604508
1.395291895
1.387723662
1.37388571
1.353231615
1.327176949
1.295633042
1.264181392
1.232758622
1.197990947
1.170377661
1.143574905
1.112016614
1.091883952
1.071192908
1.045600232
1.030478359
1.012826269
0.9917188932
0.9797073046
0.9651957278
0.9501837006
0.9407636954
1.40000504
1.40000504
1.40000504
1.40000504
1.40000504
1.40000504
1.40000504
1.40000504
1.40000504
1.40000504
1.400005026
1.40000475
1.400001145
1.399969657
1.399780346
1.398970816
1.39642561
1.390366873
1.378798092
1.361177614
1.337516469
1.308969855
1.280605864
1.249289701
1.218633085
1.193765713
1.163458633
1.136208333
1.115987816
1.089194478
1.067664896
1.051489171
1.029522355
1.012368797
0.9987801459
0.9810407844
0.9691046273
1.40000504
1.40000504
1.40000504
1.40000504
1.40000504
1.40000504
1.40000504
1.40000504
1.40000504
1.40000504
1.40000504
1.40000503
1.40000484
1.400002352
1.399980314
1.399844813
1.399245888
1.397300784
1.392452743
1.382880835
1.367747315
1.346383598
1.321092584
1.293728511
1.26249683
1.234655454
1.207322417
1.176722265
1.154049414
1.130819126
1.10465617
1.086450196
1.067784735
1.047116621
1.032723148
1.016120704
0.9988300123
1.40000504
1.40000504
1.40000504
1.40000504
1.40000504
1.40000504
1.40000504
1.40000504
1.40000504
1.40000504
1.40000504
1.40000504
1.400005034
1.400004905
1.40000321
1.399987946
1.399891505
1.399450886
1.39796689
1.394108131
1.386263494
1.373224929
1.354329396
1.331811843
1.305443892
1.276951476
1.251686521
1.223222314
1.196750276
1.174944029
1.148744342
1.125236795
1.106339503
1.084424319
1.065735928
1.050220313
1.031791272
1.40000504
1.40000504
1.40000504
1.40000504
1.40000504
1.40000504
1.40000504
1.40000504
1.40000504
1.40000504
1.40000504
1.40000504
1.40000504
1.400005036
1.40000495
1.400003808
1.39999331
1.399925004
1.399602917
1.398475788
1.395430159
1.389024863
1.377807069
1.361347364
1.340859755
1.315697284
1.290099248
1.264139871
1.235381884
1.211012902
1.18699613
1.161673399
1.140877927
1.1209241
1.099297012
1.081969682
1.065521585
1.40000504
1.40000504
1.40000504
1.40000504
1.40000504
1.40000504
1.40000504
1.40000504
1.40000504
1.40000504
1.40000504
1.40000504
1.40000504
1.40000504
1.400005037
1.400004981
1.400004219
1.399997057
1.399949069
1.399715323
1.398863516
1.396476515
1.391245654
1.381693019
1.367467237
1.348644328
1.32562799
1.302244707
1.276306121
1.250390155
1.227375135
1.203114951
1.179517082
1.159081615
1.13752533
1.116478358
1.098895883
1.40000504
1.40000504
1.40000504
1.40000504
1.40000504
1.40000504
1.40000504
1.40000504
1.40000504
1.40000504
1.40000504
1.40000504
1.40000504
1.40000504
1.40000504
1.400005038
1.400005002
1.4000045
1.399999659
1.39996619
1.399797418
1.399156911
1.397298414
1.393038176
1.385006978
1.37268388
1.35545316
1.334811797
1.312266653
1.287079799
1.262753451
1.238975195
1.214518696
1.191677607
1.171077537
1.150117945
1.130331415
1.40000504
1.40000504
1.40000504
1.40000504
1.40000504
1.40000504
1.40000504
1.40000504
1.40000504
1.40000504
1.40000504
1.40000504
1.40000504
1.40000504
1.40000504
1.40000504
1.400005039
1.400005016
1.400004688
1.40000144
1.39997826
1.39985709
1.399379312
1.397941146
1.394490586
1.38780793
1.377056165
1.36165001
1.34299782
1.321445317
1.298098478
1.274965025
1.252135528
1.228814372
1.207123353
1.186892984
1.16560771
1.40000504
1.40000504
1.40000504
1.40000504
1.40000504
1.40000504
1.40000504
1.40000504
1.40000504
1.40000504
1.40000504
1.40000504
1.40000504
1.40000504
1.40000504
1.40000504
1.40000504
1.40000504
1.400005025
1.400004813
1.400002654
1.399986746
1.399900399
1.399546909
1.398438694
1.395667464
1.390129941
1.380777925
1.367226042
1.350086398
1.32993498
1.307811839
1.285287605
1.262768906
1.239493657
1.218144672
1.19769516
1.40000504
1.40000504
1.40000504
1.40000504
1.40000504
1.40000504
1.40000504
1.40000504
1.40000504
1.40000504
1.40000504
1.40000504
1.40000504
1.40000504
1.40000504
1.40000504
1.40000504
1.40000504
1.40000504
1.400005031
1.400004896
1.400003475
1.399992647
1.399931541
1.399671862
1.398821993
1.396619321
1.392034306
1.384014125
1.372074482
1.356415483
1.337835233
1.316801711
1.295645401
1.27393202
1.251484814
1.231788034
1.40000504
1.40000504
1.40000504
1.40000504
1.40000504
1.40000504
1.40000504
1.40000504
1.40000504
1.40000504
1.40000504
1.40000504
1.40000504
1.40000504
1.40000504
1.40000504
1.40000504
1.40000504
1.40000504
1.40000504
1.400005034
1.400004949
1.400004023
1.399996706
1.399953811
1.399764373
1.399117823
1.397379578
1.393600315
1.386795197
1.376238434
1.362159602
1.344863132
1.325011
1.304988725
1.283179522
1.261494947
1.40000504
1.40000504
1.40000504
1.40000504
1.40000504
1.40000504
1.40000504
1.40000504
1.40000504
1.40000504
1.40000504
1.40000504
1.40000504
1.40000504
1.40000504
1.40000504
1.40000504
1.40000504
1.40000504
1.40000504
1.40000504
1.400005037
1.400004983
1.400004385
1.399999485
1.399969643
1.399832368
1.399344752
1.397978623
1.394893811
1.389133927
1.379881176
1.367303518
1.351176973
1.332769657
1.313830453
1.292324438
1.40000504
1.40000504
1.40000504
1.40000504
1.40000504
1.40000504
1.40000504
1.40000504
1.40000504
1.40000504
1.40000504
1.40000504
1.40000504
1.40000504
1.40000504
1.40000504
1.40000504
1.40000504
1.40000504
1.40000504
1.40000504
1.40000504
1.400005038
1.400005005
1.400004623
1.400001369
1.399980766
1.399881991
1.399517009
1.398449496
1.395956245
1.39108927
1.383080458
1.371827024
1.356861549
1.340015092
1.321551772
1.40000504
1.40000504
1.40000504
1.40000504
1.40000504
1.40000504
1.40000504
1.40000504
1.40000504
1.40000504
1.40000504
1.40000504
1.40000504
1.40000504
1.40000504
1.40000504
1.40000504
1.40000504
1.40000504
1.40000504
1.40000504
1.40000504
1.40000504
1.400005039
1.400005019
1.400004777
1.400002635
1.399988518
1.399918062
1.399646686
1.398820149
1.396815733
1.392733811
1.38585464
1.375783335
1.362088769
1.346666363
1.40000504
1.40000504
1.40000504
1.40000504
1.40000504
1.40000504
1.40000504
1.40000504
1.40000504
1.40000504
1.40000504
1.40000504
1.40000504
1.40000504
1.40000504
1.40000504
1.40000504
1.40000504
1.40000504
1.40000504
1.40000504
1.40000504
1.40000504
1.40000504
1.40000504
1.400005027
1.400004875
1.400003479
1.39999389
1.3999441
1.399743679
1.399109636
1.397506244
1.394112638
1.388242642
1.37923091
1.366916666
1.40000504
1.40000504
1.40000504
1.40000504
1.40000504
1.40000504
1.40000504
1.40000504
1.40000504
1.40000504
1.40000504
1.40000504
1.40000504
1.40000504
1.40000504
1.40000504
1.40000504
1.40000504
1.40000504
1.40000504
1.40000504
1.40000504
1.40000504
1.40000504
1.40000504
1.40000504
1.400005033
1.400004938
1.400004037
1.399997584
1.39996268
1.399815929
1.399333159
1.398059817
1.395263252
1.390272346
1.382273662
1.40000504
1.40000504
1.40000504
1.40000504
1.40000504
1.40000504
1.40000504
1.40000504
1.40000504
1.40000504
1.40000504
1.40000504
1.40000504
1.40000504
1.40000504
1.40000504
1.40000504
1.40000504
1.40000504
1.40000504
1.40000504
1.40000504
1.40000504
1.40000504
1.40000504
1.40000504
1.40000504
1.400005036
1.400004978
1.400004402
1.400000102
1.399975828
1.399869353
1.399504672
1.398500042
1.396219365
1.391979469
1.40000504
1.40000504
1.40000504
1.40000504
1.40000504
1.40000504
1.40000504
1.40000504
1.40000504
1.40000504
1.40000504
1.40000504
1.40000504
1.40000504
1.40000504
1.40000504
1.40000504
1.40000504
1.40000504
1.40000504
1.40000504
1.40000504
1.40000504
1.40000504
1.40000504
1.40000504
1.40000504
1.40000504
1.400005038
1.400005002
1.400004638
1.4000018
1.399985068
1.399908468
1.399635242
1.398848528
1.39700381
1.40000504
1.40000504
1.40000504
1.40000504
1.40000504
1.40000504
1.40000504
1.40000504
1.40000504
1.40000504
1.40000504
1.40000504
1.40000504
1.40000504
1.40000504
1.40000504
1.40000504
1.40000504
1.40000504
1.40000504
1.40000504
1.40000504
1.40000504
1.40000504
1.40000504
1.40000504
1.40000504
1.40000504
1.40000504
1.400005039
1.400005018
1.400004789
1.400002933
1.399991501
1.399936887
1.399733641
1.399123549
1.40000504
1.40000504
1.40000504
1.40000504
1.40000504
1.40000504
1.40000504
1.40000504
1.40000504
1.40000504
1.40000504
1.40000504
1.40000504
1.40000504
1.40000504
1.40000504
1.40000504
1.40000504
1.40000504
1.40000504
1.40000504
1.40000504
1.40000504
1.40000504
1.40000504
1.40000504
1.40000504
1.40000504
1.40000504
1.40000504
1.400005039
1.400005027
1.400004885
1.400003682
1.399995939
1.399957366
1.399807267
1.40000504
1.40000504
1.40000504
1.40000504
1.40000504
1.40000504
1.40000504
1.40000504
1.40000504
1.40000504
1.40000504
1.40000504
1.40000504
1.40000504
1.40000504
1.40000504
1.40000504
1.40000504
1.40000504
1.40000504
1.40000504
1.40000504
1.40000504
1.40000504
1.40000504
1.40000504
1.40000504
1.40000504
1.40000504
1.40000504
1.40000504
1.40000504
1.400005032
1.400004945
1.400004173
1.399998976
1.399971972
1.40000504
1.40000504
1.40000504
1.40000504
1.40000504
1.40000504
1.40000504
1.40000504
1.40000504
1.40000504
1.40000504
1.40000504
1.40000504
1.40000504
1.40000504
1.40000504
1.40000504
1.40000504
1.40000504
1.40000504
1.40000504
1.40000504
1.40000504
1.40000504
1.40000504
1.40000504
1.40000504
1.40000504
1.40000504
1.40000504
1.40000504
1.40000504
1.40000504
1.400005036
1.400004983
1.400004492
1.400001037
1.40000504
1.40000504
1.40000504
1.40000504
1.40000504
1.40000504
1.40000504
1.40000504
1.40000504
1.40000504
1.40000504
1.40000504
1.40000504
1.40000504
1.40000504
1.40000504
1.40000504
1.40000504
1.40000504
1.40000504
1.40000504
1.40000504
1.40000504
1.40000504
1.40000504
1.40000504
1.40000504
1.40000504
1.40000504
1.40000504
1.40000504
1.40000504
1.40000504
1.40000504
1.400005038
1.400005006
1.400004697
1.40000504
1.40000504
1.40000504
1.40000504
1.40000504
1.40000504
1.40000504
1.40000504
1.40000504
1.40000504
1.40000504
1.40000504
1.40000504
1.40000504
1.40000504
1.40000504
1.40000504
1.40000504
1.40000504
1.40000504
1.40000504
1.40000504
1.40000504
1.40000504
1.40000504
1.40000504
1.40000504
1.40000504
1.40000504
1.40000504
1.40000504
1.40000504
1.40000504
1.40000504
1.40000504
1.400005039
1.40000502
1.40000504
1.40000504
1.40000504
1.40000504
1.40000504
1.40000504
1.40000504
1.40000504
1.40000504
1.40000504
1.40000504
1.40000504
1.40000504
1.40000504
1.40000504
1.40000504
1.40000504
1.40000504
1.40000504
1.40000504
1.40000504
1.40000504
1.40000504
1.40000504
1.40000504
1.40000504
1.40000504
1.40000504
1.40000504
1.40000504
1.40000504
1.40000504
1.40000504
1.40000504
1.40000504
1.40000504
1.400005039
1.40000504
1.40000504
1.40000504
1.40000504
1.40000504
1.40000504
1.40000504
1.40000504
1.40000504
1.40000504
1.40000504
1.40000504
1.40000504
1.40000504
1.40000504
1.40000504
1.40000504
1.40000504
1.40000504
1.40000504
1.40000504
1.40000504
1.40000504
1.40000504
1.40000504
1.40000504
1.40000504
1.40000504
1.40000504
1.40000504
1.40000504
1.40000504
1.40000504
1.40000504
)
;

boundaryField
{
    inlet
    {
        type            calculated;
        value           nonuniform 0();
    }
    outlet
    {
        type            calculated;
        value           nonuniform 0();
    }
    bottom
    {
        type            calculated;
        value           nonuniform 0();
    }
    top
    {
        type            calculated;
        value           nonuniform 0();
    }
    obstacle
    {
        type            calculated;
        value           nonuniform List<scalar> 
21
(
0.5182626528
0.5195379734
0.5260792734
0.532037295
0.5337834686
0.5339805777
0.5322457129
0.5253554354
0.5180344825
0.5149163301
0.5142718051
0.5145164769
0.518152985
0.5239691569
0.5263028295
0.5259381652
0.5212669451
0.5146727148
0.5122999924
0.5129590016
0.6380722544
)
;
    }
    defaultFaces
    {
        type            empty;
    }
    procBoundary27to20
    {
        type            processor;
        value           nonuniform List<scalar> 
32
(
1.40000504
1.40000504
1.40000504
1.40000504
1.40000504
1.40000504
1.40000504
1.40000504
1.40000504
1.40000504
1.40000504
1.40000504
1.40000504
1.40000504
1.40000504
1.40000504
1.40000504
1.40000504
1.40000504
1.40000504
1.40000504
1.40000504
1.40000504
1.40000504
1.40000504
1.40000504
1.40000504
1.40000504
1.40000504
1.40000504
1.40000504
1.40000504
)
;
    }
    procBoundary27to21
    {
        type            processor;
        value           nonuniform List<scalar> 
35
(
0.5545892778
0.5546073331
0.5547925867
0.5545506747
0.5548265295
0.5190160706
0.5242523045
0.5258614491
0.5239954775
0.5557664083
0.5804843365
0.5837934625
0.5734313015
0.5681734862
0.562725393
0.5563016733
0.552560518
0.5514350958
0.5495032554
0.5476653749
0.552163456
0.5537322117
0.5536074731
0.5536026848
0.5540301078
0.5539392798
0.5542758129
0.5543723161
0.5542025187
0.5543772983
0.5546273994
0.5542001546
0.5540616384
0.5542596826
0.5542596826
)
;
    }
    procBoundary27to26
    {
        type            processor;
        value           nonuniform List<scalar> 8(1.40000504 1.40000504 1.40000504 1.40000504 1.40000504 1.40000504 1.40000504 1.40000504);
    }
    procBoundary27to28
    {
        type            processor;
        value           nonuniform List<scalar> 
55
(
0.6087447604
0.5571331815
0.5544094993
0.5538109325
0.5536890929
0.5536890929
0.5526705957
0.5522934853
0.5521242939
0.5522560122
0.5521446292
0.5514051047