/*--------------------------------*- C++ -*----------------------------------*\
  =========                 |
  \\      /  F ield         | OpenFOAM: The Open Source CFD Toolbox
   \\    /   O peration     | Website:  https://openfoam.org
    \\  /    A nd           | Version:  7
     \\/     M anipulation  |
\*---------------------------------------------------------------------------*/
FoamFile
{
    version     2.0;
    format      ascii;
    class       volScalarField;
    location    "3.6";
    object      p;
}
// * * * * * * * * * * * * * * * * * * * * * * * * * * * * * * * * * * * * * //

dimensions      [1 -1 -2 0 0 0 0];

internalField   nonuniform List<scalar> 
555
(
0.6242649093
0.7583966637
0.9077531513
0.9769710215
0.9868358352
1.001840892
0.9935764202
0.9754682342
0.5233037352
0.5026028233
0.5199461472
0.5527702853
0.5472888898
0.5332040781
0.5347952386
0.5425484343
0.5600984179
0.6081729432
0.7148542763
0.8747557223
0.96677163
0.9864701626
1.001645534
0.9946262181
0.9746580635
0.5263878456
0.5022431182
0.5156329599
0.5514533579
0.5491450923
0.532809185
0.5345678787
0.5418368828
0.5564415072
0.5901382509
0.6872803613
0.8328430063
0.9448955374
0.9884547924
1.00084714
0.9959517419
0.973545759
0.52987762
0.5025473127
0.511118255
0.5497617182
0.5518259701
0.5332485715
0.5340751901
0.5396535872
0.5510869058
0.5768090357
0.6567721778
0.8007666105
0.9282207541
0.9862324711
1.000642493
0.9975909921
0.97252207
0.5337851516
0.503166031
0.5064501944
0.5469102195
0.5547299813
0.5333682739
0.5323420399
0.536382598
0.5465176521
0.5694782173
0.6264373312
0.7669840153
0.9091944771
0.975383308
0.999779412
0.999632172
0.971913287
0.9890401744
0.5381574764
0.5041347053
0.5020017196
0.5440027071
0.5577114738
0.533434333
0.5313446238
0.5351442239
0.544580505
0.5627756137
0.6091578182
0.7200115351
0.8800973673
0.957764263
0.9983933496
1.001056833
0.971613944
0.9887329445
0.5428854056
0.5067651602
0.4976842243
0.5414897031
0.5608370154
0.5353612946
0.5308901996
0.5343168557
0.5429717077
0.5568273851
0.5943014843
0.6874160527
0.8401319984
0.947311965
0.9963803933
1.002231662
0.9713981785
0.9879955895
0.5475372204
0.5097489386
0.4935916149
0.5393677454
0.5634816851
0.5367293567
0.5303066413
0.5328326563
0.5404105972
0.5524520899
0.5798988814
0.6672078658
0.8068563248
0.9418778933
0.9934985171
1.003469465
0.9713739074
0.9873367362
0.5521074394
0.5132010509
0.4905367745
0.5378404421
0.5661434218
0.5380490549
0.5297150476
0.5312245464
0.5381993164
0.5490436411
0.5723384939
0.6366031766
0.7808721243
0.9275721693
0.98965275
1.004592193
0.9718701681
0.9862908894
0.5561172582
0.5163902468
0.486987142
0.5370872475
0.5684752725
0.5423389145
0.5295494165
0.5301165379
0.5369471345
0.5463228276
0.5652489102
0.6100934196
0.7440625553
0.8955096031
0.9797808652
1.005289637
0.9727569643
0.9851669421
0.5592295153
0.5235949426
0.4823905806
0.5382042147
0.5721731335
0.5459795159
0.5300018159
0.5291768133
0.5358537307
0.5440799271
0.5582590775
0.5979462599
0.7010302068
0.8565890772
0.9692730884
1.006774746
0.973266463
0.9837853991
0.5826643132
0.5319452701
0.4748812845
0.5334288695
0.5720830188
0.5505867393
0.5312232814
0.528212424
0.534203538
0.5415447189
0.552587345
0.5803439151
0.6582219113
0.8107618109
0.9537798363
1.006049714
0.974024608
0.9832401553
1.089970076
0.674732478
0.5652657845
0.5754540788
0.583628125
0.5647764394
0.5365851474
0.5286091173
0.5306428245
0.5354945218
0.5412157444
0.5477883694
0.5737457852
0.6743302106
0.8466156618
0.9152008668
0.9624715791
0.9799779648
1.383297232
1.153513403
0.9089705691
0.747553723
0.6407726606
0.568950468
0.5434091182
0.5356561024
0.5400423164
0.5463396532
0.5451183298
0.541578783
0.5373548229
0.549955901
0.6059273889
0.7363532313
0.8977361329
0.9437365281
1.442678734
1.360181568
1.17489289
0.9512952988
0.7653958662
0.6730096595
0.6316483559
0.6000795035
0.575970806
0.5546267492
0.540485115
0.5362051649
0.5405448086
0.5411051718
0.5428487613
0.5729322187
0.6677778402
0.7975316083
1.447006132
1.427451829
1.343547238
1.180041256
1.004704139
0.853362964
0.7476140491
0.6827682765
0.6162777707
0.5607713534
0.5577554309
0.564531068
0.5622408154
0.5507328513
0.5405532132
0.5416700021
0.5560578214
0.620248921
1.448390978
1.441981974
1.414179961
1.330327098
1.194033808
1.036211887
0.8818532404
0.7844251066
0.7269909292
0.6658084476
0.6256439136
0.6042348799
0.5834654347
0.5579241976
0.5433521379
0.5457599573
0.5496374897
0.5539774039
1.454626322
1.448263145
1.437181869
1.403042734
1.32052449
1.203059605
1.068006691
0.9239228761
0.8423153497
0.7800482901
0.6959266709
0.6333784532
0.6164087437
0.6047322175
0.581298474
0.5742076778
0.566354832
0.5542797812
1.460437555
1.455121032
1.44724127
1.432179069
1.394588475
1.316576661
1.209878587
1.087783324
0.9560989581
0.8696995511
0.8048317683
0.7225431924
0.6869164604
0.669720565
0.6357070255
0.5972028997
0.581721365
0.569419576
1.470196888
1.465257864
1.45600374
1.447263077
1.430812991
1.390363395
1.313330828
1.217037814
1.101229416
0.9824756222
0.9129846553
0.8433020665
0.7563031665
0.7091751836
0.6846851184
0.6400258168
0.6209038218
0.615796801
1.46788487
1.459743602
1.457447101
1.457943944
1.4507982
1.428765801
1.382734409
1.308446903
1.219031045
1.110306686
1.005169279
0.9363591148
0.8613692605
0.7820407985
0.7544749258
0.7236727741
0.6746848696
0.6477305161
1.425439122
1.443285231
1.461138331
1.47051079
1.466065754
1.450135183
1.423059316
1.375269999
1.305201664
1.221690509
1.118583407
1.027598407
0.9630701187
0.8843490281
0.8195243999
0.7826107903
0.7328872563
0.6828215693
1.353548106
1.433318195
1.471879463
1.470468424
1.461840368
1.456081348
1.443966629
1.418022878
1.369833331
1.302499854
1.222172386
1.127611579
1.047907424
0.9771075031
0.8955800476
0.8447898398
0.8094399912
0.7578338504
1.189064049
1.344035181
1.444966068
1.443782909
1.448174734
1.457506465
1.456099605
1.443474961
1.414069621
1.364874262
1.300941932
1.222448849
1.136994467
1.064660316
0.9897375003
0.9190826825
0.8748351449
0.8268330184
1.049890143
1.191660599
1.362911847
1.412466505
1.445959317
1.46421438
1.462434163
1.457019476
1.440512757
1.409501773
1.361218262
1.298474985
1.22237875
1.145133763
1.075190406
1.000411905
0.9383972396
0.8924420663
1.00605569
1.060458137
1.191770844
1.336821416
1.439995015
1.459641053
1.457934268
1.45612231
1.452694486
1.437786394
1.405831717
1.357507552
1.295749256
1.223388235
1.153019535
1.08233972
1.013494336
0.9599595749
1.000349103
1.010354848
1.064085126
1.194333114
1.35148131
1.40965197
1.442305784
1.460249865
1.456926779
1.450487915
1.434490774
1.402413311
1.354151915
1.292884358
1.225515438
1.157213914
1.089123026
1.027505249
1.000010088
1.000991828
1.01259678
1.0704702
1.195311624
1.331354883
1.428973824
1.453643658
1.45182381
1.45213383
1.448052651
1.431545402
1.398429921
1.350292233
1.291762438
1.2270087
1.160376741
1.096407439
1.000000144
1.000053059
1.001626921
1.014672232
1.071888104
1.199541758
1.348428498
1.401395239
1.435202197
1.455334257
1.453423062
1.445886487
1.427490441
1.394373898
1.346973751
1.289787013
1.227775459
1.162017644
1.000000001
1.000001714
1.000134094
1.001998699
1.016116699
1.076690523
1.198610713
1.326180106
1.42251682
1.44809766
1.447923379
1.449387738
1.443921898
1.425177408
1.390549602
1.3432638
1.28846821
1.227452393
1
1.000000034
1.000007731
1.000166126
1.002427694
1.017577627
1.076403456
1.202335742
1.346458889
1.398753285
1.43229562
1.452739432
1.451139146
1.442443276
1.421709802
1.386835389
1.339822799
1.286204177
1
1
1.000000284
1.000009124
1.000232343
1.002667459
1.018194447
1.081639784
1.202438073
1.325602498
)
;

boundaryField
{
    inlet
    {
        type            fixedValue;
        value           nonuniform 0();
    }
    outlet
    {
        type            zeroGradient;
    }
    bottom
    {
        type            slip;
    }
    top
    {
        type            slip;
    }
    obstacle
    {
        type            zeroGradient;
    }
    defaultFaces
    {
        type            empty;
    }
    procBoundary27to20
    {
        type            processor;
        value           nonuniform List<scalar> 
16
(
1.456968927
1.450054056
1.446380377
1.447029504
1.452043852
1.465400783
1.463759725
1.469115936
1.468397499
1.40044103
1.248020651
1.06723458
1.004760703
1.000027475
0.999999954
0.9999999884
)
;
    }
    procBoundary27to21
    {
        type            processor;
        value           nonuniform List<scalar> 
18
(
0.6469719289
0.8002259375
0.9219410562
0.9789087103
0.9891222187
1.001914436
0.9920119981
0.9763589643
0.5205824106
0.5034978961
0.523981037
0.5539638056
0.5458869621
0.5349229248
0.5362927112
0.5443614414
0.5654225297
0.5654225297
)
;
    }
    procBoundary27to26
    {
        type            processor;
        value           nonuniform List<scalar> 4(0.9999999994 1 1 1);
    }
    procBoundary27to28
    {
        type            processor;
        value           nonuniform List<scalar> 
28
(
0.9936355937
0.9925769816
0.9905703419
0.9893481555
0.9893481555
0.9967059901
0.9951825212
0.9950809922
0.9960795906
0.9969280934
0.997449141
0.9973022268
0.9964389812
0.992930969
0.9801799605
0.92669034
0.7297203927
0.5763530573
0.5531320104
0.5579561485
0.597073167
0.629943499
0.6721655113
0.7233596797
0.7716376078
0.8391872232
0.9090472315
0.9735633169
)
;
    }
    procBoundary27to33
    {
        type            processor;
        value           nonuniform List<scalar> 
19
(
1.42028652
1.445798077
1.445304323
1.446407811
1.439817413
1.419154333
1.383170659
1.336791708
1
1
1.000000006
1.000000306
1.000015672
1.000252435
1.002926009
1.019829647
1.079510124
1.42028652
1.205485719
)
;
    }
    procBoundary27to34
    {
        type            processor;
        value           nonuniform List<scalar> 4(1.040938643 1.104349203 1.165727674 1.227047425);
    }
}


// ************************************************************************* //
