/*--------------------------------*- C++ -*----------------------------------*\
  =========                 |
  \\      /  F ield         | OpenFOAM: The Open Source CFD Toolbox
   \\    /   O peration     | Website:  https://openfoam.org
    \\  /    A nd           | Version:  7
     \\/     M anipulation  |
\*---------------------------------------------------------------------------*/
FoamFile
{
    version     2.0;
    format      ascii;
    class       volVectorField;
    location    "2.9";
    object      U;
}
// * * * * * * * * * * * * * * * * * * * * * * * * * * * * * * * * * * * * * //

dimensions      [0 1 -1 0 0 0 0];

internalField   nonuniform List<vector> 
2222
(
(2.931316036 0.003637868419 0)
(2.929254141 0.001874943716 0)
(2.927624577 0.001153534669 0)
(2.926026824 -0.0005830672623 0)
(2.924538847 -0.002168659879 0)
(2.923647762 -0.003296599488 0)
(2.923652957 -0.00394953734 0)
(2.924405843 -0.003924910085 0)
(2.924757453 -0.004140086601 0)
(2.924194709 -0.003827483424 0)
(2.923036549 -0.002109199923 0)
(2.921997756 -0.0003989791051 0)
(2.921627785 -1.66617122e-05 0)
(2.921670802 -0.000170839822 0)
(2.920558418 -0.0002641668916 0)
(2.949202207 -0.003838746766 0)
(2.949604438 -0.002867528465 0)
(2.948335972 -0.001944312288 0)
(2.94565749 -0.003809309377 0)
(2.94395424 -0.002223012174 0)
(2.943465428 0.001542441783 0)
(2.943511313 0.001576958621 0)
(2.944548091 9.29779588e-06 0)
(2.94427522 -0.0001276350102 0)
(2.943561503 0.001429670666 0)
(2.942437969 0.0005384136351 0)
(2.942007339 -0.002488548071 0)
(2.94192481 -0.003700397261 0)
(2.940465597 -0.002156223908 0)
(2.938180225 0.0003855463547 0)
(2.936131472 -8.107851263e-05 0)
(2.936209137 -0.002855544055 0)
(2.936360859 -0.003028275763 0)
(2.93553764 -0.001581204175 0)
(2.934907122 -0.001106580894 0)
(2.934708074 -0.0004142703059 0)
(2.935004455 0.001594722896 0)
(2.934949714 0.003972548155 0)
(2.934193143 0.003893701377 0)
(2.933386768 0.001798649556 0)
(2.932342972 0.0004812508316 0)
(2.930555299 -0.0001530136092 0)
(2.928604225 -0.001365734803 0)
(2.927177317 -0.002680785538 0)
(2.927051931 -0.003284587312 0)
(2.927977597 -0.002950377395 0)
(2.929136543 -0.002328220567 0)
(2.930104632 -0.004495645897 0)
(2.930490957 -0.00475572179 0)
(2.929917495 -0.002933321183 0)
(2.928741027 0.0003059552635 0)
(2.926760041 0.002812312602 0)
(2.925356194 0.002974517042 0)
(2.924319427 0.002151524721 0)
(2.954137255 -0.0009140074918 0)
(2.953995509 -0.001096979016 0)
(2.952729694 -0.001070768796 0)
(2.950012076 -0.003247123075 0)
(2.94797994 -0.004124328127 0)
(2.94723764 0.0006467432199 0)
(2.946068864 0.005980426255 0)
(2.944991123 0.005478192544 0)
(2.947040575 0.001245434074 0)
(2.947863472 -0.0004821745579 0)
(2.947462506 0.0005555009001 0)
(2.946715614 -0.000188817626 0)
(2.946482008 -0.003064252032 0)
(2.94611644 -0.003538125429 0)
(2.944232414 -0.001915462655 0)
(2.941508647 0.0006503500444 0)
(2.939509063 0.0002111986782 0)
(2.938788549 -0.0007853752504 0)
(2.938138395 -0.0008085616573 0)
(2.937523197 -0.00051582798 0)
(2.93726414 -0.0003574389873 0)
(2.937263951 0.0001752388061 0)
(2.937274045 0.001558370094 0)
(2.936419118 0.003061530097 0)
(2.935141968 0.001189370241 0)
(2.93415991 -0.0006349934482 0)
(2.932790952 -0.001295681057 0)
(2.931073926 -0.001848858496 0)
(2.929466338 -0.001765748126 0)
(2.928583742 -0.001374965486 0)
(2.92929106 -0.0008695614041 0)
(2.930589013 -0.001208232153 0)
(2.932019156 -0.002275665901 0)
(2.932862307 -0.003406149487 0)
(2.932245003 -0.002024748652 0)
(2.931010468 -0.0001094731466 0)
(2.929544415 0.001472471418 0)
(2.928000646 0.002734455677 0)
(2.926981845 0.002723536802 0)
(2.956462202 0.00353731301 0)
(2.955715208 0.0001271493174 0)
(2.954576061 -0.002914607968 0)
(2.951885413 -0.007202704911 0)
(2.950317725 -0.008221744479 0)
(2.949773 -0.002822920698 0)
(2.947993119 0.003900366752 0)
(2.946782155 0.005521352745 0)
(2.948150561 0.001128819259 0)
(2.949661076 -0.003847524406 0)
(2.949052655 -0.004021237281 0)
(2.948257755 -0.002869493154 0)
(2.947558472 -0.001436576519 0)
(2.947505013 -0.002432762886 0)
(2.945757476 -0.003126086881 0)
(2.943113524 -0.001778867268 0)
(2.940660879 -0.0005313210354 0)
(2.938982124 -0.0005051919952 0)
(2.937974283 -0.0006185976385 0)
(2.936984333 -0.0002514935376 0)
(2.936259118 0.0004382036167 0)
(2.936039993 0.0008675293255 0)
(2.936061289 0.001119879861 0)
(2.935520757 0.002337232646 0)
(2.934120659 0.001686849673 0)
(2.932777428 -0.0002052262117 0)
(2.931417493 -0.002201124178 0)
(2.930188733 -0.003764876842 0)
(2.928848347 -0.004160672688 0)
(2.928034964 -0.003220626456 0)
(2.928117634 -0.001760144197 0)
(2.928562233 -0.001577774119 0)
(2.929484995 -0.002221514797 0)
(2.928797149 -0.002386329893 0)
(2.927891982 -0.001196150002 0)
(2.926960659 -0.0003573491483 0)
(2.926141868 1.271242163e-05 0)
(2.925229353 0.0007745943306 0)
(2.924904856 0.001509894453 0)
(2.953293057 0.007101744024 0)
(2.952979726 0.002242161069 0)
(2.952221721 -0.001385604607 0)
(2.949160476 -0.004833343423 0)
(2.94673866 -0.003933486488 0)
(2.948049874 -0.001864558994 0)
(2.947167499 -2.330741953e-05 0)
(2.944809781 0.002651862447 0)
(2.944570916 0.001029392019 0)
(2.945913261 -0.002841251182 0)
(2.945595628 -0.003263906353 0)
(2.94383981 -0.002181825573 0)
(2.942252681 -0.000386685606 0)
(2.941262581 -0.0002362116262 0)
(2.940607149 -0.001988298094 0)
(2.938475133 -0.001755666536 0)
(2.935378746 -0.0006267033083 0)
(2.933143858 -0.001013274602 0)
(2.931111187 -0.001229817005 0)
(2.929433733 -0.000794528217 0)
(2.928117702 5.326916901e-05 0)
(2.927981591 0.0004873345865 0)
(2.928243937 0.0006724588416 0)
(2.928262345 0.001806827164 0)
(2.92744721 0.001925233581 0)
(2.92622857 0.0008072994003 0)
(2.924904419 -0.0008793156115 0)
(2.923735199 -0.002403249181 0)
(2.922483231 -0.004217155715 0)
(2.921544727 -0.005129739522 0)
(2.920734319 -0.00453788605 0)
(2.919618983 -0.00280740274 0)
(2.918024362 -0.001143017264 0)
(2.916399311 -0.0004725518169 0)
(2.915355207 -0.0006034261878 0)
(2.914684602 -0.0005228407006 0)
(2.914399462 -0.0004702947925 0)
(2.914002278 -0.0003601426069 0)
(2.91390998 0.0001991060475 0)
(2.944353319 0.008668279429 0)
(2.94385785 0.002531580856 0)
(2.943054834 -0.001622769352 0)
(2.939133651 -0.004326355723 0)
(2.935603385 -0.002362589594 0)
(2.936691755 -0.002147073479 0)
(2.937804127 -0.002659568646 0)
(2.93592015 -0.001609771379 0)
(2.933219468 -0.00121150853 0)
(2.93276904 -0.00454552908 0)
(2.933161269 -0.006455836357 0)
(2.931111499 -0.003574793926 0)
(2.928348016 0.0006651559926 0)
(2.926280684 0.0007393554007 0)
(2.925094076 -0.002019135435 0)
(2.924600133 -0.003059623111 0)
(2.921900302 -0.002042137926 0)
(2.919175649 -0.002186915511 0)
(2.915751172 -0.002144157401 0)
(2.913335348 -0.001645152755 0)
(2.911270143 -0.0003998308026 0)
(2.910806209 0.0002000494794 0)
(2.911384952 3.743398938e-05 0)
(2.912539512 0.0005364573407 0)
(2.913046234 0.0008642690073 0)
(2.912616689 0.0007719326724 0)
(2.911617552 -0.0004281516872 0)
(2.910492365 -0.001706156582 0)
(2.908839506 -0.003871441748 0)
(2.907230753 -0.005567018556 0)
(2.905331563 -0.005660458188 0)
(2.902356709 -0.004190797559 0)
(2.899318936 -0.001731536562 0)
(2.896961589 0.0004932287055 0)
(2.894995409 0.0006572127399 0)
(2.894059 -0.0005344277933 0)
(2.89381748 -0.001094504715 0)
(2.894060557 -0.001018799203 0)
(2.894281627 -0.0006422391472 0)
(2.928287441 0.005329990739 0)
(2.926367411 0.0009417730687 0)
(2.925067229 -0.002184851138 0)
(2.92177278 -0.003852927452 0)
(2.918270553 -0.001045462679 0)
(2.917800567 -0.002219065143 0)
(2.917801376 -0.005032711578 0)
(2.918072399 -0.004322693485 0)
(2.914754338 -0.002555063196 0)
(2.912404661 -0.00437001839 0)
(2.911030302 -0.00645812027 0)
(2.909712085 -0.002983964503 0)
(2.906336034 0.001072414106 0)
(2.903565374 0.002132840929 0)
(2.90152362 -0.0002546897553 0)
(2.901093464 -0.003896653598 0)
(2.899950078 -0.003873987975 0)
(2.897108617 -0.003682945817 0)
(2.892943178 -0.003921068853 0)
(2.889807159 -0.003622301714 0)
(2.887294401 -0.001995520667 0)
(2.88614854 -0.0002943462637 0)
(2.886502811 -0.0003842652006 0)
(2.888742217 -9.103543051e-05 0)
(2.891062554 0.0004625327308 0)
(2.891638535 0.0008108896341 0)
(2.891055722 -0.0001792388122 0)
(2.889956521 -0.001184563139 0)
(2.887715393 -0.002755822692 0)
(2.884884043 -0.004865002243 0)
(2.881545195 -0.00569698182 0)
(2.877996997 -0.004652368827 0)
(2.874409444 -0.001918003017 0)
(2.871243017 0.001110051326 0)
(2.868943454 0.001455289845 0)
(2.867262825 0.0003536238614 0)
(2.866646736 -0.0009189203697 0)
(2.866714584 -0.001606177446 0)
(2.867294459 -0.001527244708 0)
(2.902813707 -0.003426958133 0)
(2.90132884 -0.005326974962 0)
(2.89891456 -0.004296292682 0)
(2.896063177 0.0001505625732 0)
(2.893424514 0.0002238087939 0)
(2.891321331 -0.005107858569 0)
(2.890998673 -0.008158046855 0)
(2.889445365 -0.005963140017 0)
(2.886258068 -0.003876595592 0)
(2.882355968 -0.004676513489 0)
(2.880406065 -0.001740576939 0)
(2.878840902 0.0006382590152 0)
(2.875734007 0.002550965442 0)
(2.874166122 0.001024143573 0)
(2.872408104 -0.003502455265 0)
(2.871455271 -0.005337329201 0)
(2.869043562 -0.005036182929 0)
(2.864800967 -0.005255583145 0)
(2.86113902 -0.005006676359 0)
(2.858551675 -0.003605502118 0)
(2.857083921 -0.001700487229 0)
(2.857026218 -0.00112456031 0)
(2.85929293 -0.001183946968 0)
(2.862876031 -0.0007031857792 0)
(2.864768311 -0.0005801879861 0)
(2.864304116 -0.001110517404 0)
(2.863353814 -0.001316853199 0)
(2.860827712 -0.001894326564 0)
(2.856939657 -0.002933821992 0)
(2.852565112 -0.004534191542 0)
(2.848264316 -0.004736888941 0)
(2.844680404 -0.001900936462 0)
(2.841819548 0.001024382249 0)
(2.839663489 0.001597987866 0)
(2.837497933 0.001400914614 0)
(2.836541153 0.0005492916028 0)
(2.836184537 -0.0003138730557 0)
(2.836245011 -0.0006783599514 0)
(2.874667759 -0.005691584766 0)
(2.873405728 -0.00629935355 0)
(2.871606408 -0.004538154124 0)
(2.869132282 0.0003208981201 0)
(2.865079883 0.001786837159 0)
(2.860941096 -0.002631017717 0)
(2.85961305 -0.009088576529 0)
(2.859864362 -0.007679751126 0)
(2.857391704 -0.003342649798 0)
(2.852740477 -0.001180220859 0)
(2.849121209 -0.001238707525 0)
(2.84813826 -0.0007339173529 0)
(2.846256228 0.001200965994 0)
(2.844405165 0.001005224856 0)
(2.842663248 -0.001848204002 0)
(2.840514046 -0.005624601782 0)
(2.838246803 -0.005604746782 0)
(2.834322699 -0.00573333313 0)
(2.829978267 -0.005758134995 0)
(2.827560197 -0.004727609202 0)
(2.82651296 -0.003113819322 0)
(2.826293662 -0.001779283572 0)
(2.827943706 -0.002172950711 0)
(2.831197292 -0.002325391215 0)
(2.833734941 -0.002685439004 0)
(2.83371032 -0.002600118439 0)
(2.832709546 -0.00237351287 0)
(2.830536814 -0.002101794587 0)
(2.826536529 -0.001974762012 0)
(2.821999887 -0.002588897679 0)
(2.817177259 -0.002738513672 0)
(2.813135943 -0.001461721801 0)
(2.811022179 0.000281480537 0)
(2.809096818 0.00108067517 0)
(2.807469501 0.001658978525 0)
(2.806287142 0.001780742122 0)
(2.805653874 0.00151075186 0)
(2.805463705 0.0007285966373 0)
(2.838769935 -0.005664991556 0)
(2.838717281 -0.005754978303 0)
(2.839521623 -0.00466892423 0)
(2.838757432 -0.00196039418 0)
(2.83592876 0.001146825085 0)
(2.832101652 0.0002257663589 0)
(2.828650428 -0.005072520739 0)
(2.828685792 -0.006444315962 0)
(2.827382026 -0.001475696354 0)
(2.824693701 0.002022910212 0)
(2.820786286 -0.0005455968573 0)
(2.818295403 -0.002501830551 0)
(2.81733399 -0.001186284975 0)
(2.815815363 0.000542218836 0)
(2.81426147 -0.0002400117725 0)
(2.811754716 -0.003762451275 0)
(2.809253865 -0.005037732666 0)
(2.805887017 -0.004891648632 0)
(2.801200437 -0.005366028065 0)
(2.797825289 -0.005500954817 0)
(2.79660036 -0.00466665765 0)
(2.796016403 -0.002636786141 0)
(2.797229999 -0.002390263518 0)
(2.799414204 -0.003651858376 0)
(2.801298564 -0.004743775843 0)
(2.801521598 -0.004521548063 0)
(2.801006155 -0.003840780664 0)
(2.79904495 -0.00312017474 0)
(2.79582539 -0.001863043989 0)
(2.791888199 -0.0006199467392 0)
(2.788084181 -0.0001178379556 0)
(2.784407942 -0.0005801126556 0)
(2.781722301 -0.00082632133 0)
(2.779870699 -0.0002452283168 0)
(2.778193728 0.0009127662756 0)
(2.777301746 0.002087940866 0)
(2.776723959 0.002515853548 0)
(2.776916238 0.002121433945 0)
(2.805925003 -0.003354349141 0)
(2.806587461 -0.003613005505 0)
(2.807331629 -0.006350738097 0)
(2.809104746 -0.005782155179 0)
(2.807886616 -0.002303229069 0)
(2.806348407 0.0008852335804 0)
(2.802591169 -0.0002784293117 0)
(2.800040482 -0.003066851956 0)
(2.799082934 -0.001428913006 0)
(2.79796432 0.001781757477 0)
(2.795297795 0.001102910562 0)
(2.791673677 -0.002655193741 0)
(2.79068723 -0.003629519094 0)
(2.790038562 -0.001221508768 0)
(2.788886231 0.0001089756139 0)
(2.786766279 -0.001286737796 0)
(2.784035878 -0.003770187787 0)
(2.780897722 -0.003588250571 0)
(2.776614252 -0.003889674682 0)
(2.772258374 -0.004856394333 0)
(2.770092492 -0.005438548168 0)
(2.768847863 -0.004284799683 0)
(2.7684036 -0.00226697563 0)
(2.769556111 -0.00339059286 0)
(2.770348017 -0.005822047299 0)
(2.770339131 -0.006195101617 0)
(2.770074616 -0.005646757256 0)
(2.768795708 -0.004463224212 0)
(2.76611478 -0.002336451941 0)
(2.76303168 -0.0002012427363 0)
(2.760125403 0.0008278036786 0)
(2.757875436 0.0004557414874 0)
(2.755260841 -0.001655156825 0)
(2.753128931 -0.002048469196 0)
(2.751720942 -0.0007888228627 0)
(2.750678248 0.0007946526647 0)
(2.749954499 0.002066541222 0)
(2.749805913 0.002586064837 0)
(2.781527434 0.0003560130956 0)
(2.783040116 -0.0003129810461 0)
(2.783426581 -0.005679149278 0)
(2.783317805 -0.01053554954 0)
(2.783108843 -0.008069743847 0)
(2.78252933 -0.001397029666 0)
(2.781000061 0.002124708118 0)
(2.778329532 -8.070454275e-05 0)
(2.776075982 -0.001945746702 0)
(2.774730636 -0.0005104096586 0)
(2.771832758 0.0002023560476 0)
(2.769823801 -0.001615621405 0)
(2.767882883 -0.004200739338 0)
(2.767233885 -0.00280840884 0)
(2.766543161 -0.000134131901 0)
(2.764917893 -0.000172225937 0)
(2.762053892 -0.002949949248 0)
(2.758525514 -0.003458560703 0)
(2.75470344 -0.00336307599 0)
(2.750217336 -0.004130884069 0)
(2.747208828 -0.005100974202 0)
(2.745208975 -0.005055990115 0)
(2.743164367 -0.003488108884 0)
(2.742969364 -0.003789862007 0)
(2.743360496 -0.005403379398 0)
(2.743069862 -0.006468624874 0)
(2.742421004 -0.006773550156 0)
(2.74138779 -0.005602536774 0)
(2.739736218 -0.003259277897 0)
(2.737224556 -0.0008890622285 0)
(2.734752364 0.0006085978508 0)
(2.732627618 0.0008205860509 0)
(2.730919489 -0.001614972328 0)
(2.729228793 -0.002916232694 0)
(2.728077217 -0.002193937793 0)
(2.727063637 -0.001122433185 0)
(2.72632194 0.0006260904697 0)
(2.726064417 0.002373160485 0)
(2.757991375 0.003029559514 0)
(2.759175717 0.0001046166173 0)
(2.760259062 -0.005528158384 0)
(2.760537975 -0.01260573241 0)
(2.7599284 -0.01272760494 0)
(2.760136478 -0.006387495327 0)
(2.760270381 0.0009004289567 0)
(2.759331506 0.001312423876 0)
(2.757810386 -0.001438124466 0)
(2.75476553 -0.00211656399 0)
(2.751613297 -0.001181283027 0)
(2.750800126 -0.002949684169 0)
(2.749312601 -0.005410416413 0)
(2.748397836 -0.003973060813 0)
(2.747329238 -0.0009421678389 0)
(2.746008564 -0.0003357911911 0)
(2.74369594 -0.001679444146 0)
(2.739895 -0.00289581395 0)
(2.736257402 -0.002571149758 0)
(2.732269447 -0.002443847261 0)
(2.728510679 -0.004014246449 0)
(2.725781222 -0.005432293295 0)
(2.723358835 -0.004864941273 0)
(2.722131064 -0.004438315121 0)
(2.721908777 -0.004513741725 0)
(2.721638016 -0.005054017125 0)
(2.720699839 -0.00575148361 0)
(2.719365332 -0.005305511268 0)
(2.717917905 -0.003695552327 0)
(2.716012547 -0.002287179432 0)
(2.714405657 -0.001008969385 0)
(2.71250478 -0.0007830504199 0)
(2.71072427 -0.001497668441 0)
(2.709857023 -0.00333369981 0)
(2.708980327 -0.003961639403 0)
(2.708260174 -0.003366686022 0)
(2.707652592 -0.001705028794 0)
(2.707832131 0.0004622889892 0)
(2.735609059 -0.0003078065682 0)
(2.736426578 -0.004916176033 0)
(2.73953386 -0.01237469009 0)
(2.740933613 -0.01545239496 0)
(2.740162829 -0.009219598015 0)
(2.740215536 -0.001487925483 0)
(2.739684923 -0.0002218720977 0)
(2.739297951 -0.004586750529 0)
(2.737814987 -0.006267217529 0)
(2.735531317 -0.004777315379 0)
(2.734313114 -0.002705824064 0)
(2.734682854 -0.002318757076 0)
(2.734089492 -0.002881032347 0)
(2.732272473 -0.001494478304 0)
(2.731000558 -0.0004452076097 0)
(2.729370865 -0.001708614561 0)
(2.726359603 -0.004029172363 0)
(2.722474999 -0.004123442895 0)
(2.718670827 -0.004090280235 0)
(2.714965835 -0.004830548242 0)
(2.711774254 -0.005691860083 0)
(2.709872843 -0.006289826869 0)
(2.708185566 -0.005730957605 0)
(2.707157118 -0.004532442036 0)
(2.706342457 -0.004213862839 0)
(2.705356455 -0.004191479304 0)
(2.70405818 -0.003824677834 0)
(2.702552419 -0.003874602752 0)
(2.700963385 -0.003807393847 0)
(2.699970364 -0.003120859972 0)
(2.699022124 -0.002291544745 0)
(2.697093492 -0.001949907068 0)
(2.695845202 -0.003289284223 0)
(2.695265502 -0.004684685336 0)
(2.695134056 -0.004638778178 0)
(2.695098823 -0.003828895878 0)
(2.695446776 -0.00214662925 0)
(2.6964172 -0.0003166567835 0)
(2.719334138 -0.0023061204 0)
(2.720929663 -0.005537170784 0)
(2.723572643 -0.007326159212 0)
(2.727448291 -0.01026066975 0)
(2.728350218 -0.008931332497 0)
(2.726400088 -0.004081663601 0)
(2.724347891 -0.00160462158 0)
(2.723793437 -0.004593007499 0)
(2.725061285 -0.008895558058 0)
(2.725203056 -0.007207424007 0)
(2.72374884 -0.002704886983 0)
(2.722573442 -0.001340950874 0)
(2.723153048 -0.001827474091 0)
(2.722427789 -0.001439364158 0)
(2.720283228 -0.001362467866 0)
(2.718626193 -0.00224469512 0)
(2.716710316 -0.00465523622 0)
(2.71335109 -0.005468047834 0)
(2.710141389 -0.004818658561 0)
(2.706176107 -0.004420805256 0)
(2.703253155 -0.005450903296 0)
(2.70140085 -0.00724374868 0)
(2.699551519 -0.007355140568 0)
(2.698302159 -0.004961715602 0)
(2.6973692 -0.003600357423 0)
(2.695833384 -0.002519095743 0)
(2.694661796 -0.002047471005 0)
(2.693024763 -0.003201018681 0)
(2.691671245 -0.004789058878 0)
(2.690492283 -0.005746831817 0)
(2.689776997 -0.004471996234 0)
(2.688836149 -0.002290705752 0)
(2.687444317 -0.00198560602 0)
(2.687158216 -0.003507310965 0)
(2.687327215 -0.00431374486 0)
(2.687306053 -0.004972214034 0)
(2.687516141 -0.004857820494 0)
(2.688930787 -0.002411634609 0)
(2.71081671 -0.00765514285 0)
(2.713390857 -0.005807836915 0)
(2.715286734 -0.004430549904 0)
(2.717652313 -0.004489712416 0)
(2.720714143 -0.007372301389 0)
(2.720340597 -0.007325202286 0)
(2.718235321 -0.003998477071 0)
(2.716574646 -0.005591401085 0)
(2.717574709 -0.008717909669 0)
(2.718641725 -0.008383020565 0)
(2.717826771 -0.002688569753 0)
(2.715844471 0.001046628359 0)
(2.715238853 -0.0001775588527 0)
(2.716108626 -0.002550134278 0)
(2.714022977 -0.002149802853 0)
(2.712004074 -0.003065983011 0)
(2.710326181 -0.004921092288 0)
(2.708830137 -0.006293663201 0)
(2.706091383 -0.005548729088 0)
(2.702469062 -0.004383182279 0)
(2.699087559 -0.004977715025 0)
(2.696968374 -0.007302645243 0)
(2.694736832 -0.007874355588 0)
(2.693104902 -0.006015451234 0)
(2.692334826 -0.003494348676 0)
(2.691014193 -0.001891552349 0)
(2.689330482 -0.001691552482 0)
(2.687531643 -0.002706547222 0)
(2.686247801 -0.004812605682 0)
(2.685056598 -0.006242983986 0)
(2.683867517 -0.005864188088 0)
(2.683769823 -0.00260088365 0)
(2.683569722 -0.001527726403 0)
(2.682550803 -0.002898958843 0)
(2.682809995 -0.004278179844 0)
(2.68316276 -0.005102306873 0)
(2.683545305 -0.005276135294 0)
(2.68409219 -0.003932182883 0)
(2.708915738 -0.01161049811 0)
(2.710596935 -0.009464181949 0)
(2.713986398 -0.002575478529 0)
(2.715781113 0.001487379233 0)
(2.716226891 -0.0009763569666 0)
(2.717984916 -0.008484593999 0)
(2.717630201 -0.007203944493 0)
(2.71606661 -0.005031770607 0)
(2.714615543 -0.006738343678 0)
(2.716025375 -0.00676371118 0)
(2.716082433 -0.003678968698 0)
(2.71465563 0.00196548647 0)
(2.71289323 0.002219720986 0)
(2.712530609 -0.002069519146 0)
(2.711991945 -0.003006495253 0)
(2.710170527 -0.003271293103 0)
(2.707819338 -0.004128746757 0)
(2.70671678 -0.005831278817 0)
(2.704735017 -0.005892983499 0)
(2.701975494 -0.00423603244 0)
(2.69848665 -0.003991836975 0)
(2.695570583 -0.005784418272 0)
(2.693778514 -0.007298163256 0)
(2.691519924 -0.006882200551 0)
(2.690040535 -0.004959826882 0)
(2.689166183 -0.002851815149 0)
(2.687632148 -0.002240165102 0)
(2.686404081 -0.002716383145 0)
(2.684532319 -0.003730063843 0)
(2.68316371 -0.004609757026 0)
(2.682760559 -0.004112379631 0)
(2.682375141 -0.002807437614 0)
(2.682352578 -0.001703056076 0)
(2.681398552 -0.002038751457 0)
(2.681144402 -0.003029900815 0)
(2.681876949 -0.003844858016 0)
(2.68282181 -0.004289947932 0)
(2.683255369 -0.004938951133 0)
(2.713111545 -0.01294134562 0)
(2.714641645 -0.01280595981 0)
(2.716448694 -0.005946885808 0)
(2.71978483 0.002457081695 0)
(2.719358301 0.001971406096 0)
(2.719148414 -0.00608519341 0)
(2.719439333 -0.009006504422 0)
(2.719032954 -0.004819912197 0)
(2.716930717 -0.003804383783 0)
(2.717344541 -0.005224835437 0)
(2.717775587 -0.00378462281 0)
(2.718001305 0.001325684865 0)
(2.715632338 0.002506855412 0)
(2.713510756 -0.001375564159 0)
(2.713435616 -0.003979057919 0)
(2.711635936 -0.002939848218 0)
(2.708604875 -0.002841887797 0)
(2.706495757 -0.004123510309 0)
(2.705533752 -0.005787855829 0)
(2.703400684 -0.00458148084 0)
(2.700287649 -0.002884965203 0)
(2.696784227 -0.003881374801 0)
(2.694384245 -0.005701290881 0)
(2.692835734 -0.006227780499 0)
(2.691233179 -0.006038230107 0)
(2.689537285 -0.005572873693 0)
(2.688404887 -0.003784110401 0)
(2.687229002 -0.002457723543 0)
(2.685491871 -0.00208786499 0)
(2.684441742 -0.001878947235 0)
(2.683795895 -0.001829815042 0)
(2.683394122 -0.002504511752 0)
(2.683154799 -0.002230390512 0)
(2.683374395 -0.001607053858 0)
(2.683274667 -0.001599910518 0)
(2.68343691 -0.002121621756 0)
(2.684042148 -0.002799099776 0)
(2.684368466 -0.003367706045 0)
(2.721109594 -0.009942939523 0)
(2.72295881 -0.01394896289 0)
(2.72440396 -0.01223396042 0)
(2.725129 -0.00379982457 0)
(2.726291891 -0.0003239813961 0)
(2.72541739 -0.005097655394 0)
(2.724878093 -0.009126633925 0)
(2.724347873 -0.006175999029 0)
(2.724438961 -0.001259105266 0)
(2.721863234 -0.002392765018 0)
(2.721649005 -0.004181530156 0)
(2.721949185 -0.003156430589 0)
(2.720625109 -0.0006915807818 0)
(2.718829482 -0.002130990278 0)
(2.71734855 -0.003987611641 0)
(2.714981139 -0.002184604666 0)
(2.712862065 -0.0008756073382 0)
(2.709680336 -0.002028463458 0)
(2.708002832 -0.004229488538 0)
(2.706491124 -0.004955218704 0)
(2.704254104 -0.003046296804 0)
(2.701264703 -0.002081697233 0)
(2.697526759 -0.003380219273 0)
(2.696012481 -0.005059907045 0)
(2.694490097 -0.006614827753 0)
(2.692739118 -0.007156580142 0)
(2.691001684 -0.006886809375 0)
(2.689678463 -0.004101941798 0)
(2.688706487 -0.0008908132438 0)
(2.68795858 0.001357747029 0)
(2.687057911 0.0008150791958 0)
(2.686303254 -0.001647233626 0)
(2.686056783 -0.002888272914 0)
(2.68660674 -0.001925781209 0)
(2.687510544 -0.0005622242058 0)
(2.68776696 -0.0004698018021 0)
(2.687726504 -0.0008233887809 0)
(2.687425651 -0.002472468924 0)
(2.732105669 -0.006471963809 0)
(2.731728569 -0.01144130519 0)
(2.733874525 -0.01499817501 0)
(2.733526043 -0.01341975039 0)
(2.733665132 -0.004834513476 0)
(2.734496986 -0.004620005286 0)
(2.733269584 -0.008518477417 0)
(2.732971863 -0.007491490997 0)
(2.733331558 -0.002095447387 0)
(2.731835269 -0.0004494928141 0)
(2.729528724 -0.003694036688 0)
(2.728176733 -0.006692852267 0)
(2.726082434 -0.00460679204 0)
(2.725057087 -0.002970910338 0)
(2.722648222 -0.003288508968 0)
(2.720579811 -0.002362943047 0)
(2.719242512 0.0001654185534 0)
(2.716780408 0.0004167268083 0)
(2.713192652 -0.002163842925 0)
(2.711372854 -0.004716955565 0)
(2.709630314 -0.004350575535 0)
(2.707377228 -0.001963208106 0)
(2.705168397 -0.001383574257 0)
(2.702545156 -0.003126502341 0)
(2.700746083 -0.005183203771 0)
(2.699153905 -0.007068051768 0)
(2.697257417 -0.007874952655 0)
(2.6956204 -0.007198153664 0)
(2.694887326 -0.00298058108 0)
(2.694746536 0.001784832654 0)
(2.694726495 0.002531202915 0)
(2.693461905 -0.0002057630338 0)
(2.692583316 -0.002138676964 0)
(2.692790098 -0.002376896371 0)
(2.693426089 -0.0009335182976 0)
(2.693828365 -9.691245359e-05 0)
(2.69380835 -9.627154397e-05 0)
(2.693457179 -0.001978209379 0)
(2.742054631 -0.006232838826 0)
(2.743127958 -0.01327879816 0)
(2.744989403 -0.01734603988 0)
(2.743725169 -0.01298696633 0)
(2.743077337 -0.005240737138 0)
(2.742963775 -0.00769253247 0)
(2.743330042 -0.008417720046 0)
(2.74251729 -0.005049798346 0)
(2.742995061 -0.0002942721826 0)
(2.741024704 -0.00274640642 0)
(2.737581657 -0.007629254716 0)
(2.735094228 -0.007755057803 0)
(2.732298647 -0.003630716536 0)
(2.729810169 -0.002900365078 0)
(2.729010419 -0.001751504543 0)
(2.72724253 -0.0005518547875 0)
(2.725443433 0.001285263939 0)
(2.722257155 0.0002345454795 0)
(2.719244742 -0.003397956706 0)
(2.717417826 -0.005087382402 0)
(2.715547501 -0.003730797181 0)
(2.71392503 -0.001762393688 0)
(2.712496262 -0.001761504588 0)
(2.71088261 -0.002925743422 0)
(2.709353009 -0.004940078881 0)
(2.707875749 -0.006753102575 0)
(2.706242755 -0.006236007877 0)
(2.704757791 -0.003312544066 0)
(2.703685768 -0.0002358205108 0)
(2.70370225 0.001354002796 0)
(2.703704321 0.0006378045964 0)
(2.703659261 -0.0009938568046 0)
(2.70384293 -0.001397095623 0)
(2.703861083 -0.001048749803 0)
(2.704162169 -0.0006391168718 0)
(2.703953567 -0.001181118419 0)
(2.703636112 -0.003443208876 0)
(2.75527871 -0.000711520148 0)
(2.754746398 -0.006863088665 0)
(2.757385591 -0.01592746301 0)
(2.757201425 -0.01802729752 0)
(2.754870151 -0.009197371028 0)
(2.754474157 -0.00628556278 0)
(2.754368544 -0.008536943816 0)
(2.753473324 -0.008117349793 0)
(2.752339639 -0.002908920987 0)
(2.752349623 -0.002281517864 0)
(2.749781398 -0.006289192723 0)
(2.747060027 -0.008119904147 0)
(2.743797348 -0.004834071676 0)
(2.741064606 -0.00211031558 0)
(2.739487022 -0.001687290199 0)
(2.737346495 -0.001298074569 0)
(2.734773684 0.0001024810449 0)
(2.732977696 0.000910132745 0)
(2.730513874 -0.001814147642 0)
(2.72893535 -0.004906310282 0)
(2.727378924 -0.005233408957 0)
(2.725709416 -0.003599599662 0)
(2.725190668 -0.002487357977 0)
(2.72481 -0.002441478333 0)
(2.723796409 -0.003300529376 0)
(2.722100598 -0.004663140203 0)
(2.72045307 -0.004796846365 0)
(2.718768782 -0.003665213503 0)
(2.717277204 -0.002101515725 0)
(2.716387403 -0.0006752295646 0)
(2.717491792 -0.0003409229842 0)
(2.719069038 -0.0007861960703 0)
(2.719607132 -0.0008881411309 0)
(2.719914822 -0.0003753015355 0)
(2.720304617 -0.0005476802373 0)
(2.719880645 -0.00175030756 0)
(2.719170506 -0.004224159906 0)
(2.768883264 0.0007014946297 0)
(2.768769126 -0.001529243544 0)
(2.769730225 -0.00869800526 0)
(2.77223849 -0.01569936977 0)
(2.769793931 -0.01228820309 0)
(2.767906537 -0.005243625784 0)
(2.766518012 -0.007753337279 0)
(2.765656024 -0.009887594861 0)
(2.763390943 -0.006458221046 0)
(2.761443718 -0.003338193219 0)
(2.761194405 -0.005585544224 0)
(2.759644589 -0.006291954564 0)
(2.756644792 -0.003434740178 0)
(2.754278163 -5.320687637e-05 0)
(2.751117768 -0.0007421994702 0)
(2.748658425 -0.002573380991 0)
(2.74603969 -0.002196380801 0)
(2.743866625 -0.0006690742528 0)
(2.743820492 -0.0007778643814 0)
(2.743201326 -0.0042487314 0)
(2.742682686 -0.005830884218 0)
(2.741811591 -0.005116256733 0)
(2.741248565 -0.003740663619 0)
(2.740693081 -0.003054244641 0)
(2.739735347 -0.002801492292 0)
(2.738921474 -0.002370901674 0)
(2.737428039 -0.002677968327 0)
(2.736077713 -0.00325987344 0)
(2.735199743 -0.003010417754 0)
(2.734787654 -0.001267053209 0)
(2.735803364 1.593776215e-05 0)
(2.737092709 0.0003207175188 0)
(2.738474536 0.0002830606625 0)
(2.739588146 -0.0001685986165 0)
(2.739852609 -0.001243349608 0)
(2.739448258 -0.003308846754 0)
(2.738593887 -0.005833969929 0)
(2.781480636 -0.003379658177 0)
(2.780564442 0.0003092482304 0)
(2.780886699 -0.002947867223 0)
(2.783752987 -0.01146558859 0)
(2.783681094 -0.01168077681 0)
(2.781054681 -0.005603283906 0)
(2.779135345 -0.005918272987 0)
(2.77760625 -0.01144500123 0)
(2.775733364 -0.01211201404 0)
(2.772363422 -0.004311565708 0)
(2.770751092 -0.00187906622 0)
(2.770195995 -0.004390854293 0)
(2.768682662 -0.002872636954 0)
(2.76618547 -0.0006607719281 0)
(2.763442798 -0.0004769747323 0)
(2.760693299 -0.003095362912 0)
(2.758923918 -0.003978830714 0)
(2.757065103 -0.001978759255 0)
(2.756725411 -0.0009269646058 0)
(2.757789902 -0.002453114724 0)
(2.758543391 -0.00605196523 0)
(2.758663275 -0.006569842799 0)
(2.758352778 -0.005635208063 0)
(2.757885991 -0.003354001153 0)
(2.757289901 -0.001005866127 0)
(2.7566094 0.0001256606276 0)
(2.756004785 -0.0003750094347 0)
(2.755356417 -0.002450154635 0)
(2.75502048 -0.003507187003 0)
(2.755166106 -0.003098118004 0)
(2.755827101 -0.001340312662 0)
(2.757055963 0.0003070086497 0)
(2.75874951 0.0007683463793 0)
(2.759978705 0.0006419784285 0)
(2.760052825 -0.000810265491 0)
(2.759826316 -0.003093404553 0)
(2.759048403 -0.005311083826 0)
(2.794071311 -0.01324082406 0)
(2.790297972 -0.002592124606 0)
(2.789741594 -8.76502964e-05 0)
(2.791787806 -0.005571377309 0)
(2.794730943 -0.01159200792 0)
(2.792480443 -0.008175998694 0)
(2.789851455 -0.006691984156 0)
(2.788349813 -0.01035420797 0)
(2.787309291 -0.01356400226 0)
(2.784870484 -0.01017031974 0)
(2.781226394 -0.001695114238 0)
(2.779783566 -0.001168495143 0)
(2.778765924 -0.001815161322 0)
(2.77688456 -0.0002927625774 0)
(2.77452388 -0.0003148145954 0)
(2.772297892 -0.002703389567 0)
(2.771268185 -0.005459893932 0)
(2.770577631 -0.004653465808 0)
(2.769341749 -0.001195973471 0)
(2.770290219 -0.001400444318 0)
(2.772574939 -0.004061587707 0)
(2.773746948 -0.006650566229 0)
(2.77432079 -0.007052940803 0)
(2.774833228 -0.005935879385 0)
(2.774807016 -0.002668051934 0)
(2.773983255 0.000836837085 0)
(2.7735154 0.0009553532325 0)
(2.773887909 -0.0006736525245 0)
(2.774087821 -0.002294183136 0)
(2.774408312 -0.002400392509 0)
(2.775166366 -0.0007975319038 0)