/*--------------------------------*- C++ -*----------------------------------*\
  =========                 |
  \\      /  F ield         | OpenFOAM: The Open Source CFD Toolbox
   \\    /   O peration     | Website:  https://openfoam.org
    \\  /    A nd           | Version:  7
     \\/     M anipulation  |
\*---------------------------------------------------------------------------*/
FoamFile
{
    version     2.0;
    format      ascii;
    class       volVectorField;
    location    "0.9";
    object      U;
}
// * * * * * * * * * * * * * * * * * * * * * * * * * * * * * * * * * * * * * //

dimensions      [0 1 -1 0 0 0 0];

internalField   nonuniform List<vector> 
555
(
(2.970522241 -0.3127068571 0)
(2.941088836 -0.1800635267 0)
(2.914575877 -0.05129523049 0)
(2.902625995 -0.005589390335 0)
(2.895304991 -0.007201401053 0)
(2.890888282 -0.01071212249 0)
(2.891520331 -0.005356725413 0)
(2.892801756 0.004410712666 0)
(3.371728943 -0.4463824363 0)
(3.400895288 -0.4210504495 0)
(3.348352175 -0.4481790661 0)
(3.189790458 -0.4538221173 0)
(3.049879078 -0.422558141 0)
(2.978469641 -0.4071826004 0)
(2.961779331 -0.3922980511 0)
(2.962571524 -0.3862753272 0)
(2.971667334 -0.3715648384 0)
(2.974929461 -0.3239361625 0)
(2.960468983 -0.2352123651 0)
(2.918226158 -0.09249465659 0)
(2.906109446 -0.02123349189 0)
(2.898123895 -0.007383824354 0)
(2.893515609 -0.008790055439 0)
(2.89455433 -0.005266727304 0)
(2.895622111 0.005279838704 0)
(3.367212133 -0.4484836894 0)
(3.406908187 -0.4194462517 0)
(3.365803986 -0.4404930864 0)
(3.197911871 -0.4546016042 0)
(3.044902126 -0.4246945851 0)
(2.975542438 -0.4089586484 0)
(2.963267729 -0.3957671185 0)
(2.967037173 -0.389818173 0)
(2.976673863 -0.3792357562 0)
(2.979072889 -0.339908687 0)
(2.966387017 -0.2489341619 0)
(2.932018703 -0.1253886759 0)
(2.910172832 -0.03159635632 0)
(2.900425929 -0.004794598565 0)
(2.896246369 -0.007678210461 0)
(2.897302292 -0.005310615593 0)
(2.898277769 0.005302873508 0)
(3.359605228 -0.4507112432 0)
(3.41211673 -0.4179344079 0)
(3.384099477 -0.4326382149 0)
(3.208683639 -0.4547147906 0)
(3.041845639 -0.4251787755 0)
(2.971679633 -0.4097120568 0)
(2.963335961 -0.3971610451 0)
(2.969955085 -0.3907867886 0)
(2.979895042 -0.3813568165 0)
(2.984593471 -0.3577212559 0)
(2.971754257 -0.2652575599 0)
(2.940676124 -0.1257223933 0)
(2.915404779 -0.03432106406 0)
(2.901124539 -0.0001212733309 0)
(2.898561823 -0.008059904252 0)
(2.900114613 -0.00536333305 0)
(2.900944839 0.005409125074 0)
(3.348708533 -0.4528605433 0)
(3.416237519 -0.4166192095 0)
(3.407978128 -0.4241941753 0)
(3.220031821 -0.4560548139 0)
(3.039438243 -0.4256739081 0)
(2.967237598 -0.4094889676 0)
(2.963040715 -0.398179561 0)
(2.972130403 -0.392575737 0)
(2.981814937 -0.3840731585 0)
(2.986893662 -0.365556304 0)
(2.982703524 -0.3080437105 0)
(2.947438787 -0.137639773 0)
(2.922227159 -0.02571988591 0)
(2.903068955 0.00187527372 0)
(2.900590429 -0.008563080502 0)
(2.90239312 -0.005583116526 0)
(2.903415325 0.005959921558 0)
(2.900800979 -0.003063354289 0)
(3.33385536 -0.4550234428 0)
(3.428012879 -0.4168662759 0)
(3.431476754 -0.4153438307 0)
(3.232175379 -0.4571110645 0)
(3.036310479 -0.4270916269 0)
(2.96282059 -0.4096813582 0)
(2.962158651 -0.3993298698 0)
(2.9730474 -0.3951651562 0)
(2.983138989 -0.3889660909 0)
(2.988966059 -0.3740410702 0)
(2.986398648 -0.3278970775 0)
(2.962385672 -0.2015800103 0)
(2.924578212 -0.04905114261 0)
(2.906592343 -0.007903148335 0)
(2.902732551 -0.00992584247 0)
(2.904140377 -0.006439520636 0)
(2.905220157 0.00652311918 0)
(2.902069698 -0.003347123581 0)
(3.312766496 -0.4562916252 0)
(3.443496446 -0.4184766144 0)
(3.45740217 -0.4051817194 0)
(3.242491611 -0.4560155621 0)
(3.032720999 -0.4284643589 0)
(2.958366501 -0.4096239607 0)
(2.960691856 -0.4000568394 0)
(2.973026936 -0.3973868819 0)
(2.98489046 -0.3928140918 0)
(2.992157932 -0.3817696123 0)
(2.991230551 -0.3462558865 0)
(2.97469657 -0.2452769666 0)
(2.933785986 -0.09709736922 0)
(2.910089488 -0.01913161911 0)
(2.905249203 -0.01086590609 0)
(2.905776248 -0.007711103819 0)
(2.905739726 0.007222781303 0)
(2.902054384 -0.003418153507 0)
(3.283199834 -0.4578908868 0)
(3.462419861 -0.4204808578 0)
(3.48802975 -0.3988227946 0)
(3.249023417 -0.4534474693 0)
(3.028570641 -0.4296382448 0)
(2.953273106 -0.4098061989 0)
(2.958279342 -0.4005135015 0)
(2.972477024 -0.3988823002 0)
(2.985858181 -0.3935167306 0)
(2.994699724 -0.3850718771 0)
(2.997011537 -0.3616206217 0)
(2.980407067 -0.2654083471 0)
(2.954081122 -0.1459604921 0)
(2.920376702 -0.03256470956 0)
(2.907726333 -0.01039149169 0)
(2.90501148 -0.008432021663 0)
(2.90362827 0.007245893284 0)
(2.899607415 -0.004176613138 0)
(3.244657492 -0.4572605492 0)
(3.490122086 -0.4247055495 0)
(3.506145732 -0.3859008184 0)
(3.25079479 -0.4466753107 0)
(3.023919542 -0.4303265076 0)
(2.947441216 -0.4097302936 0)
(2.954600575 -0.4001653074 0)
(2.972074857 -0.4000410001 0)
(2.986815832 -0.3953225134 0)
(2.996800756 -0.387493804 0)
(3.000119877 -0.3706052943 0)
(2.982525257 -0.2895304796 0)
(2.969938317 -0.1634982468 0)
(2.932820327 -0.0381133547 0)
(2.905225452 -0.009114831331 0)
(2.898442334 -0.008183821817 0)
(2.897811058 0.0088635639 0)
(2.895909694 -0.003840693746 0)
(3.196047919 -0.4533395598 0)
(3.529301727 -0.4350717878 0)
(3.524628771 -0.3720960758 0)
(3.247379516 -0.4387756483 0)
(3.019476444 -0.4292740825 0)
(2.940217571 -0.4093697967 0)
(2.950838149 -0.3999875108 0)
(2.97200106 -0.4011436489 0)
(2.98777585 -0.3972328358 0)
(2.99860695 -0.3916794547 0)
(3.001663885 -0.3775755521 0)
(2.989436956 -0.323542328 0)
(2.98192526 -0.1779815728 0)
(2.948017501 -0.0519691303 0)
(2.892496421 -0.01800862201 0)
(2.885800955 -0.01081058992 0)
(2.88889346 0.008833750032 0)
(2.894585798 -0.004531862006 0)
(3.135402355 -0.4525058486 0)
(3.576493975 -0.4421477991 0)
(3.543178065 -0.3624747677 0)
(3.244791767 -0.4303352509 0)
(3.014154348 -0.4260967557 0)
(2.929900217 -0.4092441624 0)
(2.948317218 -0.3999358144 0)
(2.972047434 -0.4016743245 0)
(2.988963942 -0.3995620162 0)
(3.000590766 -0.3946729204 0)
(3.00441155 -0.3866194442 0)
(2.987770208 -0.3334024126 0)
(2.997744683 -0.2266833011 0)
(2.96491917 -0.07053712709 0)
(2.865631592 -0.02239354896 0)
(2.870971284 -0.01026120539 0)
(2.881555863 0.01036168563 0)
(2.897855199 -0.004953363314 0)
(3.055780079 -0.4300942896 0)
(3.608853583 -0.4435806572 0)
(3.564255562 -0.3607465906 0)
(3.234770332 -0.4261716429 0)
(3.005596853 -0.422576168 0)
(2.922554807 -0.4055423109 0)
(2.946160503 -0.3987456094 0)
(2.972499932 -0.4027308135 0)
(2.989319928 -0.4009506902 0)
(3.00128567 -0.3966413781 0)
(3.005255762 -0.3912623526 0)
(2.988789085 -0.3552339309 0)
(3.003258385 -0.2671225777 0)
(2.976119712 -0.1091764657 0)
(2.849857794 -0.03439395386 0)
(2.860898999 -0.01559854472 0)
(2.880864508 0.01102039988 0)
(2.905438306 -0.005368734936 0)
(2.96427866 -0.03718506779 0)
(2.975405199 -0.03374630599 0)
(2.971279824 -0.2615857015 0)
(2.9505225 -0.3882147185 0)
(2.923901415 -0.4145389876 0)
(2.926018393 -0.4055990943 0)
(2.95404623 -0.4003730338 0)
(2.979588732 -0.4043852258 0)
(2.98954969 -0.4039487962 0)
(3.002325406 -0.4051864918 0)
(3.010727793 -0.4063700223 0)
(3.021367955 -0.3912003963 0)
(3.035405795 -0.3626019294 0)
(3.010524378 -0.2259113116 0)
(3.034525076 -0.1664159685 0)
(2.958424919 0.0181954046 0)
(2.929250604 0.01795781866 0)
(2.924309663 -0.004752352412 0)
(2.894225894 0.2280974629 0)
(2.899981617 0.05103598672 0)
(2.893620413 -0.1405680528 0)
(2.916985833 -0.2957198437 0)
(2.955367134 -0.3599054896 0)
(2.963960709 -0.3271256761 0)
(2.995496197 -0.3501801303 0)
(3.013381562 -0.370290134 0)
(3.033992347 -0.3952750067 0)
(3.058067865 -0.4124436704 0)
(3.061116001 -0.4124967267 0)
(3.071825638 -0.409402405 0)
(3.080611775 -0.4017043263 0)
(3.084623101 -0.3872484261 0)
(3.101427785 -0.3134953635 0)
(3.0861039 -0.1919780208 0)
(3.074469445 -0.1243886885 0)
(3.033661955 -0.05014264951 0)
(2.894563218 0.2483749058 0)
(2.9067339 0.2048378231 0)
(2.924692638 0.1175188347 0)
(2.959784777 -0.01933993298 0)
(2.996328534 -0.1285699153 0)
(3.008644374 -0.1947146367 0)
(3.047599494 -0.3056837247 0)
(3.067109205 -0.3831739324 0)
(3.080234013 -0.4005676214 0)
(3.095980956 -0.405730024 0)
(3.110916659 -0.4020052344 0)
(3.117548421 -0.4010603479 0)
(3.116970768 -0.4032783443 0)
(3.115646887 -0.4090319797 0)
(3.114966018 -0.4031946246 0)
(3.109951607 -0.3658212831 0)
(3.106622702 -0.2562947781 0)
(3.092447969 -0.1452150265 0)
(2.900192291 0.2479828166 0)
(2.904009483 0.240243117 0)
(2.924170949 0.1937780352 0)
(2.955790308 0.1191334392 0)
(3.001229598 -0.01432986518 0)
(3.035027721 -0.1643079289 0)
(3.059766026 -0.2014233808 0)
(3.082600085 -0.2913074074 0)
(3.0970618 -0.3182550642 0)
(3.092923365 -0.3108954766 0)
(3.104831907 -0.3438401785 0)
(3.114748026 -0.3807967915 0)
(3.116369824 -0.4048239943 0)
(3.118644822 -0.4128339213 0)
(3.120264206 -0.4059544419 0)
(3.118848755 -0.4024400203 0)
(3.11062554 -0.3852641194 0)
(3.100653595 -0.3399530468 0)
(2.898391397 0.2513573176 0)
(2.900087231 0.2490574676 0)
(2.90705022 0.236899905 0)
(2.929183776 0.1916341468 0)
(2.957562291 0.1253543115 0)
(2.992718887 0.02410695156 0)
(3.024449293 -0.05941527672 0)
(3.05341856 -0.1466932363 0)
(3.068383399 -0.2035907437 0)
(3.073703283 -0.2581561611 0)
(3.095080457 -0.3326757052 0)
(3.103071795 -0.3729421383 0)
(3.111750564 -0.3837932308 0)
(3.119477977 -0.379510399 0)
(3.107904184 -0.3802024677 0)
(3.101411275 -0.3904944606 0)
(3.101243876 -0.3948253923 0)
(3.100263115 -0.3919055909 0)
(2.897101892 0.2548193402 0)
(2.898423903 0.2517717316 0)
(2.901110005 0.2464568887 0)
(2.909395731 0.229630674 0)
(2.929182423 0.186791896 0)
(2.956386424 0.1240243425 0)
(2.992144542 0.02826793655 0)
(3.017697395 -0.03579044336 0)
(3.04995464 -0.1535490049 0)
(3.061421957 -0.2242075769 0)
(3.074900852 -0.2235813419 0)
(3.079308336 -0.2608513872 0)
(3.077288336 -0.2889863633 0)
(3.076890165 -0.3101673789 0)
(3.092540079 -0.3500528729 0)
(3.091012786 -0.3843160225 0)
(3.098301751 -0.3875864604 0)
(3.103240361 -0.3881046055 0)
(2.891056869 0.2598474046 0)
(2.89232211 0.2555176804 0)
(2.894030819 0.2521297838 0)
(2.898255497 0.2439691474 0)
(2.907287498 0.2255002705 0)
(2.926554126 0.1854492514 0)
(2.953870552 0.1232554848 0)
(2.982939922 0.05185392139 0)
(2.999069114 0.003544699114 0)
(3.028543721 -0.09866892099 0)
(3.046723539 -0.1424133016 0)
(3.059183735 -0.1851128926 0)
(3.071537863 -0.2729892301 0)
(3.074246522 -0.3051843409 0)
(3.087419982 -0.311196793 0)
(3.093814955 -0.3551110056 0)
(3.09485462 -0.3567479542 0)
(3.094828456 -0.3509423148 0)
(2.888231106 0.2604213077 0)
(2.888845869 0.2589835155 0)
(2.890555764 0.2553725743 0)
(2.893017592 0.2498818446 0)
(2.898008447 0.2393220123 0)
(2.907644228 0.2201607255 0)
(2.924739581 0.1854572033 0)
(2.952601633 0.1225006328 0)
(2.976509925 0.06310745419 0)
(3.00172614 -0.005861558002 0)
(3.024384615 -0.08170188437 0)
(3.042475751 -0.1292785079 0)
(3.058898099 -0.1921373214 0)
(3.06557153 -0.2318855907 0)
(3.067564992 -0.2222989871 0)
(3.068821864 -0.2593918162 0)
(3.077487136 -0.3144389698 0)
(3.083485971 -0.3243938142 0)
(2.894901691 0.2540582644 0)
(2.890603522 0.2603109745 0)
(2.889309558 0.2574448249 0)
(2.89001996 0.253552362 0)
(2.89192264 0.2485166792 0)
(2.897299797 0.2378720745 0)
(2.907955586 0.217332158 0)
(2.924628171 0.1832471935 0)
(2.948940362 0.128899825 0)
(2.973308195 0.07061922576 0)
(2.995907811 0.005239978659 0)
(3.014741318 -0.04304002959 0)
(3.026953369 -0.08318806365 0)
(3.044273729 -0.1541068603 0)
(3.052033804 -0.1854560881 0)
(3.066309535 -0.2348461689 0)
(3.07378294 -0.2888387267 0)
(3.080828055 -0.2983933152 0)
(2.897161034 0.2727331257 0)
(2.891847028 0.2630388672 0)
(2.888322544 0.2562288665 0)
(2.888295368 0.2555235727 0)
(2.888602817 0.2553270721 0)
(2.891825734 0.2496130156 0)
(2.897839051 0.2371704881 0)
(2.909084469 0.2138302514 0)
(2.92567328 0.1787953041 0)
(2.946861494 0.1316058423 0)
(2.969767864 0.07506835486 0)
(2.992291745 0.01561981982 0)
(3.009754184 -0.0318530313 0)
(3.028878664 -0.1000385486 0)
(3.041065839 -0.1380458917 0)
(3.054264748 -0.1622247444 0)
(3.060206745 -0.2057559376 0)
(3.062531537 -0.227753028 0)
(2.915294106 0.2174024205 0)
(2.907599548 0.2231236771 0)
(2.894515503 0.2473903773 0)
(2.889455359 0.2578830312 0)
(2.887801365 0.2586728314 0)
(2.888905379 0.2548351936 0)
(2.890961649 0.2484736932 0)
(2.897154671 0.2352699202 0)
(2.908754943 0.2114929091 0)
(2.925201888 0.1766575364 0)
(2.944839212 0.1325248197 0)
(2.966229982 0.08008124632 0)
(2.985162364 0.03626135698 0)
(3.005437592 -0.02157512927 0)
(3.019270859 -0.06681330844 0)
(3.032347595 -0.09661850211 0)
(3.045106183 -0.1434921435 0)
(3.052628281 -0.1900730286 0)
(2.942901313 0.1322016143 0)
(2.929275953 0.1776795497 0)
(2.898600115 0.2601628989 0)
(2.891180877 0.2621546865 0)
(2.889836276 0.2592600566 0)
(2.887374244 0.2557101759 0)
(2.888136678 0.2536184078 0)
(2.891071393 0.2467909271 0)
(2.897533277 0.2324076728 0)
(2.908473747 0.2086652937 0)
(2.923428213 0.176316904 0)
(2.943667585 0.1305083052 0)
(2.963046824 0.08668776978 0)
(2.982092141 0.04208689788 0)
(3.001085029 -0.01309548851 0)
(3.015943564 -0.05557823684 0)
(3.03269706 -0.1020578831 0)
(3.041664678 -0.1391868397 0)
(2.984088659 0.03317411833 0)
(2.961530427 0.1054428013 0)
(2.912526557 0.2293742741 0)
(2.907562999 0.2263501104 0)
(2.894893435 0.2496409562 0)
(2.8905334 0.2557802638 0)
(2.888720522 0.2555136813 0)
(2.888863303 0.2531103869 0)
(2.890732186 0.2459075516 0)
(2.896873047 0.2306788936 0)
(2.90726414 0.2073767722 0)
(2.922721932 0.1743140104 0)
(2.941308717 0.1334514841 0)
(2.96120884 0.08972164312 0)
(2.978508443 0.04730480841 0)
(2.995233315 0.001857175869 0)
(3.009780861 -0.0333143832 0)
(3.023708447 -0.07838759725 0)
(2.998030835 0.004284722732 0)
(2.98741016 0.03378613116 0)
(2.944929772 0.1321946253 0)
(2.934773985 0.1711307152 0)
(2.899032935 0.2516452787 0)
(2.894395789 0.2591110089 0)
(2.889723233 0.2550832754 0)
(2.88892677 0.2552865272 0)
(2.888834633 0.2533734588 0)
(2.891031094 0.24528398 0)
(2.89749672 0.228314132 0)
(2.907875726 0.2047425633 0)
(2.922987882 0.1723122745 0)
(2.940619409 0.1340706721 0)
(2.957306735 0.09714669116 0)
(2.977614629 0.04729075363 0)
(2.99198504 0.01053707972 0)
(3.008469725 -0.03220970563 0)
(2.999914841 0.0001945647216 0)
(2.997658119 0.005916044277 0)
(2.980399213 0.04393318843 0)
(2.960489028 0.1113209639 0)
(2.913400393 0.2246552101 0)
(2.913055112 0.2230968855 0)
(2.896917785 0.2484765304 0)
(2.890997459 0.2574773581 0)
(2.889481481 0.2564936651 0)
(2.889963909 0.2527923021 0)
(2.892434909 0.2433182941 0)
(2.898839954 0.2262382763 0)
(2.90903017 0.2031419818 0)
(2.924116092 0.1698662235 0)
(2.939347647 0.1365767972 0)
(2.955681783 0.1009013056 0)
(2.975315411 0.05106826715 0)
(2.9897526 0.01837326477 0)
(2.999998068 4.831803264e-06 0)
(2.999793702 0.0005004339555 0)
(2.996038884 0.009501941805 0)
(2.985101667 0.04007754193 0)
(2.946803004 0.1286744628 0)
(2.937966582 0.1693342608 0)
(2.903142029 0.2532015559 0)
(2.895736808 0.2595982141 0)
(2.891255042 0.255022149 0)
(2.891206259 0.2543228464 0)
(2.891648605 0.2509550547 0)
(2.894383357 0.2409606134 0)
(2.900087024 0.2250846275 0)
(2.910848342 0.2007235092 0)
(2.924992617 0.1688642273 0)
(2.939262735 0.1393831182 0)
(2.95774538 0.09693016777 0)
(2.972718069 0.05957560281 0)
(2.999999986 3.40907216e-08 0)
(2.99998652 3.340833196e-05 0)
(2.999612768 0.0009909014309 0)
(2.996455347 0.009136487495 0)
(2.980105882 0.04638972962 0)
(2.959112241 0.1126901736 0)
(2.915311523 0.2188102889 0)
(2.914471854 0.220275905 0)
(2.900405776 0.2479446613 0)
(2.894047579 0.2568695975 0)
(2.891430645 0.2548434912 0)
(2.89179673 0.250630956 0)
(2.894879577 0.2401081455 0)
(2.901505048 0.2241865814 0)
(2.913462399 0.1977630259 0)
(2.9262055 0.1706472643 0)
(2.941302667 0.1388054258 0)
(2.95930453 0.09352056964 0)
(3 1.496095749e-10 0)
(2.999999554 1.097425525e-06 0)
(2.9999715 7.665340233e-05 0)
(2.999585209 0.001042580863 0)
(2.995460904 0.01129682368 0)
(2.983828067 0.04230020654 0)
(2.945780747 0.1270511429 0)
(2.934984708 0.1718803655 0)
(2.906221364 0.2532607197 0)
(2.899489178 0.2592711248 0)
(2.893069086 0.2537177543 0)
(2.892407492 0.2527243119 0)
(2.892898478 0.2488368291 0)
(2.896522035 0.2384028713 0)
(2.904370866 0.2205371475 0)
(2.915515509 0.196124945 0)
(2.927995441 0.1709602286 0)
(2.943934901 0.1353257171 0)
(3 1.053653603e-13 0)
(2.999999985 3.889265924e-08 0)
(2.999999031 2.581302766e-06 0)
(2.999959839 0.0001027218112 0)
(2.999494412 0.001316518787 0)
(2.995638045 0.0110881837 0)
(2.979933512 0.04677263117 0)
(2.955465729 0.1166464114 0)
(2.916324363 0.2132232525 0)
(2.918271441 0.2198202749 0)
(2.90338602 0.2485496534 0)
(2.894674325 0.2543491812 0)
(2.892548166 0.2522162416 0)
(2.893262997 0.2471456767 0)
(2.896956853 0.2366108337 0)
(2.905576003 0.2177718555 0)
(2.916410066 0.1958993569 0)
(2.929986565 0.1689376604 0)
(3 -2.025768627e-14 0)
(3 6.647743727e-10 0)
(2.999999967 8.773817725e-08 0)
(2.999998152 4.569557685e-06 0)
(2.999948745 0.0001381108382 0)
(2.999440773 0.001391144829 0)
(2.99494731 0.01295062644 0)
(2.982841821 0.0443165816 0)
(2.944956585 0.1262428384 0)
(2.934752175 0.1757097168 0)
)
;

boundaryField
{
    inlet
    {
        type            fixedValue;
        value           nonuniform 0();
    }
    outlet
    {
        type            inletOutlet;
        inletValue      nonuniform 0();
        value           nonuniform 0();
    }
    bottom
    {
        type            slip;
    }
    top
    {
        type            slip;
    }
    obstacle
    {
        type            slip;
    }
    defaultFaces
    {
        type            empty;
    }
    procBoundary27to20
    {
        type            processor;
        value           nonuniform List<vector> 
16
(
(2.876472833 0.2498797221 0)
(2.88310793 0.251755297 0)
(2.89329921 0.2510670126 0)
(2.899714193 0.2488377081 0)
(2.897766652 0.2521459882 0)
(2.894505752 0.2585866271 0)
(2.890571897 0.2627434177 0)
(2.887434228 0.2633750129 0)
(2.896176572 0.2439364432 0)
(2.902429426 0.2350047123 0)
(2.940925074 0.1375895382 0)
(2.98264853 0.0383456097 0)
(2.998509327 0.002895069793 0)
(2.999991731 9.071647345e-06 0)
(3.000000035 1.687934319e-09 0)
(3.000000003 -8.173635109e-10 0)
)
;
    }
    procBoundary27to21
    {
        type            processor;
        value           nonuniform List<vector> 
18
(
(2.958924341 -0.278641757 0)
(2.934279271 -0.1278451524 0)
(2.910177207 -0.01810265567 0)
(2.897294384 0.002003314084 0)
(2.891515513 -0.006326223597 0)
(2.887377914 -0.01206081318 0)
(2.888437456 -0.00551525766 0)
(2.889326345 0.003161408229 0)
(3.373374528 -0.4439608515 0)
(3.393794119 -0.4230583955 0)
(3.334202389 -0.4549133085 0)
(3.18564766 -0.4520852936 0)
(3.053640446 -0.4211127435 0)
(2.982090422 -0.4062132123 0)
(2.961370702 -0.3901298251 0)
(2.959644478 -0.3817453572 0)
(2.96796501 -0.3621567479 0)
(2.96796501 -0.3621567479 0)
)
;
    }
    procBoundary27to26
    {
        type            processor;
        value           nonuniform List<vector> 4((3 -5.568474604e-12 0) (3 -2.059508247e-13 0) (3 -1.418486812e-14 0) (3 -4.129770775e-15 0));
    }
    procBoundary27to28
    {
        type            processor;
        value           nonuniform List<vector> 
28
(
(2.891695181 -0.001174304968 0)
(2.89463945 -0.0009239142098 0)
(2.897205636 -0.001546531079 0)
(2.899182177 -0.002367225722 0)
(2.899182177 -0.002367225722 0)
(2.900590972 0.0007968818532 0)
(2.901605082 0.0008972539213 0)
(2.901567328 0.0008439313846 0)
(2.900139166 0.0007849014735 0)
(2.898520415 0.001061565156 0)
(2.898539223 0.0005962522775 0)
(2.899483282 0.0001882497723 0)
(2.900875094 0.0001126466207 0)
(2.931565598 0.002561459866 0)
(3.008436001 -0.001774942926 0)
(3.057337163 -0.0491064837 0)
(3.063730432 -0.1935630287 0)
(3.090798512 -0.3645633978 0)
(3.100741956 -0.3890629605 0)
(3.09123527 -0.3723647104 0)
(3.092429821 -0.3596046154 0)
(3.087357681 -0.3013735491 0)
(3.06440872 -0.2387872294 0)
(3.060062562 -0.2236083312 0)
(3.048134113 -0.1584009932 0)
(3.03148382 -0.1059515147 0)
(3.018941871 -0.0664508236 0)
(3.002191308 -0.01376114512 0)
)
;
    }
    procBoundary27to33
    {
        type            processor;
        value           nonuniform List<vector> 
19
(
(2.909107002 0.2547320287 0)
(2.901954245 0.2581282692 0)
(2.893431917 0.250808205 0)
(2.892360528 0.2498200018 0)
(2.893118294 0.2446987156 0)
(2.897408093 0.2339365294 0)
(2.906366343 0.2158819147 0)
(2.917401423 0.195747005 0)
(3 -1.879837024e-14 0)
(3 1.666617946e-11 0)
(2.999999999 1.405481933e-09 0)
(2.999999905 2.440158432e-07 0)
(2.999997623 6.209268279e-06 0)
(2.999931485 0.0001781736051 0)
(2.999406266 0.00159122196 0)
(2.994895987 0.01325528739 0)
(2.980760559 0.04579796086 0)
(2.909107002 0.2547320287 0)
(2.951235561 0.1249656342 0)
)
;
    }
    procBoundary27to34
    {
        type            processor;
        value           nonuniform List<vector> 4((2.986565997 0.0304310323 0) (2.969734236 0.07374787297 0) (2.957889929 0.1021179173 0) (2.944530822 0.1362553769 0));
    }
}


// ************************************************************************* //
