/*--------------------------------*- C++ -*----------------------------------*\
  =========                 |
  \\      /  F ield         | OpenFOAM: The Open Source CFD Toolbox
   \\    /   O peration     | Website:  https://openfoam.org
    \\  /    A nd           | Version:  7
     \\/     M anipulation  |
\*---------------------------------------------------------------------------*/
FoamFile
{
    version     2.0;
    format      ascii;
    class       volVectorField;
    location    "2.3";
    object      U;
}
// * * * * * * * * * * * * * * * * * * * * * * * * * * * * * * * * * * * * * //

dimensions      [0 1 -1 0 0 0 0];

internalField   nonuniform List<vector> 
555
(
(2.969568136 -0.3156967027 0)
(2.949094889 -0.1820429805 0)
(2.916594763 -0.05764692546 0)
(2.901365279 -0.008996247809 0)
(2.897872999 -0.004323525113 0)
(2.894751014 -0.009811169748 0)
(2.895817332 -0.004699051787 0)
(2.897654989 0.003648009043 0)
(3.340133895 -0.4479278288 0)
(3.367377411 -0.418665652 0)
(3.358953435 -0.4395975736 0)
(3.226359657 -0.460859573 0)
(3.074563542 -0.4250166011 0)
(2.992271549 -0.4060553267 0)
(2.966024757 -0.3891175632 0)
(2.964750125 -0.3844330067 0)
(2.97279312 -0.3788202149 0)
(2.97976582 -0.3441004955 0)
(2.957273547 -0.2256375657 0)
(2.924333211 -0.07266036581 0)
(2.90687776 -0.01411920289 0)
(2.900583976 -0.004218675544 0)
(2.896375748 -0.009583653798 0)
(2.897976372 -0.00521511244 0)
(2.900599464 0.004170017011 0)
(3.33262837 -0.4491420947 0)
(3.368569622 -0.4172867759 0)
(3.372915997 -0.4322634531 0)
(3.230759712 -0.4623496088 0)
(3.0682335 -0.4266842938 0)
(2.988145143 -0.4086366416 0)
(2.963493014 -0.3908444723 0)
(2.965898725 -0.3867238168 0)
(2.975194145 -0.3830642618 0)
(2.982826947 -0.349642876 0)
(2.97852431 -0.2727218957 0)
(2.929108676 -0.1016826627 0)
(2.910276447 -0.01887881056 0)
(2.902539228 -0.002651581006 0)
(2.898283066 -0.008636710611 0)
(2.900019706 -0.005759130095 0)
(2.903362439 0.0038292058 0)
(3.323404691 -0.4504831825 0)
(3.370591315 -0.4169100325 0)
(3.387030263 -0.4248463715 0)
(3.235448582 -0.4629091293 0)
(3.061118407 -0.4288476544 0)
(2.984107809 -0.4100256136 0)
(2.962187492 -0.391007571 0)
(2.967214046 -0.386686766 0)
(2.977041845 -0.3862574713 0)
(2.985781958 -0.3648091515 0)
(2.982166266 -0.2799547381 0)
(2.953635881 -0.1486951571 0)
(2.912420999 -0.02866842978 0)
(2.904311658 0.004449109403 0)
(2.899771445 -0.006604090722 0)
(2.902436774 -0.006693713377 0)
(2.906253171 0.003450676907 0)
(3.312124791 -0.4514858849 0)
(3.373643339 -0.415677736 0)
(3.403541672 -0.4166933152 0)
(3.240227504 -0.4626925161 0)
(3.054089726 -0.4303401043 0)
(2.980464029 -0.4118778613 0)
(2.961634863 -0.3910858709 0)
(2.96885663 -0.3881869861 0)
(2.978653921 -0.39008414 0)
(2.989174569 -0.3765398627 0)
(2.985719528 -0.3117548568 0)
(2.959512418 -0.1613131075 0)
(2.929293222 -0.05146223496 0)
(2.906189497 0.007179374691 0)
(2.901361046 -0.006049474763 0)
(2.905339607 -0.007515560369 0)
(2.908255543 0.003205120126 0)
(2.90624202 -0.001974378506 0)
(3.2975691 -0.4526472602 0)
(3.38002487 -0.4175832865 0)
(3.424107413 -0.4087085488 0)
(3.244489592 -0.4613912242 0)
(3.04581054 -0.4323808597 0)
(2.975071982 -0.4138124185 0)
(2.960686087 -0.3923983584 0)
(2.970733744 -0.3904663881 0)
(2.980015341 -0.391775579 0)
(2.991179949 -0.3823719161 0)
(2.994391304 -0.3434748866 0)
(2.964681562 -0.1947985722 0)
(2.938258635 -0.05710593072 0)
(2.908021979 -0.002222191203 0)
(2.904139802 -0.006643280456 0)
(2.907282991 -0.007780540355 0)
(2.909227696 0.003143952864 0)
(2.907486008 -0.001656889485 0)
(3.279092897 -0.4526230418 0)
(3.390822322 -0.4168912303 0)
(3.440871532 -0.399978214 0)
(3.247310001 -0.4585102838 0)
(3.037627887 -0.4326810332 0)
(2.968684235 -0.4155479271 0)
(2.959914874 -0.3937112711 0)
(2.972697465 -0.3919198802 0)
(2.981542753 -0.3929244918 0)
(2.992738586 -0.3875593178 0)
(2.998210812 -0.3583153202 0)
(2.976658018 -0.2414850701 0)
(2.943662631 -0.084694458 0)
(2.917019631 -0.02005604324 0)
(2.907347984 -0.008483431146 0)
(2.908261717 -0.008372871171 0)
(2.910277919 0.003500474917 0)
(2.907857339 -0.0006311670342 0)
(3.254846826 -0.4532778138 0)
(3.410253846 -0.4165764321 0)
(3.462672909 -0.390836206 0)
(3.253628371 -0.4538514673 0)
(3.028363896 -0.4335015082 0)
(2.961273532 -0.4172211325 0)
(2.958713672 -0.394408965 0)
(2.974450402 -0.392511217 0)
(2.983172968 -0.3943501482 0)
(2.9939247 -0.3922623161 0)
(3.000201474 -0.3677540761 0)
(2.990336817 -0.2785638579 0)
(2.95311887 -0.1272651905 0)
(2.92550059 -0.03085666349 0)
(2.910962032 -0.01154580107 0)
(2.908163134 -0.00949414336 0)
(2.909586395 0.004154853499 0)
(2.905999868 -0.000180473282 0)
(3.222809944 -0.4536458037 0)
(3.443360058 -0.4209358742 0)
(3.492890309 -0.3844093168 0)
(3.254746476 -0.4491664245 0)
(3.018157295 -0.4318104864 0)
(2.952775698 -0.4184375834 0)
(2.958304516 -0.3960983353 0)
(2.975687987 -0.3934016839 0)
(2.984616666 -0.3953522512 0)
(2.994765901 -0.3943759285 0)
(3.003347225 -0.3834339209 0)
(2.991852178 -0.2882566598 0)
(2.980251331 -0.1739341297 0)
(2.938453103 -0.03365564521 0)
(2.913770036 -0.01389931877 0)
(2.90484791 -0.01037029149 0)
(2.905051655 0.004853259048 0)
(2.90318193 0.0007134051784 0)
(3.177849501 -0.4490680996 0)
(3.490284529 -0.4316193813 0)
(3.524061364 -0.3720675625 0)
(3.246291332 -0.4383059414 0)
(3.005990868 -0.4315959148 0)
(2.945722006 -0.4199571584 0)
(2.958138691 -0.3975917473 0)
(2.976683832 -0.394417119 0)
(2.985773459 -0.3962547045 0)
(2.995487483 -0.3965667995 0)
(3.004572009 -0.390079374 0)
(2.994291667 -0.3228633876 0)
(2.991291654 -0.183800092 0)
(2.952399735 -0.0388093684 0)
(2.907007339 -0.01343555462 0)
(2.896500719 -0.01197130055 0)
(2.898471426 0.00507299128 0)
(2.903091226 0.00122551723 0)
(3.123039967 -0.4488899275 0)
(3.550036458 -0.4389677073 0)
(3.545729982 -0.3623954868 0)
(3.241198113 -0.4292401077 0)
(2.994806937 -0.4266988563 0)
(2.938874519 -0.4205293887 0)
(2.959285523 -0.3998149583 0)
(2.977322677 -0.3951476221 0)
(2.986595838 -0.3966361984 0)
(2.996114602 -0.3975140877 0)
(3.005529986 -0.3936132278 0)
(2.997452115 -0.3455038781 0)
(3.001330384 -0.2174538791 0)
(2.973086749 -0.07005306653 0)
(2.884435857 -0.01668554523 0)
(2.884161563 -0.01190745436 0)
(2.895045707 0.005803992322 0)
(2.907502699 0.001346000206 0)
(3.048033587 -0.4273648081 0)
(3.589322405 -0.4418349174 0)
(3.56520852 -0.3622634236 0)
(3.228154889 -0.4235628187 0)
(2.983492791 -0.4236737671 0)
(2.93599923 -0.4172779551 0)
(2.961084986 -0.3994750917 0)
(2.977808726 -0.3958715878 0)
(2.987012558 -0.3982442726 0)
(2.996765696 -0.3996365458 0)
(3.006796941 -0.4008703975 0)
(2.998745133 -0.3621225258 0)
(3.009973466 -0.2688149529 0)
(2.981655276 -0.1026023729 0)
(2.870067952 -0.02641817264 0)
(2.876883952 -0.01605828715 0)
(2.897877269 0.005122416293 0)
(2.914985572 0.0008342344977 0)
(2.960564904 -0.04088344862 0)
(2.991857142 -0.01425808183 0)
(2.964055109 -0.266028407 0)
(2.938528601 -0.3894633469 0)
(2.92850245 -0.4205398349 0)
(2.949574145 -0.4164350294 0)
(2.963417222 -0.4015550318 0)
(2.98292809 -0.4001936388 0)
(2.988141548 -0.4009274755 0)
(2.997935031 -0.4048369106 0)
(3.013913 -0.4114293155 0)
(3.027759481 -0.3952267783 0)
(3.040637403 -0.3613367601 0)
(3.015200856 -0.2235584864 0)
(3.036740083 -0.1744748571 0)
(2.971423726 0.0228223559 0)
(2.930210858 0.009250438918 0)
(2.925079547 0.002824804573 0)
(2.892929724 0.2290618062 0)
(2.910769611 0.05167210155 0)
(2.898948835 -0.1405156292 0)
(2.91621733 -0.2971202746 0)
(2.95014971 -0.3596260124 0)
(2.989504957 -0.3254614497 0)
(2.989271994 -0.3486684691 0)
(3.021042735 -0.382147285 0)
(3.03095004 -0.3916452207 0)
(3.053955381 -0.4102818727 0)
(3.061959864 -0.412500429 0)
(3.075562963 -0.410353892 0)
(3.084056515 -0.4026179633 0)
(3.087330828 -0.3885976763 0)
(3.09833494 -0.3201966874 0)
(3.079633909 -0.1910620521 0)
(3.091192345 -0.1332684765 0)
(3.019327041 -0.02543831192 0)
(2.894498111 0.2483124054 0)
(2.907183046 0.2062850756 0)
(2.927461748 0.1157830709 0)
(2.964666921 -0.03468975388 0)
(2.973727221 -0.07682525832 0)
(3.032475937 -0.2287825361 0)
(3.047733033 -0.3069417888 0)
(3.064728548 -0.3697790603 0)
(3.080643041 -0.4066820478 0)
(3.093270738 -0.4084954883 0)
(3.107730919 -0.3943245947 0)
(3.114727307 -0.3997337466 0)
(3.114179163 -0.4038902425 0)
(3.115868371 -0.4101682542 0)
(3.113984782 -0.4040015513 0)
(3.10661178 -0.3659609641 0)
(3.116826368 -0.2793636659 0)
(3.079360696 -0.1037844746 0)
(2.899970976 0.2480123003 0)
(2.903892312 0.2400997336 0)
(2.924068793 0.1954122255 0)
(2.957751402 0.1156988741 0)
(2.998355186 -0.02060300938 0)
(3.036469661 -0.1304275081 0)
(3.06745623 -0.2366364195 0)
(3.081148712 -0.298889272 0)
(3.096943584 -0.2980349692 0)
(3.09134244 -0.3115443642 0)
(3.097317207 -0.3401671026 0)
(3.111844567 -0.3784690115 0)
(3.11309526 -0.4077425609 0)
(3.11706271 -0.4149225601 0)
(3.121441176 -0.4056217822 0)
(3.119128861 -0.4006428592 0)
(3.10970191 -0.3915444272 0)
(3.093343213 -0.3296168735 0)
(2.89837344 0.2515378589 0)
(2.900166536 0.2487583164 0)
(2.907003774 0.2368717565 0)
(2.928180853 0.1954677666 0)
(2.961553567 0.1170415651 0)
(2.995492979 0.0285238982 0)
(3.015001363 -0.0326998342 0)
(3.051007912 -0.157537903 0)
(3.069032495 -0.2064049196 0)
(3.08062148 -0.2700852547 0)
(3.094063082 -0.3394317447 0)
(3.103308658 -0.3629037877 0)
(3.10915205 -0.3844905791 0)
(3.113188101 -0.3737140957 0)
(3.107719194 -0.3787271344 0)
(3.10177677 -0.3869308134 0)
(3.099844565 -0.39620738 0)
(3.098519906 -0.3933574248 0)
(2.896966021 0.2551891588 0)
(2.898493411 0.2517286971 0)
(2.901696297 0.2456383441 0)
(2.909881193 0.2301086593 0)
(2.928801409 0.1919829182 0)
(2.960221161 0.1181266525 0)
(2.990690668 0.03343435602 0)
(3.015807547 -0.03526494543 0)
(3.047420156 -0.1463757264 0)
(3.062750601 -0.2236828639 0)
(3.077688856 -0.2349723497 0)
(3.07340979 -0.2438235342 0)
(3.073135459 -0.285655286 0)
(3.08613609 -0.3380339724 0)
(3.092770851 -0.355766375 0)
(3.097726115 -0.3794982536 0)
(3.097877673 -0.3973589046 0)
(3.102263703 -0.3930013826 0)
(2.890794666 0.2599248067 0)
(2.893014659 0.255214081 0)
(2.894063569 0.2528958288 0)
(2.898436955 0.2454497118 0)
(2.907884839 0.2273387236 0)
(2.925804266 0.1892251165 0)
(2.954177019 0.1224572819 0)
(2.982649745 0.05005243124 0)
(2.998683866 0.0004793294393 0)
(3.025742514 -0.09014369 0)
(3.04625688 -0.1470797329 0)
(3.054910284 -0.1859536496 0)
(3.069385742 -0.2517466181 0)
(3.08000152 -0.3128963855 0)
(3.085616591 -0.3335546582 0)
(3.097128826 -0.3416863869 0)
(3.09354111 -0.3448608188 0)
(3.09110078 -0.3581274011 0)
(2.888050197 0.2602251132 0)
(2.889532493 0.2585132184 0)
(2.890859706 0.2581814114 0)
(2.893497575 0.2532894234 0)
(2.898548362 0.2415113364 0)
(2.907707725 0.2207002655 0)
(2.924415821 0.1846881937 0)
(2.951059296 0.1232853734 0)
(2.9755373 0.06084979156 0)
(2.998164053 0.002626359763 0)
(3.02591021 -0.0852768468 0)
(3.040888189 -0.1533688581 0)
(3.053570726 -0.1656834573 0)
(3.057495695 -0.2013482875 0)
(3.065638121 -0.2497275247 0)
(3.070937201 -0.2666475706 0)
(3.075729829 -0.2945359805 0)
(3.08758132 -0.3451660648 0)
(2.894564372 0.2533491942 0)
(2.889965544 0.2620519749 0)
(2.890146378 0.2604461162 0)
(2.890638966 0.2559409272 0)
(2.892308893 0.2487080443 0)
(2.897240455 0.2374227619 0)
(2.907759886 0.2176148229 0)
(2.92499952 0.1831229834 0)
(2.94952506 0.1270829641 0)
(2.972468523 0.07213353949 0)
(2.988775129 0.02517699106 0)
(3.015427659 -0.05902345511 0)
(3.030868452 -0.09987958077 0)
(3.041408422 -0.1351912979 0)
(3.052063548 -0.1890807828 0)
(3.061748566 -0.2479543456 0)
(3.071108219 -0.2737863157 0)
(3.082375583 -0.2932304567 0)
(2.893388352 0.265948433 0)
(2.890352929 0.2706706249 0)
(2.888467641 0.2619770499 0)
(2.888685923 0.2557431671 0)
(2.890085518 0.2532134418 0)
(2.893749946 0.2491137273 0)
(2.90076698 0.2375994173 0)
(2.911551178 0.2161570935 0)
(2.928008683 0.1798212412 0)
(2.949872527 0.1265010677 0)
(2.968634933 0.079546753 0)
(2.988685811 0.02586682006 0)
(3.010429149 -0.04103047737 0)
(3.027468757 -0.09899844921 0)
(3.038567413 -0.1310497594 0)
(3.04859649 -0.1713102371 0)
(3.057271381 -0.2047847471 0)
(3.059178735 -0.2139363555 0)
(2.919143508 0.1948506978 0)
(2.905888135 0.2390281261 0)
(2.892539414 0.2500147447 0)
(2.892032878 0.2519557995 0)
(2.892795795 0.2566246686 0)
(2.893189106 0.2567923992 0)
(2.896658528 0.2506252907 0)
(2.903045895 0.2359501454 0)
(2.912339231 0.2135943306 0)
(2.927274759 0.1784047232 0)
(2.947083308 0.1309358066 0)
(2.967302129 0.08146962548 0)
(2.98314861 0.03766019072 0)
(3.003578817 -0.01866341538 0)
(3.019509312 -0.06718328157 0)
(3.028538238 -0.09797692551 0)
(3.041735993 -0.1466074112 0)
(3.050094486 -0.1967186949 0)
(2.954914281 0.1036031734 0)
(2.912295064 0.2192471546 0)
(2.893237268 0.2457609821 0)
(2.892276316 0.263759467 0)
(2.892288315 0.2622167099 0)
(2.891514574 0.2593694221 0)
(2.893028152 0.2535784391 0)
(2.894718249 0.247302315 0)
(2.901058363 0.2334959551 0)
(2.911736201 0.2110412543 0)
(2.926864959 0.1777761174 0)
(2.946197071 0.1335246049 0)
(2.965875699 0.08380795815 0)
(2.982249737 0.04324697467 0)
(3.002107152 -0.0127497031 0)
(3.015704625 -0.06095345747 0)
(3.025533592 -0.08870032747 0)
(3.040190795 -0.1444273774 0)
(2.988215447 0.02632999989 0)
(2.942936994 0.1301709652 0)
(2.931498108 0.173739763 0)
(2.900049838 0.248587795 0)
(2.889786571 0.2532109233 0)
(2.888300349 0.253079047 0)
(2.888797964 0.2532777233 0)
(2.889425486 0.2530992645 0)
(2.893545107 0.2469236992 0)
(2.901808485 0.2320067097 0)
(2.913641748 0.2077615981 0)
(2.928170394 0.17615039 0)
(2.946019325 0.1343061713 0)
(2.964062126 0.08890952573 0)
(2.978952631 0.05145267878 0)
(2.997627037 -0.004004252556 0)
(3.008376402 -0.03298395408 0)
(3.020814642 -0.07382732696 0)
(2.998421267 0.003492810068 0)
(2.983518202 0.03609425935 0)
(2.955482657 0.1204540117 0)
(2.912772551 0.2235299544 0)
(2.906762604 0.2207796097 0)
(2.891967255 0.243178883 0)
(2.887326605 0.2540944729 0)
(2.88695705 0.2542137694 0)
(2.88808003 0.2521422802 0)
(2.892753199 0.2453861047 0)
(2.901654038 0.2301586535 0)
(2.913395829 0.2067393202 0)
(2.927738367 0.1757607806 0)
(2.945625454 0.1337679719 0)
(2.960572932 0.09725715068 0)
(2.979405256 0.05018147919 0)
(2.99306574 0.01038267354 0)
(3.007471425 -0.03057040774 0)
(2.999924022 0.0001577508061 0)
(2.996877548 0.007720832972 0)
(2.986052903 0.03639946962 0)
(2.945544896 0.128789236 0)
(2.933303552 0.1777860121 0)
(2.898527395 0.2600747699 0)
(2.888116319 0.2583189728 0)
(2.885052373 0.2532735813 0)
(2.884994124 0.2532614108 0)
(2.886778948 0.2512346949 0)
(2.891905184 0.2442143499 0)
(2.901329621 0.2283849609 0)
(2.913444688 0.2051367633 0)
(2.927970766 0.1746882786 0)
(2.945560313 0.1337150126 0)
(2.960186139 0.09979393802 0)
(2.976882512 0.05686690684 0)
(2.990736553 0.01987132822 0)
(2.999997494 5.597433725e-06 0)
(2.999759894 0.0006190255981 0)
(2.996446129 0.00917688587 0)
(2.982771647 0.04131303061 0)
(2.953378777 0.1214294726 0)
(2.91739608 0.2074212928 0)
(2.916550915 0.2234773744 0)
(2.896679938 0.248459725 0)
(2.886362916 0.2526568623 0)
(2.884935621 0.2521372816 0)
(2.886334936 0.2496417277 0)
(2.891753196 0.2423030194 0)
(2.901627128 0.2263992439 0)
(2.914055422 0.2036984646 0)
(2.928678402 0.173564323 0)
(2.945500614 0.1353037114 0)
(2.959752994 0.1020484697 0)
(2.975447206 0.06309584061 0)
(2.999999968 6.831046004e-08 0)
(2.999984055 4.319578659e-05 0)
(2.99964047 0.0008814497902 0)
(2.995884534 0.01097011175 0)
(2.984261208 0.04063679299 0)
(2.943853495 0.1296481717 0)
(2.938620325 0.1780293412 0)
(2.907728218 0.2567594585 0)
(2.894104097 0.255413938 0)
(2.884988792 0.2509321564 0)
(2.884883607 0.2510052683 0)
(2.887432409 0.2482959899 0)
(2.893521508 0.240213473 0)
(2.903241211 0.224619969 0)
(2.915773773 0.2016119291 0)
(2.930451892 0.1715172384 0)
(2.945332233 0.1370277676 0)
(2.959883522 0.1042624451 0)
(3 6.122543362e-10 0)
(2.999999544 1.203706277e-06 0)
(2.999964011 9.112737876e-05 0)
(2.999583649 0.001107754017 0)
(2.995412374 0.01202248465 0)
(2.982649169 0.04227804232 0)
(2.950910914 0.1312455983 0)
(2.923283867 0.2023352772 0)
(2.923507528 0.2258523912 0)
(2.897969691 0.2451476495 0)
(2.887185315 0.2502795838 0)
(2.886877489 0.2495697474 0)
(2.889315497 0.2467742907 0)
(2.895334223 0.2387107496 0)
(2.9052849 0.222270613 0)
(2.916448994 0.2015171586 0)
(2.931824977 0.1689354247 0)
(2.94488599 0.1403215487 0)
(3 1.938048386e-12 0)
(2.99999999 2.707384726e-08 0)
(2.999998246 4.233275115e-06 0)
(2.999956738 0.0001153378329 0)
(2.999434547 0.001405585545 0)
(2.995311391 0.01283118547 0)
(2.982926793 0.04414550787 0)
(2.945241114 0.1291136877 0)
(2.941777477 0.1799113693 0)
(2.910928622 0.2553679376 0)
(2.895170419 0.2516210674 0)
(2.887160166 0.2490219582 0)
(2.887919203 0.2489106382 0)
(2.890987613 0.2458026337 0)
(2.896961016 0.2374780511 0)
(2.906754769 0.2205651247 0)
(2.918299468 0.1986049799 0)
(2.932023089 0.1696651667 0)
(3 2.661817476e-15 0)
(3 3.250515038e-10 0)
(2.999999925 1.879412346e-07 0)
(2.999997834 5.510330442e-06 0)
(2.999933749 0.000168409599 0)
(2.999436639 0.001510660248 0)
(2.994630618 0.01395573498 0)
(2.982774813 0.042819633 0)
(2.948721972 0.1372496703 0)
(2.927915933 0.1936287248 0)
)
;

boundaryField
{
    inlet
    {
        type            fixedValue;
        value           nonuniform 0();
    }
    outlet
    {
        type            inletOutlet;
        inletValue      nonuniform 0();
        value           nonuniform 0();
    }
    bottom
    {
        type            slip;
    }
    top
    {
        type            slip;
    }
    obstacle
    {
        type            slip;
    }
    defaultFaces
    {
        type            empty;
    }
    procBoundary27to20
    {
        type            processor;
        value           nonuniform List<vector> 
16
(
(2.876486164 0.2500249875 0)
(2.883073306 0.2522587964 0)
(2.893261754 0.2509985792 0)
(2.900073857 0.2481624731 0)
(2.898098231 0.2508838189 0)
(2.894093167 0.2575876951 0)
(2.889367286 0.2621341867 0)
(2.884703683 0.2645409503 0)
(2.896784186 0.24554899 0)
(2.905147444 0.2371200705 0)
(2.939373069 0.1430832848 0)
(2.980160807 0.04344031761 0)
(2.998393868 0.0031080164 0)
(2.999991756 8.448932115e-06 0)
(3.000000033 8.476310815e-09 0)
(3.000000003 -1.499340044e-09 0)
)
;
    }
    procBoundary27to21
    {
        type            processor;
        value           nonuniform List<vector> 
18
(
(2.962489565 -0.2828117435 0)
(2.943538733 -0.1476919963 0)
(2.906742103 -0.04235656404 0)
(2.895841135 3.024705936e-05 0)
(2.893731996 -0.002646903911 0)
(2.891641649 -0.009550311886 0)
(2.89266316 -0.005597277465 0)
(2.894194071 0.002511881326 0)
(3.346250899 -0.4463878399 0)
(3.366829905 -0.420220176 0)
(3.346335811 -0.4464418669 0)
(3.222713469 -0.4589980136 0)
(3.079938269 -0.4234693368 0)
(2.997298723 -0.4039870058 0)
(2.969442295 -0.3868006305 0)
(2.964134122 -0.3802139556 0)
(2.970205072 -0.3746482346 0)
(2.970205072 -0.3746482346 0)
)
;
    }
    procBoundary27to26
    {
        type            processor;
        value           nonuniform List<vector> 4((3 -1.433443107e-10 0) (3 -3.882640513e-12 0) (3 -4.769731769e-14 0) (3 -2.990129243e-15 0));
    }
    procBoundary27to28
    {
        type            processor;
        value           nonuniform List<vector> 
28
(
(2.896474204 -2.696071951e-05 0)
(2.899792753 0.0001674638269 0)
(2.902489071 -0.0008729788105 0)
(2.904657991 -0.001839974389 0)
(2.904657991 -0.001839974389 0)
(2.903680838 -0.0043292273 0)
(2.904321648 -0.00370013968 0)
(2.904396925 -0.003724629138 0)
(2.90394513 -0.004105504016 0)
(2.904235703 -0.004370639628 0)
(2.906424469 -0.004583425016 0)
(2.910194524 -0.004733281796 0)
(2.913227101 -0.005490236011 0)
(2.931248125 -0.0005392073146 0)
(2.993958763 -0.01764831951 0)
(3.068769732 -0.08488083527 0)
(3.08295038 -0.2229745078 0)
(3.093777187 -0.3595996807 0)
(3.102804811 -0.3880339983 0)
(3.09321116 -0.3759432183 0)
(3.08904013 -0.3639061517 0)
(3.084924643 -0.3189461727 0)
(3.06143702 -0.2450247095 0)
(3.057691606 -0.2179707765 0)
(3.04692691 -0.1621312829 0)
(3.03219717 -0.1182170263 0)
(3.018739221 -0.06950328216 0)
(3.002081312 -0.01532611565 0)
)
;
    }
    procBoundary27to33
    {
        type            processor;
        value           nonuniform List<vector> 
19
(
(2.924322593 0.2253084168 0)
(2.899117022 0.2438004997 0)
(2.888744282 0.2482147778 0)
(2.888978722 0.2479204702 0)
(2.89206431 0.2444859154 0)
(2.898179427 0.2358264601 0)
(2.907960854 0.2189591818 0)
(2.919562547 0.1968914649 0)
(3 -9.029180186e-16 0)
(3 2.939596922e-12 0)
(2.999999998 4.707432451e-09 0)
(2.999999915 2.196518304e-07 0)
(2.99999596 9.942209827e-06 0)
(2.999936064 0.0001690276658 0)
(2.999243758 0.001857928214 0)
(2.995029887 0.01356786311 0)
(2.981197921 0.04725095993 0)
(2.924322593 0.2253084168 0)
(2.946007609 0.1285830457 0)
)
;
    }
    procBoundary27to34
    {
        type            processor;
        value           nonuniform List<vector> 4((2.989268043 0.02386217398 0) (2.972640905 0.07095954606 0) (2.959947427 0.1048970513 0) (2.945881194 0.1396024348 0));
    }
}


// ************************************************************************* //
