/*--------------------------------*- C++ -*----------------------------------*\
  =========                 |
  \\      /  F ield         | OpenFOAM: The Open Source CFD Toolbox
   \\    /   O peration     | Website:  https://openfoam.org
    \\  /    A nd           | Version:  7
     \\/     M anipulation  |
\*---------------------------------------------------------------------------*/
FoamFile
{
    version     2.0;
    format      ascii;
    class       volScalarField;
    location    "3.9";
    object      T;
}
// * * * * * * * * * * * * * * * * * * * * * * * * * * * * * * * * * * * * * //

dimensions      [0 0 0 1 0 0 0];

internalField   nonuniform List<scalar> 
555
(
0.9878495276
0.9876825477
0.9878361238
0.9884113336
0.9888403112
0.989023449
0.9891598896
0.9892719037
0.989265346
0.9894273134
0.9895921951
0.9868168661
0.9900230692
0.9895854535
0.9891219809
0.9897206739
0.9897806254
0.9897142223
0.9895779539
0.9897572773
0.9901877634
0.9904627144
0.9905992793
0.9908392827
0.9909560542
0.9908849171
0.9908294465
0.9908238398
0.9893610798
0.9927224041
0.9922221636
0.9915067378
0.9920962122
0.9921169887
0.9919832554
0.991917499
0.992102633
0.9923175676
0.992297197
0.9923739259
0.9928173945
0.9930002855
0.9929032281
0.9925775815
0.9921438141
0.9919494208
0.99548401
0.994974873
0.9941776687
0.994934445
0.9949154023
0.9946145447
0.9943588987
0.9943265363
0.9941681288
0.9940681567
0.9942576157
0.9947842501
0.9949206343
0.9947844042
0.9943802932
0.9940136784
0.9979058065
0.9973238362
0.9969037331
0.9977708035
0.9976843473
0.9973278667
0.9968770483
0.9965609534
0.99634832
0.9964484931
0.9967872951
0.9972116451
0.9974942956
0.9974747082
0.9970766414
0.9966286981
0.9996608158
0.9992701541
0.9993810621
1.000388893
1.000250244
0.9998387975
0.9993236463
0.998970314
0.9988011069
0.9989593215
0.9993604362
0.9997818029
1.000058341
1.000100972
0.9998928997
0.9995235892
1.001452543
1.001279815
1.001446684
1.002419892
1.002437275
1.00208863
1.001456149
1.00109496
1.000998803
1.00126974
1.001770265
1.00210286
1.002345263
1.002469994
1.002438926
1.00222452
1.003175017
1.002956656
1.002986823
1.00367558
1.003888436
1.003740955
1.003318473
1.003040275
1.003058298
1.003390675
1.003708116
1.003978288
1.004232862
1.004523626
1.004711787
1.004589721
1.004752099
1.004580378
1.004279376
1.00406589
1.004479149
1.004828422
1.004890972
1.004591235
1.004462849
1.00456565
1.004787895
1.00506822
1.005325546
1.005474754
1.005733937
1.006044463
1.006276211
1.006497692
1.00545776
1.005135861
1.004658441
1.004894741
1.005349126
1.005523338
1.005431418
1.005440008
1.005561953
1.005714702
1.00590674
1.006249195
1.006489557
1.006780785
1.007071322
1.007234762
1.007491093
1.006065148
1.00568828
1.005020913
1.005439444
1.006108636
1.006128696
1.006064894
1.006056929
1.006108766
1.006195797
1.006402391
1.006812781
1.007231477
1.007627128
1.007837552
1.007910664
1.00800986
1.00647721
1.006043949
1.005678386
1.006316311
1.007143986
1.007134786
1.006984453
1.006890095
1.006930245
1.007126674
1.007415191
1.007813173
1.008164237
1.008434773
1.008392302
1.008257697
1.007876231
1.006847693
1.006552135
1.007470018
1.008413405
1.008366586
1.008088185
1.008075715
1.008176875
1.008410717
1.008703119
1.009030321
1.009403653
1.009743209
1.009561233
1.008990553
1.008341899
1.007878619
1.007628614
1.008862947
1.009849469
1.009566991
1.009294646
1.009364207
1.009549274
1.009846863
1.010131211
1.010456347
1.010712868
1.011004421
1.01088986
1.010266114
1.009425614
1.009137623
1.009059182
1.010012376
1.010873953
1.010720507
1.010445365
1.010577957
1.010816275
1.011114896
1.011372695
1.011741448
1.01201353
1.012107914
1.012033011
1.011578657
1.010967858
1.01059943
1.010346548
1.01088803
1.011607621
1.01153222
1.011363081
1.011537365
1.011842774
1.012162217
1.012419677
1.012765048
1.012985119
1.012968473
1.012912268
1.012647132
1.01241582
1.011760312
1.011085343
1.011022849
1.011695431
1.011856476
1.011945657
1.012122359
1.01240915
1.012787346
1.013165633
1.01356853
1.013695472
1.013635115
1.013651033
1.01359743
1.013663206
1.012092332
1.011112536
1.010954338
1.011956221
1.012250916
1.012559868
1.012686435
1.012962749
1.013346402
1.013720715
1.014069345
1.014140971
1.014008478
1.014039362
1.01416074
1.014381011
1.01253019
1.011471628
1.011260455
1.012235264
1.012518444
1.012953357
1.013077028
1.013438558
1.013872013
1.014096754
1.01423337
1.014206744
1.014148961
1.014247094
1.014498555
1.014919629
1.012721415
1.011667982
1.011567337
1.012765268
1.013106689
1.013515685
1.013578317
1.013793973
1.014032226
1.014129733
1.014170058
1.014178872
1.014336243
1.014685885
1.014880518
1.014930731
1.013577463
1.01169095
1.012497284
1.013494548
1.013385388
1.013286342
1.013306437
1.013443279
1.013671722
1.013870896
1.014037412
1.014247046
1.014435401
1.014562576
1.014548124
1.014414779
1.006764614
1.008852308
1.013693506
1.013843081
1.013005985
1.012296563
1.012552292
1.012989759
1.013328528
1.0135397
1.013605543
1.013655516
1.013595734
1.013591238
1.013777075
1.01385275
0.9819726403
0.9991951416
1.011032519
1.012086778
1.011802482
1.012278782
1.0126439
1.012494057
1.012348047
1.012077939
1.011901474
1.012028745
1.012123105
1.012226181
1.012533925
1.012854638
0.9230676759
0.9636688672
0.9985977423
1.002710807
1.008233486
1.011820377
1.011679092
1.011256887
1.01081123
1.010106282
1.009872069
1.010240962
1.01062197
1.01083628
1.011114661
1.011471668
0.8595871127
0.8921269427
0.9370144969
0.9704934373
1.00218396
1.008391399
1.006402335
1.007796734
1.007507944
1.006876716
1.007257181
1.008397597
1.009289228
1.009602028
1.009674866
1.009768038
0.8478250543
0.8510744453
0.8685121251
0.9125560139
0.9595959072
0.982471881
0.9938035046
1.005765849
1.005501505
1.005987356
1.007295324
1.008312678
1.008384255
1.008235198
1.007859852
1.007739272
0.8511256831
0.8504156364
0.8510938998
0.8611453617
0.8872098582
0.9335343223
0.9744055043
0.9993946885
1.001541531
1.005792189
1.008320675
1.007935777
1.00698376
1.006866141
1.006624366
1.006712405
0.8654705657
0.8586926834
0.8526920517
0.8528296974
0.8557782043
0.8730980001
0.9062010392
0.9468806035
0.9735282611
0.9986268467
1.004947192
1.002593729
1.004447706
1.005763063
1.006417347
1.007085657
0.8750825407
0.8694550718
0.8581990351
0.8546512476
0.8560772926
0.85777265
0.8633105553
0.8833824196
0.9273073355
0.9655458105
0.9836227995
0.9927315543
1.005338287
1.006438206
1.006628851
1.007062741
0.8902367799
0.8877642343
0.8804422926
0.8687414572
0.8640899149
0.8615818728
0.8585421986
0.8593528197
0.8721147555
0.899980185
0.9414878943
0.978444345
1.001450818
1.002576143
1.004537956
1.005637684
0.9144130931
0.9036299925
0.8958685468
0.8826064594
0.8717813691
0.8696007883
0.8652835054
0.8604069859
0.8613571577
0.8664919534
0.8857160308
0.9194893824
0.9589208784
0.97745401
0.9944107864
0.999527406
0.9341138299
0.9184937705
0.9109574184
0.9035382069
0.8901506508
0.8843971462
0.880231764
0.8713316222
0.864826932
0.8646112917
0.8658852025
0.8740134788
0.8964293538
0.9392945861
0.9793144264
0.992084263
0.9554868404
0.9405453683
0.9297811995
0.9222626628
0.9095381454
0.8949424032
0.8897235762
0.8846682741
0.8730903806
0.8682440868
0.8675271246
0.8679100973
0.8698641777
0.8855137937
0.9162193623
0.9555646941
0.9758495461
0.9609015914
0.945736156
0.9361855579
0.927341749
0.9130468352
0.9040112294
0.9009880566
0.8931400021
0.8812379315
0.8767079059
0.8729592677
0.8685610432
0.869023037
0.8756730541
0.9017510728
0.9946661401
0.9801025781
0.9637011029
0.9518563273
0.9448042068
0.9342747331
0.9199843965
0.9126343616
)
;

boundaryField
{
    inlet
    {
        type            fixedValue;
        value           nonuniform 0();
    }
    outlet
    {
        type            inletOutlet;
        inletValue      nonuniform 0();
        value           nonuniform 0();
    }
    bottom
    {
        type            slip;
    }
    top
    {
        type            slip;
    }
    obstacle
    {
        type            zeroGradient;
    }
    defaultFaces
    {
        type            empty;
    }
    procBoundary28to21
    {
        type            processor;
        value           nonuniform List<scalar> 8(0.9872159514 0.9900160312 0.9930493131 0.9941920189 0.9941920189 0.9956246426 0.996937564 0.9983768506);
    }
    procBoundary28to22
    {
        type            processor;
        value           nonuniform List<scalar> 
18
(
0.9863891657
0.9863278238
0.9864473564
0.9869566553
0.9875116677
0.9879615395
0.9883053573
0.9884441528
0.988540847
0.9887752535
0.9889197017
0.9847041174
0.9877300537
0.987402859
0.9871820012
0.9878692198
0.9879879321
0.9879879321
)
;
    }
    procBoundary28to23
    {
        type            processor;
        value           uniform 0.9896694029;
    }
    procBoundary28to27
    {
        type            processor;
        value           nonuniform List<scalar> 
28
(
0.9995479633
1.000179702
1.000450783
1.000609063
1.007140243
1.007140243
1.00803142
1.009153465
1.010379959
1.011618551
1.012298144
1.012803625
1.012481962
1.013182874
1.003719864
0.951038031
0.873151423
0.8473998502
0.8488322386
0.8531178996
0.8684926155
0.8835421501
0.9039047742
0.9302761398
0.9489773504
0.9686907406
0.9899353853
1.009595683
)
;
    }
    procBoundary28to29
    {
        type            processor;
        value           nonuniform List<scalar> 
34
(
0.9905363953
0.9916006298
0.9938470282
0.9964670023
0.9993370375
1.002158458
1.002158458
1.004926522
1.006493231
1.007402931
1.007667389
1.007298675
1.007812742
1.00873737
1.010336643
1.012251763
1.013946716
1.01499729
1.01520398
1.014902893
1.014168202
1.013868309
1.013169773
1.011762031
1.009937977
1.007886829
1.006982723
1.007651681
1.00760024
1.006052084
1.001444468
0.9980930888
0.9843097383
0.9343907509
)
;
    }
    procBoundary28to34
    {
        type            processor;
        value           nonuniform List<scalar> 
17
(
0.9064169866
0.8951432145
0.8862040539
0.881779245
0.8748888549
0.8698117927
0.871047389
0.875051073
1.012791371
0.9994404191
0.9842132423
0.9683600909
0.9585690888
0.9493592948
0.9358374237
0.9064169866
0.924428185
)
;
    }
}


// ************************************************************************* //
