/*--------------------------------*- C++ -*----------------------------------*\
  =========                 |
  \\      /  F ield         | OpenFOAM: The Open Source CFD Toolbox
   \\    /   O peration     | Website:  https://openfoam.org
    \\  /    A nd           | Version:  7
     \\/     M anipulation  |
\*---------------------------------------------------------------------------*/
FoamFile
{
    version     2.0;
    format      ascii;
    class       volScalarField;
    location    "2";
    object      rho;
}
// * * * * * * * * * * * * * * * * * * * * * * * * * * * * * * * * * * * * * //

dimensions      [1 -3 0 0 0 0 0];

internalField   nonuniform List<scalar> 
2222
(
2.237301348
2.226238991
2.218613687
2.2102954
2.200869749
2.191076494
2.180963667
2.168873345
2.153629911
2.133379202
2.111265384
2.08771344
2.065819243
2.047512152
2.037209379
2.026213655
2.008886861
1.99294242
1.985618549
1.974901387
1.95930569
1.950006539
1.94009986
1.92391804
1.90940132
1.896235062
1.88252606
1.868247544
1.856700203
1.844285152
1.830105049
1.817281274
1.804304538
1.783048668
2.239332187
2.229752868
2.221672579
2.211568014
2.200255707
2.188916895
2.178366574
2.166761059
2.151995351
2.132374936
2.111008444
2.087920591
2.066717474
2.052704314
2.040078274
2.026740864
2.008769138
1.992417612
1.985115986
1.974354421
1.959086553
1.950334159
1.941043371
1.925584321
1.912060528
1.900784791
1.889117323
1.873871765
1.859886869
1.846062285
1.83189352
1.817752165
1.804215782
1.783416013
2.242874183
2.230859948
2.221226571
2.210097124
2.197779552
2.186566537
2.176489577
2.16501286
2.15004275
2.13116863
2.110791314
2.088692179
2.070726071
2.057861931
2.041122943
2.027164202
2.009228567
1.992344527
1.984833561
1.973588993
1.958882686
1.950999413
1.943053409
1.92876812
1.916276445
1.906140041
1.893663352
1.876968822
1.862265692
1.848378933
1.833397646
1.817774214
1.80384362
1.78399948
2.243901958
2.228939706
2.215944507
2.204482107
2.194354968
2.184833057
2.174910558
2.162735874
2.147268074
2.130089134
2.11077826
2.091707144
2.077239818
2.058870533
2.041531311
2.027936327
2.010176999
1.993192719
1.984251492
1.97285149
1.958760042
1.95251199
1.946418908
1.931907591
1.91864958
1.90719342
1.894391925
1.878187452
1.86445878
1.850574342
1.833776613
1.817465462
1.803673024
1.785320371
2.242553585
2.22296297
2.208892332
2.200417037
2.192456009
2.183257613
2.172249355
2.15861445
2.144178378
2.129523964
2.11208118
2.098305117
2.079808166
2.058711921
2.041665754
2.028816158
2.011984273
1.994524932
1.983892482
1.972773125
1.958878961
1.955322981
1.948891122
1.932454565
1.918684886
1.907245056
1.894690978
1.879175687
1.866352413
1.851687977
1.834203576
1.817353982
1.803858968
1.788340482
2.238745959
2.218404562
2.207478806
2.200385288
2.191497632
2.180184211
2.166570928
2.153132491
2.142580839
2.129592847
2.11650057
2.102480115
2.08044792
2.058901158
2.04186209
2.030089799
2.015272003
1.995746238
1.983902485
1.973026635
1.960509481
1.958426496
1.949388683
1.932459709
1.918482869
1.907380009
1.895218576
1.880600282
1.867432974
1.852468084
1.834725287
1.817607114
1.80433657
1.79266216
2.235379238
2.217456093
2.208061678
2.201539397
2.189441411
2.173776305
2.159668862
2.150387511
2.142106174
2.131648486
2.120559378
2.102630439
2.080914343
2.059472312
2.042425547
2.032638153
2.018943248
1.996680462
1.984119249
1.9743334
1.964789984
1.959221599
1.949301816
1.932043154
1.918296245
1.907724284
1.896479578
1.88202231
1.868024937
1.853182582
1.835394721
1.818135958
1.805932062
1.795855267
2.217637163
2.21091336
2.202201035
2.184473381
2.167905503
2.157365386
2.149672559
2.142342839
2.134975793
2.120668083
2.102133692
2.081553697
2.060488052
2.044476534
2.036279944
2.020427767
1.997307351
1.98484193
1.97815062
1.968322826
1.958539495
1.94839413
1.931433082
1.918156207
1.90880483
1.898374646
1.882583716
1.868331452
1.853820925
1.836160082
1.819045198
1.810097676
1.796824723
2.219865195
2.21504243
2.200451075
2.179647369
2.166784414
2.157198736
2.149883512
2.144081476
2.135265347
2.119794377
2.101457555
2.082452759
2.062723154
2.048624297
2.037105361
2.020904699
1.998179092
1.987038376
1.98346491
1.968606912
1.956894943
1.947014126
1.931080424
1.918506635
1.910607296
1.899032796
1.882659654
1.86827831
1.854217903
1.837014948
1.82160895
1.814338944
1.796861183
2.225524722
2.215687738
2.195340259
2.178769161
2.167391244
2.158315469
2.15160753
2.14440189
2.134315307
2.117898371
2.101171082
2.083992724
2.067044488
2.050269348
2.037025372
2.021183202
1.999372987
1.991925846
1.986209945
1.967860741
1.954865835
1.946234909
1.931009712
1.919809377
1.911017881
1.898959659
1.882115695
1.868124824
1.85465171
1.838506326
1.826152495
1.815774434
1.796494071
2.228749255
2.213522168
2.192241231
2.179503593
2.169619541
2.161468077
2.152096482
2.1431114
2.131253137
2.116322981
2.101261627
2.087065522
2.070557468
2.050831965
2.037271355
2.021853417
2.002274562
1.996930348
1.986536747
1.966057728
1.953703198
1.945988876
1.931957649
1.920438201
1.910820125
1.898264254
1.881426083
1.868048178
1.855307428
1.841536693
1.82907559
1.816205196
1.796484583
2.227892103
2.208081478
2.191765547
2.181984642
2.174087311
2.162373198
2.150613479
2.139056091
2.127520207
2.115852407
2.102496232
2.090649743
2.071424879
2.05134067
2.037963587
2.023185212
2.008476091
1.998914216
1.985930333
1.964839686
1.953159723
1.945985987
1.933260945
1.920307417
1.910071181
1.8972846
1.880894148
1.868123979
1.856761757
1.844717154
1.82992829
1.816661675
1.796813439
2.22291029
2.205475904
2.192664804
2.186535934
2.175223456
2.160962618
2.145496643
2.133905481
2.126055528
2.116100568
2.106002598
2.091186039
2.071435617
2.051972648
2.03906317
2.027081082
2.014388168
1.999226256
1.985145814
1.964759531
1.952894156
1.946506489
1.933451576
1.919756235
1.909017735
1.896544388
1.880730032
1.868546535
1.859034852
1.845804893
1.830387851
1.817245822
1.797429987
2.216569827
2.205016125
2.196637218
2.187900047
2.173981104
2.155103558
2.139870661
2.132000997
2.125925104
2.118163777
2.107094459
2.090672402
2.071062482
2.052766156
2.041135825
2.033313493
2.016191054
1.99913795
1.985398964
1.965105614
1.953063392
1.947194105
1.933312749
1.918801795
1.908128812
1.896345889
1.880771208
1.869937943
1.860593103
1.845920507
1.830550337
1.817870738
1.798699822
2.214258484
2.20606524
2.199254136
2.186839772
2.168206966
2.149936472
2.138541959
2.131923713
2.126965463
2.11983037
2.106612568
2.089212135
2.071006564
2.053759516
2.045384574
2.037052548
2.016925021
1.999540855
1.986287448
1.966138351
1.954366505
1.947173946
1.932805091
1.917756105
1.907677686
1.896463163
1.881117337
1.871952067
1.861038479
1.845868523
1.830552238
1.818693407
1.801468348
2.213478398
2.209145493
2.198923781
2.181401413
2.16411349
2.149363314
2.139070658
2.133200634
2.128128261
2.119603199
2.104621752
2.088073405
2.071383012
2.056064126
2.049510943
2.038664464
2.01794963
2.000345867
1.987869907
1.968790319
1.955580786
1.946667837
1.931943156
1.916857214
1.907641932
1.896807335
1.882459798
1.873149444
1.861162074
1.845778401
1.830812445
1.820393641
1.805598585
2.214942976
2.210873666
2.195772804
2.176774682
2.163956306
2.150342487
2.141281679
2.134176959
2.127501388
2.117402794
2.101850447
2.087892344
2.072427122
2.060263609
2.050720059
2.039741463
2.019221001
2.00141325
1.990607614
1.973276254
1.955551914
1.945450122
1.931061777
1.916459968
1.907854391
1.897742621
1.88466693
1.873219206
1.860947995
1.8459501
1.831602584
1.823938433
1.808495537
2.219108223
2.210991529
2.191900555
2.176036852
2.164964979
2.15339683
2.142831602
2.133353
2.124212085
2.112843312
2.100220181
2.088237359
2.075373631
2.062442464
2.051038502
2.040411455
2.020484629
2.003129894
1.99477946
1.9758704
1.954886022
1.944622601
1.930934062
1.916467388
1.908389733
1.899826632
1.88558516
1.872951844
1.860557544
1.846324567
1.834105994
1.827819215
1.809238062
2.221644733
2.210193305
2.191071138
2.176247611
2.168108975
2.156309171
2.142248557
2.129270323
2.118382984
2.10926687
2.099580798
2.089594912
2.078781704
2.062994125
2.051023584
2.04058549
2.021634031
2.006268362
1.997888335
1.976428226
1.954501618
1.944710978
1.931289994
1.916822174
1.909695645
1.901515782
1.885680066
1.872072167
1.860438421
1.847329906
1.837551039
1.829006628
1.809432217
2.221222582
2.209218231
2.190843753
2.178952095
2.171776785
2.156089371
2.137490836
2.122504709
2.114345368
2.107958168
2.099865517
2.092137272
2.079623385
2.063142807
2.0509585
2.040683841
2.023356388
2.010530241
1.998187737
1.976059545
1.954237439
1.945118201
1.931939943
1.917381305
1.911100391
1.901796674
1.885221834
1.871327602
1.860548507
1.849496565
1.839356867
1.829425104
1.809680949
2.220123658
2.208595625
2.192278672
2.183957589
2.1720722
2.151645223
2.129531763
2.119021888
2.11322924
2.107812701
2.100834222
2.092399918
2.0796876
2.062831108
2.051396333
2.041220466
2.02689105
2.011767551
1.996812424
1.974872089
1.954068011
1.945904076
1.932918775
1.917565993
1.910940432
1.901476883
1.88419964
1.87126807
1.861108724
1.851492627
1.84003649
1.829850111
1.810039479
2.219177644
2.208264151
2.197573516
2.186136645
2.169463931
2.14319667
2.126268914
2.118799377
2.113821437
2.108713507
2.101546587
2.091853479
2.078272986
2.062351868
2.052222799
2.043209013
2.030819563
2.011581485
1.994650975
1.973792625
1.954324371
1.946363556
1.933375158
1.917389219
1.910066784
1.900224377
1.883398354
1.871331885
1.862360465
1.852480883
1.84049238
1.830306538
1.810567811
2.21849276
2.210169063
2.201587021
2.185654868
2.16182127
2.139653842
2.126293778
2.120254606
2.116195913
2.110436096
2.101536889
2.088888724
2.075340336
2.062489137
2.05376885
2.04724176
2.032194889
2.010783373
1.993976016
1.973911815
1.954780407
1.946275597
1.933485202
1.917315268
1.909217949
1.899067226
1.882844043
1.871578822
1.86347186
1.852877977
1.840868203
1.830838842
1.811402594
2.21399966
2.201655843
2.180422372
2.156425585
2.139469325
2.127950174
2.123885998
2.119391893
2.111288255
2.098684746
2.082987328
2.073271133
2.063415587
2.057064683
2.05026517
2.032342325
2.010732484
1.994256731
1.975075242
1.955415111
1.945903157
1.933661611
1.917548551
1.908981126
1.898700478
1.882616863
1.872244579
1.864021183
1.853194854
1.841262682
1.831558647
1.811989909
2.214828075
2.199048411
2.172109204
2.154864386
2.140521393
2.131529582
2.128469098
2.12063475
2.108421181
2.090983015
2.079024339
2.073162196
2.064772957
2.060732954
2.051388802
2.033075349
2.011371936
1.995425045
1.977619667
1.955636384
1.945477602
1.934049711
1.918031549
1.909050443
1.898661699
1.882653013
1.87270326
1.864314591
1.853533936
1.841784536
1.832547614
1.812281345
2.213476907
2.191105266
2.167667624
2.154502616
2.143227431
2.137313969
2.12987419
2.117269974
2.099748682
2.085719575
2.078996487
2.074073905
2.067561766
2.06169771
2.051742436
2.033562304
2.012374418
1.997566892
1.979621723
1.955764104
1.945615074
1.934701486
1.918744675
1.909450321
1.898792655
1.882951118
1.872898811
1.864547206
1.853794051
1.842576367
1.833694392
1.812468535
2.208884076
2.183946441
2.166212315
2.15518837
2.148921586
2.139484715
2.126455466
2.108327581
2.094703789
2.085897592
2.080327304
2.076228718
2.069773024
2.061528393
2.051092125
2.033818243
2.013808124
2.000357986
1.980808679
1.956143911
1.945972801
1.935584396
1.919761371
1.909924393
1.899265682
1.88367059
1.873277304
1.86468155
1.85388465
1.843624595
1.834760084
1.812589113
2.202488313
2.18207588
2.165680495
2.158878223
2.15358477
2.137598624
2.117802224
2.104553116
2.095057404
2.087565861
2.083056536
2.079275929
2.070448145
2.060660386
2.049938844
2.034501472
2.01580375
2.002618137
1.981683158
1.956773914
1.946505333
1.936895455
1.921175512
1.910137514
1.89941799
1.884361842
1.873795805
1.864872574
1.8541657
1.844702189
1.835576811
1.812823883
2.199918563
2.181473964
2.167751311
2.165677705
2.15348018
2.129982119
2.114075489
2.104887424
2.096856993
2.090882128
2.086628619
2.080261539
2.070230081
2.059269431
2.049756376
2.035340017
2.018387358
2.003808579
1.982392217
1.957700848
1.94737652
1.93903978
1.922411078
1.909916697
1.899346431
1.88456757
1.874058864
1.865201302
1.854914631
1.845807671
1.836146175
1.813082787
2.199434218
2.182629219
2.175760585
2.168592317
2.149450206
2.124642867
2.113762196
2.106617577
2.100791611
2.095131822
2.087198419
2.07982833
2.067947563
2.058834902
2.050272785
2.036840264
2.020841235
2.004282837
1.98285424
1.958747173
1.949120657
1.941599851
1.922902684
1.909670768
1.899335961
1.884418791
1.874113062
1.865778488
1.8562855
1.846577929
1.836164584
1.813256198
2.199380889
2.190255355
2.184276062
2.166943196
2.143822256
2.123671998
2.1147731
2.111074615
2.104788108
2.095014413
2.085691855
2.076119161
2.06518872
2.05857396
2.050915906
2.039222391
2.022045792
2.004562043
1.983605089
1.96031268
1.952155831
1.942958806
1.923122972
1.909826342
1.899366397
1.883964616
1.873829754
1.866616573
1.857756576
1.846842163
1.836070505
1.813364652
2.203101077
2.200754317
2.184891854
2.161614762
2.142049168
2.123765185
2.119004072
2.114511928
2.103732049
2.092342901
2.079487791
2.071191056
2.063306246
2.057440116
2.051526008
2.041532264
2.022709749
2.004831644
1.984784885
1.963716723
1.954852145
1.943394907
1.923150778
1.910442117
1.89969062
1.883592063
1.873506438
1.867974061
1.85864742
1.8469939
1.836102265
1.813507704
2.213025249
2.204027772
2.182208822
2.157209724
2.141685853
2.127235127
2.123350059
2.113370512
2.09963181
2.083692005
2.072353358
2.068344739
2.061956377
2.05665551
2.052786592
2.041950666
2.022655982
2.005259702
1.987168633
1.968804119
1.955585906
1.943282885
1.923406935
1.911161413
1.900147838
1.883742318
1.87371309
1.868166624
1.858539618
1.847164025
1.836269522
1.813803048
2.218903962
2.2022663
2.176193318
2.155678383
2.142705884
2.134324099
2.123184701
2.109222356
2.090804827
2.075284335
2.070139318
2.066597995
2.061347121
2.057247529
2.053789445
2.04187571
2.02181696
2.005668474
1.991522277
1.97247372
1.955757566
1.942909105
1.92381869
1.911569268
1.90057286
1.884173284
1.874545287
1.868493069
1.858283155
1.84723148
1.836693877
1.814345839
2.217845451
2.197166857
2.172107051
2.154977309
2.147765204
2.137892541
2.120935767
2.103487176
2.085704661
2.073500253
2.069792308
2.065942667
2.06186292
2.05834166
2.053691417
2.041044132
2.02068731
2.006074034
1.995435229
1.97383124
1.955638548
1.943063372
1.924348133
1.911961932
1.901389386
1.885267548
1.876130969
1.868773704
1.858070115
1.847164793
1.837193229
1.815093488
2.214443611
2.190925068
2.171119219
2.156371378
2.153137268
2.137676171
2.11703665
2.101628125
2.084460476
2.072877124
2.070290214
2.066563476
2.063009901
2.057388835
2.051908969
2.039031081
2.02002896
2.007948908
1.996870358
1.974346676
1.955659502
1.943488803
1.925027595
1.913004339
1.903882541
1.888173406
1.876791939
1.868884734
1.858032331
1.847265077
1.837738527
1.815966067
2.209977083
2.188853185
2.171019352
2.162222287
2.154841703
2.135443277
2.115377591
2.101186679
2.084082854
2.073003904
2.072097257
2.069251736
2.063308671
2.055067478
2.048145864
2.036987586
2.01999685
2.008325907
1.996330965
1.974250739
1.956000797
1.944131425
1.926609441
1.91683653
1.908234504
1.889640405
1.876894438
1.868980529
1.858135439
1.847540122
1.838406941
1.816892844
2.209144437
2.189030534
2.174506595
2.167235642
2.153113322
2.132708978
2.11437018
2.100786764
2.08367963
2.074598802
2.076162131
2.0704054
2.062178337
2.050853225
2.043141842
2.034589159
2.0205667
2.008513167
1.995704043
1.973201373
1.956485026
1.945802657
1.931832981
1.922846558
1.909412496
1.889962733
1.876724835
1.868753728
1.858035241
1.847927965
1.839451489
1.817738834
2.209921843
2.192439685
2.182828881
2.166829055
2.1493327
2.1304439
2.113154242
2.100759002
2.085540435
2.080891831
2.076091319
2.067899063
2.056983154
2.045934223
2.041196299
2.033837994
2.021510523
2.008799385
1.995528385
1.974116293
1.957933669
1.951964378
1.941504594
1.924735649
1.909211223
1.890324823
1.877106654
1.868867623
1.857755643
1.849171677
1.841876741
1.817813038
2.217942918
2.204030047
2.187622055
2.168350257
2.153453614
2.137441605
2.12111744
2.108998059
2.094641171
2.082504021
2.072424102
2.061926184
2.050785821
2.041884817
2.037443214
2.030193368
2.018337362
2.009683694
2.002298608
1.98803344
1.975536907
1.966899466
1.950670836
1.932805714
1.919835602
1.901970579
1.889047781
1.880812596
1.868342299
1.854984727
1.843345448
1.819650867
2.208034151
2.196460713
2.1811241
2.163536944
2.150892281
2.136775562
2.119057508
2.10627125
2.093181705
2.079824728
2.071277127
2.060477263
2.046128219
2.03647666
2.031917517
2.025205419
2.015212117
2.00804852
2.001407925
1.98969574
1.973576051
1.965743851
1.954223658
1.939436944
1.932357243
1.918986193
1.902894326
1.891205371
1.875317804
1.858191882
1.847727915
1.831079541
2.198547446
2.186525136
2.173168307
2.161752049
2.151282567
2.137744581
2.119682246
2.106640407
2.096152215
2.082885648
2.072194608
2.060302164
2.04279892
2.032214276
2.028267396
2.021246523
2.012078661
2.005167854
1.99640528
1.984567247
1.96814053
1.959924531
1.952469559
1.940173836
1.933523589
1.92396165
1.907424958
1.894941659
1.881027937
1.864796799
1.856873017
1.84241217
2.197129405
2.187555432
2.172930043
2.161119072
2.151052867
2.138380202
2.121108317
2.108403348
2.100986772
2.087910028
2.074341821
2.062221602
2.04492579
2.03206117
2.024729142
2.015029912
2.004509395
1.997592592
1.988650612
1.977306465
1.961913905
1.953685536
1.948177897
1.938474164
1.931640079
1.925181493
1.9101097
1.897707133
1.887954159
1.87264325
1.86145575
1.843747354
2.211215748
2.191425808
2.173966835
2.163431708
2.154348019
2.142043835
2.125154074
2.112371343
2.101206778
2.087488781
2.076379069
2.066970944
2.052393323
2.034951219
2.024302553
2.014253183
2.002058177
1.992323439
1.982963719
1.970817722
1.958029749
1.950664879
1.944823893
1.935644506
1.928658637
1.922687647
1.910780918
1.896500753
1.887273725
1.875039411
1.862191704
1.845208614
2.21905521
2.193510522
2.180942084
2.16990309
2.160336098
2.148912346
2.132474459
2.116939799
2.10302972
2.088839604
2.077515041
2.067408726
2.053891901
2.037716421
2.025776485
2.016588301
2.004196259
1.992477442
1.982908408
1.971539853
1.959678608
1.949928936
1.942294175
1.933435486
1.927035295
1.920275627
1.909449301
1.896808902
1.887181302
1.876624025
1.863265221
1.847516127
2.301655436
2.254925612
2.211709769
2.176495516
2.164129292
2.158559953
2.142338503
2.123006166
2.107668677
2.093597075
2.080966544
2.069911516
2.056979631
2.042117442
2.029761052
2.020287423
2.007579558
1.994677941
1.985412103
1.974770066
1.962728912
1.951430702
1.940428534
1.930854629
1.923733359
1.915710687
1.906080207
1.895293138
1.886386753
1.876531113
1.864162596
1.849279494
2.391530529
2.326134123
2.27182376
2.235605782
2.208207618
2.18180144
2.152872198
2.133769691
2.121690764
2.105978703
2.087992874
2.074991804
2.062893493
2.048392821
2.035009301
2.024397811
2.010414901
1.996407064
1.986716268
1.977947447
1.966527601
1.954249676
1.940943774
1.928940941
1.918448573
1.908759949
1.899233544
1.890164051
1.88359975
1.875152181
1.863335604
1.849056708
2.469897038
2.415997189
2.360276617
2.307588002
2.259367561
2.218759904
2.187847897
2.164011424
2.142069409
2.120852724
2.098798277
2.085441742
2.074746387
2.059266385
2.043114077
2.028900007
2.013938642
1.999434068
1.990066857
1.982004296
1.970550327
1.956665134
1.941560029
1.929490898
1.917118695
1.906343442
1.897639793
1.889599911
1.88219443
1.873167377
1.860808961
1.847579858
2.512415848
2.483675773
2.442405274
2.394195231
2.345814549
2.297933539
2.249450182
2.200390673
2.15853374
2.126816653
2.108898028
2.099917116
2.08758662
2.068877671
2.050815016
2.03464672
2.019530179
2.004303288
1.994869586
1.985759798
1.973249431
1.957841403
1.942895094
1.931353014
1.918845108
1.907246541
1.898200741
1.890358431
1.881695502
1.872286472
1.858557571
1.845448213
2.529191415
2.514759271
2.493892458
2.464597781
2.425161489
2.379066152
2.327272542
2.272519813
2.222428759
2.180149692
2.144528849
2.1186382
2.097205217
2.076127442
2.060410507
2.047534772
2.032800138
2.01520512
2.002574101
1.990586524
1.976731477
1.960420766
1.946165301
1.935128653
1.922741872
1.909834333
1.900704883
1.891947369
1.882023131
1.872310522
1.859354723
1.844118397
2.54895858
2.534329802
2.51825643
2.50022638
2.478076626
2.445188342
2.399047056
2.346262007
2.293081928
2.241704983
2.19695699
2.159791205
2.131343298
2.107187053
2.086075618
2.067496154
2.046987654
2.024927903
2.009346857
1.996016454
1.981450338
1.965110602
1.952189371
1.940474462
1.92741579
1.913325769
1.904532989
1.895423822
1.884684926
1.874362583
1.861976123
1.844412612
2.563085787
2.551995156
2.538781821
2.525077828
2.508638264
2.485001957
2.451471615
2.410790328
2.366404684
2.318914708
2.27196986
2.228167911
2.185784803
2.14698488
2.110954827
2.081955245
2.056225297
2.031900157
2.018467101
2.006717172
1.99160007
1.974741063
1.960965346
1.947091347
1.933222715
1.918781486
1.910682594
1.901533683
1.889955932
1.878803719
1.866218709
1.84648843
2.56263331
2.559086859
2.554920911
2.548126622
2.53559066
2.515595716
2.486151091
2.452180235
2.421880551
2.387252042
2.34552708
2.301102597
2.256712828
2.212778435
2.169804908
2.129922253
2.096728152
2.067077697
2.046084254
2.028501904
2.00727089
1.986239028
1.970210421
1.954347903
1.939984333
1.926650118
1.919318004
1.909907234
1.897029127
1.884889234
1.872158157
1.850732389
2.543840205
2.544171204
2.544517031
2.544017158
2.54013199
2.52691214
2.50442431
2.477210185
2.453171833
2.430470302
2.401604859
2.366458709
2.325981013
2.28059343
2.235485594
2.191943787
2.149901547
2.110657035
2.076463734
2.050484558
2.024432883
2.000668943
1.984179986
1.969047692
1.953206393
1.940100294
1.931422237
1.92037378
1.906242252
1.893533499
1.881290519
1.858491967
2.516801947
2.529913099
2.536673678
2.532538927
2.528627649
2.525517111
2.510776703
2.492677706
2.471622869
2.450541491
2.429511307
2.404591749
2.375990035
2.341234818
2.302755684
2.262646753
2.219348825
2.174308609
2.134111208
2.100986324
2.069710584
2.041128416
2.017383746
1.997640163
1.975241811
1.956083539
1.943524127
1.930476544
1.916041448
1.904214639
1.893145781
1.869249357
2.466884086
2.489108757
2.508557742
2.520071672
2.517434911
2.512537243
2.503777637
2.490930871
2.477580017
2.459100081
2.441140896
2.423726932
2.404947364
2.380657027
2.354147715
2.324230415
2.287138135
2.24380453
2.201988925
2.163967622
2.125578817
2.087739869
2.054176949
2.027906323
2.000370854
1.975140277
1.959125714
1.946063552
1.931695957
1.919554812
1.908200514
1.882561261
2.427589554
2.436525433
2.45151433
2.471078189
2.485860584
2.487695328
2.488784701
2.484907385
2.474800586
2.466254825
2.452880708
2.438489507
2.422704176
2.404015905
2.38531703
2.365878975
2.339590598
2.303493633
2.266798936
2.232026391
2.193767245
2.151857178
2.113740432
2.080567634
2.047513296
2.017747632
1.994222613
1.97574923
1.956562779
1.939300476
1.924072336
1.89560792
2.404645674
2.397189027
2.402723854
2.418791535
2.437314468
2.451523027
2.466781743
2.476183576
2.474942313
2.466985195
2.460544726
2.452486231
2.440677848
2.427364856
2.408573699
2.390357683
2.369916347
2.341164532
2.31442845
2.289003469
2.257459515
2.217549975
2.178426336
2.142883392
2.104505691
2.066311536
2.03417511
2.007966488
1.982113839
1.959276451
1.942184789
1.912854263
2.383060438
2.365964514
2.364176938
2.375061846
2.390931396
2.408103651
2.430792372
2.449949718
2.458032131
2.457083194
2.455312613
2.447354994
2.439888073
2.429598709
2.416494348
2.40257103
2.387345221
2.364434468
2.341374125
2.323928602
2.301915993
2.269963242
2.237390506
2.204900087
2.168040613
2.128097858
2.09294815
2.061927921
2.031175273
2.002846953
1.9809
1.944346615
2.369838265
2.352386843
2.357386113
2.367096603
2.373008284
2.378558322
2.39219331
2.410107667
2.421267046
2.426324942
2.431426011
2.433206005
2.431882284
2.42917594
2.424399961
2.414960574
2.4030466
2.383775838
2.359792124
2.342352054
2.328033836
2.306056882
2.282277135
2.258005234
2.226968762
2.189747583
2.155605185
2.122839576
2.088129563
2.053977326
2.025907362
1.980418265
2.333068386
2.347356714
2.36048847
2.354707003
2.354755933
2.359085996
2.363671597
2.369317649
2.377833666
2.38589855
2.393392169
2.404168842
2.412873936
2.420453255
2.425401434
2.419869702
2.407190079
2.393994942
2.377064494
2.356005764
2.343546051
2.32804881
2.31012371
2.291315712
2.269271563
2.24115447
2.212727282
2.182589777
2.149783896
2.113841289
2.084950272
2.035625297
2.338590372
2.352457038
2.356892122
2.358733084
2.338395086
2.337211382
2.338387019
2.337384744
2.339199132
2.344002902
2.35288835
2.367983309
2.382550811
2.394721216
2.403757731
2.404561988
2.395794
2.38558669
2.372728195
2.365892354
2.359592634
2.34681806
2.331651496
2.314484931
2.297317222
2.276256825
2.255671465
2.23123578
2.202725993
2.171005391
2.144102745
2.093442554
2.280428077
2.349504542
2.380488351
2.367867741
2.339569606
2.326945764
2.320814409
2.316974195
2.319311654
2.323633986
2.327056534
2.334251499
2.346211737
2.360904486
2.373311882
2.379530462
2.37703893
2.374049596
2.369071764
2.361013769
2.355749461
2.356785531
2.351248323
2.335517282
2.316493479
2.297681166
2.281138305
2.262463969
2.240456775
2.215875817
2.19488148
2.150005743
2.038960608
2.305862791
2.380015075
2.367557158
2.347654437
2.32732367
2.310641017
2.304935076
2.302779109
2.297900618
2.301396395
2.307014143
2.314362074
2.324756937
2.335391432
2.342404021
2.346704317
2.350885218
2.353338791
2.352088104
2.351217033
2.3542333
2.355802884
2.347781296
2.331952052
2.313240176
2.298350675
2.282163384
2.261025968
2.241292169
2.226027795
2.191762632
1.456595067
2.125624646
2.368762088
2.361206907
2.334730135
2.322998165
2.311192585
2.303281304
2.292126824
2.287231424
2.2881677
2.28723769
2.28405601
2.284515693
2.289159818
2.298191873
2.309215497
2.320215916
2.329243103
2.335146837
2.338008973
2.340139621
2.342013604
2.341093044
2.329811427
2.321634799
2.314642935
2.300129859
2.27710344
2.256434439
2.243647217
2.217737345
0.8678020246
1.504411723
2.24249226
2.32278377
2.317221292
2.32266334
2.320353749
2.316327308
2.30122532
2.29362117
2.292906874
2.287456372
2.274682096
2.271245403
2.272677862
2.274620558
2.278686611
2.285935955
2.294868022
2.304936693
2.313474105
2.319932415
2.322970012
2.326797788
2.32397612
2.317205426
2.313034611
2.308692736
2.292947727
2.273792279
2.259479995
2.236444528
0.7444266114
0.8753036846
1.678874282
2.273818355
2.312114421
2.330965507
2.338573722
2.325271751
2.304191205
2.300195938
2.299842703
2.295123289
2.287800719
2.277372087
2.270991579
2.266319736
2.262406375
2.260581211
2.262233614
2.267826227
2.277223373
2.286354795
2.294546282
2.302077879
2.305929794
2.304397678
2.301864853
2.30261145
2.294153171
2.274166696
2.269370082
2.252020525
0.7488626292
0.7508215802
0.9774629555
1.882212823
2.219079452
2.33968252
2.357270882
2.334220862
2.316953662
2.317158345
2.308972907
2.305107904
2.294038477
2.279650192
2.274515036
2.263502851
2.24811907
2.241649511
2.241352622
2.243663615
2.247559666
2.253325312
2.262801025
2.273235343
2.281300555
2.284626779
2.285324919
2.287276652
2.284636961
2.271218812
2.262825365
2.258568286
0.7615821393
0.7587434667
0.766018944
1.168367133
1.921830172
2.317357428
2.372841646
2.359151723
2.345254295
2.326760838
2.324518577
2.314219265
2.290943496
2.282411306
2.277357834
2.262199842
)
;

boundaryField
{
    inlet
    {
        type            calculated;
        value           nonuniform 0();
    }
    outlet
    {
        type            calculated;
        value           nonuniform List<scalar> 
68
(
1.8197177
1.830980863
1.842401531
1.843763117
1.845202978
1.847470922
1.849232808
1.849032508
1.847563758
1.845431336
1.844107896
1.844414542
1.846499397
1.850751927
1.858521035
1.86928334
1.882595132
1.895638539
1.912881492
1.944380278
1.980457478
2.035659113
2.093471797
2.150025816
2.19177989
2.217726276
2.236409315
2.251977244
2.258533852
1.783110001
1.783465603
1.784005343
1.785182336
1.787986483
1.792308697
1.795730377
1.7968712
1.796960377
1.796594417
1.796542641
1.796860434
1.797446978
1.798613008
1.801200667
1.80533976
1.808486535
1.809314177
1.809499365
1.809729449
1.810075347
1.81056203
1.811393199
1.812031902
1.812339714
1.812550821
1.812676425
1.812903136
1.813155142
1.813316681
1.813404839
1.813533453
1.813820395
1.81435668
1.815096217
1.815959285
1.816880652
1.817760027
1.81788154
)
;
    }
    bottom
    {
        type            calculated;
        value           nonuniform 0();
    }
    top
    {
        type            calculated;
        value           nonuniform 0();
    }
    obstacle
    {
        type            calculated;
        value           nonuniform 0();
    }
    defaultFaces
    {
        type            empty;
    }
    procBoundary29to23
    {
        type            processor;
        value           nonuniform List<scalar> 
34
(
2.236197629
2.224190121
2.215243126
2.207535563
2.20029427
2.192367073
2.183381608
2.171244073
2.155288926
2.134218252
2.111582194
2.087664145
2.065700757
2.044697055
2.033126317
2.025182575
2.009198271
1.993762989
1.985124444
1.974163749
1.959183092
1.949800966
1.939563895
1.92286081
1.90798554
1.893964044
1.878298551
1.863155358
1.852972441
1.842403357
1.829033171
1.815575944
1.804094417
1.782795719
)
;
    }
    procBoundary29to28
    {
        type            processor;
        value           nonuniform List<scalar> 
70
(
2.252117494
2.252914096
2.254786082
2.259410403
2.263064323
2.263117735
2.26112783
2.233589817
2.233589817
2.232757842
2.232781026
2.235814888
2.241486644
2.241787509
2.238725687
2.231931018
2.226543026
2.224837031
2.224219824
2.225932827
2.229765927
2.229885163
2.228588112
2.227305867
2.21915231
2.21915231
2.222069724
2.223913973
2.223755882
2.222138498
2.218517421
2.216619058
2.216333527
2.2165571
2.218339451
2.225058552
2.231502985
2.233465078
2.233909361
2.234178249
2.234791502
2.235464417
2.220677624
2.206177525
2.202624583
2.236361148
2.272701976
2.35870892
2.450992485
2.510683972
2.532888404
2.542291181
2.562695962
2.573205358
2.562170498
2.540334937
2.49225705
2.443984439
2.418310511
2.416259298
2.411042821
2.395674493
2.358072452
2.313924992
2.012630279
1.343122871
0.8135083972
0.7354563752
0.7429821363
0.7512353391
)
;