/*--------------------------------*- C++ -*----------------------------------*\
  =========                 |
  \\      /  F ield         | OpenFOAM: The Open Source CFD Toolbox
   \\    /   O peration     | Website:  https://openfoam.org
    \\  /    A nd           | Version:  7
     \\/     M anipulation  |
\*---------------------------------------------------------------------------*/
FoamFile
{
    version     2.0;
    format      ascii;
    class       volScalarField;
    location    "1";
    object      rho;
}
// * * * * * * * * * * * * * * * * * * * * * * * * * * * * * * * * * * * * * //

dimensions      [1 -3 0 0 0 0 0];

internalField   nonuniform List<scalar> 
2222
(
0.5550603033
0.5551460951
0.6554742716
1.044354532
1.282361806
0.4925938194
0.4865635508
0.5179702549
0.5631012361
0.5871276376
0.5818473351
0.5720796262
0.5651329388
0.5587439184
0.5519482439
0.5483473293
0.5464036514
0.5466352328
0.5493883081
0.5521367539
0.5530769455
0.5535178112
0.5536619703
0.5540843102
0.5545147015
0.5545837467
0.5544738
0.5544644936
0.5548490494
0.5556934789
0.5556484038
0.5547139112
0.5546074307
0.5549288392
0.5549511976
0.5547961657
0.565795067
0.9478690373
1.221870018
0.4912021369
0.4840802291
0.5181679569
0.5634483328
0.5877496423
0.5822950196
0.5706369864
0.5640492706
0.557198122
0.5518819799
0.5485166265
0.5463908312
0.5465080534
0.5492660581
0.5518895916
0.552799558
0.5531415812
0.5534549163
0.5535874976
0.5539521371
0.5544087434
0.5545631342
0.5543686265
0.5546096538
0.5554622905
0.5554350311
0.5547556235
0.5545874402
0.5548956645
0.5548710515
0.5545054939
0.5562985761
0.8212614483
1.130875495
0.4798155778
0.4844348074
0.517863205
0.5640291834
0.5882202052
0.5826778454
0.5697816046
0.5618692157
0.5559334852
0.5520115163
0.5485959361
0.5461748299
0.5463085425
0.5488817186
0.5517877522
0.5524742222
0.5529760196
0.553372355
0.5533632705
0.5534729833
0.5542609958
0.5545469768
0.554143577
0.5539823973
0.5549862712
0.5553730073
0.5546994569
0.5544664095
0.5548132443
0.5548350823
0.5544262059
0.5545082562
0.6235665682
1.068262964
0.4729385499
0.4898041398
0.5174006009
0.5643154807
0.5900057861
0.5832519496
0.5696276465
0.5608496651
0.555132348
0.5520449024
0.5484294397
0.5462508088
0.5461887978
0.5487925446
0.5515146458
0.5523140731
0.552774508
0.5533727474
0.5534511168
0.5531516527
0.5538070641
0.5543587985
0.5537070934
0.5535849785
0.5546222973
0.5553501802
0.5545580945
0.5541861103
0.5546263569
0.554759772
0.5543896476
0.5541627371
0.5632503206
0.9626362836
0.4729249306
0.4922961448
0.5161291514
0.5654394714
0.5932479508
0.5855797654
0.5697386472
0.5603257599
0.5544963466
0.5515994274
0.5485099978
0.54610566
0.5459482812
0.5484888241
0.5511636647
0.5523092296
0.5526762238
0.5532569095
0.5530814153
0.55294363
0.5536888867
0.5542647528
0.5535315658
0.5534599795
0.5544447027
0.5552194756
0.5542243344
0.5536302057
0.5540628582
0.5543996474
0.5542703165
0.5539724758
0.5549924936
0.7608559081
1.189707482
0.4776926328
0.4923615773
0.5140577987
0.5665015878
0.5955052468
0.5879162166
0.5700474287
0.56004648
0.5539450191
0.5504243534
0.5481907543
0.546364042
0.5456084427
0.5480045908
0.551301207
0.5520882479
0.5525608294
0.5530787866
0.5529846961
0.5527461993
0.5530852705
0.553907292
0.5536430955
0.5534641249
0.554304045
0.5548346539
0.5538435364
0.5533570868
0.553719628
0.5540218572
0.5538668314
0.553839745
0.5542525896
0.6131232087
1.093654004
0.4827361657
0.4917540082
0.5122552373
0.5666531608
0.597023654
0.588720724
0.5703702392
0.5596557756
0.5533161102
0.5496780447
0.548051869
0.5463933943
0.5451751739
0.5475572385
0.5511789845
0.5521600309
0.5523336271
0.5529972871
0.552816495
0.5523249562
0.5525261809
0.5535602404
0.5537095215
0.5533336465
0.5538737171
0.5543449873
0.5536785054
0.5532653791
0.553588805
0.5538934866
0.5536669951
0.5537718308
0.5541601658
0.5590170186
0.8986827793
0.4852943682
0.4905360582
0.5108913078
0.5665596314
0.5981865119
0.5893847846
0.571097947
0.5583766213
0.5523633307
0.5492803466
0.5479606145
0.5462948087
0.5448435094
0.5470200162
0.5508323665
0.5521856161
0.551950092
0.5527638808
0.5526093476
0.5519453702
0.5522351045
0.5534500827
0.5536725839
0.552863421
0.5532256661
0.5539801726
0.5537451964
0.5533152283
0.5536025258
0.5539570707
0.5536381027
0.5536326772
0.5537171422
0.5541215753
0.7377375729
0.4871224344
0.4870945021
0.5093768536
0.5652940941
0.5990545244
0.5909040473
0.5711872072
0.5565492715
0.5515152149
0.5490100798
0.5479811588
0.5461486194
0.5448012864
0.5465629893
0.5502435104
0.5521108118
0.5512683857
0.5525059795
0.5528260479
0.5519338929
0.551913902
0.553033044
0.5531430359
0.5522740463
0.5528101603
0.5537130963
0.553829339
0.5532541777
0.553519676
0.5539018348
0.5535859478
0.5532366741
0.5534845153
0.5538500447
0.5989899621
0.4876411141
0.4793791067
0.5071943395
0.5626135806
0.5994684117
0.5923366612
0.5712014443
0.555830648
0.5505545386
0.5485696185
0.547836555
0.5460079153
0.5445960655
0.5459586945
0.5499729899
0.5520681355
0.5510539884
0.5523933332
0.5527560126
0.5516829738
0.5514118496
0.5523043911
0.5525719912
0.5520095007
0.5525695601
0.5535017445
0.553791596
0.553063022
0.5530545756
0.5535433905
0.5532708629
0.5528434276
0.5533704117
0.5534056328
0.5561759353
0.4793793093
0.4748748387
0.5048031814
0.560743198
0.5983278384
0.5938083121
0.570457202
0.5555059655
0.5500134938
0.5479062782
0.5472391929
0.5455861422
0.5445703079
0.5453083457
0.549696601
0.5517790174
0.5507667222
0.5519047486
0.5526771771
0.5518050436
0.551341434
0.5521346108
0.5524060377
0.551767312
0.5521305502
0.5531678294
0.5535569627
0.5524212599
0.5522772284
0.5527411365
0.5527269507
0.5526060759
0.5532449149
0.5533725467
0.5542155822
0.4681676464
0.4747510665
0.5049297013
0.5584248689
0.5980589855
0.5952739846
0.5705134077
0.5552765699
0.549396833
0.5464468206
0.546098842
0.5454914956
0.5443722059
0.544786835
0.5488732804
0.5518160176
0.550357647
0.5510962797
0.5520063469
0.5518018791
0.5511608959
0.551925746
0.5520589634
0.5514694796
0.5513515185
0.5524965414
0.5529632824
0.5518614017
0.5518733314
0.5523156596
0.5524197204
0.5523080188
0.5527961783
0.5531099067
0.5528711018
0.4639974705
0.4768049318
0.5057231774
0.5556599767
0.5982817201
0.5958970775
0.5707110426
0.5548177962
0.5485831691
0.5454182154
0.545259044
0.5452344737
0.5438981689
0.5443580474
0.5481841903
0.5516601755
0.5500990638
0.5504835544
0.5515399118
0.5516815302
0.5507626962
0.5516677168
0.5519568305
0.5509247745
0.5506808069
0.5518591082
0.5525065275
0.5515670249
0.5516358783
0.5521256127
0.552273809
0.5519030224
0.5520470073
0.5524296714
0.5525089301
0.5558502358
0.4632105432
0.4763490251
0.5040464363
0.5539285934
0.5981868604
0.5962602064
0.5701946886
0.5537923094
0.5483708416
0.544729004
0.5447784604
0.5448338574
0.5436022593
0.5438484387
0.5473172515
0.551031805
0.5494722008
0.5499961843
0.5512417862
0.5516131673
0.5503861019
0.5513485607
0.5516033254
0.5503542585
0.5501091368
0.5511692076
0.5521476889
0.5512525962
0.5514631277
0.5520229639
0.55214643
0.5514053344
0.5515968791
0.5519915389
0.5521687457
0.5523139828
0.4635974829
0.4761949108
0.5002163589
0.553209773
0.5973390483
0.595061084
0.5698608038
0.5516149011
0.5477113818
0.5435567224
0.5443490693
0.5444788342
0.5437516978
0.5432338404
0.5465558385
0.5507491411
0.5491492584
0.5495347961
0.5507775604
0.5512901824
0.5498897508
0.5508886536
0.5514243696
0.5502005865
0.5496926037
0.5506537267
0.5519849326
0.5510305273
0.5507052052
0.5512833686
0.5514674605
0.5509938622
0.5512507059
0.5515454673
0.5517220208
0.5513967715
0.4652469783
0.483123834
0.49588307
0.551277609
0.5985284754
0.5991631231
0.5708971422
0.5500011244
0.546417231
0.5425612053
0.5437669306
0.5443763216
0.5443447702
0.5425852767
0.5456951128
0.550014109
0.5487641072
0.5489247049
0.5501718396
0.5507051659
0.5494655874
0.5504062559
0.5508670135
0.5498754241
0.5492576053
0.5501179496
0.5512356497
0.5502332199
0.549801717
0.5502880771
0.5507531142
0.5504880593
0.5506447518
0.5511475658
0.551575196
0.5512598761
0.4667529256
0.486050472
0.491127304
0.5470156211
0.6006168307
0.6036880317
0.5717440271
0.5495526589
0.5463876824
0.5421651965
0.5435357861
0.5441188039
0.5447195057
0.5424334824
0.545415918
0.5505756575
0.5493461659
0.548717924
0.5500037289
0.5507773354
0.5493336614
0.5501713287
0.5507150848
0.5499353362
0.5489888272
0.5497441413
0.5507865027
0.5497390706
0.5491871746
0.5496684856
0.550172744
0.5497782543
0.5498689908
0.550433397
0.5508318586
0.5504727974
0.4658774779
0.4865451304
0.4887726307
0.5436114808
0.6042995155
0.6066702864
0.5729571343
0.5499071498
0.5477694217
0.543277073
0.5440241419
0.5445283062
0.545648721
0.542576497
0.5453559172
0.5513204763
0.5500530355
0.5489970107
0.550227207
0.5517389356
0.5499799239
0.5503495056
0.5510114674
0.5507157705
0.5490922367
0.5497559959
0.5509843625
0.5501431649
0.5491151789
0.5495466406
0.5500821633
0.5496560867
0.5496742993
0.5502299209
0.5506862816
0.5503703297
0.4596259849
0.4829415376
0.5055350985
0.5490066096
0.6184958387
0.6118709345
0.5810150924
0.5567017722
0.5542470711
0.5458855881
0.5439223995
0.5453080544
0.5476909382
0.5453009383
0.5472445421
0.5521534602
0.5513750878
0.5500791402
0.5512399777
0.5528726215
0.5510734662
0.5514866542
0.5524998582
0.5515905717
0.5501797763
0.5503276589
0.5513134638
0.5507445431
0.5496676178
0.5499419714
0.5506340296
0.5501631585
0.5498343875
0.5503597125
0.550991588
0.5505946584
0.4616487074
0.4878826891
0.5361896227
0.5814240435
0.6361644984
0.6276821389
0.5918634994
0.5630048952
0.5606421074
0.5518357981
0.5484781835
0.5501370424
0.551944433
0.5483322811
0.5501572541
0.5554756971
0.5547502861
0.5526167619
0.5533581467
0.5549107935
0.5531278129
0.5529860712
0.5540401872
0.5535870429
0.5515381766
0.5518628763
0.5530547262
0.5522806046
0.5507860132
0.5510386912
0.5514892962
0.551079359
0.5507966503
0.5512298003
0.5516579787
0.5513606375
0.5629258988
0.5862640923
0.5782763992
0.6160955385
0.6524829219
0.638412167
0.6031031639
0.572331826
0.5689139457
0.5596458409
0.5524064086
0.5537393131
0.5560579064
0.5518168017
0.5528888926
0.5584013728
0.5575995654
0.5548311088
0.5554252205
0.5570970098
0.5549965471
0.5542433984
0.5555477691
0.555301575
0.5530222919
0.5530992261
0.5540064793
0.5536835833
0.5521215446
0.5523372905
0.5527767884
0.5521696932
0.5516956796
0.5520242506
0.552694177
0.5519189067
1.613609648
0.9960560491
0.7538612417
0.745319778
0.7160720567
0.6758687078
0.6344970734
0.6037027929
0.6000732061
0.5888371464
0.5751497177
0.5758418929
0.5775285101
0.5710636417
0.5705612786
0.5741821003
0.5729036223
0.5680771398
0.5683188359
0.5695753715
0.5674633344
0.5652061517
0.5660878494
0.5656808362
0.5627090489
0.5622926132
0.5631690738
0.56244528
0.5599768345
0.5597961382
0.5601508502
0.5595718837
0.55842505
0.5586031299
0.5589974266
0.5584474706
0.5580774678
2.156960657
1.611585952
1.256824584
1.070065379
0.8685462451
0.7716367038
0.7148226307
0.6835128669
0.6846294741
0.6684636755
0.6393741281
0.637784139
0.6374952752
0.6249074487
0.6173337861
0.6189489764
0.615117883
0.603970399
0.6028913907
0.6036919149
0.6007003044
0.5942947746
0.5946242108
0.5937094154
0.5886271143
0.5865155996
0.5872969995
0.5861440476
0.5819892868
0.5805012761
0.5807014999
0.5798539929
0.5768100339
0.5764995907
0.576566329
0.5752962573
0.5738549158
2.278138574
2.026862176
1.650007354
1.318808328
1.063991741
0.9472361295
0.8878550938
0.8151275303
0.7924314375
0.7689446358
0.7228625186
0.7183087492
0.7157107767
0.6985893009
0.6787591301
0.6759277866
0.6701241947
0.6530901739
0.650017123
0.6500536032
0.6452718198
0.6346576513
0.6319237374
0.6304302931
0.6237816289
0.6190247232
0.6198932267
0.6182292254
0.6106913774
0.6078545781
0.6081191776
0.6068122634
0.6023953562
0.600145249
0.5998375052
0.5984661273
0.5951812474
2.304718379
2.204073563
1.949828412
1.630063425
1.369541911
1.192058454
1.079243677
0.9643252241
0.89484414
0.8610512169
0.8105446567
0.7887980603
0.7793925426
0.7584398631
0.7306469207
0.723714378
0.716833454
0.6984625352
0.6916501503
0.6896413834
0.6818475645
0.6676673914
0.6648313903
0.6633975947
0.6575141186
0.6489923321
0.6479815506
0.6457399268
0.637685933
0.6338118403
0.6335214376
0.6310126776
0.6250396379
0.6215620676
0.6212778143
0.6203712778
0.6163703944
2.309101692
2.273727433
2.132712334
1.892120319
1.628996962
1.397409463
1.2328454
1.096894371
1.007289033
0.9654040776
0.9151085689
0.8728069657
0.8540223281
0.8279387998
0.7918736657
0.780035425
0.7709562489
0.7515512602
0.7382267268
0.733599169
0.7240966387
0.7056522504
0.70161038
0.6992787938
0.693237187
0.6822501913
0.6786558589
0.6756314699
0.6684950732
0.66179374
0.6604614486
0.6573578983
0.6488586931
0.6455006209
0.6455257007
0.6442256595
0.6396498941
2.309464295
2.298409508
2.23148904
2.071120326
1.846448111
1.609942654
1.433838302
1.289877406
1.171638189
1.094310084
1.020424637
0.9560187386
0.9244120253
0.8931788351
0.8502354205
0.8330453299
0.8217591571
0.8008047562
0.7816578617
0.7738283948
0.7634330359
0.7436331448
0.7364202511
0.7327163872
0.7253035168
0.712055949
0.7071855266
0.7038252147
0.6970599758
0.6884128279
0.6858337585
0.6827165017
0.6739758225
0.6695052573
0.6688827112
0.6666536019
0.6602283707
2.309530199
2.306204786
2.277956145
2.184690184
2.017898402
1.800867802
1.611514344
1.444243907
1.29656881
1.202501256
1.124189729
1.048152501
1.005808033
0.9692544606
0.9195296551
0.8959033041
0.8807077397
0.8560992126
0.8309481987
0.8196115328
0.8077717566
0.7861194189
0.774735997
0.7693388374
0.7606841971
0.7448953824
0.7385071882
0.7345716334
0.7273099905
0.716852547
0.712795848
0.7092068347
0.7015304077
0.6945561792
0.6927454479
0.6899535883
0.6826976989
2.309707603
2.309041873
2.298077465
2.249820002
2.138812354
1.962163626
1.77816781
1.605253727
1.442630804
1.339377225
1.252925498
1.161722349
1.100318147
1.052170089
0.9934352948
0.9586855113
0.9380953238
0.9089711599
0.8770382554
0.8629382017
0.8499997705
0.8268866327
0.8116722746
0.8045978786
0.7948355273
0.7768619566
0.7687483914
0.7641446756
0.7562837891
0.7437967865
0.7386879984
0.7348002553
0.7274221278
0.7187222163
0.7156216208
0.7122473996
0.7045231375
2.310037141
2.309696813
2.306098337
2.284001953
2.217904095
2.087988155
1.9233613
1.757635773
1.585940644
1.463341065
1.358732412
1.249327303
1.179518795
1.130447321
1.068897714
1.026658368
1.002137182
0.9697894465
0.9313925528
0.9132393564
0.8978305889
0.8717610852
0.8522267654
0.8432773272
0.8323266376
0.8118297217
0.8014839188
0.7960122247
0.7875465322
0.7732300538
0.7668264098
0.7623676705
0.7545662965
0.7441142457
0.7398318816
0.7360088802
0.7279466012
2.310772479
2.310730766
2.309452924
2.300168644
2.264551912
2.178701553
2.044602907
1.893664583
1.722402619
1.5869401
1.478254224
1.361825135
1.284727057
1.228966955
1.158054127
1.101798778
1.06859526
1.030854312
0.9848656795
0.9622375896
0.9453098454
0.9172449543
0.8930112576
0.8818208898
0.8695587421
0.8468924717
0.8338850726
0.8274550998
0.8182592759
0.8019490218
0.7941790069
0.7893101832
0.7812376418
0.7691381931
0.7637500444
0.7594288851
0.7509708268
2.312101417
2.312018635
2.311193132
2.307242153
2.289769175
2.238325198
2.139163636
2.010697111
1.85179417
1.707410334
1.592922924
1.466585697
1.374171376
1.309682537
1.232714702
1.168456311
1.132151998
1.093086673
1.041152279
1.015166881
0.9970205857
0.967277866
0.9383747364
0.924542244
0.9107430602
0.8855194683
0.8692329127
0.861400696
0.8512941793
0.8328554242
0.8235066491
0.8180553667
0.8095968133
0.7958830569
0.7892172305
0.7844187445
0.7756999495
2.313188933
2.312827779
2.312231284
2.310464386
2.302485321
2.274409102
2.208027683
2.105810209
1.967112313
1.822924827
1.705656427
1.574471717
1.470083306
1.402987813
1.323707463
1.251472148
1.208323111
1.164128789
1.104845538
1.07074819
1.048642995
1.015501788
0.9806039755
0.9650232779
0.9509125044
0.9245448427
0.904674565
0.8952553914
0.8841429401
0.8636104284
0.8523245354
0.8462490898
0.8373510061
0.8218299306
0.813971256
0.8088220793
0.8000183882
2.313571097
2.31313869
2.313099179
2.312410406
2.308932051
2.294688354
2.254040108
2.179036755
2.06595299
1.930086753
1.8123546
1.682498081
1.566513899
1.491635518
1.405555252
1.321005755
1.272110388
1.226431001
1.163032453
1.124376941
1.101007416
1.067082398
1.027198681
1.009473667
0.9943966004
0.9663638045
0.9426276017
0.9315275292
0.9195053886
0.8967613338
0.883077225
0.8762471213
0.8669458149
0.8498201124
0.8403528354
0.8346514735
0.8256435688
2.313632852
2.313719459
2.314304287
2.314017651
2.312231277
2.305142332
2.28222836
2.231638093
2.145468952
2.026739864
1.912830027
1.786894648
1.66243672
1.580623728
1.492204101
1.397605895
1.345828698
1.300600315
1.233464962
1.187249563
1.159581966
1.122832854
1.07660138
1.054305736
1.037366636
1.007197566
0.9787860243
0.9663382704
0.9539821744
0.9299613149
0.9137013925
0.9061244589
0.8964380546
0.877696679
0.8665678068
0.8604407613
0.8513653539
2.314996686
2.31516266
2.315007427
2.314681443
2.313562932
2.310028561
2.298003129
2.266733043
2.205860318
2.10899926
2.00368992
1.88641986
1.75782319
1.668065537
1.579105966
1.475686674
1.414443577
1.364742587
1.291940942
1.239147429
1.210990173
1.175044212
1.124560738
1.099423848
1.081931985
1.051006461
1.018073774
1.003775295
0.9906894937
0.9650400441
0.9457359554
0.937380851
0.9275268862
0.9076035004
0.8944707828
0.8876992586
0.8784893356
2.316943196
2.316027364
2.314949758
2.314686134
2.314392629
2.312901817
2.306890351
2.288671502
2.248368845
2.175339838
2.082997258
1.976824046
1.850285115
1.754044015
1.665034289
1.555302299
1.485869889
1.43593613
1.36112262
1.301677166
1.271596193
1.234582612
1.178798666
1.148106169
1.12840101
1.095880245
1.057308369
1.040471836
1.026763602
0.9998135648
0.9767962615
0.9676979523
0.9577615422
0.9368904406
0.9217672577
0.9145186509
0.9052791952
2.31575623
2.314088711
2.313789833
2.314596704
2.315754657
2.31534791
2.312211888
2.301514547
2.275987852
2.224646244
2.148707371
2.056560523
1.937768368
1.836372982
1.748968174
1.637741341
1.557755718
1.505183282
1.42896356
1.359264035
1.324970407
1.287043277
1.227069724
1.192273857
1.172317619
1.140544632
1.097675293
1.078890481
1.065001217
1.037548743
1.010590867
1.000157805
0.9898225336
0.9678977539
0.950336363
0.942339265
0.9329524642
2.309889578
2.312280818
2.314079288
2.316448599
2.317777108
2.317528608
2.315377269
2.308515862
2.29233113
2.258381222
2.200107791
2.122972681
2.017767446
1.915006214
1.82935811
1.719852817
1.630127064
1.574968873
1.499110968
1.419440703
1.38288869
1.34688368
1.284520163
1.244395171
1.222746088
1.190276255
1.142150335
1.118929667
1.103728767
1.075564313
1.044088258
1.03222474
1.02179162
0.999286854
0.978880912
0.969969874
0.960366475
2.310218973
2.315706773
2.316480223
2.317334113
2.318145963
2.318581002
2.317691472
2.313920671
2.303469151
2.280704927
2.238199795
2.176441539
2.087944773
1.987951122
1.904732838
1.801275327
1.702080997
1.642932701
1.569902878
1.481530722
1.438438251
1.401665529
1.336739861
1.289202269
1.266766696
1.235725789
1.184369169
1.157583507
1.141978453
1.114374638
1.078986597
1.065603548
1.054994309
1.032285196
1.008906627
0.9988102912
0.9889990496
2.322928782
2.320397856
2.317124113
2.314706272
2.315913161
2.318656108
2.320296795
2.319014236
2.312666281
2.296721331
2.266132984
2.218391033
2.147881876
2.056076896
1.974141947
1.878150079
1.773346651
1.709475925
1.639743632
1.544578939
1.49374305
1.457708997
1.3931097
1.338979713
1.316690362
1.287628511
1.233590699
1.201211673
1.183950225
1.156122458
1.116232962
1.099250305
1.087540441
1.064039546
1.037159003
1.026380024
1.016871995
2.319955614
2.316946092
2.311426968
2.309641031
2.312293684
2.317588112
2.321434842
2.321699276
2.319117456
2.30943389
2.287718718
2.251583599
2.197083077
2.117645664
2.038184486
1.951114018
1.843952074
1.772878118
1.707487293
1.611111496
1.549642655
1.512600923
1.449414713
1.385493402
1.360376821
1.332178105
1.276889284
1.239529571
1.222208306
1.196173081
1.153638728
1.133505959
1.12113545
1.097794566
1.067540513
1.055460437
1.045810332
2.283874941
2.311148796
2.309464087
2.30661982
2.308358685
2.312367975
2.317403107
2.320184974
2.320166073
2.316584931
2.303537978
2.276967206
2.235770742
2.171454151
2.096190162
2.01773147
1.915982814
1.8363766
1.77279313
1.677838027
1.604977164
1.566861212
1.507531205
1.435158677
1.406565195
1.380201822
1.324960443
1.282473197
1.264661299
1.239596544
1.19427423
1.169606626
1.156009533
1.132817245
1.099472114
1.085409112
1.075496866
2.254197278
2.320098828
2.305423576
2.299682848
2.30475226
2.308211269
2.309362269
2.312612761
2.318306927
2.319252305
2.312539113
2.29370644
2.263269265
2.21484892
2.148664666
2.078155349
1.985422911
1.898731007
1.836313175
1.747905409
1.662500865
1.620042284
1.564792326
1.486547341
1.451983291
1.426390667
1.37292373
1.322819159
1.302533057
1.278083021
1.231362195
1.202829136
1.18877012
1.166707144
1.131248832
1.115616834
1.105727532
1.994349031
2.230215197
2.25914119
2.291682876
2.313545948
2.308698911
2.305204164
2.309068329
2.317726807
2.319143542
2.317179788
2.304314196
2.282077822
2.247568016
2.193635546
2.131210295
2.051272758
1.961226824
1.895952427
1.815124201
1.722643185
1.674224313
1.62246778
1.540367943
1.497133314
1.471690868
1.421467393
1.365984156
1.344469148
1.321735617
1.274731606
1.241530977
1.225844883
1.203861479
1.1660914
1.146992738
1.135960737
1.597645236
2.03382614
2.249416981
2.320631007
2.320579677
2.309690292
2.307401914
2.312371866
2.318985231
2.319297672
2.317018569
2.309706062
2.295036424
2.271664582
2.231215168
2.17701929
2.109054864
2.022236208
1.953477235
1.879706266
1.783121635
1.726350014
1.678117184
1.598322432
1.544930357
1.517834916
1.470260358
1.408047326
1.382402131
1.359889275
1.31361302
1.275883176
1.259358949
1.238559076
1.200292559
1.178178513
1.166193725
1.427048304
1.720612561
2.124615711
2.287837012
2.29123276
2.297252617
2.305125189
2.315710758
2.319763337
2.31925569
2.317112748
2.312008744
2.302882302
2.28794659
2.25997041
2.215678579
2.158844565
2.079856761
2.006981599
1.939192763
1.846563035
1.779498531
1.731062821
1.654202682
1.591697136
1.563217618
1.519541336
1.45359551
1.422608912
1.399944706
1.354274791
1.312481255
1.295558555
1.275884441
1.237269308
1.211716389
1.19826284
1.401445285
1.494934177
1.853040105
2.124945182
2.229879996
2.298533744
2.311513117
2.314021579
2.314259775
2.315810223
2.315675348
2.312346961
2.307147354
2.297500382
2.279100862
2.24566731
2.199261189
2.132004393
2.058466569
1.993806697
1.907136404
1.831936084
1.78291863
1.711631317
1.640127659
1.607516072
1.566387141
1.498784962
1.462518107
1.43974454
1.396130437
1.348920899
1.32887012
1.30879127
1.269873134
1.241411393
1.227384424
1.400036734
1.417565033
1.554141177
1.897427179
2.201732587
2.303494852
2.295244894
2.298529803
2.308973198
2.312700468
2.312697606
2.309904803
2.305274021
2.301647605
2.291425691
2.267996131
2.231086396
2.176139737
2.106351785
2.044497531
1.966479101
1.885061256
1.832257553
1.766219689
1.690510435
1.652937342
1.613222558
1.544552586
1.501780638
1.478263107
1.436927697
1.386470921
1.364718005
1.345371184
1.306692849
1.275298048
1.260044411
1.40000536
1.402067745
1.429000352
1.634342468
2.009206548
2.21959403
2.247939332
2.285414437
2.316967721
2.316286005
2.310467315
2.305742143
2.3043232
2.302407414
2.297276351
2.283176958
2.255596447
2.212565639
2.150960819
2.091245942
2.020983593
1.938434209
1.881713322
1.819566099
1.7403274
1.697047577
1.658818657
1.592560239
1.543503728
1.518009872
1.477988982
1.42341514
1.398376552
1.37879887
1.340939085
1.306398216
1.289900244
1.400005042
1.400161402
1.403190483
1.465101156
1.694130972
2.032042757
2.244235624
2.316709351
2.318444265
2.312379632
2.304990147
2.305524167
2.306032105
2.303885086
2.300153191
2.29251805
2.274328815
2.24202868
2.190602396
2.134588389
2.071580408
1.990540834
1.92928115
1.870757309
1.792536919
1.742480402
1.703553086
1.638851155
1.584324606
1.557249341
1.519168504
1.462565053
1.433630066
1.413317879
1.375626169
1.338353829
1.321543943
1.40000504
1.400012441
1.400226766
1.410562562
1.48168101
1.765383614
2.149923873
2.293789087
2.289812196
2.29562765
2.307219757
2.311132259
2.309843598
2.306402311
2.30259547
2.298951245
2.28864825
2.265363454
2.223864618
2.172527938
2.11631691
2.040940382
1.976229444
1.919289657
1.842603374
1.787431182
1.748474017
1.686597135
1.62602818
1.595750317
1.558673397
1.50099456
1.468988502
1.448409851
1.412071256
1.371400879
1.351895393
1.40000504
1.400005245
1.40001556
1.401107934
1.412988261
1.538703921
1.891957003
2.14408132
2.236222872
2.309131782
2.320208046
2.314724563
2.304389079
2.302429975
2.305061503
2.305466558
2.299821615
2.282498593
2.249684222
2.204763172
2.155022882
2.086834454
2.020838457
1.96592506
1.892792854
1.832101205
1.791570231
1.732698886
1.668637264
1.635179551
1.598486326
1.539480221
1.503648292
1.48241579
1.447421533
1.405022317
1.383925199
1.40000504
1.400005043
1.400005416
1.400083586
1.401358978
1.433797041
1.594389149
1.936062776
2.204979166
2.315082868
2.314336371
2.300008171
2.29660664
2.303685662
2.310416738
2.31093369
2.306208935
2.293097797
2.268563472
2.231223918
2.187940709
2.128657666
2.0637838
2.010260242
1.941378095
1.877115003
1.834716928
1.777990468
1.710002046
1.673362254
1.637581706
1.579364407
1.539907347
1.517378578
1.48293393
1.437939061
1.414505054
1.40000504
1.40000504
1.400005052
1.400008951
1.400106497
1.405320255
1.445985255
1.67849307
2.02897148
2.26271982
2.270961876
2.287879005
2.305192747
2.313866088
2.312958385
2.311160812
2.307999528
2.300250145
2.283579557
2.253765063
2.216384451
2.166140525
2.105270028
2.053401892
1.988880076
1.921493919
1.876594228
1.822552972
1.752968965
1.712166853
1.675995021
1.618011781
1.575627594
1.552264119
1.518696416
1.471918183
1.445684786
1.40000504
1.40000504
1.400005041
1.400005166
1.400010488
1.400544156
1.406620505
1.487651422
1.74116279
2.083331496
2.231850904
2.312184144
2.322211783
2.315772112
2.311546746
2.311360751
2.311051956
2.305752131
2.294101012
2.271796085
2.241286328
2.200163507
2.14490649
2.094204695
2.034194863
1.966004168
1.918354274
1.86586685
1.795025724
1.750834151
1.71484877
1.657669442
1.611551959
1.586417946
1.553170663
1.505187968
1.4770505
1.40000504
1.40000504
1.40000504
1.400005043
1.400005239
1.40003744
1.400577782
1.416217431
1.508995876
1.799324548
2.153087622
2.302415546
2.298105402
2.30129664
2.310751192
2.318547809
2.316181411
2.31103721
2.30155432
2.285993475
2.26230671
2.229204237
2.180857173
2.13203478
2.076459223
2.009006507
1.959366656
1.908848422
1.838110348
1.789647105
1.753003727
1.696959343
1.648173044
1.621456177
1.588084566
1.538396259
1.507943325
1.40000504
1.40000504
1.40000504
1.40000504
1.400005045
1.400006107
1.400034092
1.401838493
1.419046655
1.553659161
1.910765181
2.178326874
2.232357247
2.287722478
2.326231825
2.32457605
2.314693417
2.306788004
2.304689824
2.297113631
2.279866648
2.253115602
2.212199925
2.166841078
2.116443548
2.051696021
1.999981614
1.950775837
1.881511018
1.829685492
1.792173639
1.736507887
1.683994517
1.655770504
1.622918003
1.572986369
1.540379255
1.40000504
1.40000504
1.40000504
1.40000504
1.40000504
1.400005061
1.400006043
1.400138812
1.402017905
1.43738881
1.60980472
1.958850704
2.197711124
2.317809108
2.323723525
2.316280332
2.306728977
2.308857123
2.309879692
2.305713938
2.293192039
2.272257561
2.239571008
2.199503013
2.154355531
2.093442281
2.040325591
1.992370638
1.925186855
1.87001351
1.831310388
1.776999433
1.721401398
1.690839328
1.657481026
1.606889028
1.572840806
1.40000504
1.40000504
1.40000504
1.40000504
1.40000504
1.400005041
1.400005077
1.400012344
1.400158558
1.406039892
1.451895142
1.691246549
2.040445349
2.275566251
2.280441621
2.29333511
2.309646873
2.319146877
2.316768623
2.310075954
2.300591012
2.286542746
2.262892561
2.229214593
2.189264024
2.133411529
2.079579673
2.032574463
1.968268778
1.910561545
1.870242583
1.816852171
1.758447576
1.726230051
1.693015366
1.641912831
1.605632754
1.40000504
1.40000504
1.40000504
1.40000504
1.40000504
1.40000504
1.400005042
1.400005372
1.400014617
1.400700545
1.408249032
1.493570356
1.770793959
2.110152189
2.227119334
2.304105102
2.323132902
2.320392095
2.31358452
2.310082879
2.306312286
2.297296225
2.280109969
2.2530566
2.219120717
2.170095528
2.117358302
2.071140304
2.009468805
1.949929961
1.908525071
1.856755572
1.796122728
1.761540498
)
;

boundaryField
{
    inlet
    {
        type            calculated;
        value           nonuniform 0();
    }
    outlet
    {
        type            calculated;
        value           nonuniform 0();
    }
    bottom
    {
        type            calculated;
        value           nonuniform 0();
    }
    top
    {
        type            calculated;
        value           nonuniform 0();
    }
    obstacle
    {
        type            calculated;
        value           nonuniform List<scalar> 
21
(
0.4925938194
0.4912021369
0.4798155778
0.4729385499
0.4729249306
0.4776926328
0.4827361657
0.4852943682
0.4871224344
0.4876411141
0.4793793093
0.4681676464
0.4639974705
0.4632105432
0.4635974829
0.4652469783
0.4667529256
0.4658774779
0.4596259849
0.4616487074
0.5629258988
)
;
    }
    defaultFaces
    {
        type            empty;
    }
    procBoundary27to20
    {
        type            processor;
        value           nonuniform List<scalar> 
30
(
2.313614365
2.312994011
2.311788467
2.3107144
2.309892282
2.309248583
2.309438024
2.309823857
2.31020891
2.310919394
2.312138057
2.314266979
2.314883875
2.314491227
2.314017495
2.315284257
2.315229288
2.30885304
2.307187998
2.321539546
2.319026647
2.251907093
2.030841108
1.600242267
1.408397804
1.399841617
1.399982509
1.400004486
1.400005038
1.40000504
)
;
    }
    procBoundary27to21
    {
        type            processor;
        value           nonuniform List<scalar> 
35
(
0.5554030345
0.556327353
0.7941483995
1.194547465
1.289799259
0.4918519551
0.4900399293
0.5155638554
0.5619454798
0.5860482945
0.5815064331
0.5726649308
0.5659460501
0.5591961468
0.5518467352
0.5482090799
0.5465348243
0.5468636043
0.549684456
0.5524006334
0.5531540041
0.5537781133
0.5536987593
0.5542601004
0.5547756696
0.5548692434
0.5545709223
0.5544779887