/*--------------------------------*- C++ -*----------------------------------*\
  =========                 |
  \\      /  F ield         | OpenFOAM: The Open Source CFD Toolbox
   \\    /   O peration     | Website:  https://openfoam.org
    \\  /    A nd           | Version:  7
     \\/     M anipulation  |
\*---------------------------------------------------------------------------*/
FoamFile
{
    version     2.0;
    format      ascii;
    class       volVectorField;
    location    "3";
    object      U;
}
// * * * * * * * * * * * * * * * * * * * * * * * * * * * * * * * * * * * * * //

dimensions      [0 1 -1 0 0 0 0];

internalField   nonuniform List<vector> 
2222
(
(3 -2.449983348e-15 0)
(3 -2.719767435e-15 0)
(3 -3.003197503e-15 0)
(3 -2.998549054e-15 0)
(3 -3.441439537e-15 0)
(3 -3.58767884e-15 0)
(3 -4.08341685e-15 0)
(3 -4.316728037e-15 0)
(3 -4.490976264e-15 0)
(3 -7.240027433e-15 0)
(3 -8.781523337e-15 0)
(3 -1.088524886e-14 0)
(3 -1.218158993e-14 0)
(3 -1.183048913e-14 0)
(3 -1.094268232e-14 0)
(3 -8.542423016e-15 0)
(3 -8.704484163e-15 0)
(3 -7.853234576e-15 0)
(3 -5.614601546e-15 0)
(3 -6.674093332e-15 0)
(3 -8.52075941e-15 0)
(3 -5.4097137e-15 0)
(3 -6.09517997e-15 0)
(3 -5.209049731e-15 0)
(3 -4.002432562e-15 0)
(3 -2.155969568e-15 0)
(3 -1.040829279e-15 0)
(3 2.253513312e-16 0)
(3 -3.974151522e-17 0)
(3 -4.139958758e-16 0)
(3 -2.228063194e-15 0)
(3 -6.731983253e-15 0)
(3 -7.610855691e-15 0)
(3 -8.23315649e-15 0)
(3 -8.141232306e-15 0)
(3 -7.799686191e-15 0)
(3 -8.171810923e-15 0)
(3 -8.785542626e-15 0)
(3 -9.677028352e-15 0)
(3 -1.032178033e-14 0)
(3 -1.071648139e-14 0)
(3 -1.191728611e-14 0)
(3 -1.232819756e-14 0)
(3 -1.318891956e-14 0)
(3 -1.341742421e-14 0)
(3 -1.193312563e-14 0)
(3 -1.176284498e-14 0)
(3 -1.168378773e-14 0)
(3 -1.307941686e-14 0)
(3 -1.459973763e-14 0)
(3 -1.540907124e-14 0)
(3 -1.83991798e-14 0)
(3 -1.866269231e-14 0)
(3 -1.746851976e-14 0)
(3 -1.644201375e-14 0)
(3 -1.401194421e-14 0)
(3 -9.280500564e-15 0)
(3 -6.988553842e-15 0)
(3 -5.289988086e-15 0)
(3 -3.436534792e-15 0)
(3 -5.27600023e-15 0)
(3 -6.940231835e-15 0)
(3 -4.029054621e-15 0)
(3 -3.351686674e-16 0)
(3 4.196520397e-16 0)
(3 -9.776036447e-15 0)
(3 -8.497779893e-15 0)
(3 -8.440743023e-15 0)
(3 -8.788082717e-15 0)
(3 -1.001849874e-14 0)
(3 -1.061629634e-14 0)
(3 -1.098889825e-14 0)
(3 -1.109604291e-14 0)
(3 -1.102407996e-14 0)
(3 -1.11032349e-14 0)
(3 -1.101471126e-14 0)
(3 -1.141896198e-14 0)
(3 -1.290602882e-14 0)
(3 -1.522167685e-14 0)
(3 -1.659171311e-14 0)
(3 -1.752470872e-14 0)
(3 -1.823583742e-14 0)
(3 -1.953627776e-14 0)
(3 -1.968439816e-14 0)
(3 -2.200691888e-14 0)
(3 -2.470540262e-14 0)
(3 -2.54934185e-14 0)
(3 -2.625278368e-14 0)
(3 -2.603535921e-14 0)
(3 -2.646721918e-14 0)
(3 -2.162974808e-14 0)
(3 -1.477925296e-14 0)
(3 -1.132979086e-14 0)
(3 -9.192390632e-15 0)
(3 -7.153710034e-15 0)
(3 -6.015852101e-15 0)
(3 -5.787600876e-15 0)
(3 -6.665813574e-15 0)
(3 -8.0313762e-15 0)
(3 -1.177647382e-14 0)
(3 -1.18612807e-14 0)
(3 -1.200591161e-14 0)
(3 -1.23709838e-14 0)
(3 -1.195938766e-14 0)
(3 -1.155800521e-14 0)
(3 -1.211208554e-14 0)
(3 -1.244860108e-14 0)
(3 -1.284449374e-14 0)
(3 -1.243904834e-14 0)
(3 -1.208135775e-14 0)
(3 -1.244620877e-14 0)
(3 -1.375577253e-14 0)
(3 -1.490187499e-14 0)
(3 -1.607415356e-14 0)
(3 -1.713590534e-14 0)
(3 -1.804790655e-14 0)
(3 -1.981124965e-14 0)
(3 -2.174871409e-14 0)
(3 -2.299120981e-14 0)
(3 -2.361547446e-14 0)
(3 -2.317649602e-14 0)
(3 -2.163249537e-14 0)
(3 -2.029883687e-14 0)
(3 -1.994990648e-14 0)
(3 -1.934386296e-14 0)
(3 -1.75720616e-14 0)
(3 -1.409819443e-14 0)
(3 -1.045375297e-14 0)
(3 -8.251531612e-15 0)
(3 -8.844037474e-15 0)
(3 -1.009430269e-14 0)
(3 -1.234603967e-14 0)
(3 -1.672910699e-14 0)
(3 -1.182179821e-14 0)
(3 -1.252884327e-14 0)
(3 -1.183670463e-14 0)
(3 -1.049469751e-14 0)
(3 -1.048794549e-14 0)
(3 -1.070274963e-14 0)
(3 -1.162276079e-14 0)
(3 -1.266092129e-14 0)
(3 -1.343075146e-14 0)
(3 -1.439141083e-14 0)
(3 -1.456078475e-14 0)
(3 -1.424628031e-14 0)
(3 -1.315760493e-14 0)
(3 -1.189957323e-14 0)
(3 -1.07370177e-14 0)
(3 -1.027434938e-14 0)
(3 -1.139082322e-14 0)
(3 -1.294995135e-14 0)
(3 -1.602882715e-14 0)
(3 -1.735471262e-14 0)
(3 -1.668190646e-14 0)
(3 -1.497492406e-14 0)
(3 -1.341983025e-14 0)
(3 -1.299250762e-14 0)
(3 -1.294096013e-14 0)
(3 -1.320620381e-14 0)
(3 -1.357075736e-14 0)
(3 -1.449574025e-14 0)
(3 -1.47777153e-14 0)
(3 -1.684954918e-14 0)
(3 -1.934248113e-14 0)
(3 -2.012096424e-14 0)
(3 -2.060354718e-14 0)
(3 -2.08301059e-14 0)
(3 -1.776171955e-15 0)
(3 -3.698085086e-15 0)
(3 -4.096628732e-15 0)
(3 -4.015068067e-15 0)
(3 -5.314876933e-15 0)
(3 -7.149371419e-15 0)
(3 -8.65805915e-15 0)
(3 -9.219769531e-15 0)
(3 -9.343960172e-15 0)
(3 -9.268251339e-15 0)
(3 -8.352622087e-15 0)
(3 -7.781195186e-15 0)
(3 -9.171750838e-15 0)
(3 -1.001049382e-14 0)
(3 -1.115631108e-14 0)
(3 -1.188971676e-14 0)
(3 -1.139090252e-14 0)
(3 -1.127821738e-14 0)
(3 -1.092465972e-14 0)
(3 -1.029535783e-14 0)
(3 -1.030674038e-14 0)
(3 -1.100328964e-14 0)
(3 -1.16900157e-14 0)
(3 -1.276337101e-14 0)
(3 -1.311482746e-14 0)
(3 -1.39571502e-14 0)
(3 -1.506719992e-14 0)
(3 -1.434245611e-14 0)
(3 -1.268365574e-14 0)
(3 -1.270220338e-14 0)
(3 -1.308776435e-14 0)
(3 -1.389502393e-14 0)
(3 -1.164388614e-14 0)
(3 -9.829574134e-15 0)
(3 4.779291969e-15 0)
(3 2.760366545e-15 0)
(3 -1.45225187e-16 0)
(3 -2.064858571e-15 0)
(3 -4.711646943e-15 0)
(3 -6.497999933e-15 0)
(3 -9.005313377e-15 0)
(3 -8.408611758e-15 0)
(3 -5.984140126e-15 0)
(3 -5.959001919e-15 0)
(3 -7.100853455e-15 0)
(3 -7.720684681e-15 0)
(3 -9.542137962e-15 0)
(3 -1.120060704e-14 0)
(3 -1.251938294e-14 0)
(3 -1.343020697e-14 0)
(3 -1.486748561e-14 0)
(3 -1.447824998e-14 0)
(3 -1.345809204e-14 0)
(3 -1.247274622e-14 0)
(3 -1.11989343e-14 0)
(3 -1.107257881e-14 0)
(3 -1.0432346e-14 0)
(3 -9.435330517e-15 0)
(3 -9.088146517e-15 0)
(3 -9.467256855e-15 0)
(3 -7.815722105e-15 0)
(3 -5.263039427e-15 0)
(3 -1.852082943e-15 0)
(3 8.354162675e-16 0)
(3 4.236810943e-15 0)
(3 4.801324684e-15 0)
(3 4.896475723e-15 0)
(3 4.868738159e-15 0)
(3 -3.641666094e-15 0)
(3 -4.409919942e-15 0)
(3 -5.121545427e-15 0)
(3 -5.249445597e-15 0)
(3 -4.260713382e-15 0)
(3 -4.004375038e-15 0)
(3 -3.597583713e-15 0)
(3 -3.485526888e-15 0)
(3 -3.513088694e-15 0)
(3 -4.734452313e-15 0)
(3 -6.385402759e-15 0)
(3 -1.004796464e-14 0)
(3 -9.758534517e-15 0)
(3 -1.077408222e-14 0)
(3 -1.011163674e-14 0)
(3 -1.162128424e-14 0)
(3 -1.271192973e-14 0)
(3 -1.341761739e-14 0)
(3 -1.123384255e-14 0)
(3 -8.482328145e-15 0)
(3 -8.552188154e-15 0)
(3 -7.624739137e-15 0)
(3 -7.707995839e-15 0)
(3 -5.988420268e-15 0)
(3 -4.148365366e-15 0)
(3 -2.606362455e-15 0)
(3 -1.787739343e-15 0)
(3 -2.322343875e-15 0)
(3 -2.945065217e-15 0)
(3 -1.800690426e-15 0)
(3 7.029148328e-16 0)
(3 5.716541008e-15 0)
(3 7.492249173e-15 0)
(3 6.088871381e-15 0)
(3 -1.383659418e-14 0)
(3 -1.314512491e-14 0)
(3 -1.262711626e-14 0)
(3 -1.004153116e-14 0)
(3 -8.434036198e-15 0)
(3 -8.325647362e-15 0)
(3 -6.992854609e-15 0)
(3 -4.806208245e-15 0)
(3 -2.816125128e-15 0)
(3 -2.006533231e-15 0)
(3 -2.483386844e-15 0)
(3 -2.515726295e-15 0)
(3 -2.753671782e-15 0)
(3 -1.747615029e-15 0)
(3 -4.456039336e-17 0)
(3 7.316616738e-16 0)
(3 -1.092002564e-15 0)
(3 -3.863203458e-15 0)
(3 -3.418756925e-15 0)
(3 -2.084230722e-15 0)
(3 -1.066423735e-15 0)
(3 -3.545090544e-16 0)
(3 1.432892789e-15 0)
(3 3.044472195e-15 0)
(3 6.055952688e-15 0)
(3 6.292550037e-15 0)
(3 4.86460003e-15 0)
(3 2.40625782e-15 0)
(3 2.05640318e-15 0)
(3 2.308973997e-15 0)
(3 4.241211616e-15 0)
(3 5.387928672e-15 0)
(3 5.689590845e-15 0)
(3 4.760085333e-15 0)
(3 -1.671860132e-14 0)
(3 -1.53493099e-14 0)
(3 -1.504183447e-14 0)
(3 -1.195713427e-14 0)
(3 -8.13192267e-15 0)
(3 -5.82748441e-15 0)
(3 -1.984825535e-15 0)
(3 6.647056328e-16 0)
(3 2.325931231e-15 0)
(3 3.676855005e-15 0)
(3 5.6287382e-15 0)
(3 6.987504021e-15 0)
(3 8.572746055e-15 0)
(3 8.917010358e-15 0)
(3 1.00046734e-14 0)
(3 8.628852739e-15 0)
(3 5.800439405e-15 0)
(3 5.921785354e-15 0)
(3 5.315846754e-15 0)
(3 4.210979182e-15 0)
(3 2.298641799e-15 0)
(3 4.057768853e-15 0)
(3 6.826314509e-15 0)
(3 6.575810671e-15 0)
(3 6.399176962e-15 0)
(3 7.35106947e-15 0)
(3 7.8651666e-15 0)
(3 8.84617001e-15 0)
(3 9.293840942e-15 0)
(3 8.583222725e-15 0)
(3 6.643949512e-15 0)
(3 5.948952499e-15 0)
(3 4.608685829e-15 0)
(3 5.240295511e-15 0)
(3 -1.629630491e-14 0)
(3 -1.263846831e-14 0)
(3 -1.036013845e-14 0)
(3 -4.877579822e-15 0)
(3 -3.018678253e-15 0)
(3 8.011283487e-17 0)
(3 3.978549252e-15 0)
(3 5.248597403e-15 0)
(3 6.73734209e-15 0)
(3 9.027165696e-15 0)
(3 1.13620803e-14 0)
(3 1.136091057e-14 0)
(3 1.206266863e-14 0)
(3 1.19919141e-14 0)
(3 1.210253347e-14 0)
(3 1.306593687e-14 0)
(3 1.280682244e-14 0)
(3 1.336029465e-14 0)
(3 1.012457331e-14 0)
(3 1.074173301e-14 0)
(3 1.254541313e-14 0)
(3 1.170203501e-14 0)
(3 1.11357072e-14 0)
(3 1.05076089e-14 0)
(3 1.054718651e-14 0)
(3 1.064189014e-14 0)
(3 1.142901932e-14 0)
(3 1.103781705e-14 0)
(3 9.784518848e-15 0)
(3 7.254625683e-15 0)
(3 2.677594355e-15 0)
(3 1.447629663e-15 0)
(3 2.488111637e-15 0)
(3 4.243346829e-15 0)
(3 -5.267836008e-15 0)
(3 -2.736064215e-15 0)
(3 -1.293775314e-15 0)
(3 -1.493466919e-16 0)
(3 8.133607374e-16 0)
(3 1.679588924e-15 0)
(3 2.498834244e-15 0)
(3 3.614316666e-15 0)
(3 5.315540372e-15 0)
(3 5.96614254e-15 0)
(3 5.79473222e-15 0)
(3 6.325318648e-15 0)
(3 7.841068914e-15 0)
(3 9.75434576e-15 0)
(3 1.025050446e-14 0)
(3 1.141469648e-14 0)
(3 1.431217182e-14 0)
(3 1.758561487e-14 0)
(3 1.751234931e-14 0)
(3 1.971366867e-14 0)
(3 2.217550128e-14 0)
(3 2.434017784e-14 0)
(3 2.572836658e-14 0)
(3 2.531829295e-14 0)
(3 2.3417269e-14 0)
(3 2.152572352e-14 0)
(3 1.859591268e-14 0)
(3 1.418861671e-14 0)
(3 1.153417034e-14 0)
(3 8.076079701e-15 0)
(3 5.677600275e-15 0)
(3 4.021880609e-15 0)
(3 1.912829778e-15 0)
(3 1.455553084e-15 0)
(3 -1.982102521e-15 0)
(3 -1.776147072e-15 0)
(3 -1.657907288e-15 0)
(3 -1.687950532e-15 0)
(3 -1.086302036e-15 0)
(3 -1.149989343e-15 0)
(3 -3.539386886e-17 0)
(3 1.76317881e-15 0)
(3 3.497717186e-15 0)
(3 3.930264402e-15 0)
(3 4.895727749e-15 0)
(3 5.464622291e-15 0)
(3 5.709118068e-15 0)
(3 8.333373939e-15 0)
(3 9.193948538e-15 0)
(3 9.185844379e-15 0)
(3 1.077695485e-14 0)
(3 1.449156597e-14 0)
(3 1.827080555e-14 0)
(3 2.070256332e-14 0)
(3 2.175500162e-14 0)
(3 2.266316596e-14 0)
(3 2.258856665e-14 0)
(3 2.080170425e-14 0)
(3 1.986145526e-14 0)
(3 1.863736743e-14 0)
(3 1.57582986e-14 0)
(3 1.343705788e-14 0)
(3 1.145739073e-14 0)
(3 8.38777864e-15 0)
(3 5.467036738e-15 0)
(3 2.501099294e-15 0)
(3 -2.458881199e-15 0)
(3 -5.004327594e-15 0)
(3 -3.611673875e-15 0)
(3 -3.722068591e-15 0)
(3 -3.235507056e-15 0)
(3 -2.922602206e-15 0)
(3 -2.608588094e-15 0)
(3 -2.005392979e-15 0)
(3 -1.52715125e-15 0)
(3 -1.2199291e-15 0)
(3 3.968595769e-16 0)
(3 1.425907445e-15 0)
(3 2.865284973e-15 0)
(3 4.551403122e-15 0)
(3 4.375897733e-15 0)
(3 7.143466944e-15 0)
(3 9.555920113e-15 0)
(3 1.20917253e-14 0)
(3 1.265323054e-14 0)
(3 1.469379238e-14 0)
(3 1.725416236e-14 0)
(3 2.139064616e-14 0)
(3 2.210780931e-14 0)
(3 2.063241674e-14 0)
(3 1.81517765e-14 0)
(3 1.472361047e-14 0)
(3 9.445841983e-15 0)
(3 7.989529221e-15 0)
(3 7.193125229e-15 0)
(3 4.376623651e-15 0)
(3 9.814758492e-16 0)
(3 -3.556318793e-16 0)
(3 -9.650014224e-16 0)
(3 -1.486317848e-15 0)
(3 -3.18843378e-15 0)
(3 -6.207401636e-15 0)
(3 -1.330859222e-15 0)
(3 -1.411186181e-15 0)
(3 -1.367325912e-15 0)
(3 -1.439004977e-15 0)
(3 -3.18320054e-15 0)
(3 -3.148627836e-15 0)
(3 -2.78990074e-15 0)
(3 -1.780189432e-15 0)
(3 -2.289072335e-15 0)
(3 -1.705823145e-15 0)
(3 -1.272930123e-16 0)
(3 2.137375725e-16 0)
(3 1.027604347e-15 0)
(3 9.127701098e-15 0)
(3 1.246596059e-14 0)
(3 1.280955522e-14 0)
(3 1.493806044e-14 0)
(3 1.598676571e-14 0)
(3 1.58708639e-14 0)
(3 1.735147468e-14 0)
(3 1.915148348e-14 0)
(3 1.797647445e-14 0)
(3 1.254340951e-14 0)
(3 9.431689621e-15 0)
(3 8.997502494e-15 0)
(3 6.240913226e-15 0)
(3 5.286623987e-15 0)
(3 4.450978021e-15 0)
(3 3.743178404e-15 0)
(3 3.3857782e-15 0)
(3 1.889189539e-15 0)
(3 4.981478596e-16 0)
(3 -6.468925533e-16 0)
(3 -2.948183398e-15 0)
(3 5.087601107e-15 0)
(3 4.070489592e-15 0)
(3 2.325969467e-15 0)
(3 -5.38065264e-16 0)
(3 -2.496481896e-15 0)
(3 -2.709647717e-15 0)
(3 -1.836747105e-15 0)
(3 -1.054238323e-15 0)
(3 -1.210573527e-15 0)
(3 -9.336223593e-16 0)
(3 7.067215284e-16 0)
(3 2.070685008e-15 0)
(3 5.680945141e-15 0)
(3 8.821921691e-15 0)
(3 1.083488665e-14 0)
(3 1.293977985e-14 0)
(3 1.242122532e-14 0)
(3 1.062235231e-14 0)
(3 7.268644375e-15 0)
(3 5.766649373e-15 0)
(3 3.955037679e-15 0)
(3 2.458772146e-15 0)
(3 1.237794465e-15 0)
(3 1.525813606e-15 0)
(3 2.273420776e-15 0)
(3 4.439292208e-15 0)
(3 7.237821497e-15 0)
(3 8.672201175e-15 0)
(3 1.040786937e-14 0)
(3 1.038171182e-14 0)
(3 9.085129685e-15 0)
(3 7.644726222e-15 0)
(3 4.989469935e-15 0)
(3 1.847133471e-15 0)
(3 1.36312845e-14 0)
(3 1.264254182e-14 0)
(3 1.017271991e-14 0)
(3 7.587646607e-15 0)
(3 6.658734799e-15 0)
(3 5.203048225e-15 0)
(3 1.393999752e-15 0)
(3 1.529842104e-15 0)
(3 2.472841261e-15 0)
(3 3.886112502e-15 0)
(3 4.592051554e-15 0)
(3 5.524128127e-15 0)
(3 6.96271233e-15 0)
(3 8.170162846e-15 0)
(3 5.983590409e-15 0)
(3 6.189969474e-15 0)
(3 5.461269389e-15 0)
(3 2.770257702e-15 0)
(3 -1.5680313e-16 0)
(3 -2.640463437e-15 0)
(3 -5.12658177e-15 0)
(3 -5.88310565e-15 0)
(3 -5.208612415e-15 0)
(3 -3.744700655e-15 0)
(3 -2.453497043e-15 0)
(3 3.329368472e-15 0)
(3 5.658348918e-15 0)
(3 5.70020295e-15 0)
(3 6.623478655e-15 0)
(3 7.740813008e-15 0)
(3 8.6058066e-15 0)
(3 8.469669186e-15 0)
(3 6.395377137e-15 0)
(3 4.296802463e-15 0)
(3 9.922927618e-15 0)
(3 1.099710795e-14 0)
(3 1.169441426e-14 0)
(3 1.219984899e-14 0)
(3 1.074896026e-14 0)
(3 8.278451553e-15 0)
(3 7.533091075e-15 0)
(3 8.217991142e-15 0)
(3 8.974511524e-15 0)
(3 9.095696216e-15 0)
(3 9.252608442e-15 0)
(3 9.970708397e-15 0)
(3 9.339581763e-15 0)
(3 8.797283007e-15 0)
(3 5.341518741e-15 0)
(3 1.846898134e-15 0)
(3 1.519371587e-16 0)
(3 7.393118735e-16 0)
(3 -9.263009589e-16 0)
(3 -2.360954003e-15 0)
(3 -3.663732245e-15 0)
(3 -5.391669899e-15 0)
(3 -5.336910416e-15 0)
(3 -5.392726962e-15 0)
(3 -4.425153029e-15 0)
(3 -5.056610087e-15 0)
(3 -5.199844052e-15 0)
(3 -3.876537699e-15 0)
(3 -2.065003282e-15 0)
(3 -4.951579638e-16 0)
(3 1.203082771e-15 0)
(3 2.72495567e-15 0)
(3 3.978127876e-15 0)
(3 4.710647207e-15 0)
(3 4.037699928e-15 0)
(3 4.254662778e-15 0)
(3 4.808885772e-15 0)
(3 6.272445703e-15 0)
(3 6.501144436e-15 0)
(3 6.387676138e-15 0)
(3 8.1078281e-15 0)
(3 7.987434037e-15 0)
(3 9.670220782e-15 0)
(3 9.91068779e-15 0)
(3 9.826848773e-15 0)
(3 8.553842923e-15 0)
(3 7.164913735e-15 0)
(3 5.113200835e-15 0)
(3 4.804208674e-15 0)
(3 2.114426311e-15 0)
(3 -1.623800241e-15 0)
(3 -3.720906886e-15 0)
(3 -5.012565158e-15 0)
(3 -6.071313461e-15 0)
(3 -6.59658694e-15 0)
(3 -6.666578155e-15 0)
(3 -6.649094501e-15 0)
(3 -6.509540157e-15 0)
(3 -6.869194715e-15 0)
(3 -9.794068944e-15 0)
(3 -9.584151315e-15 0)
(3 -8.572202761e-15 0)
(3 -7.401571799e-15 0)
(3 -6.129040512e-15 0)
(3 -5.676738678e-15 0)
(3 -3.500169343e-15 0)
(3 1.329697881e-16 0)
(3 2.119199932e-15 0)
(3 -7.687047039e-16 0)
(3 -4.810252938e-16 0)
(3 6.427875816e-16 0)
(3 2.114008037e-15 0)
(3 4.496327328e-15 0)
(3 5.783677027e-15 0)
(3 5.622757834e-15 0)
(3 5.746026063e-15 0)
(3 6.2918758e-15 0)
(3 7.350432204e-15 0)
(3 7.889486805e-15 0)
(3 7.842035673e-15 0)
(3 7.817556066e-15 0)
(3 5.851796813e-15 0)
(3 3.765162628e-15 0)
(3 8.384609838e-16 0)
(3 -3.307246522e-15 0)
(3 -4.853782155e-15 0)
(3 -6.880765876e-15 0)
(3 -8.617373964e-15 0)
(3 -1.008648714e-14 0)
(3 -1.135334743e-14 0)
(3 -1.202501045e-14 0)
(3 -1.263675259e-14 0)
(3 -1.317983986e-14 0)
(3 -1.340439804e-14 0)
(3 -1.370115649e-14 0)
(3 -1.334859414e-14 0)
(3 -1.203045451e-14 0)
(3 -1.022743214e-14 0)
(3 -8.940981585e-15 0)
(3 -8.068526827e-15 0)
(3 -6.650679524e-15 0)
(3 -4.077082318e-15 0)
(3 7.715775548e-15 0)
(3 7.812688006e-15 0)
(3 8.017958516e-15 0)
(3 8.525318473e-15 0)
(3 9.243657355e-15 0)
(3 9.596785696e-15 0)
(3 8.901802723e-15 0)
(3 1.16808092e-14 0)
(3 1.170478609e-14 0)
(3 1.107808453e-14 0)
(3 1.025843924e-14 0)
(3 8.002937833e-15 0)
(3 6.393101742e-15 0)
(3 3.51809675e-15 0)
(3 -1.674929414e-16 0)
(3 -3.204638635e-15 0)
(3 -5.660723427e-15 0)
(3 -6.079034929e-15 0)
(3 -6.407049008e-15 0)
(3 -9.443124736e-15 0)
(3 -1.236145579e-14 0)
(3 -1.424633052e-14 0)
(3 -1.581663877e-14 0)
(3 -1.827657791e-14 0)
(3 -2.025465202e-14 0)
(3 -1.841665668e-14 0)
(3 -1.668756145e-14 0)
(3 -1.576419974e-14 0)
(3 -1.428110818e-14 0)
(3 -1.328950117e-14 0)
(3 -1.265371763e-14 0)
(3 -1.133501881e-14 0)
(3 -8.260823521e-15 0)
(3 -5.793674656e-15 0)
(3 1.736108598e-14 0)
(3 1.641658075e-14 0)
(3 1.497547779e-14 0)
(3 1.437989061e-14 0)
(3 1.203151835e-14 0)
(3 9.741855236e-15 0)
(3 8.887759815e-15 0)
(3 7.89669518e-15 0)
(3 8.289512753e-15 0)
(3 5.355212881e-15 0)
(3 3.223193248e-16 0)
(3 -4.79657685e-15 0)
(3 -7.659650651e-15 0)
(3 -1.068435433e-14 0)
(3 -1.005532047e-14 0)
(3 -1.043916526e-14 0)
(3 -1.197324559e-14 0)
(3 -1.439895672e-14 0)
(3 -1.664019897e-14 0)
(3 -1.855410574e-14 0)
(3 -1.879836183e-14 0)
(3 -1.898500996e-14 0)
(3 -1.83131806e-14 0)
(3 -1.709458197e-14 0)
(3 -1.844172417e-14 0)
(3 -1.592343628e-14 0)
(3 -1.093959475e-14 0)
(3 -1.039797685e-14 0)
(3 -1.082541283e-14 0)
(3 -1.159218814e-14 0)
(3 -1.14838011e-14 0)
(3 -1.049861776e-14 0)
(3 -7.868428716e-15 0)
(3 -4.911552132e-15 0)
(3 3.003690314e-15 0)
(3 4.27619579e-16 0)
(3 -6.561076789e-16 0)
(3 -1.120687945e-15 0)
(3 -9.830329855e-16 0)
(3 -1.746575544e-15 0)
(3 -2.311740257e-15 0)
(3 -4.898509854e-15 0)
(3 -6.13830258e-15 0)
(3 -7.15902417e-15 0)
(3 -1.013664399e-14 0)
(3 -1.22974719e-14 0)
(3 -1.398305508e-14 0)
(3 -1.538169535e-14 0)
(3 -1.718498054e-14 0)
(3 -1.987075006e-14 0)
(3 -2.064022158e-14 0)
(3 -2.103714646e-14 0)
(3 -2.019813589e-14 0)
(3 -1.848338547e-14 0)
(3 -1.604470563e-14 0)
(3 -1.4631915e-14 0)
(3 -1.42120147e-14 0)
(3 -1.275662427e-14 0)
(3 -1.268199141e-14 0)
(3 -1.262433191e-14 0)
(3 -1.211128483e-14 0)
(3 -1.128179954e-14 0)
(3 -9.996330591e-15 0)
(3 -9.163648418e-15 0)
(3 -7.60700142e-15 0)
(3 -6.712659027e-15 0)
(3 -4.523036596e-15 0)
(3 -1.845822012e-15 0)
(3 -1.870203509e-15 0)
(3 -4.695866909e-15 0)
(3 -6.877736345e-15 0)
(3 -8.350101628e-15 0)
(3 -8.642526149e-15 0)
(3 -9.355891677e-15 0)
(3 -1.015626875e-14 0)
(3 -1.331780855e-14 0)
(3 -1.572910286e-14 0)
(3 -1.732854793e-14 0)
(3 -1.788401879e-14 0)
(3 -1.859802863e-14 0)
(3 -2.107343079e-14 0)
(3 -2.183647469e-14 0)
(3 -2.123193976e-14 0)
(3 -1.786823542e-14 0)
(3 -1.625168536e-14 0)
(3 -1.497678222e-14 0)
(3 -1.112689735e-14 0)
(3 -1.044537858e-14 0)
(3 -7.134882113e-15 0)
(3 -5.337976505e-15 0)
(3 -4.285282747e-15 0)
(3 -4.905620066e-15 0)
(3 -6.426924833e-15 0)
(3 -7.078829533e-15 0)
(3 -9.469241172e-15 0)
(3 -1.166165093e-14 0)
(3 -1.103898596e-14 0)
(3 -8.80432817e-15 0)
(3 -7.755440967e-15 0)
(3 -4.296485271e-15 0)
(3 -2.026730967e-15 0)
(3 9.745458558e-16 0)
(3 7.031401199e-15 0)
(3 4.03393559e-15 0)
(3 1.463302645e-15 0)
(3 -1.130033744e-15 0)
(3 -4.818907624e-15 0)
(3 -7.914214514e-15 0)
(3 -1.265469544e-14 0)
(3 -1.736902536e-14 0)
(3 -2.050739404e-14 0)
(3 -2.247539669e-14 0)
(3 -2.278038352e-14 0)
(3 -2.125751716e-14 0)
(3 -1.842936812e-14 0)
(3 -1.862220987e-14 0)
(3 -1.674924009e-14 0)
(3 -1.443717896e-14 0)
(3 -1.077294979e-14 0)
(3 -6.973913298e-15 0)
(3 -5.906528352e-15 0)
(3 -2.066768363e-15 0)
(3 2.360760901e-15 0)
(3 3.209478405e-15 0)
(3 3.39868105e-15 0)
(3 2.957062925e-15 0)
(3 1.091787403e-15 0)
(3 -1.919399774e-15 0)
(3 -3.498832907e-15 0)
(3 -4.816004622e-15 0)
(3 -5.582076171e-15 0)
(3 -3.347974191e-15 0)
(3 -1.565612889e-15 0)
(3 -6.564222945e-16 0)
(3 4.819679255e-16 0)
(3 2.825665378e-15 0)
(3 1.026595204e-14 0)
(3 7.670038142e-15 0)
(3 2.646633553e-15 0)
(3 -2.453264148e-15 0)
(3 -9.647422396e-15 0)
(3 -1.192398424e-14 0)
(3 -1.496529472e-14 0)
(3 -1.928088168e-14 0)
(3 -2.216760477e-14 0)
(3 -2.291402923e-14 0)
(3 -2.128150203e-14 0)
(3 -1.60416987e-14 0)
(3 -1.222752964e-14 0)
(3 -8.575027745e-15 0)
(3 -8.638011303e-15 0)
(3 -9.711225694e-15 0)
(3 -3.794692386e-15 0)
(3 4.105704577e-16 0)
(3 5.841902129e-15 0)
(3 8.47041078e-15 0)
(3 1.077882285e-14 0)
(3 1.159264466e-14 0)
(3 1.151260929e-14 0)
(3 1.114387771e-14 0)
(3 9.974762212e-15 0)
(3 8.964141595e-15 0)
(3 7.386619178e-15 0)
(3 6.665422609e-15 0)
(3 4.69142829e-15 0)
(3 1.643326647e-15 0)
(3 1.652104995e-15 0)
(3 2.354920516e-15 0)
(3 3.308456533e-15 0)
(3 4.782202935e-15 0)
(3 -1.04226827e-15 0)
(3 -4.699418355e-15 0)
(3 -1.026124347e-14 0)
(3 -1.436398931e-14 0)
(3 -1.657035631e-14 0)
(3 -1.78955344e-14 0)
(3 -1.915596684e-14 0)
(3 -2.102949552e-14 0)
(3 -2.254137164e-14 0)
(3 -1.959069965e-14 0)
(3 -1.408488924e-14 0)
(3 -1.189929673e-14 0)
(3 -1.006898466e-14 0)
(3 -6.469827596e-15 0)
(3 -3.161013824e-15 0)
(3 -2.876019368e-15 0)
(3 -2.109990126e-15 0)
(3 -5.013634818e-16 0)
(3 5.270931354e-15 0)
(3 7.736402382e-15 0)
(3 8.615161138e-15 0)
(3 9.871592843e-15 0)
(3 1.034472746e-14 0)
(3 1.093913914e-14 0)
(3 1.192313436e-14 0)
(3 1.446928714e-14 0)
(3 1.496438288e-14 0)
(3 1.456158891e-14 0)
(3 1.29476626e-14 0)
(3 1.054765187e-14 0)
(3 8.930365982e-15 0)
(3 8.64641604e-15 0)
(3 9.227108659e-15 0)
(3 1.145616926e-14 0)
(3 -1.799201613e-14 0)
(3 -2.078093917e-14 0)
(3 -2.153641488e-14 0)
(3 -2.106042363e-14 0)
(3 -1.972782827e-14 0)
(3 -1.64218403e-14 0)
(3 -1.32118696e-14 0)
(3 -8.137848743e-15 0)
(3 -8.429126937e-15 0)
(3 -9.957057945e-15 0)
(3 -9.964558187e-15 0)
(3 -9.664705097e-15 0)
(3 -9.031494353e-15 0)
(3 -7.132067788e-15 0)
(3 -4.480632147e-15 0)
(3 -1.187613491e-15 0)
(3 -9.620630518e-16 0)
(3 -1.102373594e-15 0)
(3 1.060564216e-15 0)
(3 3.627173741e-15 0)
(3 5.537640617e-15 0)
(3 7.050122676e-15 0)
(3 7.978055084e-15 0)
(3 8.864295589e-15 0)
(3 1.063365758e-14 0)
(3 1.505711089e-14 0)
(3 1.794792633e-14 0)
(3 1.879600804e-14 0)
(3 1.811077729e-14 0)
(3 1.699660837e-14 0)
(3 1.677339444e-14 0)
(3 1.817677803e-14 0)
(3 2.217773702e-14 0)
(3 2.362177905e-14 0)
(3 -1.537259407e-14 0)
(3 -1.40499349e-14 0)
(3 -1.211170842e-14 0)
(3 -1.07168752e-14 0)
(3 -8.835330041e-15 0)
(3 -5.94503184e-15 0)
(3 -4.827776409e-15 0)
(3 -3.860956698e-15 0)
(3 -2.465289872e-15 0)
(3 -3.28025167e-15 0)
(3 -4.880575178e-15 0)
(3 -5.583717461e-15 0)
(3 -5.04497845e-15 0)
(3 -3.40491323e-15 0)
(3 -8.394967012e-16 0)
(3 3.565633193e-15 0)
(3 6.890605667e-15 0)
(3 7.707762045e-15 0)
(3 7.196577858e-15 0)
(3 7.175431937e-15 0)
(3 7.648462103e-15 0)
(3 8.640293108e-15 0)
(3 9.567464271e-15 0)
(3 1.251626447e-14 0)
(3 1.691229652e-14 0)
(3 1.886121143e-14 0)
(3 2.232782616e-14 0)
(3 2.405613424e-14 0)
(3 2.326940083e-14 0)
(3 2.269634922e-14 0)
(3 2.293953784e-14 0)
(3 2.33047647e-14 0)
(3 2.280489622e-14 0)
(3 2.315401535e-14 0)
(3 -1.84727506e-14 0)
(3 -1.634912689e-14 0)
(3 -1.005268165e-14 0)
(3 -6.385045447e-15 0)
(3 -3.189393021e-15 0)
(3 -5.132483178e-16 0)
(3 5.618502071e-16 0)
(3 -4.670825196e-16 0)
(3 5.353671997e-17 0)
(3 1.076569341e-15 0)
(3 1.552189695e-15 0)
(3 2.369049217e-15 0)
(3 2.405241482e-15 0)
(3 2.715983776e-15 0)
(3 4.695571338e-15 0)
(3 4.763971753e-15 0)
(3 5.382667587e-15 0)
(3 6.883782308e-15 0)
(3 7.865792234e-15 0)
(3 8.914107511e-15 0)
(3 1.138775099e-14 0)
(3 1.208621064e-14 0)
(3 1.355592779e-14 0)
(3 1.644776687e-14 0)
(3 1.919952133e-14 0)
(3 2.061970205e-14 0)
(3 2.355392241e-14 0)
(3 2.505816333e-14 0)
(3 2.567013777e-14 0)
(3 2.505746181e-14 0)
(3 2.386849321e-14 0)
(3 2.002007051e-14 0)
(3 1.672293901e-14 0)
(3 1.382007437e-14 0)
(3 -1.080413479e-14 0)
(3 -5.908558999e-15 0)
(3 -3.890724478e-15 0)
(3 -2.040698703e-15 0)
(3 6.083179527e-16 0)
(3 1.222460048e-15 0)
(3 2.792924317e-15 0)
(3 5.584031865e-15 0)
(3 5.796238931e-15 0)
(3 5.736107605e-15 0)
(3 7.651234624e-15 0)
(3 8.909759196e-15 0)
(3 8.842030158e-15 0)
(3 7.758600679e-15 0)
(3 7.096719231e-15 0)
(3 6.878918788e-15 0)
(3 6.827172813e-15 0)
(3 7.037969103e-15 0)
(3 8.567406342e-15 0)
(3 9.680469888e-15 0)
(3 1.266095866e-14 0)
(3 1.715208505e-14 0)
(3 1.961950387e-14 0)
(3 2.046915281e-14 0)
(3 2.006607434e-14 0)
(3 1.89636344e-14 0)
(3 1.70473388e-14 0)
(3 1.710715537e-14 0)
(3 2.095582547e-14 0)
(3 2.325741731e-14 0)
(3 2.204926766e-14 0)
(3 1.802596894e-14 0)
(3 1.473792715e-14 0)
(3 9.76530092e-15 0)
(3 1.218505541e-15 0)
(3 1.868737083e-15 0)
(3 2.565499126e-15 0)
(3 2.764455364e-15 0)
(3 2.458293856e-15 0)
(3 3.817217095e-15 0)
(3 8.337478283e-15 0)
(3 1.208895204e-14 0)
(3 1.515203881e-14 0)
(3 1.620233672e-14 0)
(3 1.783506061e-14 0)
(3 1.855734813e-14 0)
(3 1.82128218e-14 0)
(3 1.785200351e-14 0)
(3 1.456334325e-14 0)
(3 1.312128878e-14 0)
(3 1.117389719e-14 0)
(3 1.045722208e-14 0)
(3 1.061339521e-14 0)
(3 1.134723154e-14 0)
(3 1.37565908e-14 0)
(3 1.594462968e-14 0)
(3 1.806889063e-14 0)
(3 1.776954811e-14 0)
(3 1.536285822e-14 0)
(3 1.242275422e-14 0)
(3 9.543167849e-15 0)
(3 1.219818974e-14 0)
(3 1.659434892e-14 0)
(3 1.645629156e-14 0)
(3 1.387894156e-14 0)
(3 1.263306619e-14 0)
(3 8.389827883e-15 0)
(3 5.942218586e-15 0)
(3 8.018144998e-15 0)
(3 8.544093297e-15 0)
(3 7.979656938e-15 0)
(3 8.250341608e-15 0)
(3 9.969896721e-15 0)
(3 1.380876924e-14 0)
(3 1.577284514e-14 0)
(3 2.094766158e-14 0)
(3 2.335291718e-14 0)
(3 2.590227231e-14 0)
(3 2.721327549e-14 0)
(3 2.786078596e-14 0)
(3 2.755478011e-14 0)
(3 2.589518001e-14 0)
(3 2.431099249e-14 0)
(3 1.912734386e-14 0)
(3 1.528618272e-14 0)
(3 1.096169218e-14 0)
(3 9.426982393e-15 0)
(3 8.074315608e-15 0)
(3 8.310961347e-15 0)
(3 1.109580604e-14 0)
(3 1.445714243e-14 0)
(3 1.586756768e-14 0)
(3 1.335089551e-14 0)
(3 1.413676379e-14 0)
(3 1.341988244e-14 0)
(3 1.308745361e-14 0)
(3 1.187591563e-14 0)
(3 6.140189193e-15 0)
(3 4.542242766e-15 0)
(3 3.701638529e-15 0)
(3 7.262369282e-16 0)
(3 1.083436523e-14 0)
(3 9.30590292e-15 0)
(3 9.091158556e-15 0)
(3 5.145991309e-15 0)
(3 4.511092958e-16 0)
(3 3.996999653e-16 0)
(3 3.803201258e-15 0)
(3 5.730466203e-15 0)
(3 1.039977363e-14 0)
(3 1.280832087e-14 0)
(3 1.392120382e-14 0)
(3 1.280871968e-14 0)
(3 1.170108124e-14 0)
(3 1.131006354e-14 0)
(3 7.544393929e-15 0)
(3 6.513629534e-15 0)
(3 6.265099335e-15 0)
(3 2.721993054e-15 0)
(3 -2.254136644e-15 0)
(3 -8.614256211e-15 0)
(3 -7.527891907e-15 0)
(3 -3.847462237e-15 0)
(3 -2.780796475e-15 0)
(3 -3.553802705e-15 0)
(3 -4.44406313e-15 0)
(3 -3.922106635e-15 0)
(3 1.167927425e-14 0)
(3 1.103538175e-14 0)
(3 1.104027932e-14 0)
(3 1.061030769e-14 0)
(3 1.114394373e-14 0)
(3 1.295846221e-14 0)
(3 1.353765982e-14 0)
(3 1.174533216e-14 0)
(3 1.080497802e-14 0)
(3 9.832917873e-15 0)
(3 9.63155382e-15 0)
(3 9.159175402e-15 0)
(3 1.414906647e-14 0)
(3 1.881200948e-14 0)
(3 2.269313251e-14 0)
(3 2.319082677e-14 0)
(3 2.018203927e-14 0)
(3 1.734893957e-14 0)
(3 1.424465706e-14 0)
(3 1.340257879e-14 0)
(3 9.629601094e-15 0)
(3 6.310155372e-15 0)
(3 3.72550702e-15 0)
(3 2.900045071e-15 0)
(3 4.769818441e-17 0)
(3 -5.481529471e-15 0)
(3 -8.398653193e-15 0)
(3 -1.179441301e-14 0)
(3 -1.188627929e-14 0)
(3 -8.122310949e-15 0)
(3 -3.089147241e-15 0)
(3 -1.519799682e-15 0)
(3 -2.910249791e-15 0)
(3 1.240026959e-14 0)
(3 1.395267083e-14 0)
(3 1.454423555e-14 0)
(3 1.707469594e-14 0)
(3 1.656792411e-14 0)
(3 1.54947487e-14 0)
(3 1.51526469e-14 0)
(3 1.556325656e-14 0)
(3 1.421453065e-14 0)
(3 1.545824813e-14 0)
(3 1.986336423e-14 0)
(3 2.57731798e-14 0)
(3 2.803705964e-14 0)
(3 2.735204212e-14 0)
(3 2.494796009e-14 0)
(3 2.139323357e-14 0)
(3 1.620281762e-14 0)
(3 9.931983312e-15 0)
(3 7.192542756e-15 0)
(3 3.824251732e-15 0)
(3 -8.310855143e-16 0)
(3 -9.830308599e-16 0)
(3 -2.02604504e-15 0)
(3 -5.660152615e-15 0)
(3 -5.321377646e-15 0)
(3 -3.248743859e-15 0)
(3 -2.644414253e-15 0)
(3 -6.345196941e-15 0)
(3 -1.234980381e-14 0)
(3 -1.206256002e-14 0)
(3 -9.348539901e-15 0)
(3 -5.733410148e-15 0)
(3 -6.170887252e-15 0)
(3 6.385855403e-15 0)
(3 9.668150663e-15 0)
(3 9.133869869e-15 0)
(3 1.08537823e-14 0)
(3 1.36237128e-14 0)
(3 1.977058354e-14 0)
(3 1.986400374e-14 0)
(3 2.21362068e-14 0)
(3 2.271467169e-14 0)
(3 2.207044141e-14 0)
(3 2.43602694e-14 0)
(3 2.590445583e-14 0)
(3 2.4132896e-14 0)
(3 1.882636768e-14 0)
(3 1.269647516e-14 0)
(3 8.5700927e-15 0)
(3 6.173630305e-15 0)
(3 1.054598188e-15 0)
(3 1.584240422e-16 0)
(3 -8.733134677e-15 0)
(3 -1.104048578e-14 0)
(3 -9.35093728e-15 0)
(3 -7.780083558e-15 0)
(3 -7.718574941e-15 0)
(3 -4.917856051e-15 0)
(3 -4.045767845e-15 0)
(3 -3.924688631e-15 0)
(3 -2.515720485e-15 0)
(3 -3.172156709e-15 0)
(3 -6.999590613e-15 0)
(3 -1.086758936e-14 0)
(3 -1.097073812e-14 0)
(3 -1.014423231e-14 0)
(3 -4.588836219e-15 0)
(3 -9.534587097e-16 0)
(3 1.782883052e-15 0)
(3 2.363396687e-15 0)
(3 3.148874399e-15 0)
(3 4.510459035e-15 0)
(3 5.852454077e-15 0)
(3 1.203332414e-14 0)
(3 1.553531178e-14 0)
(3 1.996009658e-14 0)
(3 2.197054108e-14 0)
(3 2.266783762e-14 0)
(3 2.095703268e-14 0)
(3 1.823636404e-14 0)
(3 1.648940375e-14 0)
(3 1.275730792e-14 0)
(3 6.042640385e-15 0)
(3 4.763775967e-16 0)
(3 -6.021113218e-15 0)
(3 -1.374143385e-14 0)
(3 -1.669823037e-14 0)
(3 -1.62429686e-14 0)
(3 -1.34453828e-14 0)
(3 -8.305889516e-15 0)
(3 -5.366482989e-15 0)
(3 -1.343169761e-15 0)
(3 2.235150658e-16 0)
(3 -1.616390164e-15 0)
(3 1.714616947e-15 0)
(3 1.144462701e-15 0)
(3 -3.516635781e-15 0)
(3 -1.039883315e-14 0)
(3 -1.094280575e-14 0)
(3 -9.625660895e-15 0)
(3 -5.153081575e-15 0)
(3 1.611156928e-16 0)
(3 2.073178534e-15 0)
(3 4.581633983e-16 0)
(3 -2.586616088e-15 0)
(3 -3.210271289e-15 0)
(3 8.513310699e-16 0)
(3 4.262598482e-15 0)
(3 1.17585051e-14 0)
(3 1.465676976e-14 0)
(3 1.441331087e-14 0)
(3 1.18007705e-14 0)
(3 1.3005978e-14 0)
(3 1.417639365e-14 0)
(3 1.03764335e-14 0)
(3 4.480472962e-15 0)
(3 -3.381564525e-15 0)
(3 -1.358965949e-14 0)
(3 -1.576861829e-14 0)
(3 -1.50307597e-14 0)
(3 -1.470627631e-14 0)
(3 -1.264394816e-14 0)
(3 -8.941600283e-15 0)
(3 -6.528565312e-16 0)
(3 7.705872668e-15 0)
(3 1.337955644e-14 0)
(3 1.15468759e-14 0)
(3 1.049153348e-14 0)
(3 9.525063148e-15 0)
(3 1.445497391e-15 0)
(3 -7.493685251e-15 0)