/*--------------------------------*- C++ -*----------------------------------*\
  =========                 |
  \\      /  F ield         | OpenFOAM: The Open Source CFD Toolbox
   \\    /   O peration     | Website:  https://openfoam.org
    \\  /    A nd           | Version:  7
     \\/     M anipulation  |
\*---------------------------------------------------------------------------*/
FoamFile
{
    version     2.0;
    format      ascii;
    class       volVectorField;
    location    "2.3";
    object      U;
}
// * * * * * * * * * * * * * * * * * * * * * * * * * * * * * * * * * * * * * //

dimensions      [0 1 -1 0 0 0 0];

internalField   nonuniform List<vector> 
22
(
(2.995085535 0.009043108006 0)
(2.992590058 -0.0003471183241 0)
(2.986415958 -0.001535146006 0)
(2.980616886 -0.0002212964938 0)
(3.010221836 0.008075395614 0)
(3.006532955 -0.003061687305 0)
(3.000635225 -0.003647698981 0)
(2.994738692 -0.004294093843 0)
(3.009492188 -0.003877931525 0)
(3.005165333 -0.004818714782 0)
(2.999869876 -0.001630052155 0)
(3.004478925 -0.0009021818488 0)
(3.002631724 -0.0001611363097 0)
(3.000132841 0.002146665138 0)
(2.999438725 0.002233027514 0)
(2.99999912 2.205633304e-05 0)
(2.999662316 0.001384260323 0)
(2.99688083 0.005162422875 0)
(2.996498111 0.002197890094 0)
(2.996205844 -0.0004725465969 0)
(2.998753808 -0.01824740255 0)
(2.993370216 -0.001831511916 0)
)
;

boundaryField
{
    inlet
    {
        type            fixedValue;
        value           nonuniform 0();
    }
    outlet
    {
        type            inletOutlet;
        inletValue      uniform (3 0 0);
        value           nonuniform List<vector> 6((2.996205844 -0.0004725465969 0) (2.980616886 -0.0002212964938 0) (2.994738692 -0.004294093843 0) (2.999869876 -0.001630052155 0) (3.000132841 0.002146665138 0) (2.999662316 0.001384260323 0));
    }
    bottom
    {
        type            slip;
    }
    top
    {
        type            slip;
    }
    obstacle
    {
        type            slip;
    }
    defaultFaces
    {
        type            empty;
    }
    procBoundary29to22
    {
        type            processor;
        value           uniform (2.993357538 -0.001216096702 0);
    }
    procBoundary29to23
    {
        type            processor;
        value           nonuniform List<vector> 4((2.968464991 0.01003366594 0) (2.966731968 -0.001170222221 0) (2.961587049 0.0003941111584 0) (2.95835391 -0.0003586193939 0));
    }
    procBoundary29to28
    {
        type            processor;
        value           nonuniform List<vector> 7((3.013486509 -0.002610318411 0) (3.013855579 0.007286636663 0) (3.013855579 0.007286636663 0) (3.00864493 0.01119056509 0) (3.003095708 0.01554959345 0) (2.999792489 0.01886837445 0) (2.99846367 -0.04328143891 0));
    }
    procBoundary29to35
    {
        type            processor;
        value           nonuniform List<vector> 4((2.991394498 0.000706418727 0) (3.002045854 -0.04364012846 0) (2.991394498 0.000706418727 0) (2.99404539 -0.0217032838 0));
    }
}


// ************************************************************************* //
