/*--------------------------------*- C++ -*----------------------------------*\
  =========                 |
  \\      /  F ield         | OpenFOAM: The Open Source CFD Toolbox
   \\    /   O peration     | Website:  https://openfoam.org
    \\  /    A nd           | Version:  7
     \\/     M anipulation  |
\*---------------------------------------------------------------------------*/
FoamFile
{
    version     2.0;
    format      ascii;
    class       volScalarField;
    location    "4.1";
    object      T;
}
// * * * * * * * * * * * * * * * * * * * * * * * * * * * * * * * * * * * * * //

dimensions      [0 0 0 1 0 0 0];

internalField   nonuniform List<scalar> 
555
(
1.112621909
1.107902255
1.099831905
1.089008887
1
1.00000001
1.000001859
1.000037362
1.000788618
1.004537557
1.022596067
1.054441614
1.083675189
1.103559879
1.115025784
1.115128638
1.114447191
1.112936635
1.108582841
1.100600242
1.08968373
1.076648328
1
1.000000401
1.000041509
1.000480201
1.005483246
1.019938519
1.053296968
1.089527625
1.11027516
1.112051296
1.114227705
1.115286818
1.113813908
1.109434238
1.101541451
1.09061723
1.077229191
1.062263674
1.000000032
1.000011675
1.000555381
1.003865875
1.022283943
1.054343029
1.08371253
1.105569497
1.115952727
1.115992394
1.115468923
1.114183654
1.11016311
1.10240916
1.091392469
1.077627785
1.062364262
1.046664066
1.000002978
1.00021907
1.004475338
1.018713227
1.053836773
1.091459646
1.110719008
1.113003063
1.115088824
1.116181866
1.114914042
1.110976675
1.103405574
1.092230196
1.078291976
1.062236029
1.045728502
1.02951611
1.000117363
1.002505465
1.020617964
1.054576844
1.08505812
1.107955393
1.116598641
1.116477938
1.115999659
1.114912891
1.111344261
1.104048378
1.092945815
1.078600085
1.062183187
1.04446013
1.027323976
1.010232828
1.002036773
1.016036642
1.053656003
1.094236629
1.111148385
1.113686857
1.115488549
1.11642216
1.115303839
1.11177298
1.104673236
1.09363267
1.078884805
1.061566251
1.043526022
1.024626397
1.007271223
0.9905194771
1.015410217
1.054555585
1.086729434
1.110636276
1.117749508
1.117241746
1.116414464
1.115504298
1.112414013
1.105516825
1.094501961
1.079189356
1.060992047
1.042177865
1.022104963
1.00276406
0.985639146
0.9684446767
1.051024682
1.09836223
1.108685593
1.112438729
1.11596173
1.116971071
1.115959849
1.112935078
1.106406425
1.095431689
1.080142378
1.060242939
1.040167902
1.019643194
0.9975982758
0.9808548305
0.9647099807
0.9466267808
1.089709722
1.114632713
1.119016232
1.117989102
1.116509174
1.115907304
1.113246789
1.107037979
1.096228027
1.080895156
1.059961873
1.037443024
1.016788096
0.9928219485
0.9723059258
0.9579783307
0.9397177744
0.9258404199
1.10783575
1.113739901
1.118643645
1.118381431
1.117143315
1.113839422
1.107808631
1.097109333
1.081573468
1.059857672
1.034207329
1.013281211
0.9897369465
0.9652926103
0.9502541176
0.933572746
0.9123903505
0.9035557344
1.118135704
1.116814401
1.117225448
1.116605346
1.114346972
1.109172731
1.098811694
1.082485085
1.059765331
1.031246919
1.007500472
0.9844369471
0.9542425463
0.9379976772
0.927595938
0.9097635167
0.8965014578
0.8889486116
1.118817848
1.117843105
1.11614092
1.114272151
1.110419706
1.100912915
1.084068044
1.059955066
1.027562727
1.000557366
0.9786357999
0.9492156741
0.9267323222
0.9148895748
0.8980311391
0.8797531559
0.8781235601
0.8726610211
1.116917137
1.11570579
1.114048647
1.11090554
1.102394554
1.085222327
1.059102641
1.023948404
0.9919057569
0.9681237035
0.9371077114
0.9127944914
0.9071062674
0.8955346993
0.8766288358
0.8662302583
0.8604617078
0.8510134777
1.115742163
1.114237851
1.11176183
1.104159069
1.086145415
1.057316988
1.019368607
0.985114747
0.9598570765
0.9299574977
0.8975983641
0.8845723523
0.8766631324
0.8636777727
0.858143928
0.856972415
0.8521821169
0.846667256
1.114368597
1.112849573
1.106713378
1.088071749
1.055698209
1.012623346
0.9716407531
0.9425815689
0.9097970893
0.8872352613
0.880069865
0.8720223448
0.8595563921
0.8491729497
0.8439689035
0.8447339686
0.8453010298
0.8467621104
1.114072554
1.10953856
1.091323864
1.052233998
1.006350545
0.9617380221
0.9283170499
0.9009914701
0.8730648489
0.8553559414
0.8562824992
0.854801986
0.8498571011
0.8455915535
0.8436190099
0.8445063546
0.8512884509
0.8737106917
1.113282821
1.094980029
1.049670354
0.9911934451
0.9329319557
0.8999491692
0.8857616145
0.8740993315
0.8648246389
0.8541704661
0.8468756468
0.842215549
0.8413755233
0.8422293396
0.845011152
0.8611895365
0.9014323685
0.9497333131
1.101738093
1.043778533
0.9700426449
0.9160171683
0.873226385
0.8484691508
0.8424928306
0.843304243
0.8471491466
0.8494959157
0.8475661912
0.8432532368
0.8424174781
0.8496303175
0.876986972
0.9293569584
0.9775265581
1.001998165
1.04967955
0.9056941258
0.8333622257
0.8351037763
0.8348548652
0.8299209797
0.8230889073
0.8247780042
0.8293276936
0.8361538455
0.8411964127
0.8445577863
0.8580368719
0.9028832711
0.9669245031
0.9873056397
0.9986990505
1.013122411
0.9097088688
0.9185442585
0.8499916821
0.8429443158
0.8366006994
0.8193413383
0.8148436774
0.8180610897
0.8297522553
0.8384327827
0.8456721649
0.856174361
0.8916605823
0.9548180581
1.005277419
1.015773738
1.004857571
1.012658314
0.9121570549
0.9175270161
0.8597799654
0.8483728213
0.8358554868
0.8173234326
0.8139103416
0.8183692147
0.8301601076
0.8396876402
0.8481343906
0.8629610972
0.9086345176
0.9706902635
1.008668946
1.015999269
1.005130933
1.012760405
0.9184276513
0.9146238938
0.8667153159
0.8495151801
0.8352137363
0.8159027236
0.8140350599
0.8186536335
0.8301891726
0.8403694188
0.8503077746
0.8706617102
0.9205752737
0.979670186
1.008307377
1.014784141
1.004710252
1.012197447
0.9221719249
0.9109676413
0.8733792505
0.8517083127
0.834839306
0.8155407029
0.8141923739
0.8190601397
0.8304382961
0.8411278603
0.8525218959
0.8807614316
0.933951573
0.9855805822
1.007993626
1.013066869
1.004109136
1.011303164
0.9238446696
0.9076039411
0.8781266114
0.8546188718
0.8345495847
0.8150829492
0.8145129133
0.8197147848
0.8312682009
0.8427649496
0.8565443409
0.889559295
0.9524355317
0.9907671755
1.008159288
1.011178339
1.003256522
1.009957404
0.9235152319
0.9047160542
0.8809954664
0.8572532789
0.8345886864
0.8151712141
0.8147820926
0.8201630262
0.8320487771
0.8450050862
0.8618879374
0.9026973718
0.9653533127
0.9969822059
1.008086637
1.00935002
1.002413881
1.008629489
0.9225487575
0.9034724941
0.8839444619
0.8590945892
0.8345438546
0.8156144556
0.8152279626
0.8205029193
0.8322635177
0.8465611638
0.869423455
0.9173266183
0.9702882303
1.000965906
1.008048878
1.007999238
1.001765892
1.007382052
0.921089608
0.9021163001
0.8841297718
0.8605961367
0.8344040926
0.8160185097
0.8160643392
0.8212995756
0.833022541
0.8480485894
0.8776264313
0.9257846761
0.9743246106
1.002158361
1.007835518
1.007125597
1.001402143
1.006616248
0.9191443442
0.9005157823
0.8844239747
0.8616089214
0.834143224
0.8162383434
0.8169086154
0.8228034156
0.8351650304
0.8520279954
0.8835989458
0.9381425724
0.9848280383
1.001851769
1.007301187
1.006400707
1.001344485
0.9168651202
0.8995637353
0.8848906615
0.8623051087
0.8338602677
0.8168492623
0.8175209524
0.8236356904
0.8371882373
0.8582688629
0.8951821204
0.9590307422
0.9961373906
1.002337045
1.006862981
1.005468678
1.001270921
0.9145152725
0.8988389439
0.8853913477
0.8628453922
0.8335158144
0.8183664764
0.8184114765
0.8241303863
0.8381374454
0.8630384046
0.914969825
0.9743696957
0.9997022046
1.002780315
1.006322482
1.004252612
1.000827238
0.9123236672
0.8985055612
0.8859194077
0.8634220327
0.834010807
0.8199847067
0.8202705488
0.8254811015
0.8398126193
0.8699045914
0.9270341474
0.9765713919
0.998370377
1.003865434
)
;

boundaryField
{
    inlet
    {
        type            fixedValue;
        value           nonuniform 0();
    }
    outlet
    {
        type            inletOutlet;
        inletValue      nonuniform 0();
        value           nonuniform 0();
    }
    bottom
    {
        type            slip;
    }
    top
    {
        type            slip;
    }
    obstacle
    {
        type            zeroGradient;
    }
    defaultFaces
    {
        type            empty;
    }
    procBoundary9to3
    {
        type            processor;
        value           nonuniform List<scalar> 
19
(
1.113558939
1.111722483
1.107006362
1.09893471
1
1
1.00000005
1.000001831
1.000069747
1.000629834
1.005912914
1.020609909
1.0529947
1.088536512
1.110543763
1.111015815
1.112841163
1.114132644
1.114132644
)
;
    }
    procBoundary9to4
    {
        type            processor;
        value           nonuniform List<scalar> 5(1.076318167 1.062508965 1.047716455 1.031382523 1.012952402);
    }
    procBoundary9to8
    {
        type            processor;
        value           nonuniform List<scalar> 2(1 1);
    }
    procBoundary9to10
    {
        type            processor;
        value           nonuniform List<scalar> 
27
(
0.9936240869
0.9742507427
0.9529589385
0.9332740498
0.917755428
0.8964115704
0.8757394615
0.8622310493
0.8487960725
0.8470501875
0.86004251
0.9213562139
0.9804988592
1.00546126
1.01131763
1.011449826
1.011550452
1.011132515
1.010390021
1.009180122
1.007928909
1.006654725
1.005807002
1.006295394
1.006295394
1.005834399
1.005185217
)
;
    }
    procBoundary9to14
    {
        type            processor;
        value           nonuniform List<scalar> 
17
(
0.9999999999
0.9999999974
0.999999989
1.000007944
1.001362384
1.019239931
1.067163091
1.104194784
1.11816925
1.118155128
1.116988097
1.117607011
1.115041606
1.114366279
1.114394837
1.115114327
1.116683541
)
;
    }
    procBoundary9to15
    {
        type            processor;
        value           nonuniform List<scalar> 
18
(
1.00584919
1.002799717
0.9998581954
0.9104214844
0.8985191261
0.8864471692
0.8637383944
0.8342207935
0.8208771359
0.8217357325
0.828198451
0.8446874701
0.8788001101
0.9317817819
0.9783844806
0.9972981976
1.00584919
1.003611243
)
;
    }
}


// ************************************************************************* //
