/*--------------------------------*- C++ -*----------------------------------*\
  =========                 |
  \\      /  F ield         | OpenFOAM: The Open Source CFD Toolbox
   \\    /   O peration     | Website:  https://openfoam.org
    \\  /    A nd           | Version:  7
     \\/     M anipulation  |
\*---------------------------------------------------------------------------*/
FoamFile
{
    version     2.0;
    format      ascii;
    class       volScalarField;
    location    "2";
    object      p;
}
// * * * * * * * * * * * * * * * * * * * * * * * * * * * * * * * * * * * * * //

dimensions      [1 -1 -2 0 0 0 0];

internalField   nonuniform List<scalar> 
2222
(
2.407637165
2.333894163
2.257575107
2.183759616
2.118516981
2.061427165
2.010886338
1.965388709
1.92228411
1.879691893
1.836818684
1.791966625
1.743411623
1.693939879
1.647051531
1.604852034
1.567790783
1.535134947
1.505449117
1.476623367
1.446608013
1.414660705
1.3812226
1.346795232
1.312764535
1.280694766
1.252509032
1.228233961
1.207231991
1.187687002
1.17015105
1.136332346
2.429056866
2.355008095
2.27867938
2.204585902
2.138230667
2.081131276
2.030103687
1.984455292
1.941153533
1.897897765
1.853445102
1.807709634
1.758749878
1.708713914
1.661537575
1.619169216
1.581851694
1.548871288
1.518816199
1.489523022
1.459772123
1.427731676
1.394007374
1.359292411
1.324807128
1.292283006
1.263801245
1.239349688
1.21787137
1.197815355
1.180284477
1.146001901
2.40838001
2.336912187
2.261598446
2.188552015
2.121547277
2.065974265
2.016044714
1.970296406
1.927228174
1.883998522
1.838565521
1.791149748
1.743946168
1.694268684
1.647922498
1.606793864
1.570327096
1.537471661
1.507707002
1.47842367
1.448387385
1.417384093
1.383730943
1.349583062
1.31587059
1.283699538
1.255389554
1.231127044
1.208937674
1.187713502
1.170754878
1.137387371
2.400615874
2.33090507
2.25753773
2.184774026
2.118170062
2.061633266
2.015716135
1.970247599
1.927190779
1.883789035
1.837911018
1.787733619
1.740241432
1.692604452
1.646486052
1.60570822
1.569729978
1.537019308
1.50716718
1.478208166
1.446462582
1.416519375
1.383508817
1.349398753
1.315674707
1.283515116
1.255075591
1.23084208
1.208133105
1.186262293
1.168765045
1.136827482
2.399983714
2.327414681
2.257897501
2.18605225
2.121741986
2.062601231
2.019093745
1.983382896
1.942134993
1.897911753
1.847761027
1.78980527
1.737279608
1.697424818
1.655499812
1.615583676
1.580099042
1.547641843
1.516508539
1.483565685
1.447988356
1.416108344
1.389975855
1.358570808
1.325019175
1.292779284
1.263280497
1.234506741
1.209517113
1.187352969
1.168828162
1.139447616
2.4019919
2.325335618
2.256313402
2.197500591
2.1376964
2.079470125
2.020284171
1.970447117
1.925805826
1.881254637
1.836386596
1.795694364
1.745126048
1.68902861
1.639687421
1.599431169
1.565822659
1.535241157
1.504477417
1.477540715
1.455146558
1.421074937
1.383772089
1.348702781
1.315078268
1.283078653
1.253479506
1.231879826
1.216092074
1.196059481
1.177042227
1.137850711
2.413242329
2.335862535
2.254320001
2.180886411
2.117364202
2.064670179
2.017894538
1.971073281
1.926178201
1.880527966
1.837773034
1.785909981
1.732879827
1.684647744
1.638631645
1.598366624
1.564667131
1.534497062
1.504797806
1.47779434
1.449210048
1.418716861
1.38414974
1.348837569
1.315065327
1.282841546
1.253507188
1.23227494
1.209522159
1.186846739
1.167829361
1.135398289
2.389134219
2.317017442
2.243953967
2.174421653
2.11233955
2.061011045
2.023571616
1.983346334
1.939210697
1.89213124
1.839957669
1.785772302
1.732130652
1.681925199
1.643511507
1.606269138
1.5721918
1.542608056
1.514955892
1.482865537
1.449435915
1.423205368
1.391379349
1.35665701
1.322682927
1.290717327
1.262282511
1.234557164
1.209122348
1.186973874
1.167765136
1.134687104
2.381984225
2.311947737
2.241753862
2.172779783
2.111837413
2.061163141
2.012946932
1.966332908
1.921242716
1.875151333
1.828747312
1.790143901
1.741121723
1.684409637
1.634409216
1.592825337
1.557242869
1.526920295
1.500253204
1.472615835
1.44483539
1.414180102
1.37988382
1.344615836
1.311117435
1.280337987
1.252076204
1.228021904
1.212543475
1.193651234
1.174575748
1.136728343
2.381205447
2.308234106
2.234387687
2.165639884
2.10721746
2.057464619
2.010083885
1.963831041
1.917365854
1.872247588
1.826878765
1.775732946
1.728402704
1.680850789
1.633236222
1.592195286
1.556749517
1.525464022
1.49712465
1.469971425
1.442216037
1.411460624
1.378771121
1.343943191
1.310805007
1.280586258
1.252449523
1.228625937
1.207090461
1.184472016
1.164857035
1.131134063
2.375047143
2.301481752
2.229165057
2.162604361
2.105055934
2.052897809
2.005350998
1.960554554
1.915729992
1.871147178
1.823444985
1.770745891
1.724177909
1.684666661
1.641830615
1.602245673
1.566891434
1.533302614
1.500113454
1.47045618
1.440395472
1.408300959
1.379043755
1.349381349
1.317448473
1.287506876
1.260488638
1.233170026
1.206293773
1.183981175
1.165147827
1.129702928
2.369447949
2.297793792
2.227163978
2.160868082
2.100746998
2.046487278
1.998717319
1.95612308
1.913932097
1.867652804
1.81933271
1.772059859
1.722450736
1.67123696
1.625643263
1.586654995
1.552638173
1.521571224
1.493866949
1.466201384
1.436036322
1.406344093
1.375039975
1.338421051
1.304425422
1.274958417
1.249316504
1.224745151
1.204064515
1.188385886
1.17118185
1.134130815
2.364454363
2.290802394
2.220693374
2.15765888
2.098692699
2.044344212
1.995599695
1.951978061
1.910864534
1.866435729
1.819048023
1.770325222
1.718413223
1.667990299
1.623137817
1.584077968
1.550367214
1.519351529
1.49092002
1.463825602
1.436034586
1.404568057
1.372002656
1.337918608
1.302839423
1.27188052
1.245589159
1.223097843
1.203726102
1.181076535
1.161044148
1.127800351
2.356377379
2.286905789
2.218949595
2.153209617
2.093283866
2.040076049
1.991395425
1.945309531
1.904097422
1.866427899
1.822097511
1.76973037
1.716653831
1.666916661
1.621967998
1.582473619
1.549283366
1.520380066
1.492383845
1.464184615
1.435273566
1.402313248
1.368332414
1.341651293
1.309220771
1.273905306
1.245088247
1.222421349
1.201818486
1.179537252
1.159195108
1.125912742
2.355745191
2.281666216
2.210554763
2.1459283
2.087824029
2.035550772
1.988744491
1.944889157
1.900711851
1.855007428
1.808892691
1.761735709
1.712714901
1.664047887
1.619348094
1.58020182
1.547157918
1.523334643
1.498806638
1.468990188
1.435952828
1.402701806
1.368555577
1.3333373
1.302777082
1.273578645
1.246702723
1.22386059
1.202890232
1.181296563
1.161306183
1.125839303
2.346995143
2.27457277
2.204717699
2.141208301
2.085206859
2.033570276
1.98534686
1.939515253
1.893783836
1.847855637
1.802745816
1.757163997
1.709130889
1.660858173
1.617039095
1.57924451
1.546759901
1.516570736
1.487489256
1.458519562
1.429053828
1.398586668
1.364517973
1.32922412
1.300833027
1.27718465
1.252491927
1.229437811
1.208532359
1.188023227
1.168618748
1.129522897
2.342217527
2.272744412
2.202019062
2.134556558
2.078011015
2.029659949
1.982856595
1.937018018
1.892206663
1.846719897
1.799388914
1.752143623
1.706105851
1.659262429
1.615311683
1.576910448
1.543993498
1.512698609
1.483681268
1.455535581
1.426482437
1.395885964
1.361195559
1.328077389
1.297647031
1.268708822
1.242527351
1.218382101
1.19731971
1.177832034
1.159585972
1.122620057
2.329597583
2.259387261
2.195986093
2.135176734
2.076089518
2.023548305
1.977394146
1.933081883
1.887794691
1.841238446
1.794434591
1.74850793
1.703623616
1.658855697
1.616114795
1.577836387
1.543942119
1.511773649
1.481922815
1.453890929
1.424008634
1.392309487
1.36009183
1.327959055
1.296821705
1.268489686
1.242580768
1.218014674
1.195857092
1.175212961
1.157934445
1.122866345
2.319345802
2.251976968
2.186426325
2.126389045
2.069671346
2.017438298
1.971063344
1.927920956
1.884172486
1.839088874
1.79306625
1.744963847
1.697837071
1.660715458
1.62349748
1.585500445
1.547180394
1.511703322
1.47960536
1.450243735
1.420936663
1.389574325
1.362303354
1.332411677
1.30152973
1.273692696
1.248167557
1.223133954
1.196527169
1.172267329
1.155788749
1.126329013
2.313787846
2.240663346
2.172904625
2.116462708
2.066382693
2.017188847
1.970137815
1.925847252
1.881728984
1.835302675
1.78624118
1.738379956
1.695352275
1.649978773
1.607263545
1.570942269
1.539124965
1.509008381
1.47910144
1.449354043
1.41869207
1.38680723
1.35392012
1.320493155
1.288713459
1.261195171
1.236334189
1.213281138
1.191875114
1.170504906
1.153265085
1.118250304
2.302209745
2.231988973
2.168670875
2.10849655
2.054890373
2.007540444
1.962079755
1.917242094
1.874332437
1.830985792
1.784841281
1.737585497
1.691309028
1.646844841
1.605061488
1.567693661
1.535441464
1.50612595
1.477146963
1.446191916
1.415247455
1.384646413
1.352206013
1.31947557
1.288094094
1.259623517
1.234238094
1.211096311
1.190459206
1.168434143
1.148803259
1.116188919
2.298490999
2.228716407
2.161500031
2.099428811
2.045718677
2.000186522
1.958609551
1.915661485
1.869897292
1.82379301
1.777963397
1.730792852
1.683501396
1.642590379
1.60571979
1.568040183
1.532962592
1.501511631
1.472741944
1.443509594
1.413716192
1.387118253
1.356433393
1.32437522
1.293515148
1.262056127
1.234436636
1.211670718
1.191164017
1.168812077
1.14746303
1.114634614
2.284739393
2.216144474
2.151892764
2.094110978
2.043067362
1.997176016
1.953514573
1.908929447
1.86164715
1.81408519
1.769483853
1.726062463
1.682205879
1.639221473
1.599035574
1.56202181
1.528002401
1.497783172
1.468065988
1.43717504
1.40739844
1.376591754
1.344638144
1.311964049
1.282379734
1.254981296
1.232625198
1.215603755
1.196123644
1.174150329
1.152165
1.112097656
2.272323239
2.208450215
2.147734371
2.092552866
2.040257494
1.989899235
1.943231141
1.900786831
1.858319365
1.812811287
1.765438784
1.71893032
1.674232054
1.631109291
1.591931036
1.557978526
1.526412697
1.494888009
1.463540417
1.432070395
1.401242755
1.371061431
1.341459423
1.311144687
1.281557646
1.254607196
1.230348129
1.206750522
1.185676507
1.164503922
1.144773767
1.1078151
2.264718387
2.199553795
2.137839224
2.083600156
2.035575549
1.987014637
1.939190538
1.893497219
1.850191487
1.805986558
1.7587023
1.711180275
1.667115889
1.627129068
1.589834614
1.555302763
1.522263552
1.489033956
1.458350246
1.431200491
1.401153972
1.367584396
1.33678113
1.31275427
1.286435497
1.257828363
1.229577348
1.206269973
1.185606023
1.164594255
1.144928044
1.107481751
2.253866377
2.189778107
2.133049302
2.078275601
2.026502657
1.97956385
1.932841878
1.884701563
1.839010923
1.797991392
1.756298629
1.71111338
1.665638377
1.622562307
1.582799084
1.547833493
1.517372626
1.487659156
1.457944329
1.427785875
1.395704336
1.36306254
1.333625188
1.303357566
1.273940417
1.248306187
1.229719204
1.21076929
1.190692566
1.169559547
1.149494381
1.111547306
2.251617498
2.188681895
2.127499585
2.070013513
2.016534679
1.969615737
1.926274457
1.881961992
1.835696485
1.789317138
1.745794115
1.702772517
1.658994695
1.617291982
1.579743974
1.545606035
1.51297705
1.481924723
1.451238858
1.421058651
1.392284792
1.363222488
1.331825366
1.299376131
1.26967288
1.245932222
1.222492057
1.199120095
1.178307092
1.157782768
1.138429682
1.101291874
2.236665411
2.175324923
2.115584733
2.062962486
2.015017717
1.966513587
1.918752929
1.873955598
1.828536545
1.780610295
1.735176083
1.695263958
1.65630588
1.616845008
1.578452545
1.541662855
1.507122078
1.476188069
1.447593164
1.417854227
1.38670111
1.356134071
1.325549553
1.295441568
1.268953392
1.244654362
1.22031509
1.196855127
1.174704352
1.153228577
1.134504467
1.099600319
2.222339917
2.166079447
2.110598283
2.055075467
2.00485505
1.958415836
1.911663323
1.864568395
1.819570856
1.776577906
1.732459588
1.687785575
1.646874659
1.610511101
1.575569357
1.539652753
1.505920147
1.474623647
1.443491549
1.412274016
1.382344956
1.353014866
1.32353298
1.294774956
1.267682525
1.241568521
1.216917488
1.195725199
1.174749634
1.151524338
1.131406346
1.100230985
2.21754369
2.157777686
2.09979935
2.044116461
1.992306758
1.947710032
1.907161907
1.863561718
1.815826839
1.76814034
1.722474176
1.678769706
1.640206183
1.605349005
1.570615492
1.536657225
1.503783558
1.471764438
1.440301638
1.409283794
1.378197708
1.346564957
1.316309203
1.291695672
1.268088598
1.242213958
1.21692404
1.192170998
1.168773858
1.146333994
1.128539717
1.092877772
2.203790024
2.144842517
2.090024962
2.039193818
1.989931243
1.941645731
1.895559116
1.851465354
1.80549064
1.75794129
1.713382613
1.67344875
1.635026536
1.597557337
1.563607707
1.534151553
1.504811679
1.471821292
1.437755806
1.404894219
1.373120004
1.342476117
1.314361544
1.287216577
1.260651507
1.235896523
1.212043243
1.187832833
1.165409115
1.144862171
1.126646316
1.091121287
2.187779747
2.13566144
2.084686997
2.032968651
1.982535834
1.933131184
1.884668138
1.839159499
1.797154494
1.754434317
1.711072075
1.669411576
1.629283679
1.591251907
1.557954943
1.526442833
1.493057141
1.459669917
1.427738941
1.397051534
1.367142874
1.337765069
1.308987826
1.280620046
1.254950719
1.232647664
1.210540776
1.188035143
1.165469121
1.141659822
1.120935773
1.090661477
2.181000868
2.12537305
2.073579436
2.023104617
1.973295177
1.925126019
1.879992833
1.835996586
1.790819938
1.746129916
1.702278946
1.660124414
1.622522771
1.588569451
1.554937788
1.521625909
1.488661857
1.455394215
1.422479685
1.390341355
1.359526447
1.331720486
1.305622025
1.279354282
1.253529874
1.228797001
1.205171292
1.182541546
1.160703897
1.138813912
1.119424889
1.082801525
2.166703549
2.112746108
2.062460378
2.014239391
1.965434489
1.916961197
1.870118867
1.823496217
1.777765808
1.737019896
1.697895715
1.658051006
1.619460243
1.582726709
1.546882879
1.511694111
1.480691657
1.451620724
1.420233587
1.388838931
1.358754232
1.328766485
1.299653217
1.272200211
1.246439063
1.22373567
1.202964719
1.181852004
1.160073829
1.136709451
1.115886412
1.080550664
2.156188476
2.10482385
2.053650915
2.003093683
1.954024701
1.905231658
1.856574808
1.812523851
1.771941629
1.729857739
1.687637039
1.647440492
1.609166594
1.573846197
1.541086918
1.508755802
1.475990319
1.443302544
1.41165045
1.380976833
1.350989037
1.321548585
1.294222823
1.26869923
1.244848917
1.221925999
1.199166593
1.176567068
1.154108507
1.130549054
1.110803259
1.081498651
2.14345607
2.092510029
2.041376837
1.989992326
1.940995574
1.894179265
1.848790431
1.803983749
1.759072761
1.716151543
1.677733657
1.641802275
1.60625606
1.571629868
1.537479246
1.503120017
1.468512779
1.435237856
1.404752722
1.375558377
1.346547086
1.319059487
1.292026948
1.265022229
1.239509822
1.215827435
1.194148631
1.173538477
1.152705511
1.129535093
1.108169121
1.073111351
2.130498386
2.080381591
2.033045538
1.98649342
1.938265913
1.888239878
1.839388841
1.793743809
1.751546053
1.711730953
1.672481479
1.634177754
1.597820385
1.562567065
1.528518455
1.49681399
1.465418365
1.434036143
1.403445746
1.372741346
1.342109259
1.312885213
1.286170589
1.261605601
1.237661562
1.214596956
1.191891002
1.169456472
1.147314295
1.123866619
1.102510462
1.067721645
2.118550043
2.069435455
2.02136723
1.973166919
1.924162368
1.87519687
1.828341944
1.783550822
1.740348971
1.699174386
1.66009877
1.624229435
1.591468389
1.559238339
1.52657997
1.492491947
1.458160264
1.424840986
1.39324464
1.366440484
1.340673154
1.312713794
1.285051896
1.25795603
1.232343623
1.208209017
1.185014633
1.163388052
1.142454228
1.120384144
1.100702859
1.066526941
2.106147411
2.057495832
2.00971913
1.961275538
1.911995669
1.863368568
1.816883845
1.773235044
1.731929267
1.69263194
1.656002174
1.621063953
1.585915076
1.5509708
1.516157271
1.481810849
1.450699246
1.420631557
1.390610483
1.361062588
1.33186671
1.303803504
1.277042074
1.252387488
1.229123224
1.206123347
1.183908084
1.161832568
1.139303544
1.115926421
1.095573229
1.061673616
2.093315442
2.044474273
1.996506976
1.947885087
1.899277728
1.852885449
1.80883904
1.765550835
1.723253175
1.683129064
1.645316118
1.608976832
1.574868985
1.543774835
1.512137836
1.47924155
1.446184242
1.413281727
1.38119656
1.350411822
1.323748297
1.29985218
1.27556169
1.250214583
1.224978941
1.201040142
1.177956784
1.155196623
1.132626545
1.110176772
1.091460371
1.059800646
2.080114971
2.032219622
1.98514744
1.937603892
1.889795246
1.84186955
1.79425936
1.74932642
1.709121649
1.673353543
1.639208434
1.605215647
1.571948576
1.538342889
1.503945002
1.469073014
1.434694821
1.403878337
1.376013479
1.348253702
1.319995538
1.292327835
1.266274864
1.241244343
1.218824092
1.197419889
1.174791868
1.152506651
1.13117922
1.109210658
1.089417203
1.05616849
2.067839171
2.020073419
1.972987509
1.924989716
1.875815721
1.826739548
1.781617259
1.741749784
1.70399768
1.666642281
1.63052382
1.595756917
1.561080616
1.526303501
1.493771964
1.463142638
1.432079158
1.400536193
1.368895066
1.338812316
1.310032781
1.284349172
1.26155836
1.23909315
1.216166099
1.192722996
1.169577818
1.147051488
1.12485919
1.102088972
1.083122576
1.053057389
2.054122583
2.006013423
1.958723121
1.911385683
1.863786903
1.816604602
1.771410655
1.729178684
1.689551358
1.652051793
1.617379039
1.586468662
1.555976942
1.523697256
1.490477423
1.455882251
1.421860678
1.388875143
1.359137412
1.332708264
1.307252033
1.282469894
1.257159661
1.232218543
1.207920958
1.185097405
1.164489419
1.143575326
1.121823436
1.100242719
1.082160927
1.0496873
2.039592804
1.9926878
1.947161109
1.900827089
1.85309528
1.805389756
1.759394068
1.716840859
1.679046906
1.6454837
1.613973006
1.581373892
1.546997388
1.512393335
1.477383774
1.444216583
1.415037775
1.385795836
1.356448424
1.327233512
1.300089278
1.274666712
1.250749809
1.227936217
1.205444197
1.183227924
1.160305878
1.137593089
1.115960834
1.094643297
1.075818297
1.043744921
2.024751813
1.978969334
1.933515226
1.886789252
1.838855277
1.791019334
1.745259331
1.704277837
1.668134409
1.633960022
1.600436038
1.56705756
1.535212682
1.505103455
1.473740305
1.441849752
1.408351073
1.375401787
1.345308115
1.320404489
1.297142925
1.273336246
1.249253848
1.224364366
1.199968317
1.175834871
1.152189769
1.13087819
1.111569759
1.091600659
1.073394717
1.042451768
2.009653486
1.962792061
1.917159997
1.871338158
1.82486509
1.778884126
1.735326203
1.695218483
1.657900805
1.623878989
1.593250323
1.563360028
1.532088712
1.498050268
1.463085743
1.42878061
1.397527952
1.369877124
1.342958532
1.315774971
1.288984967
1.264108004
1.24009518
1.217936493
1.196622955
1.173643764
1.151104753
1.129130687
1.107561492
1.086425601
1.067930934
1.03664147
1.995616884
1.948861983
1.903554576
1.85807185
1.811589954
1.765160951
1.721281049
1.681489878
1.646125881
1.613543733
1.581726286
1.549738499
1.517042898
1.485289498
1.455729053
1.42498503
1.393702469
1.361695399
1.332153629
1.305357238
1.282243581
1.260386431
1.238289193
1.215199434
1.190580745
1.166514401
1.143529634
1.121345128
1.101228111
1.082127099
1.064582595
1.034326358
1.979285071
1.933696384
1.889134609
1.843435479
1.796467
1.751122871
1.709959279
1.672472177
1.637065963
1.6035849
1.573183823
1.5436534
1.513382218
1.482248915
1.448089236
1.413302977
1.380963133
1.353617009
1.328186221
1.303401397
1.278477088
1.253603426
1.229130096
1.2048818
1.18323461
1.162583864
1.141316122
1.120422228
1.099894952
1.078511025
1.059783529
1.028977283
1.96499437
1.91877667
1.873288379
1.827614845
1.782730194
1.739326348
1.697383945
1.658462847
1.624129699
1.593718124
1.563589878
1.53212777
1.499793425
1.466821352
1.434886885
1.406224785
1.377576701
1.347508568
1.318543502
1.292538324
1.268079153
1.244247159
1.22118499
1.199783675
1.177793068
1.15506744
1.133073699
1.112034906
1.09171673
1.071995315
1.055202523
1.026078578
1.949567264
1.902556731
1.856556342
1.81125674
1.766045551
1.721197959
1.680405928
1.647205939
1.615855312
1.583456692
1.55275677
1.523646847
1.493610043
1.462572331
1.431159968
1.397748379
1.364991137
1.336759761
1.312487285
1.289339484
1.266657773
1.243356729
1.218995991
1.194555114
1.171350411
1.149857018
1.129270972
1.109295212
1.090089692
1.070285067
1.051685101
1.020984252
1.931954553
1.884096879
1.838867803
1.794324053
1.750969231
1.710903832
1.674090117
1.637987175
1.60431514
1.574045885
1.544654999
1.514072003
1.481963202
1.448886477
1.415690509
1.385500834
1.359274913
1.331999148
1.304417528
1.279616847
1.257006041
1.234867487
1.212465522
1.189290637
1.165818827
1.143427263
1.122172561
1.101589662
1.081580124
1.061362445
1.044757172
1.01752484
1.917003783
1.867545289
1.822067305
1.779132354
1.737343686
1.696115119
1.657191556
1.624148856
1.594498204
1.563105032
1.532124117
1.502542672
1.472471488
1.442052228
1.411496068
1.380663371
1.349242009
1.321589515
1.297855798
1.274517485
1.25094367
1.227319952
1.204155054
1.180937515
1.158679248
1.138098046
1.1178724
1.097791718
1.07856023
1.059503117
1.042328219
1.012490874
1.902751791
1.852233673
1.806290426
1.764556836
1.724317365
1.684597398
1.647524656
1.614128135
1.583956587
1.555235625
1.525440004
1.493620841
1.461355894
1.429654542
1.398275744
1.369334728
1.342929982
1.316495798
1.290162176
1.265586672
1.243019817
1.223194693
1.202197394
1.179332339
1.156152285
1.133446703
1.111710091
1.09098668
1.071450473
1.051610126
1.034286874
1.007179452
1.883188743
1.834445871
1.789097545
1.747097526
1.706744886
1.669472248
1.636021349
1.604765288
1.57311889
1.540725696
1.508531646
1.477886793
1.450186103
1.421413059
1.390642484
1.359234714
1.329818616
1.303870614
1.281304262
1.26010908
1.239849827
1.217541325
1.193376355
1.169399595
1.146136732
1.124679044
1.105638781
1.086700395
1.068031104
1.049099955
1.033369884
1.005739076
1.871880847
1.822047075
1.775737959
1.735464607
1.696592938
1.658513976
1.623391393
1.59105359
1.560600554
1.53134644
1.502840506
1.473936124
1.44276452
1.410855008
1.380776795
1.352937543
1.326332648
1.300695693
1.27491346
1.250640085
1.228137322
1.206622847
1.186833044
1.165896686
1.144461875
1.124019563
1.102682211
1.081162269
1.061453412
1.042171038
1.025811057
0.9989528112
1.844182041
1.802472723
1.757326913
1.718615301
1.681979534
1.645669165
1.611097215
1.579474879
1.549409889
1.519131792
1.488921787
1.458831125
1.42819639
1.399711594
1.371977754
1.341956852
1.31267115
1.285761719
1.26280257
1.243632041
1.224159764
1.203795189
1.181353014
1.157479362
1.135065897
1.113584393
1.093171199
1.074942888
1.057218005
1.03922412
1.023684156
0.997723971
1.823570772
1.788725342
1.743429402
1.702058154
1.665264989
1.631508159
1.598738112
1.568660955
1.540084983
1.510887862
1.481302503
1.453043296
1.425601353
1.394432589
1.361921801
1.333127564
1.307526831
1.283735345
1.260030407
1.236246081
1.213633857
1.191292786
1.169702468
1.15070574
1.13159727
1.111418353
1.091390808
1.070030053
1.04986642
1.03094692
1.014787143
0.988736766
1.787188167
1.768131762
1.730979344
1.691330377
1.654445576
1.618986716
1.585453651
1.55525663
1.526364829
1.496896647
1.46716863
1.437820114
1.40818402
1.380000034
1.353917889
1.325416905
1.297691644
1.272184713
1.248447629
1.228526131
1.208833326
1.188274977
1.167937598
1.145592906
1.122957416
1.101574507
1.080875414
1.060831116
1.043417634
1.025889796
1.010866853
0.9861024149
1.758331486
1.746892743
1.715908851
1.677931949
1.642112362
1.607230785
1.574023324
1.544384108
1.515980395
1.487088602
1.458708025
1.430949244
1.402014008
1.372890414
1.343471152
1.316786397
1.292056375
1.269313192
1.247422587
1.224919194
1.201686185
1.179004768
1.156578681
1.136029763
1.117514035
1.098826722
1.079501552
1.060154964
1.040353059
1.021593926
1.006351676
0.9794284027
1.703106063
1.713780222
1.69728688
1.665367596
1.629557684
1.594546174
1.56190057
1.53119472
1.501106691
1.472062256
1.444321475
1.417043029
1.388205309
1.359424042
1.331399505
1.304819198
1.27927459
1.255975619
1.233145365
1.212367064
1.193437414
1.17461425
1.154431353
1.133178972
1.109729154
1.088940417
1.06909525
1.051400447
1.033732089
1.018465844
1.004456429
0.97625246
1.55773945
1.687601077
1.67849839
1.655723133
1.622429507
1.584404178
1.550137068
1.521660998
1.49323366
1.464588734
1.435996939
1.40693786
1.376952533
1.348061116
1.319584838
1.294610313
1.271190744
1.249598159
1.228575734
1.208807787
1.187399543
1.165613374
1.142537959
1.122108504
1.101256752
1.082459889
1.064462788
1.049527423
1.033094513
1.016154081
0.9983011697
0.9719445657
1.308463043
1.646478028
1.649932057
1.63289047
1.602564761
1.565244663
1.531206491
1.502276214
1.473932887
1.446946674
1.420693453
1.395792018
1.370545352
1.343924735
1.314277355
1.286838778
1.263231049
1.242467161
1.220386652
1.198537862
1.175765017
1.155728642
1.136728202
1.115856573
1.091305318
1.071041409
1.05296865
1.037026316
1.021312935
1.005769299
0.9915066049
0.9728344765
1.030919028
1.519217029
1.635599979
1.627425601
1.598182689
1.554773059
1.514286074
1.483281701
1.45776386
1.434712869
1.409220509
1.382667558
1.354761438
1.326820791
1.299885363
1.27740157
1.256242168
1.237162052
1.216239463
1.194947351
1.173887153
1.15478842
1.132934103
1.110158823
1.088126029
1.069215491
1.048772368
1.026958563
1.009629625
0.998811447
0.9910075084
0.9996065264
0.7918979428
1.286059896
1.590868744
1.597509435
1.581057184
1.548888926
1.510407737
1.479636853
1.453842098
1.426123364
1.397958329
1.371325368
1.34492189
1.318547884
1.291750637
1.264964079
1.239008679
1.218480551
1.202874818
1.188006423
1.169904069
1.150357843
1.128968368
1.106073986
1.083125864
1.060056628
1.036929299
1.021865688
1.010791545
1.00166477
1.01416417
1.171510835
0.6459419009
1.024086353
1.478972932
1.575434755
1.563020919
1.530589455
1.490460749
1.455586082
1.431393066
1.407934949
1.384647219
1.36204874
1.337962386
1.312952054
1.286477629
1.259234489
1.234485639
1.209049335
1.187394832
1.171284913
1.159430299
1.14439928
1.126079739
1.103914324
1.080561256
1.056940231
1.038096866
1.023634661
1.031889247
1.098987121
1.243531982
1.502832856
0.5864710004
0.7839927269
1.260710005
1.538080737
1.547560528
1.531272252
1.490438713
1.449593887
1.413860886
1.382539227
1.363709864
1.348085285
1.333289281
1.312441166
1.287313721
1.25938024
1.233266981
1.204576204
1.180066908
1.158491032
1.143946706
1.126657545
1.108705886
1.090261007
1.075037215
1.056263319
1.060074005
1.119580319
1.266213693
1.469626599
1.635167726
1.687437904
0.5630369372
0.6301756972
1.017790484
1.410506293
1.515970588
1.512629378
1.491822204
1.454783338
1.411711892
1.371549477
1.34453287
1.326209199
1.309745106
1.290011949
1.271044467
1.248703394
1.226731944
1.199708074
1.176026234
1.149911302
1.134329858
1.114909223
1.105769472
1.087177195
1.089990015
1.145231547
1.284042039
1.475502722
1.647336828
1.680498757
1.710918338
1.698475222
0.549119915
0.5641794808
0.7802945166
1.236292688
1.477770489
1.482849664
1.46800459
1.434137294
1.399349183
1.367886523
1.337386258
1.311590845
1.294879748
1.275729049
1.258112376
1.239694688
1.223543182
1.196803158
1.171639422
1.145634082
1.131801535
1.113681911
1.116967041
1.168182301
1.300729327
1.503726859
1.676970587
1.732189481
1.776181697
1.75998998
1.737517391
1.707036391
0.5361250651
0.5391168016
0.6196115776
0.9959199094
1.388506931
1.464745994
1.454341066
1.424300803
1.388649234
1.350364941
1.323246416
1.304228562
1.285395638
1.265393695
1.247436635
1.226886352
1.206189643
1.186628298
1.169286857
1.145656734
1.148927269
1.20588007
1.358501703
1.57684246
1.759556571
1.84194117
1.858294043
1.846427013
1.83011477
1.809118259
1.774529906
1.727186876
0.5251591644
0.525443492
0.5457864745
0.7716642362
1.233883801
1.426350514
1.426021362
1.410550369
1.378380365
1.346698978
1.315623309
1.292875615
1.273518091
1.251522731
)
;

boundaryField
{
    inlet
    {
        type            fixedValue;
        value           nonuniform 0();
    }
    outlet
    {
        type            zeroGradient;
    }
    bottom
    {
        type            slip;
    }
    top
    {
        type            slip;
    }
    obstacle
    {
        type            zeroGradient;
    }
    defaultFaces
    {
        type            empty;
    }
    procBoundary5to4
    {
        type            processor;
        value           nonuniform List<scalar> 
69
(
2.476194909
2.498154424
2.477242397
2.471384523
2.473024633
2.473769643
2.474494752
2.463248948
2.454523376
2.451153763
2.446623962
2.439233916
2.435737613
2.428935955
2.428810572
2.419390487
2.409698598
2.40188034
2.389692454
2.387220276
2.377689568
2.369988807
2.354002904
2.338101029
2.334101357
2.323561788
2.312602852
2.299416842
2.284416612
2.276777549
2.264786716
2.246187128
2.240318485
2.224329023
2.208470232
2.196349963
2.184472732
2.170776817
2.157230461
2.144236459
2.129904683
2.11731883
2.103238108
2.088273341
2.071572061
2.057621725
2.043639964
2.027160504
2.012925485
1.99769284
1.982989251
1.967405305
1.951236325
1.925806165
1.906189296
1.864332117
1.83445532
1.767050313
1.606262088
1.335283848
1.046673894
0.8026173194
0.6638526092
0.6098894845
0.5875984715
0.5729215853
0.5603961077
0.5491119791
0.5376756195
)
;
    }
    procBoundary5to10
    {
        type            processor;
        value           uniform 0.5293288099;
    }
    procBoundary5to11
    {
        type            processor;
        value           nonuniform List<scalar> 
33
(
1.224270269
1.209574073
1.199753761
1.18671931
1.196482554
1.275402529
1.445439213
1.653450685
1.829153389
1.885409357
1.905338541
1.891435744
1.872020211
1.855610123
1.837846966
1.817372421
1.796406429
1.756688507
0.514305669
0.5125830443
0.5162089195
0.6117668808
1.015140975
1.322418299
1.365633945
1.383719169
1.376902092
1.357123052
1.322223763
1.291192439
1.255578279
1.224270269
1.237501111
)
;
    }
}


// ************************************************************************* //
