/*--------------------------------*- C++ -*----------------------------------*\
  =========                 |
  \\      /  F ield         | OpenFOAM: The Open Source CFD Toolbox
   \\    /   O peration     | Website:  https://openfoam.org
    \\  /    A nd           | Version:  7
     \\/     M anipulation  |
\*---------------------------------------------------------------------------*/
FoamFile
{
    version     2.0;
    format      ascii;
    class       volVectorField;
    location    "4";
    object      U;
}
// * * * * * * * * * * * * * * * * * * * * * * * * * * * * * * * * * * * * * //

dimensions      [0 1 -1 0 0 0 0];

internalField   nonuniform List<vector> 
22
(
(3 -3.971696206e-15 0)
(3 -2.958028354e-15 0)
(3 -1.525982412e-15 0)
(3 -6.815755409e-16 0)
(3 -6.995947572e-15 0)
(3 -7.021691167e-15 0)
(3 -6.000414133e-15 0)
(3 -6.545028632e-15 0)
(3 -7.33243804e-15 0)
(3 -5.470633647e-15 0)
(3 4.873088261e-16 0)
(3 3.176202273e-16 0)
(3.000000021 2.42327337e-08 0)
(2.999992708 -1.178332075e-05 0)
(2.999943133 -9.526016196e-05 0)
(2.999781343 -0.0004004280431 0)
(2.998600708 -0.002183795009 0)
(2.995398356 -0.007675413852 0)
(2.989855404 -0.01881328704 0)
(2.9875556 0.0003442702017 0)
(2.973399269 -0.01244619632 0)
(2.960851489 -0.01191061013 0)
)
;

boundaryField
{
    inlet
    {
        type            fixedValue;
        value           nonuniform 0();
    }
    outlet
    {
        type            inletOutlet;
        inletValue      nonuniform 0();
        value           nonuniform 0();
    }
    bottom
    {
        type            slip;
    }
    top
    {
        type            slip;
    }
    obstacle
    {
        type            slip;
    }
    defaultFaces
    {
        type            empty;
    }
    procBoundary13to6
    {
        type            processor;
        value           uniform (3 -3.30489153e-15 0);
    }
    procBoundary13to7
    {
        type            processor;
        value           nonuniform List<vector> 8((3 3.403749031e-15 0) (3 3.71807479e-15 0) (3 3.706530456e-15 0) (3 3.809326275e-15 0) (3.000000002 2.560932975e-09 0) (2.999999947 -1.263660113e-07 0) (2.999999947 -1.263660113e-07 0) (2.99999956 -5.961047771e-07 0));
    }
    procBoundary13to12
    {
        type            processor;
        value           nonuniform List<vector> 4((3 -6.948017156e-15 0) (3 -6.948017156e-15 0) (3 -3.955752077e-15 0) (3 -1.14886538e-15 0));
    }
    procBoundary13to14
    {
        type            processor;
        value           nonuniform List<vector> 2((2.999341876 -0.001284869194 0) (2.98244473 -0.03478946556 0));
    }
    procBoundary13to19
    {
        type            processor;
        value           nonuniform List<vector> 5((3 1.195393649e-15 0) (3 3.682891947e-15 0) (3 1.195393649e-15 0) (3 5.504716997e-15 0) (3 1.195393649e-15 0));
    }
    procBoundary13to20
    {
        type            processor;
        value           uniform (2.946388575 -0.03522019194 0);
    }
}


// ************************************************************************* //
