/*--------------------------------*- C++ -*----------------------------------*\
  =========                 |
  \\      /  F ield         | OpenFOAM: The Open Source CFD Toolbox
   \\    /   O peration     | Website:  https://openfoam.org
    \\  /    A nd           | Version:  7
     \\/     M anipulation  |
\*---------------------------------------------------------------------------*/
FoamFile
{
    version     2.0;
    format      ascii;
    class       volVectorField;
    location    "1";
    object      U;
}
// * * * * * * * * * * * * * * * * * * * * * * * * * * * * * * * * * * * * * //

dimensions      [0 1 -1 0 0 0 0];

internalField   nonuniform List<vector> 
2222
(
(2.884320264 -0.2538250492 0)
(2.884783287 -0.250809436 0)
(2.884150741 -0.2479713962 0)
(2.883343803 -0.2467274912 0)
(2.883731457 -0.2453446683 0)
(2.883780346 -0.2451195795 0)
(2.883746357 -0.2451895075 0)
(2.872640511 -0.2566595482 0)
(2.87326404 -0.2554261162 0)
(2.873617347 -0.2540061397 0)
(2.874811021 -0.2529523332 0)
(2.875475728 -0.2526734258 0)
(2.875895438 -0.252591931 0)
(2.875770688 -0.2521311012 0)
(2.875292989 -0.2507200277 0)
(2.875284191 -0.249283642 0)
(2.875499123 -0.2486436765 0)
(2.875664323 -0.2488388367 0)
(2.875497356 -0.2490888056 0)
(2.875042273 -0.2487168767 0)
(2.875009658 -0.2482074038 0)
(2.875297511 -0.2483667586 0)
(2.875780823 -0.248685923 0)
(2.87646346 -0.2496425491 0)
(2.876727116 -0.2501960835 0)
(2.877178386 -0.2504727015 0)
(2.877622855 -0.2507774751 0)
(2.878311425 -0.2514258746 0)
(2.878770136 -0.2515651564 0)
(2.879176368 -0.2516888348 0)
(2.879562696 -0.2516868902 0)
(2.879886382 -0.2516958065 0)
(2.880166243 -0.2517582772 0)
(2.872640774 0.2566595356 0)
(2.873264 0.2554266315 0)
(2.873617668 0.2540063096 0)
(2.87481064 0.2529521953 0)
(2.875475684 0.2526731713 0)
(2.875895523 0.2525916744 0)
(2.875770917 0.2521311455 0)
(2.875293054 0.2507203162 0)
(2.875283996 0.2492838017 0)
(2.875498948 0.248643545 0)
(2.875664311 0.2488385784 0)
(2.875497509 0.2490888128 0)
(2.875042407 0.2487170813 0)
(2.875009693 0.2482074882 0)
(2.875297459 0.2483667955 0)
(2.875780708 0.2486858781 0)
(2.876463315 0.2496423856 0)
(2.876727067 0.2501960575 0)
(2.877178393 0.2504726677 0)
(2.877622945 0.2507773835 0)
(2.878311462 0.2514259113 0)
(2.878770192 0.2515652002 0)
(2.879176292 0.2516888734 0)
(2.879562677 0.2516869416 0)
(2.879886294 0.2516958044 0)
(2.880166233 0.251758269 0)
(2.880299531 0.2518074128 0)
(2.880340896 0.2518403015 0)
(2.880320104 0.2518238494 0)
(2.880346279 0.2518093596 0)
(2.880422529 0.2517839457 0)
(2.880607921 0.2517452913 0)
(2.880910582 0.2517034822 0)
(2.881195417 0.2516804191 0)
(2.881265594 0.2516816662 0)
(2.881341559 0.2517093717 0)
(2.881371852 0.2517762161 0)
(2.881387597 0.2518684798 0)
(2.88147107 0.2519110386 0)
(2.881547307 0.2519302962 0)
(2.881752785 0.2519622639 0)
(2.882055383 0.2519734321 0)
(2.88220251 0.2519624763 0)
(2.882262629 0.2519664417 0)
(2.882320972 0.2519990588 0)
(2.882321731 0.2520597281 0)
(2.882377843 0.2521036462 0)
(2.882441406 0.252114996 0)
(2.882514733 0.2521238377 0)
(2.882694601 0.2521273973 0)
(2.882889377 0.2521042081 0)
(2.882954429 0.2520932546 0)
(2.882999667 0.2521022714 0)
(2.883025141 0.2521338242 0)
(2.883025065 0.2521722301 0)
(2.883066026 0.2521882764 0)
(2.883103911 0.2521921675 0)
(2.883177174 0.252197764 0)
(2.883321282 0.2521988936 0)
(2.883436855 0.2521887169 0)
(2.883474395 0.2521884144 0)
(2.883519785 0.2521960066 0)
(2.883543689 0.2522046175 0)
(2.883579229 0.2522083736 0)
(2.883612434 0.2522096738 0)
(2.883647373 0.2522040736 0)
(2.883770212 0.2521962331 0)
(2.884320091 0.2538250767 0)
(2.884783434 0.2508101403 0)
(2.884151143 0.247971584 0)
(2.883343785 0.2467275733 0)
(2.883731356 0.2453445744 0)
(2.883780296 0.2451192264 0)
(2.883746282 0.2451893069 0)
(2.883533173 0.2444282355 0)
(2.883368578 0.243334905 0)
(2.883379877 0.243439631 0)
(2.883222126 0.2440718116 0)
(2.883444076 0.2454156884 0)
(2.883586548 0.2467005738 0)
(2.883421505 0.2478831155 0)
(2.883347481 0.2489354093 0)
(2.883702655 0.249588565 0)
(2.883881309 0.2507902172 0)
(2.883555272 0.2518555725 0)
(2.883249531 0.2521829578 0)
(2.883056319 0.2526350629 0)
(2.883004945 0.2527097271 0)
(2.882943715 0.2527501829 0)
(2.88307341 0.2525284993 0)
(2.88347078 0.2522297312 0)
(2.883977177 0.2521399673 0)
(2.884373702 0.2519333557 0)
(2.884347637 0.2517603385 0)
(2.884304711 0.2517606328 0)
(2.884193503 0.2518306067 0)
(2.883988996 0.2518838646 0)
(2.883935207 0.2519016205 0)
(2.883981969 0.2519159654 0)
(2.884159825 0.2519644531 0)
(2.884404995 0.2519844393 0)
(2.884492087 0.2519744588 0)
(2.884497547 0.251993114 0)
(2.884457054 0.2520845912 0)
(2.884326152 0.2522416649 0)
(2.884226543 0.2523831655 0)
(2.884234617 0.2524142335 0)
(2.884282826 0.2524280901 0)
(2.884413754 0.2524239735 0)
(2.88456406 0.2523636977 0)
(2.884627493 0.2523086602 0)
(2.884643521 0.2522873121 0)
(2.884645977 0.2522883624 0)
(2.884610981 0.2523437465 0)
(2.884604347 0.2524081255 0)
(2.884642279 0.2524289568 0)
(2.884697421 0.2524317608 0)
(2.884809221 0.252380621 0)
(2.884907807 0.2522966137 0)
(2.884936621 0.2522702477 0)
(2.884965492 0.2522740875 0)
(2.884971654 0.2523197207 0)
(2.88494831 0.2523839088 0)
(2.884960479 0.2524093261 0)
(2.884980612 0.252414205 0)
(2.885036692 0.2524080604 0)
(2.885118317 0.2523635553 0)
(2.885191131 0.2523042888 0)
(2.885216371 0.2522797363 0)
(2.885229504 0.2522747236 0)
(2.885240928 0.2522700351 0)
(2.885263537 0.2522751446 0)
(2.885274252 0.2522663617 0)
(2.88538688 0.2522601129 0)
(2.894050789 0.2660233406 0)
(2.89372403 0.2642647452 0)
(2.893486541 0.2602007683 0)
(2.89324114 0.2558321348 0)
(2.892628479 0.2543613267 0)
(2.892260486 0.2540384901 0)
(2.893648269 0.2530018253 0)
(2.894707208 0.2513391389 0)
(2.894804937 0.250131772 0)
(2.895252632 0.2506675041 0)
(2.895113125 0.2512113147 0)
(2.894812602 0.2509627266 0)
(2.89468784 0.2508956918 0)
(2.89452992 0.2511194969 0)
(2.894473372 0.2511327006 0)
(2.894396962 0.2510432369 0)
(2.894245418 0.2508185501 0)
(2.89398219 0.250861565 0)
(2.893501631 0.2508532725 0)
(2.892730237 0.2511651764 0)
(2.891916675 0.251529543 0)
(2.891136939 0.2516128125 0)
(2.890583035 0.251517203 0)
(2.890363015 0.2515159322 0)
(2.890469364 0.2516984545 0)
(2.890510298 0.2519349892 0)
(2.890509413 0.2519654247 0)
(2.89050512 0.2519671848 0)
(2.890521432 0.2519981952 0)
(2.890419831 0.2521870954 0)
(2.890310585 0.252416521 0)
(2.890290999 0.2524895871 0)
(2.890324314 0.2525306438 0)
(2.89041937 0.2526050483 0)
(2.890477417 0.2526142548 0)
(2.890394269 0.252582907 0)
(2.890287772 0.2525616492 0)
(2.890123747 0.2525222782 0)
(2.889883711 0.2524880671 0)
(2.889780411 0.2524952242 0)
(2.88968358 0.2525271557 0)
(2.889662451 0.2525559051 0)
(2.889723345 0.2525538058 0)
(2.889723085 0.2525251306 0)
(2.889689295 0.2525127454 0)
(2.889640053 0.2525019304 0)
(2.889548907 0.2525228704 0)
(2.889447375 0.2525845181 0)
(2.889363246 0.2526405896 0)
(2.889337228 0.2526650653 0)
(2.889339117 0.2526744906 0)
(2.889351812 0.2526727584 0)
(2.88935198 0.2526491475 0)
(2.889334764 0.2526336014 0)
(2.889317037 0.2526288377 0)
(2.889272093 0.2526269958 0)
(2.889216552 0.2526220014 0)
(2.889199046 0.2526158535 0)
(2.889179139 0.2526046804 0)
(2.889179788 0.2525810077 0)
(2.889198387 0.2525353501 0)
(2.889196012 0.2524904695 0)
(2.889177458 0.2524830922 0)
(2.889163616 0.2524821102 0)
(2.889140997 0.2524804694 0)
(2.889092377 0.252472213 0)
(2.889204154 0.2525447643 0)
(2.894865831 0.2688868856 0)
(2.896087924 0.266527297 0)
(2.89633174 0.2651021598 0)
(2.896437789 0.2635293081 0)
(2.896666326 0.26195665 0)
(2.897192191 0.2607183922 0)
(2.898288273 0.2597903314 0)
(2.899321334 0.2587221969 0)
(2.899950863 0.2583296245 0)
(2.900760548 0.2585979048 0)
(2.902207513 0.2566457299 0)
(2.902763327 0.2531943959 0)
(2.901982558 0.252225825 0)
(2.901129736 0.2522751702 0)
(2.900751867 0.2508657792 0)
(2.900660189 0.2500208806 0)
(2.900696069 0.249321054 0)
(2.900457247 0.2484839568 0)
(2.899834376 0.248464166 0)
(2.899306451 0.2485970488 0)
(2.898571 0.2489114689 0)
(2.897679397 0.2495827831 0)
(2.897061927 0.2504508209 0)
(2.896521746 0.2512661231 0)
(2.896200421 0.2521308054 0)
(2.89578637 0.2526902577 0)
(2.895688035 0.252863178 0)
(2.895480838 0.2530407073 0)
(2.895266886 0.2533084853 0)
(2.895145847 0.2533271931 0)
(2.894943155 0.2534156195 0)
(2.894779352 0.2535162712 0)
(2.894662498 0.2534594814 0)
(2.894572024 0.2534110381 0)
(2.894520317 0.2533146821 0)
(2.894501398 0.253225476 0)
(2.894496107 0.2532165439 0)
(2.894446441 0.2532059727 0)
(2.894336553 0.2531671266 0)
(2.894204519 0.2531121716 0)
(2.894090101 0.2530998595 0)
(2.894025665 0.2531390999 0)
(2.894002376 0.2531820487 0)
(2.894013867 0.2531735959 0)
(2.894025749 0.2531563089 0)
(2.894011249 0.253172336 0)
(2.893957958 0.2532061944 0)
(2.89387009 0.2532280172 0)
(2.893748209 0.2532307956 0)
(2.893672575 0.2532251597 0)
(2.893630505 0.253219695 0)
(2.893575842 0.2532093516 0)
(2.893545107 0.2531767041 0)
(2.893513061 0.2531209034 0)
(2.893450833 0.2530953476 0)
(2.893392202 0.2530714435 0)
(2.893314863 0.253043238 0)
(2.893248948 0.2529973901 0)
(2.893193546 0.252953446 0)
(2.893139543 0.252925206 0)
(2.893111072 0.2529314409 0)
(2.893082895 0.2529466191 0)
(2.893044334 0.2529353267 0)
(2.892986969 0.2529051779 0)
(2.89292611 0.2529267369 0)
(2.892804221 0.2529657411 0)
(2.892850227 0.252996705 0)
(2.899799196 0.2537221538 0)
(2.898966996 0.2569356204 0)
(2.898058526 0.2601283004 0)
(2.896497313 0.2615943532 0)
(2.894996013 0.2631540167 0)
(2.894427331 0.2655726017 0)
(2.894582786 0.2669146494 0)
(2.894136795 0.2668890087 0)
(2.894652694 0.2653760695 0)
(2.894565487 0.2640483291 0)
(2.894946917 0.262820471 0)
(2.894726763 0.2614189406 0)
(2.895388011 0.2589979375 0)
(2.895919673 0.25682561 0)
(2.896141857 0.2556080287 0)
(2.896958112 0.2535764099 0)
(2.896970016 0.2531892547 0)
(2.897318488 0.2521372432 0)
(2.897810659 0.2511819687 0)
(2.898380368 0.250445267 0)
(2.898798655 0.2506091061 0)
(2.898792265 0.2506553972 0)
(2.898900586 0.2510505947 0)
(2.898874963 0.2514722595 0)
(2.898839411 0.251739287 0)
(2.898570916 0.2516479736 0)
(2.898297746 0.2515464154 0)
(2.89798025 0.2518676561 0)
(2.897651734 0.2522066861 0)
(2.897369006 0.2521443341 0)
(2.897048345 0.2522559636 0)
(2.896676112 0.2526447282 0)
(2.896476311 0.2528803914 0)
(2.896275513 0.2528733521 0)
(2.89608792 0.252822141 0)
(2.895955231 0.2528605643 0)
(2.895881219 0.2529633048 0)
(2.89589151 0.2530637069 0)
(2.895809809 0.2532217204 0)
(2.895735538 0.2533066383 0)
(2.8956385 0.2533673983 0)
(2.895539417 0.2534456328 0)
(2.895495519 0.2534677646 0)
(2.895490904 0.2534550422 0)
(2.895489249 0.253442805 0)
(2.895491516 0.253454646 0)
(2.895471937 0.2534563983 0)
(2.895439441 0.2534404792 0)
(2.895380735 0.2533959577 0)
(2.895277791 0.2533273034 0)
(2.895211714 0.2532833204 0)
(2.89512402 0.2532382507 0)
(2.895059444 0.2532097269 0)
(2.895025153 0.2531848895 0)
(2.894988503 0.2531753308 0)
(2.894961433 0.2531630374 0)
(2.894897789 0.2531745362 0)
(2.894815914 0.2532046995 0)
(2.894751099 0.2532280096 0)
(2.894717824 0.2532242827 0)
(2.89469341 0.2532094129 0)
(2.894666666 0.2531696514 0)
(2.894635793 0.2532006729 0)
(2.894606029 0.2532009374 0)
(2.894574924 0.2532108667 0)
(2.89452865 0.2531984148 0)
(2.894484955 0.2532545928 0)
(2.901221373 0.2543681967 0)
(2.8934545 0.2669121931 0)
(2.89084112 0.277263693 0)
(2.889331516 0.2764593969 0)
(2.889074783 0.2785602255 0)
(2.88873424 0.278155016 0)
(2.888410772 0.2752744773 0)
(2.888350192 0.2719886815 0)
(2.888035396 0.2674474171 0)
(2.889263812 0.2648161422 0)
(2.890375375 0.2637213267 0)
(2.891149617 0.2611389321 0)
(2.891558333 0.2604541068 0)
(2.89201661 0.2601871515 0)
(2.892448016 0.2594498905 0)
(2.892922988 0.2580576232 0)
(2.893275433 0.258467814 0)
(2.893860906 0.257670516 0)
(2.894429894 0.2570436424 0)
(2.895289318 0.256545653 0)
(2.896771227 0.2548515732 0)
(2.897479304 0.2529253505 0)
(2.897677262 0.2529700535 0)
(2.897428314 0.2533705344 0)
(2.896932175 0.2526406144 0)
(2.896624995 0.2517483999 0)
(2.896734208 0.2513026094 0)
(2.896754025 0.251228118 0)
(2.896759016 0.2513179588 0)
(2.8966575 0.2511043763 0)
(2.896458449 0.2510753183 0)
(2.896393184 0.2514617385 0)
(2.896333418 0.2517634484 0)
(2.896121814 0.2521516672 0)
(2.895977313 0.2523679192 0)
(2.895792171 0.2524807635 0)
(2.895741747 0.2526449998 0)
(2.895847888 0.2529035372 0)
(2.895912833 0.2532254606 0)
(2.895774986 0.2534210519 0)
(2.895592854 0.2535322646 0)
(2.895505285 0.2535412264 0)
(2.895368549 0.2535092656 0)
(2.895242886 0.2534918297 0)
(2.8951543 0.2534608304 0)
(2.895125672 0.2533640622 0)
(2.895088449 0.2532608756 0)
(2.895044748 0.253234312 0)
(2.895000739 0.2532021537 0)
(2.894931223 0.2531859743 0)
(2.894902378 0.2532129684 0)
(2.894866763 0.253213567 0)
(2.894815086 0.2531896321 0)
(2.894813957 0.2531842187 0)
(2.894821201 0.2532020629 0)
(2.894817892 0.2532336417 0)
(2.894811238 0.2532797914 0)
(2.894792636 0.2533481056 0)
(2.894726972 0.2534104109 0)
(2.8946639 0.2534140718 0)
(2.894643577 0.253400815 0)
(2.894604334 0.2533962581 0)
(2.894604039 0.2534118835 0)
(2.894616488 0.2534033389 0)
(2.894615597 0.2533989656 0)
(2.894603734 0.2533900034 0)
(2.894566824 0.2533312704 0)
(2.934016505 0.1564618283 0)
(2.916301399 0.1997117251 0)
(2.912275225 0.2136692975 0)
(2.91603412 0.2052642461 0)
(2.907764105 0.2243126072 0)
(2.904680257 0.2330951025 0)
(2.90530284 0.2366996497 0)
(2.899231254 0.2442804734 0)
(2.896711526 0.2496348754 0)
(2.895252273 0.2494493032 0)
(2.893643262 0.2514893353 0)
(2.893645136 0.2551495101 0)
(2.892882608 0.257936313 0)
(2.891293382 0.2597571761 0)
(2.890092725 0.2606901881 0)
(2.88993734 0.2622022894 0)
(2.889622177 0.2638141216 0)
(2.889898274 0.2630925411 0)
(2.889802042 0.2614231159 0)
(2.889732983 0.2609830633 0)
(2.890117519 0.2596722641 0)
(2.891080972 0.2575684161 0)
(2.891389548 0.2557026367 0)
(2.891714369 0.2546258822 0)
(2.891969137 0.2530823834 0)
(2.892898195 0.250788867 0)
(2.893064629 0.2498382756 0)
(2.893209051 0.2501452381 0)
(2.893649102 0.250515099 0)
(2.894221579 0.2504073029 0)
(2.894598795 0.2504378306 0)
(2.894872319 0.2507432727 0)
(2.894925255 0.2511729287 0)
(2.894708464 0.2516810533 0)
(2.894513874 0.2519025001 0)
(2.894503314 0.2519045294 0)
(2.89456263 0.2519403509 0)
(2.894668467 0.2521924332 0)
(2.894662785 0.2523689197 0)
(2.894549733 0.2523521565 0)
(2.894364872 0.2524574439 0)
(2.894159622 0.2525804082 0)
(2.893974377 0.252587044 0)
(2.893876008 0.2525616602 0)
(2.893884082 0.2525799541 0)
(2.894019253 0.252650082 0)
(2.894155319 0.252760007 0)
(2.894139425 0.2528086903 0)
(2.894104203 0.2528321736 0)
(2.894023001 0.2528622383 0)
(2.893959718 0.2529336823 0)
(2.893938872 0.2530912552 0)
(2.893932759 0.2531560485 0)
(2.893940129 0.2531482812 0)
(2.893969186 0.2531389727 0)
(2.894003339 0.2531634226 0)
(2.894019376 0.2532132648 0)
(2.894007664 0.2532506985 0)
(2.893951375 0.2532502764 0)
(2.893902499 0.2532420996 0)
(2.893890884 0.2532449004 0)
(2.893885847 0.2532612703 0)
(2.893911563 0.253274172 0)
(2.893938629 0.2532674096 0)
(2.893917748 0.2532584279 0)
(2.893905796 0.2532511216 0)
(2.893844789 0.2532422298 0)
(2.972653544 0.05934737083 0)
(2.96160117 0.08267186676 0)
(2.951233815 0.1107406151 0)
(2.946048401 0.1284235045 0)
(2.927662025 0.1692677464 0)
(2.918407874 0.1945181869 0)
(2.921719945 0.1965971218 0)
(2.905532027 0.2278923195 0)
(2.899541621 0.2488912401 0)
(2.900748077 0.2482536112 0)
(2.892990022 0.2596752183 0)
(2.889918926 0.2717493628 0)
(2.888101509 0.271167324 0)
(2.887374725 0.2740900866 0)
(2.887078258 0.2737415264 0)
(2.886223015 0.2703528423 0)
(2.886608571 0.2678722743 0)
(2.88571043 0.2637702703 0)
(2.886721339 0.2614048171 0)
(2.887664611 0.2616743619 0)
(2.887755274 0.2596001095 0)
(2.888067697 0.2577320013 0)
(2.888218544 0.2573400222 0)
(2.888587638 0.2572631491 0)
(2.889155639 0.2561848781 0)
(2.889707125 0.2557104661 0)
(2.89001082 0.2556444862 0)
(2.890520829 0.2562377286 0)
(2.891325872 0.2560311524 0)
(2.892263164 0.2547026708 0)
(2.892624537 0.2534578058 0)
(2.892686001 0.2533929834 0)
(2.892632056 0.253443517 0)
(2.892519497 0.2530399769 0)
(2.892468633 0.2524955454 0)
(2.892639397 0.2520225098 0)
(2.892843125 0.2515585314 0)
(2.893066776 0.2514977274 0)
(2.893021175 0.251214498 0)
(2.892842242 0.2511894075 0)
(2.892828402 0.2512495902 0)
(2.89277989 0.2514040629 0)
(2.89260958 0.2516428486 0)
(2.892503132 0.2518185503 0)
(2.892410243 0.2521173168 0)
(2.892555416 0.2524995138 0)
(2.892809294 0.2529099371 0)
(2.892840814 0.2531422706 0)
(2.892717907 0.2532665286 0)
(2.892549199 0.2533850878 0)
(2.892459596 0.2534026911 0)
(2.892388118 0.2534447146 0)
(2.892386311 0.2535063488 0)
(2.892442951 0.2535157488 0)
(2.892554152 0.2534135894 0)
(2.892640704 0.2533169143 0)
(2.892650631 0.2533036759 0)
(2.892644894 0.2533077932 0)
(2.892623115 0.2532988264 0)
(2.892602842 0.2532421971 0)
(2.892604801 0.2531983901 0)
(2.892630874 0.2531671756 0)
(2.892695567 0.2531431213 0)
(2.892773004 0.2531461519 0)
(2.892798855 0.2531617967 0)
(2.892800178 0.2531753906 0)
(2.892731256 0.2531958003 0)
(2.996940745 0.006054267526 0)
(2.994294855 0.01121446725 0)
(2.990189272 0.02041888157 0)
(2.984985859 0.03228289529 0)
(2.977731954 0.04682740342 0)
(2.968249992 0.06942188193 0)
(2.959841579 0.09060880577 0)
(2.946344603 0.1222491441 0)
(2.938379499 0.1448812433 0)
(2.937217409 0.1512017015 0)
(2.920471923 0.1863638721 0)
(2.913844578 0.2111504495 0)
(2.915373087 0.2047512105 0)
(2.909226558 0.2192373083 0)
(2.905168601 0.2315740136 0)
(2.906173425 0.2320454942 0)
(2.900858492 0.2390587474 0)
(2.896886008 0.246708025 0)
(2.895662086 0.2477142164 0)
(2.894281366 0.2493881863 0)
(2.893245378 0.252753823 0)
(2.892286752 0.2553944793 0)
(2.890694614 0.2569596575 0)
(2.889559568 0.2595524489 0)
(2.888894403 0.2604773236 0)
(2.888717792 0.2612971738 0)
(2.888605465 0.2609502903 0)
(2.8886094 0.2606563777 0)
(2.888628602 0.2601018822 0)
(2.888946509 0.2585820769 0)
(2.889390682 0.2565847496 0)
(2.889972592 0.2544061947 0)
(2.889715404 0.253378437 0)
(2.889626149 0.252351684 0)
(2.890497442 0.2512154259 0)
(2.890784735 0.2501845652 0)
(2.890976056 0.2500873087 0)
(2.891291738 0.250594025 0)
(2.891571726 0.2506838388 0)
(2.891856997 0.2505980428 0)
(2.89199978 0.2507688516 0)
(2.891989653 0.251116258 0)
(2.891928874 0.2517931118 0)
(2.891895853 0.2520050737 0)
(2.891858515 0.2519769994 0)
(2.891950022 0.2519381805 0)
(2.891997811 0.2521010147 0)
(2.891965927 0.2522539079 0)
(2.891887243 0.2522788034 0)
(2.891776127 0.2522088639 0)
(2.891655048 0.2521509268 0)
(2.891469121 0.2523350211 0)
(2.89141988 0.2524978581 0)
(2.891484104 0.2524911782 0)
(2.891624224 0.2525161539 0)
(2.891759416 0.2526226491 0)
(2.891777041 0.2526661244 0)
(2.89175962 0.2526874832 0)
(2.891706428 0.2527378124 0)
(2.891633619 0.2527868661 0)
(2.891600132 0.2528374381 0)
(2.891616419 0.2528667683 0)
(2.891662689 0.2528937127 0)
(2.891749096 0.2529317552 0)
(2.891791251 0.2529638379 0)
(2.891800605 0.2529882918 0)
(2.891758412 0.2530225133 0)
(2.999932381 0.0001205817105 0)
(2.999814509 0.0003379033346 0)
(2.999544102 0.0008454834968 0)
(2.998968236 0.00198243987 0)
(2.997865615 0.004111487256 0)
(2.995798316 0.008391407453 0)
(2.992616333 0.01526930214 0)
(2.988513999 0.02345536754 0)
(2.980990236 0.04131311089 0)
(2.973797684 0.05892648189 0)
(2.96465792 0.07729792677 0)
(2.951192429 0.1112013751 0)
(2.946899515 0.1266146952 0)
(2.93379746 0.1556699113 0)
(2.920127838 0.1931354089 0)
(2.921554497 0.195406128 0)
(2.911259982 0.2176167526 0)
(2.902155435 0.245667618 0)
(2.901541335 0.2454633568 0)
(2.898251385 0.25231163 0)
(2.893323963 0.2664781969 0)
(2.891393792 0.2681054982 0)
(2.889505165 0.2684527057 0)
(2.889222534 0.2705617516 0)
(2.888118932 0.268531588 0)
(2.888005062 0.2662867733 0)
(2.887105929 0.2617361668 0)
(2.887679286 0.2590122866 0)
(2.888557075 0.2593969692 0)
(2.888310068 0.2576944792 0)
(2.888373302 0.2562392081 0)
(2.88826977 0.255601393 0)
(2.888459776 0.2553104076 0)
(2.888863907 0.2548740788 0)
(2.889404297 0.2547125111 0)
(2.889857486 0.2547495391 0)
(2.890140904 0.2551698505 0)
(2.890620906 0.2556399161 0)
(2.891283229 0.254735051 0)
(2.891330153 0.2539850183 0)
(2.891181396 0.2535784288 0)
(2.891185001 0.2531569582 0)
(2.891254276 0.2529977955 0)
(2.891339952 0.25291779 0)
(2.891420035 0.252640364 0)
(2.891405182 0.2520330518 0)
(2.891493361 0.2516283077 0)
(2.891495811 0.2514996548 0)
(2.891483062 0.2514473071 0)
(2.891474554 0.2514614631 0)
(2.891498677 0.2514939539 0)
(2.891490157 0.251667765 0)
(2.891383429 0.2519045895 0)
(2.891351814 0.2521319796 0)
(2.891349589 0.2523421634 0)
(2.891398728 0.2525606377 0)
(2.891371772 0.2527493345 0)
(2.891262323 0.2528470745 0)
(2.89117756 0.2529875198 0)
(2.891149279 0.2530300082 0)
(2.891092074 0.2530716015 0)
(2.891058183 0.253172269 0)
(2.891087143 0.253234112 0)
(2.891156945 0.2531681384 0)
(2.891210024 0.2530325275 0)
(2.89121484 0.252972749 0)
(2.891201005 0.2529645636 0)
(2.999999778 3.616364286e-07 0)
(2.999999053 1.577707624e-06 0)
(2.999996303 6.242443509e-06 0)
(2.999987419 2.155663236e-05 0)
(2.999959929 7.110259158e-05 0)
(2.999887037 0.0002009274881 0)
(2.999710912 0.0005337019479 0)
(2.999302879 0.001335280245 0)
(2.998530344 0.002813903346 0)
(2.997066203 0.005904720177 0)
(2.99453738 0.01092525283 0)
(2.990537875 0.01939646505 0)
(2.985272356 0.03230179994 0)
(2.978671171 0.04579560509 0)
(2.969102407 0.06773675309 0)
(2.960942215 0.08915915139 0)
(2.949742326 0.1146837726 0)
(2.938580971 0.1455516287 0)
(2.936730942 0.1527279759 0)
(2.925601175 0.1764699569 0)
(2.915826875 0.2093980677 0)
(2.915083878 0.2064438055 0)
(2.913957043 0.2104231799 0)
(2.906727904 0.2295298772 0)
(2.906050317 0.2314375109 0)
(2.904854306 0.2360971937 0)
(2.899268519 0.2420636877 0)
(2.897225336 0.2462521592 0)
(2.896441098 0.2472966624 0)
(2.894347548 0.2502133837 0)
(2.89345413 0.2529686723 0)
(2.892167154 0.2551504926 0)
(2.890782047 0.2574830548 0)
(2.889988563 0.2596012648 0)
(2.889696555 0.2598589335 0)
(2.889228418 0.2596628305 0)
(2.889074121 0.259239655 0)
(2.889243771 0.2587710011 0)
(2.889520568 0.2579012749 0)
(2.889577721 0.2564320025 0)
(2.890040569 0.2546835599 0)
(2.890186892 0.2529092717 0)
(2.889894366 0.252173257 0)
(2.890354139 0.2515534961 0)
(2.890892189 0.2510078987 0)
(2.891100307 0.2506685256 0)
(2.89110545 0.2505100777 0)
(2.891213297 0.2508312608 0)
(2.891325143 0.2510237062 0)
(2.891469572 0.2512943504 0)
(2.891618109 0.2516113472 0)
(2.891700475 0.2519829726 0)
(2.891594623 0.2521600947 0)
(2.891539665 0.2521963216 0)
(2.89150505 0.2521729748 0)
(2.891468182 0.2521864659 0)
(2.891417657 0.2522044701 0)
(2.891357307 0.2521640097 0)
(2.891319246 0.2522106505 0)
(2.891293097 0.2522245317 0)
(2.891186255 0.2522965247 0)
(2.891069848 0.2525469638 0)
(2.891070888 0.252627687 0)
(2.891101892 0.2525722345 0)
(2.891138686 0.2526102752 0)
(2.891144739 0.2527386075 0)
(2.891127502 0.2527886689 0)
(3 1.005488537e-10 0)
(2.999999999 7.608939276e-10 0)
(2.999999996 5.554861616e-09 0)
(2.999999979 3.325081083e-08 0)
(2.999999896 1.662859193e-07 0)
(2.999999513 8.067734386e-07 0)
(2.999998082 3.224459157e-06 0)
(2.999993108 1.177603339e-05 0)
(2.999976908 4.060002049e-05 0)
(2.999933149 0.0001192877117 0)
(2.999816737 0.0003355028019 0)
(2.999545469 0.0008426720563 0)
(2.998981616 0.00196923688 0)
(2.997910163 0.004106595255 0)
(2.995949631 0.008032701571 0)
(2.992656466 0.01539678148 0)
(2.988649006 0.02351472626 0)
(2.981816273 0.03881294264 0)
(2.973629044 0.06023186553 0)
(2.966558412 0.07466987286 0)
(2.952812135 0.1061916397 0)
(2.945256376 0.1294775148 0)
(2.938364707 0.1479825165 0)
(2.921379835 0.1890157436 0)
(2.918837417 0.1984838263 0)
(2.918313486 0.208012769 0)
(2.904178242 0.239552712 0)
(2.901261783 0.247921301 0)
(2.901512836 0.2487051877 0)
(2.895331135 0.2596505709 0)
(2.893784232 0.2670154726 0)
(2.891642166 0.2654178773 0)
(2.890968918 0.2672370004 0)
(2.890373062 0.2665799729 0)
(2.890120026 0.2646199868 0)
(2.889239206 0.2614401221 0)
(2.888657666 0.2574472559 0)
(2.889175118 0.2566673541 0)
(2.889379055 0.2563184438 0)
(2.889483776 0.2551969908 0)
(2.889544512 0.2546674013 0)
(2.889612145 0.2542256044 0)
(2.889779233 0.2537530006 0)
(2.890168726 0.2540046392 0)
(2.890580646 0.2546093154 0)
(2.890774641 0.254682198 0)
(2.89108409 0.2548532915 0)
(2.891365789 0.2546917709 0)
(2.89145668 0.2540258224 0)
(2.891493749 0.2535680844 0)
(2.891533643 0.253394362 0)
(2.891602641 0.2532209381 0)
(2.891478288 0.2530206862 0)
(2.891341196 0.2526344784 0)
(2.891415773 0.2522967054 0)
(2.891463826 0.2520916955 0)
(2.891383557 0.2518044955 0)
(2.891393645 0.2516742538 0)
(2.891469989 0.2517065165 0)
(2.891515791 0.2517721517 0)
(2.891580608 0.2519066376 0)
(2.891530805 0.2521180694 0)
(2.891395354 0.2523754956 0)
(2.89134542 0.2525458658 0)
(2.891322072 0.2526529547 0)
(2.891306389 0.2526924141 0)
(2.891314842 0.2528140876 0)
(3 -1.180310855e-14 0)
(3 6.25788641e-14 0)
(3 -2.511032847e-13 0)
(3 2.659071195e-12 0)
(3 3.172892727e-11 0)
(3 2.948004445e-10 0)
(2.999999999 2.306910157e-09 0)
(2.999999991 1.402482491e-08 0)
(2.999999951 7.852206558e-08 0)
(2.999999767 3.809212243e-07 0)
(2.999999028 1.613430608e-06 0)
(2.99999619 6.488249931e-06 0)
(2.999987123 2.214517259e-05 0)
(2.999959839 7.164858066e-05 0)
(2.999884926 0.0002071536957 0)
(2.999710857 0.0005306922269 0)
(2.999304696 0.001346276001 0)
(2.998515216 0.002850521217 0)
(2.997086853 0.005835584483 0)
(2.994617105 0.01106831613 0)
(2.990773834 0.01872856851 0)
(2.985158831 0.03227066562 0)
(2.978993577 0.04588971787 0)
(2.970094165 0.06525206135 0)
(2.960442631 0.09053496022 0)
(2.95220049 0.1105497721 0)
(2.939337065 0.1428446576 0)
(2.934645818 0.1566680663 0)
(2.931054057 0.1673769572 0)
(2.91672209 0.203356349 0)
(2.913604924 0.2136558404 0)
(2.91627042 0.2072430304 0)
(2.90878845 0.2225279227 0)
(2.90621717 0.2306021679 0)
(2.907224987 0.2336745042 0)
(2.901869566 0.2399294437 0)
(2.89867393 0.2448205098 0)
(2.897757309 0.2456030576 0)
(2.895646537 0.2478877641 0)
(2.894345499 0.2510412003 0)
(2.893337709 0.253786609 0)
(2.891853735 0.2560807081 0)
(2.890893932 0.2572314234 0)
(2.890702954 0.2587461674 0)
(2.890406825 0.2589794605 0)
(2.88999081 0.2582116424 0)
(2.889856695 0.2577306773 0)
(2.889887822 0.2570544898 0)
(2.889970806 0.2558825594 0)
(2.890347046 0.2545948646 0)
(2.890609508 0.253178331 0)
(2.89089414 0.2518973294 0)
(2.890831494 0.2515059534 0)
(2.8910015 0.2512992175 0)
(2.891270399 0.250866009 0)
(2.891371874 0.2510738202 0)
(2.891506215 0.2514163818 0)
(2.891612876 0.2515354753 0)
(2.891748004 0.2517144335 0)
(2.891890547 0.2519567313 0)
(2.892005726 0.2521854752 0)
(2.891946336 0.2523596005 0)
(2.891761636 0.252430827 0)
(2.89165262 0.2524472851 0)
(2.891604775 0.2524401341 0)
(2.891509727 0.252421759 0)
(2.891520157 0.2522952544 0)
(3 -1.516717435e-14 0)
(3 -1.566415524e-14 0)
(3 -1.368831542e-14 0)
(3 -1.35156878e-14 0)
(3 -8.361941137e-15 0)
(3 -7.816120535e-14 0)
(3 2.65438222e-13 0)
(3 8.437541401e-13 0)
(3 8.208573624e-12 0)
(3 1.118156565e-10 0)
(2.999999999 8.698981366e-10 0)
(2.999999996 5.92052902e-09 0)
(2.999999977 3.636765305e-08 0)
(2.99999989 1.770559447e-07 0)
(2.999999492 8.390306712e-07 0)
(2.999997961 3.459094531e-06 0)
(2.999992886 1.218506154e-05 0)
(2.999976112 4.221725119e-05 0)
(2.999930551 0.000124248348 0)
(2.999813995 0.0003425979618 0)
(2.999536774 0.0008641221758 0)
(2.998965172 0.001984306069 0)
(2.997871539 0.004259382491 0)
(2.996003121 0.00795778584 0)
(2.992650456 0.01536303081 0)
(2.988460146 0.02445728103 0)
(2.982650325 0.03672805464 0)
(2.973270843 0.06055763844 0)
(2.966408097 0.07638978319 0)
(2.954577647 0.1018017599 0)
(2.944280736 0.1302029723 0)
(2.94065393 0.1453565263 0)
(2.923536731 0.1840638833 0)
(2.916855449 0.202535289 0)
(2.920546773 0.2050653261 0)
(2.906332185 0.2326303589 0)
(2.902259874 0.247301156 0)
(2.903286314 0.2470579254 0)
(2.896856524 0.2567153103 0)
(2.89470842 0.2649841656 0)
(2.892711443 0.264255264 0)
(2.892287465 0.2659597017 0)
(2.891542609 0.2648337818 0)
(2.891119349 0.2625548368 0)
(2.891014767 0.2598404343 0)
(2.889980745 0.2563361445 0)
(2.889908944 0.2555434103 0)
(2.889567842 0.2551700437 0)
(2.889831766 0.2539874238 0)
(2.890095493 0.2536902306 0)
(2.890385427 0.2535650448 0)
(2.890593442 0.2533185993 0)
(2.890763926 0.2533405732 0)
(2.891063867 0.2538919844 0)
(2.891224165 0.2540816092 0)
(2.891528278 0.2543480778 0)
(2.891505745 0.2546265874 0)
(2.891727888 0.2540847713 0)
(2.891807184 0.2535477787 0)
(2.891921145 0.2533570704 0)
(2.891916814 0.2531010952 0)
(2.891818852 0.2529914972 0)
(2.891655378 0.2526956565 0)
(2.891640045 0.2524517525 0)
(2.891562651 0.2522640402 0)
(2.891423181 0.2520458029 0)
(2.891544917 0.2518643688 0)
(3 -7.125590089e-15 0)
(3 -8.279025182e-15 0)
(3 -8.617911809e-15 0)
(3 -1.156919522e-14 0)
(3 -1.531372427e-14 0)
(3 -1.649068818e-14 0)
(3 -1.475671873e-14 0)
(3 -1.617100319e-14 0)
(3 -1.586604974e-14 0)
(3 -2.95061727e-14 0)
(3 1.071425386e-13 0)
(3 -6.438152919e-14 0)
(3 2.580425395e-12 0)
(3 3.844749324e-11 0)
(3 3.32219271e-10 0)
(2.999999998 2.576196723e-09 0)
(2.99999999 1.577449342e-08 0)
(2.999999947 8.495831441e-08 0)
(2.999999744 4.210609615e-07 0)
(2.999998951 1.742619597e-06 0)
(2.999995952 6.91972583e-06 0)
(2.999986134 2.402662464e-05 0)
(2.999958152 7.480579323e-05 0)
(2.999880256 0.0002197529239 0)
(2.99969931 0.0005522435184 0)
(2.999293353 0.001367333988 0)
(2.998467744 0.002986653672 0)
(2.997032038 0.00589337509 0)
(2.994587664 0.01125664074 0)
(2.990684545 0.01910304925 0)
(2.985118547 0.03194108605 0)
(2.97882156 0.04698552481 0)
(2.970135572 0.06576955109 0)
(2.961234025 0.08797851878 0)
(2.952750013 0.1097427656 0)
(2.939113892 0.144415404 0)
(2.934091163 0.1584876845 0)
(2.933663919 0.1633560485 0)
(2.918169995 0.1975066813 0)
(2.914078095 0.2138771846 0)
(2.915901094 0.2079990469 0)
(2.910162159 0.220926918 0)
(2.907139227 0.2291931586 0)
(2.90746272 0.2314806316 0)