/*--------------------------------*- C++ -*----------------------------------*\
  =========                 |
  \\      /  F ield         | OpenFOAM: The Open Source CFD Toolbox
   \\    /   O peration     | Website:  https://openfoam.org
    \\  /    A nd           | Version:  7
     \\/     M anipulation  |
\*---------------------------------------------------------------------------*/
FoamFile
{
    version     2.0;
    format      ascii;
    class       volScalarField;
    location    "5";
    object      T;
}
// * * * * * * * * * * * * * * * * * * * * * * * * * * * * * * * * * * * * * //

dimensions      [0 0 0 1 0 0 0];

internalField   nonuniform List<scalar> 
2222
(
1
1
1
1
1
1
1
1
1
1
1
1
1
1
1
1
1
1
1
1
1
1
1
1
1
1
1
1
1
1
1
1
1
1
1
1
1
1
1
1
1
1
1
1
1
1
1
1
1
1
1
1
1
1
1
1
1
1
1
1
1
1
1
1
1
1
1
1
1
1
1
1
1
1
1
1
1
1
1
1
1
1
1
1
1
1
1
1
1
1
1
1
1
1
1
1
1
1
1
1
1
1
1
1
1
1
1
1
1
1
1
1
1
1
1
1
1
1
1
1
1
1
1
1
1
1
1
1
1
1
1
1
1
1
1
1
1
1
1
1
1
1
1
1
1
1
1
1
1
1
1
1
1
1
1
1
1
1
1
1
1
1
1
1
1
1
1
1
1
1
1
1
1
1
1
1
1
1
1
1
1
1
1
1
1
1
1
1
1
1
1
1
1
1
1
1
1
1
1
1
1
1
1
1
1
1
1
1
1
1
1
1
1
1
1
1
1
1
1
1
1
1
1
1
1
1
1
1
1
1
1
1
1
1
1
1
1
1
1
1
1
1
1
1
1
1
1
1
1
1
1
1
1
1
1
1
1
1
1
1
1
1
1
1
1
1
1
1
1
1
1
1
1
1
1
1
1
1
1
1
1
1
1
1
1
1
1
1
1
1
1
1
1
1
1
1
1
1
1
1
1
1
1
1
1
1
1
1
1
1
1
1
1
1
1
1
1
1
1
1
1
1
1
1
1
1
1
1
1
1
1
1
1
1
1
1
1
1
1
1
1
1
1
1
1
1
1
1
1
1
1
1
1
1
1
1
1
1
1
1
1
1
1
1
1
1
1
1
1
1
1
1
1
1
1
1
1
1
1
1
1
1
1
1
1
1
1
1
1.440718932
2.521853321
1
1
1
1
1
1
1
1
1
1
1
1
1
1
1
1
1
1
1
1
1
1
1
1
1
1
1
1
1
1
1
1
1
1
1
1
1
1
1
1
1
1
1
1
1
1
1
1
1
1
1
1
1
1
1
1
1
1
1
1
1
1
1
1
1
1.562498607
2.564535639
1
1
1
1
1
1
1
1
1
1
1
1
1
1
1
1
1
1
1
1
1
1
1
1
1
1
1
1
1
1
1
1
1
1
1
1
1
1
1
1
1
1
1
1
1
1
1
1
1
1
1
1
1
1
1
1
1
1
1
1
1
1
1
1
1
1.690060777
2.598419579
1
1
1
1
1
1
1
1
1
1
1
1
1
1
1
1
1
1
1
1
1
1
1
1
1
1
1
1
1
1
1
1
1
1
1
1
1
1
1
1
1
1
1
1
1
1
1
1
1
1
1
1
1
1
1
1
1
1
1
1
1
1
1
1
1
1.813592585
2.627397613
1
1
1
1
1
1
1
1
1
1
1
1
1
1
1
1
1
1
1
1
1
1
1
1
1
1
1
1
1
1
1
1
1
1
1
1
1
1
1
1
1
1
1
1
1
1
1
1
1
1
1
1
1
1
1
1
1
1
1
1
1
1
1
1
1
1.9210881
2.653565813
1
1
1
1
1
1
1
1
1
1
1
1
1
1
1
1
1
1
1
1
1
1
1
1
1
1
1
1
1
1
1
1
1
1
1
1
1
1
1
1
1
1
1
1
1
1
1
1
1
1
1
1
1
1
1
1
1
1
1
1
1
1
1
0.9999999978
1.000000003
1.989591047
2.674602801
1
1
1
1
1
1
1
1
1
1
1
1
1
1
1
1
1
1
1
1
1
1
1
1
1
1
1
1
1
1
1
1
1
1
1
1
1
1
1
1
1
1
1
1
1
1
1
1
1
1
1
1
1
1
1
1
1
1
1
1
1
0.9999999999
0.9999999917
0.9999999751
1.000015373
1.988528875
2.665275254
1
1
1
1
1
1
1
1
1
1
1
1
1
1
1
1
1
1
1
1
1
1
1
1
1
1
1
1
1
1
1
1
1
1
1
1
1
1
1
1
1
1
1
1
1
1
1
1
1
1
1
1
1
1
1
1
1
1
1
1
0.9999999999
0.999999967
0.999999829
1.000026041
1.006156951
1.873536035
2.586372103
1
1
1
1
1
1
1
1
1
1
1
1
1
1
1
1
1
1
1
1
1
1
1
1
1
1
1
1
1
1
1
1
1
1
1
1
1
1
1
1
1
1
1
1
1
1
1
1
1
1
1
1
1
1
1
1
1
1
1
0.9999999998
0.999999965
0.9999993565
1.000148344
1.022681773
1.274171944
1.769316916
2.354639313
1
1
1
1
1
1
1
1
1
1
1
1
1
1
1
1
1
1
1
1
1
1
1
1
1
1
1
1
1
1
1
1
1
1
1
1
1
1
1
1
1
1
1
1
1
1
1
1
1
1
1
1
1
1
1
1
1
1
0.9999999952
0.9999999957
0.9999990051
1.000843965
1.054929483
1.405056851
1.795642875
1.864686692
2.059207146
1
1
1
1
1
1
1
1
1
1
1
1
1
1
1
1
1
1
1
1
1
1
1
1
1
1
1
1
1
1
1
1
1
1
1
1
1
1
1
1
1
1
1
1
1
1
1
1
1
1
1
1
1
1
1
1
1
0.9999999831
0.9999999232
1.000001631
1.002501815
1.122090066
1.524140079
1.827243844
1.920829245
1.909042047
1.933667721
1
1
1
1
1
1
1
1
1
1
1
1
1
1
1
1
1
1
1
1
1
1
1
1
1
1
1
1
1
1
1
1
1
1
1
1
1
1
1
1
1
1
1
1
1
1
1
1
1
1
1
1
1
1
1
0.9999999999
0.999999945
0.9999996017
1.000059684
1.010326227
1.211699496
1.638244074
1.87032353
1.900980402
1.915723492
1.920160254
1.923449945
1
1
1
1
1
1
1
1
1
1
1
1
1
1
1
1
1
1
1
1
1
1
1
1
1
1
1
1
1
1
1
1
1
1
1
1
1
1
1
1
1
1
1
1
1
1
1
1
1
1
1
1
1
1
0.999999999
0.9999999589
0.9999984392
1.000353168
1.042607822
1.341143376
1.715457219
1.888180021
1.926012044
1.926431035
1.926188733
1.925171386
1.923278221
1
1
1
1
1
1
1
1
1
1
1
1
1
1
1
1
1
1
1
1
1
1
1
1
1
1
1
1
1
1
1
1
1
1
1
1
1
1
1
1
1
1
1
1
1
1
1
1
1
1
1
1
1
0.9999999761
0.9999999731
0.9999980447
1.002410661
1.096329807
1.501690983
1.802071524
1.913722191
1.928924893
1.927084867
1.924201844
1.922174094
1.920675364
1.918721648
1
1
1
1
1
1
1
1
1
1
1
1
1
1
1
1
1
1
1
1
1
1
1
1
1
1
1
1
1
1
1
1
1
1
1
1
1
1
1
1
1
1
1
1
1
1
1
1
1
1
1
0.9999999997
0.9999999401
0.9999994801
1.000050142
1.009851786
1.215034542
1.603736321
1.878582135
1.915119237
1.918121802
1.917695587
1.917600864
1.918240387
1.91871005
1.918847811
1.918641406
1
1
1
1
1
1
1
1
1
1
1
1
1
1
1
1
1
1
1
1
1
1
1
1
1
1
1
1
1
1
1
1
1
1
1
1
1
1
1
1
1
1
1
1
1
1
1
1
1
1
0.9999999985
0.9999999869
0.9999979473
1.000514922
1.044284255
1.347195066
1.737803325
1.890889424
1.910045547
1.91269121
1.913847416
1.91655753
1.919407228
1.920976227
1.921465258
1.921639531
1.921746256
1
1
1
1
1
1
1
1
1
1
1
1
1
1
1
1
1
1
1
1
1
1
1
1
1
1
1
1
1
1
1
1
1
1
1
1
1
1
1
1
1
1
1
1
1
1
1
1
1
0.9999999407
0.9999999529
0.9999995964
1.002832258
1.131837027
1.509946474
1.803607726
1.894361617
1.923004661
1.924550812
1.923866481
1.924050091
1.924042971
1.923844822
1.923113632
1.922123405
1.921611721
1.921770824
1
1
1
1
1
1
1
1
1
1
1
1
1
1
1
1
1
1
1
1
1
1
1
1
1
1
1
1
1
1
1
1
1
1
1
1
1
1
1
1
1
1
1
1
1
1
1
0.9999999995
0.9999999129
0.9999985299
1.000095316
1.021997431
1.250661622
1.658411149
1.857378183
1.92307391
1.928852001
1.928344943
1.925924315
1.924398202
1.924029835
1.923480495
1.92210303
1.920615131
1.919858497
1.919801731
1.920192326
1
1
1
1
1
1
1
1
1
1
1
1
1
1
1
1
1
1
1
1
1
1
1
1
1
1
1
1
1
1
1
1
1
1
1
1
1
1
1
1
1
1
1
1
1
1
0.9999999793
0.9999999787
0.999995057
1.001560895
1.075014426
1.44076612
1.76311732
1.910714415
1.925473684
1.924722621
1.923102342
1.921005336
1.91907606
1.918788903
1.919179215
1.919497809
1.919386418
1.919398728
1.919639706
1.920041478
1.920565426
1
1
1
1
1
1
1
1
1
1
1
1
1
1
1
1
1
1
1
1
1
1
1
1
1
1
1
1
1
1
1
1
1
1
1
1
1
1
1
1
1
1
1
1
0.9999999996
0.9999999114
0.999999299
1.000032331
1.009148946
1.210619128
1.583244302
1.862061276
1.910708342
1.916594074
1.916380003
1.915972178
1.916575467
1.917970784
1.918569223
1.918994466
1.919712508
1.92044947
1.920815328
1.921070941
1.921331885
1.921542131
1.921614831
1
1
1
1
1
1
1
1
1
1
1
1
1
1
1
1
1
1
1
1
1
1
1
1
1
1
1
1
1
1
1
1
1
1
1
1
1
1
1
1
0.9999999954
0.9999999769
0.9999942797
1.000652908
1.057972993
1.359966295
1.743754145
1.882786423
1.906684793
1.913158434
1.915231667
1.9173171
1.919616935
1.921387456
1.922249333
1.922346655
1.92240069
1.92246088
1.922395086
1.922095091
1.92172353
1.921580866
1.921522168
1.921451813
1
1
1
1
1
1
1
1
1
1
1
1
1
1
1
1
1
1
1
1
1
1
1
1
1
1
1
1
1
1
1
1
1
1
1
0.9999999187
0.9999998798
0.999998691
1.007645434
1.1778078
1.55984016
1.812768274
1.898342806
1.92324631
1.925239136
1.92523086
1.924981895
1.924826124
1.924500484
1.923604887
1.922837822
1.922456942
1.922155114
1.921822363
1.921403187
1.920956571
1.920713179
1.920691453
1.920727987
1.920800979
1
1
1
1
1
1
1
1
1
1
1
1
1
1
1
1
1
1
1
1
1
1
1
1
1
1
1
1
0.9999999991
0.9999999275
0.9999937732
1.000470437
1.051953753
1.35010378
1.706686611
1.877634905
1.927369106
1.929630035
1.926998117
1.924595267
1.924142297
1.924097414
1.923130105
1.921643389
1.920562816
1.920194267
1.920215519
1.920323771
1.920275766
1.920212008
1.92023484
1.920365392
1.920572421
1.920757428
1.920911444
1
1
1
1
1
1
1
1
1
1
1
1
1
1
1
1
1
1
1
1
1
1
1
0.9999999167
0.9999999037
0.9999840327
1.008130926
1.168437919
1.550170246
1.823962823
1.920520915
1.924440024
1.923845721
1.922076594
1.919740301
1.918401056
1.918480702
1.918793717
1.918964376
1.919101236
1.919457092
1.92004719
1.920593915
1.920759717
1.920720816
1.920723205
1.92080447
1.920969751
1.921122461
1.921130627
1.921149264
1
1
1
1
1
1
1
1
1
1
1
1
1
1
1
1
1
0.9999999998
0.9999999349
0.9999913399
1.000698756
1.052848293
1.368213079
1.712736366
1.896511606
1.913338757
1.916511629
1.915625257
1.915093727
1.915815409
1.917622339
1.918668485
1.919346627
1.919868734
1.92024715
1.920707465
1.92131525
1.921877672
1.92199221
1.921842428
1.921506788
1.92124281
1.921137457
1.92108712
1.921033579
1.920929481
1.920918054
1
1
1
1
1
1
1
1
1
1
1
1
0.9999999021
0.9999999412
0.9999762129
1.009409208
1.207008988
1.559256064
1.836079441
1.892693619
1.906731084
1.915748329
1.917786698
1.918967376
1.919914744
1.921102998
1.922272821
1.922853348
1.922804515
1.922394384
1.922087839
1.921988954
1.92193638
1.921863825
1.92171206
1.921401272
1.921093216
1.920887215
1.920728786
1.920605713
1.920518458
1.920492315
1.920555639
1
1
1
1
1
1
0.9999999995
0.9999999964
0.9999787374
1.000900088
1.086926985
1.389616656
1.743897016
1.867825631
1.91463725
1.924593554
1.924290178
1.925049122
1.925319755
1.924850578
1.924375231
1.923899926
1.9232956
1.922731512
1.922095745
1.921464494
1.921071986
1.920877983
1.920737801
1.920632617
1.920607229
1.920612809
1.920657328
1.920644186
1.920551313
1.920441623
1.920408771
1.920420347
1.920522472
1
1.000000042
0.9999996725
0.9999547143
1.024743334
1.238692047
1.621548183
1.830480174
1.917495488
1.929575237
1.929650212
1.927205246
1.92447902
1.923390662
1.922709546
1.921983513
1.921489516
1.920949556
1.920391906
1.920018014
1.919928202
1.920006997
1.920125821
1.920185848
1.920228374
1.920299868
1.920441148
1.920644553
1.920770808
1.920764747
1.920683607
1.920568956
1.920548346
1.920555918
1.92060819
1.487985884
1.769218835
1.908688911
1.924991187
1.923996559
1.923367182
1.922024258
1.919660315
1.918054735
1.91772478
1.917984703
1.918695674
1.919281641
1.91959316
1.919771537
1.919956469
1.920263876
1.920582205
1.920659693
1.920662952
1.920674749
1.920728542
1.920861886
1.920950395
1.920928328
1.920833772
1.920682404
1.920541727
1.920490525
1.920481071
1.92050781
1.916158007
1.915338113
1.91547947
1.917002217
1.917811507
1.918116004
1.918534266
1.919367723
1.920245673
1.920796514
1.921088743
1.921264748
1.92139221
1.921437318
1.921370392
1.921117135
1.920813739
1.920702821
1.920677264
1.920697498
1.920694328
1.920631952
1.920544002
1.920451919
1.920383713
1.920344988
1.920335269
1.920357299
1.921769897
1.921941989
1.922001767
1.921952461
1.921834348
1.921670145
1.921489239
1.92134846
1.921244776
1.921108927
1.920882381
1.920569986
1.920333976
1.920272898
1.920267589
1.920302116
1.920332987
1.920346929
1.920336591
1.920325682
1.92031077
1.92029253
1.920286782
1.920318931
1.92112671
1.920776477
1.920508195
1.920351542
1.920297086
1.920306876
1.920283333
1.920216866
1.920144116
1.920131823
1.920154519
1.920208423
1.920276962
1.920337762
1.920391392
1.92041967
1.920423246
1.920414253
1.920361645
1.920292645
1.920312059
1.919901479
1.92006542
1.920240775
1.920348628
1.920378669
1.920396114
1.920427238
1.920445363
1.920469681
1.920491405
1.920513081
1.920535913
1.920535147
1.92053567
1.920510555
1.920443256
1.920359401
1.920353531
1.920761636
1.920755339
1.920728114
1.920686253
1.920637381
1.920596211
1.920599519
1.920603161
1.920611774
1.920597365
1.92057145
1.920543108
1.920507714
1.920457334
1.920425935
1.92061218
1.920571448
1.920572304
1.920585812
1.920634395
1.920708318
1.920752986
1.92075103
1.920732854
1.920677736
1.920596089
1.92070155
1.920792765
1.920912685
1.921020982
1.921080345
1.921083034
1.9210444
1.920885987
1.921024088
1.921154535
1.921268124
1.921337602
1.92132163
1.921200312
1.921352494
1.921363923
1.921332707
)
;

boundaryField
{
    inlet
    {
        type            fixedValue;
        value           nonuniform 0();
    }
    outlet
    {
        type            inletOutlet;
        inletValue      nonuniform 0();
        value           nonuniform 0();
    }
    bottom
    {
        type            slip;
    }
    top
    {
        type            slip;
    }
    obstacle
    {
        type            zeroGradient;
    }
    defaultFaces
    {
        type            empty;
    }
    procBoundary8to1
    {
        type            processor;
        value           nonuniform List<scalar> 7(1 1 1 1 1 1 1);
    }
    procBoundary8to2
    {
        type            processor;
        value           nonuniform List<scalar> 
76
(
1
1
1
1
1
1
1
1
1
1
1
1
1
1
1
1
1
1
1
1
1
1
1
1
1
1
1
1
1
1
1
1
1
1
1
1
1
1
1
1
1
1
1
1
1
1
1
1
1
1
1
1
1
1
1
1
1
1
1
1
1
1
1
1
1
1
1
1
1
1
1
1
1
1
1.331157338
2.471997857
)
;
    }
    procBoundary8to3
    {
        type            processor;
        value           nonuniform List<scalar> 
24
(
2.670631321
2.67747967
2.682121848
2.685644336
2.680618914
2.66859177
2.605552834
2.48607864
2.369505181
2.267202315
2.153606109
2.022498559
1.937999815
1.919419807
1.919901363
1.921183845
1.920776603
1.920754486
1.921222992
1.921215296
1.920914101
1.920907482
1.921055098
1.920971072
)
;
    }
    procBoundary8to7
    {
        type            processor;
        value           nonuniform List<scalar> 
22
(
1
1
1
1
1
1
1
1
1
1
1
1
1
1
1
1
1
1
1
1
1
1
)
;
    }
    procBoundary8to9
    {
        type            processor;
        value           nonuniform List<scalar> 
14
(
1.920769781
1.920685913
1.920689169
1.920605239
1.920503075
1.92048868
1.920473162
1.920387119
1.920332262
1.920345892
1.920428399
1.920474364
1.920571185
1.920599976
)
;
    }
    procBoundary8to14
    {
        type            processor;
        value           nonuniform List<scalar> 
85
(
1
1
1
1
1
1
1
1
1
1
1
1
1
1
1
1
1
1
1
1
1
1
1
1
1
1
1
1
1
1
1
1
1
1
1
1
1
1
1
1
0.9999999999
0.999957695
1.004511183
1.117767209
1.117767209
1.884887845
1.912573534
1.916931284
1.916931284
1.917432701
1.918647263
1.920080437
1.921291066
1.921291066
1.922461409
1.921918939
1.92150996
1.92150996
1.919651952
1.919697765
1.919775441
1.919775441
1.920517726
1.920640339
1.920731508
1.920731508
1.920805242
1.920765469
1.92072171
1.920670687
1.920670687
1.920664947
1.920648419
1.920659958
1.920659958
1.920841304
1.920911868
1.920911868
1.921030537
1.921159523
1.921278742
1.921278742
1.921175615
1.921219811
1.9212907
)
;
    }
}


// ************************************************************************* //
