/*--------------------------------*- C++ -*----------------------------------*\
  =========                 |
  \\      /  F ield         | OpenFOAM: The Open Source CFD Toolbox
   \\    /   O peration     | Website:  https://openfoam.org
    \\  /    A nd           | Version:  7
     \\/     M anipulation  |
\*---------------------------------------------------------------------------*/
FoamFile
{
    version     2.0;
    format      ascii;
    class       volVectorField;
    location    "4.4";
    object      U;
}
// * * * * * * * * * * * * * * * * * * * * * * * * * * * * * * * * * * * * * //

dimensions      [0 1 -1 0 0 0 0];

internalField   nonuniform List<vector> 
2222
(
(3 -2.666536713e-16 0)
(3 -5.326160179e-16 0)
(3 -1.665205562e-16 0)
(3 -4.694452669e-16 0)
(3 -1.12004322e-15 0)
(3 -7.889812589e-16 0)
(3 -1.17873194e-15 0)
(3 -1.657865442e-15 0)
(3 -1.69545511e-15 0)
(3 -1.004588271e-15 0)
(3 -1.338795834e-15 0)
(3 -1.462269829e-15 0)
(3 -2.159287622e-15 0)
(3 -1.312725068e-15 0)
(3 -7.056065161e-16 0)
(3 3.504168552e-16 0)
(3 7.836268004e-16 0)
(3 1.002665624e-15 0)
(3 6.625201714e-16 0)
(3 4.811667615e-16 0)
(3 1.531512867e-15 0)
(3 3.610924385e-15 0)
(3 4.087541702e-15 0)
(3 3.056570921e-15 0)
(3 2.523488649e-15 0)
(3 -6.769229641e-16 0)
(3 -7.946904543e-16 0)
(3 -1.505053149e-15 0)
(3 -2.632867062e-15 0)
(3 -2.239770132e-15 0)
(3 -1.247910174e-15 0)
(3 -3.47986111e-16 0)
(3 -1.825236418e-15 0)
(3 -2.420199061e-15 0)
(3 -2.254694239e-15 0)
(3 -2.077812237e-15 0)
(3 -1.432804992e-15 0)
(3 -1.832250925e-15 0)
(3 -2.72784093e-15 0)
(3 -2.883348644e-15 0)
(3 -3.614154093e-15 0)
(3 -3.041638518e-15 0)
(3 -1.690414786e-15 0)
(3 -5.009257256e-16 0)
(3 7.3829021e-16 0)
(3 1.326865018e-15 0)
(3 2.125107709e-15 0)
(3 3.387023767e-15 0)
(3 4.433254551e-15 0)
(3 2.425233379e-15 0)
(3 2.544359827e-15 0)
(3 7.770339165e-16 0)
(3 1.974248571e-15 0)
(3 1.631891575e-15 0)
(3 1.689674761e-15 0)
(3 1.201188283e-15 0)
(3 1.170028367e-15 0)
(3 2.216088234e-16 0)
(3 -2.404654089e-16 0)
(3 -3.654362279e-16 0)
(3 -8.093515789e-16 0)
(3 -1.955290971e-16 0)
(3 1.757021677e-16 0)
(3 5.233256268e-16 0)
(3 -9.340169377e-16 0)
(3 -2.156932398e-15 0)
(3 -4.094983244e-16 0)
(3 -3.742746519e-16 0)
(3 -1.406568956e-16 0)
(3 -5.792767258e-16 0)
(3 -2.093593738e-15 0)
(3 -3.431583071e-15 0)
(3 -3.067405543e-15 0)
(3 -4.207982718e-15 0)
(3 -4.581757724e-15 0)
(3 -4.967394006e-15 0)
(3 -5.642434419e-15 0)
(3 -5.241483099e-15 0)
(3 -5.453722845e-15 0)
(3 -2.819171873e-15 0)
(3 6.591432849e-16 0)
(3 3.268146544e-15 0)
(3 4.105551445e-15 0)
(3 5.164442016e-15 0)
(3 4.435057495e-15 0)
(3 2.001455972e-15 0)
(3 1.611079589e-15 0)
(3 3.538198032e-15 0)
(3 4.600237899e-15 0)
(3 2.858103082e-15 0)
(3 6.608127082e-16 0)
(3 -2.950871459e-15 0)
(3 -2.303723986e-15 0)
(3 -2.168328864e-15 0)
(3 -3.37644022e-15 0)
(3 -3.245971393e-15 0)
(3 -3.078831745e-15 0)
(3 -2.918920636e-15 0)
(3 -5.645806431e-15 0)
(3 -6.789998191e-15 0)
(3 -5.244384512e-15 0)
(3 -4.87923255e-15 0)
(3 -4.043388971e-15 0)
(3 -3.862502137e-15 0)
(3 -5.152234702e-15 0)
(3 -6.53384739e-15 0)
(3 -6.671748894e-15 0)
(3 -6.55321948e-15 0)
(3 -3.52993066e-15 0)
(3 -1.709849515e-15 0)
(3 -4.30362864e-16 0)
(3 7.791066161e-17 0)
(3 4.422203406e-15 0)
(3 8.425054986e-15 0)
(3 8.279062971e-15 0)
(3 6.232290986e-15 0)
(3 6.266419529e-15 0)
(3 4.21172566e-15 0)
(3 3.884495981e-15 0)
(3 3.443527804e-15 0)
(3 2.68152899e-15 0)
(3 2.662509931e-15 0)
(3 2.239185765e-15 0)
(3 5.452130371e-16 0)
(3 -1.924281651e-15 0)
(3 -4.263602196e-15 0)
(3 -3.903196218e-15 0)
(3 -1.907266416e-15 0)
(3 -3.669597749e-16 0)
(3 3.174384182e-16 0)
(3 -1.804927046e-15 0)
(3 -4.141358579e-15 0)
(3 7.174384707e-17 0)
(3 -6.387971015e-17 0)
(3 -7.980347937e-17 0)
(3 -1.458695556e-15 0)
(3 -2.714402428e-15 0)
(3 -3.8929386e-15 0)
(3 -3.609573676e-15 0)
(3 -3.632675393e-15 0)
(3 -4.902463551e-15 0)
(3 -7.113778237e-15 0)
(3 -7.760195595e-15 0)
(3 -7.706791213e-15 0)
(3 -7.308662966e-15 0)
(3 -6.271304836e-15 0)
(3 -4.24915562e-15 0)
(3 -2.75915022e-15 0)
(3 -6.148673571e-16 0)
(3 6.304771977e-16 0)
(3 2.219088413e-16 0)
(3 1.873486682e-16 0)
(3 3.474250953e-17 0)
(3 1.367909074e-15 0)
(3 4.115477628e-15 0)
(3 6.212796423e-15 0)
(3 6.20026663e-15 0)
(3 4.688986878e-15 0)
(3 3.050826754e-15 0)
(3 1.603411141e-15 0)
(3 8.943337736e-16 0)
(3 -1.234712139e-15 0)
(3 -2.570407377e-15 0)
(3 -5.901830045e-15 0)
(3 -6.555939427e-15 0)
(3 -7.195002284e-15 0)
(3 -6.915879933e-15 0)
(3 -6.641203904e-15 0)
(3 -5.672578359e-15 0)
(3 -4.072837286e-15 0)
(3 -3.604958829e-15 0)
(3 -3.435762326e-15 0)
(3 -3.778181629e-15 0)
(3 -3.095889267e-15 0)
(3 -1.441147353e-15 0)
(3 -6.166878544e-16 0)
(3 1.62615627e-15 0)
(3 5.030732188e-15 0)
(3 6.675780412e-15 0)
(3 7.649021159e-15 0)
(3 8.252029575e-15 0)
(3 9.368030664e-15 0)
(3 8.587610496e-15 0)
(3 9.569673744e-15 0)
(3 7.231802512e-15 0)
(3 6.084913604e-15 0)
(3 2.575677534e-15 0)
(3 1.793678279e-15 0)
(3 -1.410071018e-15 0)
(3 -3.581683684e-15 0)
(3 -4.540658675e-15 0)
(3 -4.396437209e-15 0)
(3 -2.937327975e-15 0)
(3 -1.646918296e-15 0)
(3 -2.203317716e-15 0)
(3 -1.664380192e-15 0)
(3 -1.042316482e-15 0)
(3 -3.0559126e-15 0)
(3 2.206388658e-16 0)
(3 -6.757726387e-16 0)
(3 -1.088033064e-15 0)
(3 -2.368211096e-15 0)
(3 -2.599147062e-15 0)
(3 -3.315743487e-15 0)
(3 -3.412851559e-15 0)
(3 -2.063800919e-15 0)
(3 -7.564480848e-16 0)
(3 -1.005578254e-15 0)
(3 -1.00061142e-15 0)
(3 -1.428425111e-15 0)
(3 -1.28014724e-15 0)
(3 -2.63373182e-15 0)
(3 -3.562483786e-15 0)
(3 -3.405089868e-15 0)
(3 -2.901385363e-15 0)
(3 -3.209272918e-15 0)
(3 -2.185421804e-15 0)
(3 -9.533779286e-16 0)
(3 1.34853829e-16 0)
(3 9.927604043e-16 0)
(3 2.063836586e-15 0)
(3 2.078844504e-15 0)
(3 1.878206957e-15 0)
(3 1.590456727e-15 0)
(3 2.531980559e-15 0)
(3 4.598423013e-15 0)
(3 3.05734237e-15 0)
(3 1.530689477e-15 0)
(3 5.52247729e-16 0)
(3 -1.303406064e-15 0)
(3 -2.79761504e-15 0)
(3 -4.814680466e-15 0)
(3 -6.729289537e-15 0)
(3 -6.575728298e-15 0)
(3 -5.288783007e-15 0)
(3 -4.079121493e-15 0)
(3 -2.725677826e-15 0)
(3 -3.186855497e-15 0)
(3 -2.378652338e-15 0)
(3 -1.808763799e-15 0)
(3 -1.077107509e-15 0)
(3 -1.764174682e-17 0)
(3 3.360055562e-15 0)
(3 5.611042244e-15 0)
(3 6.980883416e-15 0)
(3 8.449972895e-15 0)
(3 1.018353988e-14 0)
(3 1.239198128e-14 0)
(3 1.133249738e-14 0)
(3 8.706880124e-15 0)
(3 8.164051454e-15 0)
(3 6.44683559e-15 0)
(3 3.185784628e-15 0)
(3 2.165165125e-15 0)
(3 -9.338078299e-16 0)
(3 -2.009718829e-15 0)
(3 -2.417725087e-15 0)
(3 -2.073388098e-15 0)
(3 -1.309485182e-15 0)
(3 -9.473112688e-16 0)
(3 -7.718646517e-16 0)
(3 -1.586825789e-15 0)
(3 -1.555145198e-15 0)
(3 -2.828568989e-15 0)
(3 7.711236028e-17 0)
(3 2.206088996e-16 0)
(3 3.829776154e-16 0)
(3 2.614873105e-16 0)
(3 6.126273234e-16 0)
(3 1.743988557e-16 0)
(3 -5.448770908e-16 0)
(3 -5.195107875e-16 0)
(3 1.003888338e-15 0)
(3 1.750876453e-15 0)
(3 4.245630311e-15 0)
(3 4.292469883e-15 0)
(3 4.292945501e-15 0)
(3 1.806510697e-15 0)
(3 -1.727631503e-15 0)
(3 -3.045670021e-15 0)
(3 -4.107156205e-15 0)
(3 -4.458345729e-15 0)
(3 -3.863761915e-15 0)
(3 -3.369387074e-15 0)
(3 4.366062707e-16 0)
(3 3.698357017e-16 0)
(3 1.690673099e-16 0)
(3 -1.553345516e-16 0)
(3 -2.172952066e-16 0)
(3 1.033022989e-15 0)
(3 3.292429739e-15 0)
(3 4.463629909e-15 0)
(3 3.196269487e-15 0)
(3 2.090716033e-15 0)
(3 -2.888751247e-16 0)
(3 -5.043024619e-16 0)
(3 -8.487308918e-16 0)
(3 -2.388912868e-15 0)
(3 -3.676567862e-15 0)
(3 -3.489285431e-15 0)
(3 -3.961977663e-15 0)
(3 -3.477560187e-15 0)
(3 -2.59828182e-15 0)
(3 -1.666803421e-15 0)
(3 -9.601396528e-16 0)
(3 9.194538257e-16 0)
(3 1.546437104e-15 0)
(3 1.778932996e-15 0)
(3 2.288050138e-15 0)
(3 3.48978996e-15 0)
(3 5.130403633e-15 0)
(3 6.555658169e-15 0)
(3 6.852885449e-15 0)
(3 6.932378099e-15 0)
(3 5.880963279e-15 0)
(3 4.157498537e-15 0)
(3 2.93510405e-15 0)
(3 1.721871801e-15 0)
(3 1.763077419e-15 0)
(3 9.482626118e-17 0)
(3 -9.915295011e-16 0)
(3 -2.628862506e-15 0)
(3 -3.06438971e-15 0)
(3 -2.400797501e-15 0)
(3 -6.21663998e-16 0)
(3 5.680166586e-17 0)
(3 2.23359625e-15 0)
(3 1.902487379e-15 0)
(3 4.340618215e-16 0)
(3 -1.604957924e-16 0)
(3 -2.706797741e-16 0)
(3 1.077134889e-15 0)
(3 1.39667797e-15 0)
(3 1.599351413e-15 0)
(3 1.711794426e-15 0)
(3 2.495224959e-15 0)
(3 2.245472628e-15 0)
(3 6.913846207e-16 0)
(3 4.217483815e-17 0)
(3 7.779990206e-16 0)
(3 1.461640827e-15 0)
(3 3.152451494e-15 0)
(3 2.825975522e-15 0)
(3 1.389769734e-15 0)
(3 8.938807469e-16 0)
(3 3.515238994e-16 0)
(3 5.044268799e-17 0)
(3 -5.916846063e-16 0)
(3 -2.071289331e-15 0)
(3 -1.870654271e-15 0)
(3 1.265835276e-16 0)
(3 1.073550227e-15 0)
(3 3.356942117e-16 0)
(3 -3.95014398e-16 0)
(3 -1.501481673e-16 0)
(3 2.002331387e-15 0)
(3 1.730725381e-15 0)
(3 4.695854795e-17 0)
(3 8.260219597e-17 0)
(3 -3.677944406e-16 0)
(3 -3.175343078e-15 0)
(3 -3.59772998e-15 0)
(3 -2.87302096e-15 0)
(3 -1.478414219e-15 0)
(3 -7.934808249e-16 0)
(3 -1.114740521e-15 0)
(3 -1.986305638e-15 0)
(3 -1.91825435e-15 0)
(3 -1.823020635e-15 0)
(3 -1.627151074e-16 0)
(3 1.803937099e-15 0)
(3 3.202130682e-15 0)
(3 3.416201303e-15 0)
(3 4.515760581e-15 0)
(3 4.806067527e-15 0)
(3 3.356467638e-15 0)
(3 2.780001162e-15 0)
(3 1.751282763e-15 0)
(3 1.379892773e-15 0)
(3 -2.931535907e-16 0)
(3 -1.783936941e-15 0)
(3 -2.226831923e-15 0)
(3 -3.597583474e-15 0)
(3 -4.103637769e-15 0)
(3 -4.775025061e-15 0)
(3 -4.030922518e-15 0)
(3 -1.649495066e-15 0)
(3 -1.957186775e-15 0)
(3 -1.637291633e-15 0)
(3 -5.497330606e-17 0)
(3 3.567678515e-16 0)
(3 1.407499916e-15 0)
(3 2.454235094e-15 0)
(3 2.422001091e-15 0)
(3 2.505179291e-15 0)
(3 2.939677075e-15 0)
(3 -4.019017137e-17 0)
(3 8.797181299e-17 0)
(3 6.446717207e-17 0)
(3 1.00357056e-16 0)
(3 1.138657725e-16 0)
(3 6.559764602e-16 0)
(3 2.358095788e-15 0)
(3 2.479057412e-15 0)
(3 1.192503505e-15 0)
(3 -9.609927575e-17 0)
(3 1.015748096e-16 0)
(3 4.524716028e-16 0)
(3 1.744043301e-15 0)
(3 1.919844177e-15 0)
(3 2.269161699e-15 0)
(3 2.822452373e-15 0)
(3 2.16528483e-15 0)
(3 2.093943087e-15 0)
(3 1.782683423e-15 0)
(3 1.27304313e-16 0)
(3 -1.980487548e-15 0)
(3 -1.87816001e-15 0)
(3 -2.728841977e-15 0)
(3 -1.810115329e-15 0)
(3 -1.24114656e-15 0)
(3 1.326325683e-16 0)
(3 -7.163868204e-16 0)
(3 -3.783515539e-15 0)
(3 -3.869441717e-15 0)
(3 -3.669005239e-15 0)
(3 -2.62109287e-15 0)
(3 -2.641140029e-15 0)
(3 -2.688670964e-15 0)
(3 -1.932813396e-15 0)
(3 -1.240074195e-15 0)
(3 -1.40877784e-15 0)
(3 -1.111424908e-15 0)
(3 -3.910329628e-16 0)
(3 -2.479834813e-16 0)
(3 7.069232692e-16 0)
(3 1.984779412e-15 0)
(3 2.512274231e-15 0)
(3 2.587936553e-15 0)
(3 2.822359486e-15 0)
(3 1.878544826e-15 0)
(3 9.89785345e-16 0)
(3 1.100654331e-15 0)
(3 1.384637701e-15 0)
(3 1.456723138e-15 0)
(3 6.378556308e-16 0)
(3 -3.482589791e-16 0)
(3 -1.571597051e-15 0)
(3 -2.355605227e-15 0)
(3 -3.059122272e-15 0)
(3 -6.424125502e-15 0)
(3 -4.819402157e-15 0)
(3 -1.926898807e-15 0)
(3 2.066591939e-16 0)
(3 1.541621077e-15 0)
(3 1.343143521e-15 0)
(3 9.325968842e-16 0)
(3 1.009359008e-15 0)
(3 1.265595439e-15 0)
(3 2.590635553e-15 0)
(3 2.332648234e-15 0)
(3 2.009847502e-15 0)
(3 2.911467485e-16 0)
(3 -6.727206961e-16 0)
(3 -8.786498156e-16 0)
(3 -1.081131528e-15 0)
(3 -5.53460185e-16 0)
(3 -1.689333138e-15 0)
(3 -1.633494467e-15 0)
(3 8.151769278e-16 0)
(3 1.415402445e-15 0)
(3 1.292414452e-15 0)
(3 2.184143882e-16 0)
(3 -5.416821175e-16 0)
(3 -5.628599976e-16 0)
(3 -3.092895983e-16 0)
(3 -4.808938226e-16 0)
(3 -2.946224357e-16 0)
(3 3.073064958e-16 0)
(3 4.622798583e-16 0)
(3 1.458019427e-15 0)
(3 1.295137113e-15 0)
(3 -1.886382457e-15 0)
(3 -2.095866739e-15 0)
(3 -1.610643673e-15 0)
(3 5.682996954e-16 0)
(3 9.203794259e-16 0)
(3 -3.466810845e-16 0)
(3 -9.443413135e-16 0)
(3 -1.985625325e-15 0)
(3 -2.414976277e-15 0)
(3 -1.61146332e-15 0)
(3 6.170561789e-16 0)
(3 6.01005414e-16 0)
(3 -6.751417287e-16 0)
(3 -1.478382955e-15 0)
(3 -1.71353305e-15 0)
(3 -1.585900081e-15 0)
(3 -4.641382427e-16 0)
(3 1.686607851e-15 0)
(3 3.844307798e-15 0)
(3 3.933140041e-15 0)
(3 3.152889547e-15 0)
(3 2.731573425e-15 0)
(3 7.201578969e-16 0)
(3 -7.689920921e-16 0)
(3 -2.415155047e-15 0)
(3 -1.797927523e-15 0)
(3 -2.553740086e-15 0)
(3 -3.096885624e-15 0)
(3 -2.541219627e-15 0)
(3 -1.757576149e-15 0)
(3 -2.278444933e-15 0)
(3 -2.648396069e-15 0)
(3 -1.052105004e-15 0)
(3 -1.248909678e-15 0)
(3 -1.674999521e-15 0)
(3 -3.045327634e-15 0)
(3 -2.476442534e-15 0)
(3 1.883295943e-16 0)
(3 8.28378462e-16 0)
(3 2.22889973e-15 0)
(3 2.155337056e-15 0)
(3 7.429017981e-16 0)
(3 4.299791759e-16 0)
(3 1.919690191e-15 0)
(3 2.844587945e-15 0)
(3 2.243910925e-15 0)
(3 -2.151095332e-17 0)
(3 -1.127202739e-16 0)
(3 -3.102594881e-16 0)
(3 -2.164612353e-16 0)
(3 -4.893729147e-16 0)
(3 -1.783115419e-15 0)
(3 -3.168467792e-15 0)
(3 -2.864350842e-15 0)
(3 -1.152445382e-15 0)
(3 5.466501751e-16 0)
(3 -2.76079293e-16 0)
(3 -8.487735446e-16 0)
(3 -2.87049408e-15 0)
(3 -2.074903623e-15 0)
(3 -1.765175861e-15 0)
(3 -1.406256687e-15 0)
(3 3.905849672e-16 0)
(3 9.907779926e-16 0)
(3 9.655633935e-16 0)
(3 1.587469363e-15 0)
(3 7.850891793e-16 0)
(3 -2.608073038e-16 0)
(3 -3.158932305e-16 0)
(3 6.16713351e-17 0)
(3 1.367247057e-15 0)
(3 2.151349098e-16 0)
(3 2.378034677e-16 0)
(3 6.204906802e-16 0)
(3 -2.82429712e-16 0)
(3 -1.451426616e-15 0)
(3 -2.718788937e-15 0)
(3 -3.277954423e-15 0)
(3 -2.641524879e-15 0)
(3 -1.568956693e-15 0)
(3 -1.764696632e-15 0)
(3 -1.25126307e-15 0)
(3 1.213800501e-15 0)
(3 4.455629727e-15 0)
(3 8.021876825e-15 0)
(3 8.00459048e-15 0)
(3 7.792942846e-15 0)
(3 5.339543295e-15 0)
(3 1.314468529e-15 0)
(3 -2.13918923e-15 0)
(3 -2.076394972e-15 0)
(3 -2.459756365e-15 0)
(3 -4.254485643e-15 0)
(3 -5.097643907e-15 0)
(3 -4.983717425e-15 0)
(3 -4.228962499e-15 0)
(3 -3.831086928e-15 0)
(3 -2.022997713e-15 0)
(3 1.319641379e-16 0)
(3 1.026482533e-15 0)
(3 9.94594381e-16 0)
(3 -1.986196773e-16 0)
(3 -8.57167923e-16 0)
(3 -5.938533058e-17 0)
(3 1.654760826e-15 0)
(3 4.491502828e-15 0)
(3 3.927228173e-15 0)
(3 2.352969464e-15 0)
(3 7.181734433e-17 0)
(3 -1.060022734e-15 0)
(3 -1.389457823e-15 0)
(3 -1.055112132e-15 0)
(3 3.337098832e-17 0)
(3 -5.631560509e-17 0)
(3 -4.703641327e-16 0)
(3 -2.220518046e-16 0)
(3 -1.362146787e-15 0)
(3 -8.320605514e-16 0)
(3 -6.10973092e-16 0)
(3 -1.047134651e-15 0)
(3 -2.458166611e-15 0)
(3 -2.403506581e-15 0)
(3 -1.478964574e-15 0)
(3 -9.662598091e-16 0)
(3 -4.32132006e-16 0)
(3 6.750070759e-16 0)
(3 1.293131105e-15 0)
(3 1.828861041e-15 0)
(3 1.044116526e-15 0)
(3 8.984743592e-16 0)
(3 1.028238212e-15 0)
(3 1.745128755e-16 0)
(3 7.92940077e-16 0)
(3 2.976909829e-16 0)
(3 -2.457313649e-16 0)
(3 -2.007426104e-15 0)
(3 -2.418231605e-15 0)
(3 -1.605423991e-15 0)
(3 -5.354853153e-17 0)
(3 1.978952793e-15 0)
(3 1.069174884e-15 0)
(3 -4.736849296e-16 0)
(3 -1.900928105e-15 0)
(3 -2.164277312e-15 0)
(3 -1.660526596e-15 0)
(3 -1.511194665e-15 0)
(3 -1.030473048e-15 0)
(3 -4.214069661e-16 0)
(3 -2.936634113e-16 0)
(3 5.554885972e-16 0)
(3 2.490642562e-15 0)
(3 5.385006912e-15 0)
(3 6.057804553e-15 0)
(3 4.390948633e-15 0)
(3 1.750010026e-15 0)
(3 5.284342749e-16 0)
(3 -1.236278368e-15 0)
(3 -2.961683521e-15 0)
(3 -2.277089637e-15 0)
(3 -9.498644576e-16 0)
(3 -7.974595985e-16 0)
(3 -1.423816855e-15 0)
(3 -7.598819683e-16 0)
(3 8.633213961e-16 0)
(3 1.630931388e-15 0)
(3 3.162478824e-15 0)
(3 3.303212516e-15 0)
(3 2.847231745e-15 0)
(3 8.894406621e-16 0)
(3 1.391581959e-15 0)
(3 2.517283948e-15 0)
(3 3.234972245e-15 0)
(3 3.016789956e-15 0)
(3 1.156363057e-15 0)
(3 -2.289519769e-15 0)
(3 -4.833711464e-15 0)
(3 -4.405978722e-15 0)
(3 -3.32296836e-15 0)
(3 8.800036945e-17 0)
(3 -3.430362362e-16 0)
(3 -9.750101139e-16 0)
(3 -6.48434885e-16 0)
(3 -6.223748568e-16 0)
(3 5.449561544e-16 0)
(3 3.639705932e-16 0)
(3 1.30973884e-16 0)
(3 3.854728986e-17 0)
(3 1.933457513e-16 0)
(3 3.996954527e-16 0)
(3 3.639620751e-16 0)
(3 1.159915872e-15 0)
(3 1.728951063e-15 0)
(3 1.704386592e-15 0)
(3 1.567468661e-15 0)
(3 -9.726895977e-16 0)
(3 -1.11320506e-15 0)
(3 -1.167047065e-15 0)
(3 -1.928980849e-15 0)
(3 -1.492037262e-15 0)
(3 -1.884459151e-15 0)
(3 -2.207347992e-15 0)
(3 -3.353000705e-15 0)
(3 -5.366920021e-15 0)
(3 -3.746646242e-15 0)
(3 -2.57032245e-15 0)
(3 -1.886611321e-15 0)
(3 -4.845951442e-16 0)
(3 -1.595315954e-16 0)
(3 -5.474384422e-16 0)
(3 -1.395524246e-15 0)
(3 -2.320809236e-15 0)
(3 -1.972842836e-15 0)
(3 1.306046488e-15 0)
(3 3.051952587e-15 0)
(3 2.288302016e-15 0)
(3 7.126974675e-16 0)
(3 6.778483423e-16 0)
(3 1.859313063e-15 0)
(3 1.261253616e-15 0)
(3 3.047630819e-15 0)
(3 2.210500265e-15 0)
(3 4.403237078e-16 0)
(3 -5.876338322e-16 0)
(3 -7.488553862e-16 0)
(3 -4.748497336e-16 0)
(3 2.042974632e-16 0)
(3 1.223385223e-15 0)
(3 1.542590497e-15 0)
(3 3.678276355e-15 0)
(3 2.193316567e-15 0)
(3 2.042850858e-15 0)
(3 2.61853532e-15 0)
(3 3.005039833e-15 0)
(3 3.533658635e-15 0)
(3 3.749229635e-15 0)
(3 2.44146471e-15 0)
(3 1.404248844e-15 0)
(3 1.614447734e-15 0)
(3 2.306153198e-15 0)
(3 1.74367774e-15 0)
(3 -7.596675481e-16 0)
(3 -3.762831474e-15 0)
(3 -3.846940469e-15 0)
(3 -4.480315943e-15 0)
(3 3.688697026e-16 0)
(3 3.564387252e-16 0)
(3 1.248429661e-15 0)
(3 1.231628349e-15 0)
(3 1.481862698e-15 0)
(3 8.584406627e-16 0)
(3 5.967470089e-16 0)
(3 2.152634526e-17 0)
(3 1.99974126e-15 0)
(3 3.011217331e-15 0)
(3 2.397732103e-15 0)
(3 1.545182694e-15 0)
(3 4.387639226e-16 0)
(3 -1.497444266e-16 0)
(3 -7.485720722e-17 0)
(3 -1.254269137e-15 0)
(3 -1.113627705e-15 0)
(3 -5.274806634e-16 0)
(3 -8.276449028e-16 0)
(3 -1.330803055e-15 0)
(3 -2.236667099e-15 0)
(3 -2.630865736e-15 0)
(3 -2.901953974e-15 0)
(3 -3.41213436e-15 0)
(3 -2.187200186e-15 0)
(3 -8.812258603e-16 0)
(3 -3.502781086e-16 0)
(3 -3.683286414e-16 0)
(3 -7.316485897e-16 0)
(3 -3.628666093e-16 0)
(3 -6.140988406e-17 0)
(3 -3.254413451e-16 0)
(3 -1.303112142e-15 0)
(3 -1.308428093e-15 0)
(3 4.052839634e-16 0)
(3 1.335116736e-15 0)
(3 1.02151689e-15 0)
(3 5.493851193e-16 0)
(3 -9.601289304e-16 0)
(3 -2.276843982e-15 0)
(3 -2.908414703e-15 0)
(3 -1.739613879e-15 0)
(3 -1.331092967e-15 0)
(3 -1.610575212e-15 0)
(3 -1.74597438e-15 0)
(3 -1.442468215e-15 0)
(3 -1.501509623e-15 0)
(3 -1.941759634e-15 0)
(3 -1.718762093e-15 0)
(3 -4.766304267e-16 0)
(3 -2.43020215e-16 0)
(3 -9.541347549e-16 0)
(3 8.748813273e-16 0)
(3 1.280028006e-15 0)
(3 3.118491543e-15 0)
(3 4.968274569e-15 0)
(3 6.35629053e-15 0)
(3 4.847571471e-15 0)
(3 2.641098475e-15 0)
(3 2.091235619e-15 0)
(3 2.439271599e-15 0)
(3 2.736115946e-15 0)
(3 -3.476566866e-16 0)
(3 -2.746764228e-15 0)
(3 -3.227173847e-15 0)
(3 -4.067941261e-15 0)
(3 -3.51822881e-16 0)
(3 1.681927263e-16 0)
(3 1.263935382e-15 0)
(3 5.889879918e-16 0)
(3 9.034023298e-16 0)
(3 8.258162624e-16 0)
(3 1.09534722e-15 0)
(3 2.350901757e-15 0)
(3 1.980545664e-15 0)
(3 1.641542134e-15 0)
(3 -1.978881305e-16 0)
(3 -5.480074322e-16 0)
(3 -5.896855416e-16 0)
(3 -5.875272819e-16 0)
(3 2.029332598e-16 0)
(3 2.309344126e-16 0)
(3 6.000990242e-16 0)
(3 -3.152162168e-16 0)
(3 -4.374532421e-16 0)
(3 4.12908775e-16 0)
(3 4.10572914e-18 0)
(3 -2.426129256e-16 0)
(3 -1.409258384e-15 0)
(3 -2.119019352e-15 0)
(3 -1.708754063e-15 0)
(3 -1.478065931e-15 0)
(3 -2.137689715e-15 0)
(3 2.360828176e-16 0)
(3 1.204901832e-15 0)
(3 1.682935041e-15 0)
(3 8.282140183e-16 0)
(3 1.214657862e-15 0)
(3 1.877299463e-15 0)
(3 1.405431943e-15 0)
(3 6.973412593e-16 0)
(3 6.215745568e-16 0)
(3 1.44171441e-15 0)
(3 1.793360769e-15 0)
(3 9.20436703e-16 0)
(3 -7.571542888e-16 0)
(3 -7.635586621e-16 0)
(3 -2.237952629e-15 0)
(3 -2.20214226e-15 0)
(3 -1.863575344e-15 0)
(3 -8.269975887e-16 0)
(3 2.794711331e-16 0)
(3 1.609512108e-16 0)
(3 -1.569059894e-15 0)
(3 -1.205334774e-15 0)
(3 -1.232164582e-15 0)
(3 -2.295219491e-15 0)
(3 1.130841834e-16 0)
(3 2.017104145e-15 0)
(3 4.914824387e-15 0)
(3 6.411233813e-15 0)
(3 7.627628098e-15 0)
(3 7.476139778e-15 0)
(3 6.683775187e-15 0)
(3 5.431602818e-15 0)
(3 1.505195652e-15 0)
(3 -2.07318611e-15 0)
(3 -2.605014392e-15 0)
(3 -3.143938755e-15 0)
(3 -2.926251785e-15 0)
(3 -2.352065161e-15 0)
(3 -2.167290157e-15 0)
(3 -1.79177365e-16 0)
(3 -2.588039815e-16 0)
(3 -4.090403432e-16 0)
(3 -4.200473216e-16 0)
(3 -4.684800649e-16 0)
(3 -3.63607755e-16 0)
(3 -6.741894245e-16 0)
(3 -3.923770073e-16 0)
(3 -9.422032154e-16 0)
(3 -1.170814863e-15 0)
(3 -1.313240013e-15 0)
(3 -2.080605334e-15 0)
(3 -1.46085321e-15 0)
(3 1.531867451e-16 0)
(3 -1.903711517e-18 0)
(3 2.034550637e-18 0)
(3 -1.81353205e-16 0)
(3 -6.760391644e-17 0)
(3 2.400979046e-16 0)
(3 7.957754946e-16 0)
(3 5.947121908e-16 0)
(3 5.839852341e-16 0)
(3 5.32631115e-16 0)
(3 2.933588175e-17 0)
(3 -1.969002256e-15 0)
(3 -3.120939823e-15 0)
(3 -3.025631243e-15 0)
(3 -1.193466558e-15 0)
(3 4.764249023e-16 0)
(3 1.78682239e-15 0)
(3 1.520955668e-16 0)
(3 1.145214251e-15 0)
(3 2.732447243e-15 0)
(3 2.678041176e-15 0)
(3 1.215146207e-15 0)
(3 2.097490404e-16 0)
(3 -9.75004492e-16 0)
(3 -1.838017864e-15 0)
(3 -2.498539699e-15 0)
(3 -3.294232389e-15 0)
(3 -2.959589118e-15 0)
(3 -2.562688167e-15 0)
(3 -1.521907991e-15 0)
(3 -1.151661992e-15 0)
(3 -1.93064077e-15 0)
(3 6.037857146e-16 0)
(3 1.657868243e-16 0)
(3 5.988131358e-16 0)
(3 9.616699665e-16 0)
(3 -1.538938623e-15 0)
(3 -2.304763261e-15 0)
(3 -2.377620281e-16 0)
(3 1.494588469e-15 0)
(3 3.976677797e-15 0)
(3 3.104593702e-15 0)
(3 3.558727984e-15 0)
(3 4.841680651e-15 0)
(3 5.169203446e-15 0)
(3 2.811865233e-15 0)
(3 1.766750516e-16 0)
(3 -2.001605135e-15 0)
(3 -2.87403543e-15 0)
(3 -2.240206378e-15 0)
(3 -1.119175291e-15 0)
(3 -8.915682359e-16 0)
(3 -5.934890474e-16 0)
(3 1.067756163e-15 0)
(3 -2.861082564e-16 0)
(3 -5.743382429e-16 0)
(3 -2.661522556e-16 0)
(3 -4.515905483e-16 0)
(3 1.683270526e-16 0)
(3 -4.610357376e-16 0)
(3 -1.355724952e-15 0)
(3 -2.308089547e-15 0)
(3 -2.446442725e-15 0)
(3 -2.149164029e-15 0)
(3 -1.68372046e-15 0)
(3 -1.291064925e-15 0)
(3 -1.342362464e-15 0)
(3 -1.791340902e-15 0)
(3 -2.027730158e-15 0)
(3 -1.280706335e-15 0)
(3 -3.902036826e-16 0)
(3 2.316291095e-16 0)
(3 4.062857895e-16 0)
(3 6.111979667e-16 0)
(3 -1.250235436e-15 0)
(3 -7.472042038e-16 0)
(3 -2.25297348e-16 0)
(3 -7.000794249e-16 0)
(3 -2.624166592e-15 0)
(3 -5.966644443e-16 0)
(3 -2.034235876e-16 0)
(3 8.771914721e-16 0)
(3 1.54965157e-15 0)
(3 2.228072515e-15 0)
(3 2.5419611e-15 0)
(3 3.305763893e-15 0)
(3 3.654243364e-15 0)
(3 2.137849597e-15 0)
(3 1.639543612e-16 0)
(3 -1.879034996e-16 0)
(3 -1.100846259e-15 0)
(3 -1.371796442e-15 0)
(3 -2.072981103e-15 0)
(3 -2.003917562e-15 0)
(3 -1.009548362e-15 0)
(3 9.144511771e-16 0)
(3 8.343972044e-16 0)
(3 -2.619696701e-16 0)
(3 -7.970870275e-16 0)
(3 3.377577606e-16 0)
(3 1.029391598e-15 0)
(3 4.202421444e-16 0)
(3 -1.024105778e-15 0)
(3 -1.200471232e-15 0)
(3 1.342106756e-15 0)
(3 1.981090427e-15 0)
(3 2.634518654e-15 0)
(3 2.860033417e-15 0)
(3 2.533507013e-15 0)
(3 2.283164142e-15 0)
(3 2.468929205e-15 0)
(3 1.088909817e-15 0)
(3 -1.488719414e-16 0)
(3 -1.023476626e-16 0)
(3 -3.882870091e-16 0)
(3 4.318175754e-17 0)
(3 -1.052337517e-15 0)
(3 -1.665360952e-16 0)
(3 -1.408746397e-16 0)
(3 2.27849011e-17 0)
(3 2.271998256e-16 0)
(3 -2.268833473e-16 0)
(3 -1.331571555e-16 0)
(3 4.769308538e-16 0)
(3 7.367455108e-16 0)
(3 2.020364205e-15 0)
(3 1.479852644e-15 0)
(3 6.051853449e-17 0)
(3 -7.066209839e-16 0)
(3 -1.662914078e-16 0)
(3 -5.046649301e-17 0)
(3 7.95118555e-17 0)
(3 -2.475557425e-16 0)
(3 -1.094442393e-15 0)
(3 -1.170319535e-15 0)
(3 -1.624613402e-15 0)
(3 -2.485259241e-15 0)
(3 -3.626630408e-15 0)
(3 -2.618657295e-15 0)
(3 -4.138807611e-16 0)
(3 7.029221837e-17 0)
(3 -8.858616136e-17 0)
(3 -6.144243945e-16 0)
(3 9.62398593e-16 0)
(3 1.07082392e-15 0)
(3 6.577827926e-16 0)
(3 2.570091551e-16 0)
(3 -8.225878322e-16 0)
(3 -1.387081754e-15 0)
(3 2.314721268e-15 0)
(3 3.986337675e-15 0)
(3 3.289938392e-15 0)
(3 2.186177503e-15 0)
(3 1.713806384e-15 0)
(3 3.440205593e-16 0)
(3 6.375809625e-16 0)
(3 1.236579768e-15 0)
(3 1.722978832e-15 0)
(3 2.036625818e-15 0)
(3 1.927555425e-15 0)
(3 1.750193313e-15 0)
(3 2.073713466e-15 0)
(3 3.059452217e-15 0)
(3 4.171948626e-15 0)
(3 1.477215263e-15 0)
(3 -7.919873727e-16 0)
(3 -6.282560434e-16 0)
(3 -6.40077621e-16 0)
(3 -1.194940221e-16 0)
(3 1.560656149e-15 0)
(3 2.2779794e-15 0)
(3 3.784746736e-16 0)
(3 -1.083343266e-15 0)
(3 6.368126584e-16 0)
(3 1.968023053e-15 0)
(3 1.253476216e-15 0)
(3 1.029045519e-15 0)
(3 9.878157435e-16 0)
(3 2.407751855e-15 0)
(3 1.704009019e-15 0)
(3 6.496949162e-16 0)
(3 1.649999883e-15 0)
(3 1.294527159e-15 0)
(3 9.948594927e-16 0)
(3 2.380966996e-15 0)
(3 -5.766764837e-16 0)
(3 6.703232002e-17 0)
(3 4.058554049e-16 0)
(3 6.353507641e-16 0)
(3 1.010234572e-15 0)
(3 1.639263337e-15 0)
(3 1.92623507e-15 0)
(3 1.12950677e-15 0)
(3 1.149877112e-15 0)
(3 8.960031025e-16 0)
(3 1.148909593e-15 0)
(3 1.334785736e-15 0)
(3 3.240566064e-16 0)
(3 -1.218524909e-15 0)
(3 -2.246678139e-15 0)
(3 -2.594219882e-15 0)
(3 -3.068297072e-15 0)
(3 -5.013474395e-15 0)
(3 -6.435516201e-15 0)
(3 -6.313152386e-15 0)
(3 -3.727641733e-15 0)
(3 7.458925059e-16 0)
(3 1.58365108e-15 0)
(3 1.480166104e-15 0)
(3 3.230180699e-15 0)
(3 4.545684713e-15 0)
(3 2.448890351e-15 0)
(3 3.414937873e-16 0)
(3 -1.466946228e-15 0)
(3 -2.328377979e-15 0)
(3 -8.449309986e-17 0)
(3 1.46209214e-15 0)
(3 4.64371368e-16 0)
(3 3.620819024e-16 0)
(3 8.240690139e-16 0)
(3 9.315732428e-16 0)
(3 6.217118755e-16 0)
(3 1.202227836e-15 0)
(3 1.688678959e-15 0)
(3 1.333178735e-15 0)
(3 8.879183859e-16 0)
(3 6.038320824e-16 0)
(3 6.201138482e-16 0)
(3 2.16852103e-15 0)
(3 3.073916863e-15 0)
(3 3.096707516e-15 0)
(3 2.576308884e-15 0)
(3 2.554610624e-15 0)
(3 3.031442832e-15 0)
(3 2.351064202e-15 0)
(3 2.461220342e-15 0)
(3 2.476480749e-15 0)
(3 1.830287549e-15 0)
(3 4.297484846e-17 0)
(3 2.308296991e-16 0)
(3 4.305314634e-16 0)
(3 4.289167686e-17 0)
(3 4.363414152e-16 0)
(3 1.559497241e-15 0)
(3 3.920166154e-15 0)
(3 4.640330475e-15 0)
(3 5.792750315e-15 0)
(3 5.163215034e-15 0)
(3 5.93115908e-15 0)
(3 6.029766184e-15 0)
(3 5.627935462e-15 0)
(3 1.700487692e-16 0)
(3 -4.177053394e-16 0)
(3 1.196032044e-16 0)
(3 7.512954521e-16 0)
(3 1.220446902e-15 0)
(3 1.648134011e-15 0)
(3 9.679340066e-16 0)
(3 -4.187183534e-17 0)
(3 -2.04199713e-16 0)
(3 -6.377855899e-16 0)
(3 -7.060129615e-16 0)
(3 -9.346004279e-16 0)
(3 -2.086139802e-15 0)
(3 -3.198191863e-15 0)
(3 -4.255689122e-15 0)
(3 -4.832951722e-15 0)
(3 -4.323569585e-15 0)
(3 -3.193610386e-15 0)
(3 -1.804584617e-15 0)
(3 -1.831773555e-15 0)
(3 -3.236215711e-15 0)
(3 -2.707403804e-15 0)
(3 -2.072874723e-15 0)
(3 6.249169126e-16 0)
(3 6.806854352e-16 0)
(3 2.031567632e-15 0)
(3 2.160953192e-15 0)
(3 2.601965853e-15 0)
(3 1.399058623e-15 0)
(3 1.30680386e-15 0)
(3 -2.501465849e-16 0)
(3 -1.361270383e-15 0)
(3 -3.033734786e-15 0)
(3 -2.726152926e-15 0)
(3 -6.896724807e-16 0)
(3 1.016889642e-15 0)
(3 5.812361217e-16 0)
(3 7.745758592e-16 0)
(3 -4.814151848e-17 0)
(3 -5.903431367e-16 0)
(3 1.800652788e-16 0)
(3 2.361912895e-15 0)
(3 3.939181518e-15 0)
(3 4.238836888e-15 0)
(3 3.780187565e-15 0)
(3 3.312418666e-15 0)
(3 3.795950225e-15 0)
(3 2.963032675e-15 0)
(3 3.248205507e-15 0)
(3 3.563609328e-15 0)
(3 2.767360836e-15 0)
(3 2.359999173e-15 0)
(3 3.004718452e-15 0)
(3 2.516963565e-15 0)
(3 7.792934131e-16 0)
(3 -1.594846465e-15 0)
(3 -3.200705044e-15 0)
(3 -2.832907285e-15 0)
(3 -1.999119508e-15 0)
(3 -1.154392134e-15 0)
(3 1.320146077e-15 0)
(3 4.606099955e-15 0)
(3 5.958743159e-15 0)
(3 6.130433616e-15 0)
(3 5.059490585e-15 0)
(3 3.26852951e-15 0)
(3 4.94862675e-16 0)
(3 8.789179495e-17 0)
(3 7.32176593e-16 0)
(3 5.536478293e-16 0)
(3 3.695709006e-16 0)
(3 -9.495886116e-16 0)
(3 -9.77092739e-16 0)
(3 -1.106655084e-15 0)
(3 -1.870900961e-15 0)
(3 -2.417798879e-15 0)
(3 -2.633513945e-15 0)
(3 -2.505596062e-15 0)
(3 -2.719809008e-15 0)
(3 -2.445515908e-15 0)
(3 -1.401527609e-15 0)
(3 -8.610099036e-16 0)
(3 -5.673548565e-16 0)
(3 1.248017091e-16 0)
(3 1.073264528e-15 0)
(3 8.230112577e-16 0)
(3 -7.696519539e-16 0)
(3 -3.350475435e-15 0)
(3 -4.168840879e-15 0)
(3 -2.842474476e-15 0)
(3 -1.354852965e-15 0)
(3 -1.145742869e-15 0)
(3 -5.275694354e-16 0)
(3 -1.207964887e-15 0)
(3 -5.676404245e-16 0)
(3 4.996725415e-16 0)
(3 1.3652512e-15 0)
(3 7.733363116e-16 0)
(3 -9.449722585e-16 0)
(3 -2.173026736e-15 0)
(3 -6.842714605e-16 0)
(3 1.240477214e-16 0)
(3 1.005336817e-16 0)
(3 -2.418996751e-16 0)
(3 -1.384998945e-15 0)
(3 -3.61056238e-16 0)
(3 8.166412769e-16 0)
(3 2.373797582e-15 0)
(3 3.875343151e-15 0)
(3 4.371257387e-15 0)
(3 3.992293971e-15 0)
(3 2.641994309e-15 0)
(3 2.215099796e-15 0)
(3 2.191154326e-15 0)
(3 2.29284652e-15 0)
(3 3.383262347e-15 0)
(3 2.796856461e-15 0)
(3 2.178523832e-15 0)
(3 2.407085156e-15 0)
(3 5.896510468e-16 0)
(3 1.082544905e-16 0)
(3 3.523015766e-16 0)
(3 7.389059568e-16 0)
(3 1.690230153e-15 0)
(3 1.172926016e-15 0)
(3 1.197384086e-15 0)
(3 2.236380828e-15 0)
(3 3.283617363e-15 0)
(3 3.562271641e-15 0)
(3 2.878429713e-15 0)
(3 1.782574033e-15 0)
(3 4.059374033e-16 0)
(3 7.483257281e-17 0)
(3 9.886880495e-16 0)
(3 9.099231121e-16 0)
(3 3.690450793e-16 0)
(3 -4.315264167e-16 0)
(3 -1.324824613e-15 0)
(3 -1.48197855e-15 0)
(3 -1.629738786e-15 0)
(3 -1.01568435e-15 0)
(3 -8.873255502e-16 0)
(3 -1.565619235e-15 0)
(3 -2.0188203e-15 0)
(3 -2.300654538e-15 0)
(3 -1.779382822e-15 0)
(3 -3.437908067e-16 0)
(3 8.338337822e-16 0)
(3 1.760282411e-15 0)
(3 2.871843923e-15 0)
(3 2.992591866e-15 0)
(3 2.035613361e-15 0)
(3 9.282266345e-16 0)
(3 -9.235165401e-16 0)
(3 -2.367089764e-15 0)
(3 -2.21970802e-15 0)
(3 -9.707928331e-16 0)
(3 -1.804224951e-15 0)
(3 -3.120577355e-15 0)
(3 -3.255597914e-15 0)
(3 -1.476169347e-15 0)
(3 -3.775569923e-16 0)
(3 1.906056848e-15 0)
(3 1.886693388e-15 0)
(3 2.07866984e-15 0)
(3 1.626394224e-15 0)
(3 1.914768277e-15 0)
(3 1.202948517e-15 0)
(3 1.949264734e-15 0)
(3 1.525181011e-15 0)
(3 1.386960717e-15 0)
(3 4.733948585e-16 0)
(3 1.218689566e-15 0)
(3 8.980106984e-16 0)
(3 1.361397742e-15 0)
(3 1.476533402e-15 0)
(3 1.227515765e-15 0)
(3 9.897407232e-16 0)
(3 2.264929893e-15 0)
(3 3.103547069e-15 0)
(3 3.00856606e-15 0)
(3 3.055851333e-15 0)
(3 2.576779026e-15 0)
(3 2.64406861e-15 0)
(3 2.058670811e-15 0)
(3 2.616672939e-15 0)
(3 5.493897285e-15 0)