/*--------------------------------*- C++ -*----------------------------------*\
  =========                 |
  \\      /  F ield         | OpenFOAM: The Open Source CFD Toolbox
   \\    /   O peration     | Website:  https://openfoam.org
    \\  /    A nd           | Version:  7
     \\/     M anipulation  |
\*---------------------------------------------------------------------------*/
FoamFile
{
    version     2.0;
    format      ascii;
    class       volScalarField;
    location    "5";
    object      T;
}
// * * * * * * * * * * * * * * * * * * * * * * * * * * * * * * * * * * * * * //

dimensions      [0 0 0 1 0 0 0];

internalField   nonuniform List<scalar> 
2222
(
0.6500130294
0.6511591926
0.6527630348
0.6532409461
0.6550924887
0.6113599815
0.6194593762
0.595192728
0.5753384915
0.565801959
0.5561779112
0.5546117688
0.5660587149
0.5841767001
0.5993488085
0.6121233213
0.6178397193
0.6218048773
0.6250654987
0.6242239867
0.6268786287
0.6282480029
0.6303406659
0.6327969092
0.6348311518
0.6368933275
0.6385987538
0.6408889446
0.6426144864
0.6435953977
0.6455218176
0.6471079034
0.6483599313
0.6495032084
0.6505393533
0.651931907
0.6532368529
0.6538698908
0.6553739436
0.6088146954
0.6190630046
0.5929536146
0.5719058085
0.5644548494
0.5556598095
0.554738434
0.5663278116
0.5847422765
0.6012876052
0.6152396659
0.6228670832
0.6273743224
0.6298389217
0.6303062764
0.6319868062
0.6340139839
0.6337456484
0.6355976802
0.637081043
0.6382244893
0.640047973
0.6418329989
0.6435271679
0.6448228306
0.6464866022
0.6484939185
0.6498006778
0.6508744166
0.6527037447
0.6553268023
0.6550526411
0.6561962406
0.6567285594
0.6088377017
0.6188603732
0.5910452183
0.5706135632
0.5622762332
0.5558051852
0.5552899701
0.5678887851
0.5864607744
0.6025901004
0.6161047098
0.6249611493
0.6295738224
0.6318802387
0.6353009523
0.6369007014
0.6390679897
0.6397242117
0.6411443999
0.642682119
0.6436953575
0.644723199
0.646185305
0.6475697787
0.6491665356
0.650696331
0.6524419684
0.6541092672
0.6552996009
0.6568630739
0.6586002838
0.6590490658
0.6599084565
0.6603131542
0.616329307
0.6216639184
0.5903809158
0.5707551813
0.5622020854
0.5594292498
0.5594776536
0.5732130424
0.5928342055
0.6073389313
0.6164680736
0.6252793176
0.6299426102
0.6324796428
0.6371761726
0.6389359461
0.6408684657
0.6424346338
0.6441394783
0.6459254596
0.6478369531
0.6488824953
0.6503432485
0.651911454
0.6531942056
0.6545926099
0.6559227602
0.6571016572
0.6582385044
0.6591855666
0.6599337093
0.6611226691
0.6617458413
0.6627509115
0.6282646491
0.6236600335
0.5910360379
0.5754637101
0.5629595223
0.5673538648
0.56855746
0.5815064597
0.6009391365
0.614256177
0.6190568795
0.6260625823
0.6305426042
0.6332340857
0.6375883005
0.639676306
0.6412988219
0.6430563304
0.6450819789
0.6471889368
0.6493508229
0.6507332707
0.6521643941
0.6536441181
0.6548641815
0.6561663048
0.6572792351
0.6583431323
0.6593177885
0.6599547467
0.6605290328
0.6619094839
0.6623985655
0.6636356779
0.6646602552
0.6323955895
0.6245613214
0.5974899819
0.5789544731
0.5657593705
0.5699936565
0.5740967127
0.5862414935
0.6047938952
0.6182788027
0.6267138557
0.629441781
0.6336023738
0.6367225212
0.6382323665
0.6405129998
0.6419288792
0.6434689755
0.6454090743
0.6477163854
0.6499216478
0.6511807091
0.6528664342
0.6542954015
0.655392407
0.656627594
0.6577171014
0.6589409991
0.6598157541
0.6602253093
0.6612897602
0.6625869701
0.6629130505
0.6639106909
0.6651088165
0.6330333238
0.6252117503
0.6059002068
0.5792675036
0.5714099905
0.5703143431
0.576370629
0.5883343727
0.6058306603
0.6207915362
0.6324937656
0.6375822546
0.6416317206
0.6442732834
0.6418517432
0.6436892102
0.6452632869
0.6453290616
0.647014505
0.6489945232
0.650803715
0.6519367391
0.6537062864
0.6552242228
0.6561777974
0.6572891761
0.6584584936
0.6598430946
0.6609201214
0.6618259278
0.663526243
0.6638897837
0.6648489719
0.6650374959
0.6658598809
0.6247551902
0.6244163222
0.6084641316
0.5756043125
0.5742207259
0.5687202884
0.5766924346
0.5891985253
0.6063007126
0.6218554678
0.6349439738
0.6424059629
0.6465617291
0.6486892816
0.6495298712
0.6507598105
0.652170196
0.6519482285
0.6523590299
0.6540067447
0.6552619717
0.6554043879
0.6562283224
0.6580888221
0.6596981215
0.6603220551
0.6617982334
0.6633675386
0.6646971466
0.6659922615
0.6677265664
0.667650778
0.6684569528
0.6686445549
0.6691614854
0.6082449108
0.6206762361
0.6080985013
0.5741650562
0.5742757678
0.5689461251
0.5779484067
0.5918525239
0.6089115856
0.6244316056
0.635738414
0.6442776662
0.6484042507
0.6502371584
0.6533633759
0.654566441
0.6557429708
0.6569572966
0.6574544447
0.6586409446
0.6602694408
0.6612338422
0.6618856158
0.6629424615
0.6642362726
0.6651776989
0.666283861
0.6673158767
0.6681813027
0.6687811283
0.6696188928
0.6703931311
0.6708721918
0.6713233785
0.6719173452
0.6025580394
0.6193042956
0.6062269513
0.5750121379
0.5729239449
0.5711886181
0.5835781023
0.6006737876
0.6183360824
0.6334225523
0.6371955181
0.6450948689
0.6493449475
0.6512709172
0.6545960148
0.6559957166
0.6571550852
0.6588269921
0.6595612323
0.6608173745
0.6624179863
0.6638774794
0.6647608994
0.6657447521
0.6665812373
0.6674902161
0.6683229721
0.6689949677
0.66977544
0.6701464189
0.6703027041
0.6713387392
0.671977399
0.6725250187
0.6730891546
0.6021190046
0.6200588258
0.6035264262
0.5888498544
0.5730872454
0.5829209144
0.5955801366
0.6099885576
0.6276251675
0.6410872372
0.6449464437
0.6469110007
0.6514442776
0.6540877787
0.6554952057
0.6572207174
0.6580864498
0.659549652
0.6602402125
0.661938898
0.6635130714
0.6649536032
0.6657136332
0.6666831844
0.6676904791
0.6685570113
0.6692412614
0.6696779015
0.670423583
0.6709278374
0.6713392806
0.67196572
0.6724416815
0.6732953422
0.6740081754
0.6039707344
0.6333073447
0.6047557164
0.6012446307
0.5746452624
0.58903106
0.6037535385
0.6153811392
0.6320711524
0.6448460921
0.6541627724
0.6556800135
0.6584617219
0.6622827235
0.6585471816
0.6596066931
0.6616173471
0.6614998468
0.6613943722
0.662977199
0.6652804435
0.6660472641
0.6666835022
0.6675331183
0.668557267
0.6694299666
0.6702597485
0.6709750109
0.6716855161
0.6722957493
0.6735867852
0.6738849202
0.674300468
0.6743105153
0.6748990701
0.6181152562
0.6454239979
0.6133170949
0.6036235564
0.5787854925
0.5898684046
0.6070446765
0.6185698584
0.6344830818
0.6468046884
0.6580761417
0.6633123383
0.6656939274
0.6679223231
0.6670007376
0.6664512003
0.6676886276
0.6678595668
0.667239086
0.6678847742
0.668634551
0.6695361911
0.6698611295
0.6708068458
0.6721010304
0.672496626
0.6731850047
0.6742335591
0.6754458453
0.6763818669
0.6770455365
0.6770603296
0.6778627755
0.678044877
0.6779728847
0.6785687094
0.6333872319
0.6485612395
0.6334631816
0.6032165151
0.5879980786
0.5890046473
0.6089756878
0.6226405479
0.6384131858
0.6512810864
0.6602826054
0.6666135281
0.6689180336
0.6703553224
0.6717070691
0.6716388433
0.6719956952
0.672942807
0.6723099319
0.6731915197
0.6741666628
0.6746859908
0.6742840718
0.6750909297
0.6763124908
0.6770132843
0.6775470231
0.677917613
0.6783997096
0.678980958
0.6792457589
0.6797959262
0.6799595135
0.6803567128
0.6806695626
0.6809395514
0.6388832075
0.6468470854
0.6466730468
0.6012213579
0.593710511
0.5902885908
0.6133803028
0.6328793209
0.6492392797
0.6605871468
0.663430589
0.6685323022
0.6709852307
0.6723052016
0.6736795261
0.6737052052
0.6743747496
0.6755830851
0.6749496482
0.6754055777
0.6765877772
0.6774042999
0.6777395783
0.678264504
0.6786372371
0.6792461163
0.6795264136
0.6799289409
0.6803204118
0.6803696017
0.6801360609
0.6808971134
0.6812566436
0.6815715268
0.6817315514
0.6822165485
0.6391499827
0.6402418454
0.6568628189
0.6016718753
0.5951515267
0.6029512421
0.6279476512
0.6465081643
0.660635919
0.6698549376
0.6732484535
0.6725080115
0.6743602622
0.6773352511
0.6757247814
0.6752887206
0.6759696416
0.6770367673
0.6768564842
0.6771958216
0.6780429774
0.678728558
0.6790364563
0.6795903276
0.6801348146
0.6806834246
0.6806388483
0.6807118136
0.6811479573
0.6819581839
0.6813944759
0.6816382403
0.6823032731
0.6828200392
0.6827878275
0.6828202239
0.6266161437
0.6406612899
0.6655109398
0.6207459733
0.595109828
0.617737654
0.6403992384
0.6551349219
0.6672877238
0.6751225788
0.6816936427
0.6823378741
0.6823379943
0.684203118
0.6811433718
0.6794888254
0.6809833454
0.6812202078
0.6793373434
0.6796648702
0.6809616982
0.6813662165
0.6811059105
0.6813864256
0.6821949674
0.6825059757
0.6826340323
0.683280412
0.6837179938
0.6839982548
0.6846579091
0.6846736022
0.6848607914
0.6849208583
0.6851519724
0.685526629
0.6210338221
0.6439686512
0.6663885903
0.6454426693
0.610009174
0.6253546835
0.6475698971
0.6612354129
0.6720470708
0.6794140516
0.685693038
0.6883454971
0.6881813765
0.6881109478
0.6876216912
0.6852070453
0.6859686435
0.6866508338
0.6850464684
0.6847450048
0.68559809
0.6858058471
0.6851533851
0.6856670663
0.6863491371
0.6864787731
0.6861587206
0.6864792195
0.6870798946
0.6874481482
0.6870327841
0.6872485776
0.6876559676
0.6877923078
0.6874792174
0.6876105357
0.6242247376
0.6846720784
0.6873333354
0.6547117531
0.6183809463
0.6348443434
0.6567963488
0.6718008061
0.6827009344
0.6890495784
0.6915593391
0.6919127297
0.6912775497
0.6913084416
0.6907550102
0.6890418308
0.6890964764
0.6897321378
0.6882439853
0.6881570713
0.6888499153
0.6888378545
0.6880491145
0.6883314239
0.6887482394
0.6889615768
0.6886138533
0.6887282826
0.6889467092
0.6890304613
0.6889018925
0.6888899607
0.688942243
0.689157941
0.6892086044
0.6890462791
0.6696337851
0.7377564262
0.7316893423
0.6645173255
0.6221183357
0.6480642341
0.6688522178
0.6825221551
0.6916277164
0.6963227799
0.6990758756
0.6981724496
0.6969861047
0.6967418827
0.6950452568
0.6921166357
0.6926637091
0.6930090561
0.6913040112
0.6905627174
0.6912419072
0.6913036714
0.6903699775
0.6902991957
0.6908141711
0.6909120748
0.6904646293
0.6904699656
0.6908443321
0.6909215078
0.6906069041
0.6904393382
0.6907256167
0.6907872529
0.6905935186
0.6904183778
0.7726718315
0.7824777388
0.7560930764
0.6629354431
0.6221244898
0.6548908406
0.6731319485
0.6867305293
0.6964733051
0.7004712074
0.7026565162
0.7013232134
0.6995716654
0.6990646487
0.6972822364
0.6941066491
0.6942420524
0.694596299
0.6930473046
0.6919536839
0.6925259139
0.6926051931
0.6916033115
0.6912925446
0.6917739529
0.6919978299
0.6915559771
0.691350923
0.6916553566
0.6918224969
0.6916019948
0.6912277266
0.6914238469
0.6915523104
0.6914615474
0.6910904399
1.054371237
0.9168436951
0.750965151
0.6536280996
0.6760109491
0.705436071
0.7061520074
0.7099703151
0.7151058126
0.7155981511
0.7149553034
0.7118057865
0.7083791805
0.7071798207
0.7053454868
0.7015174673
0.7009684038
0.7012671148
0.7001567986
0.6983578405
0.6983429889
0.6984313329
0.6976974665
0.6966989733
0.6967120551
0.6968840847
0.6966171812
0.6960247825
0.6959626568
0.6960493401
0.6959355435
0.6954363581
0.6952608738
0.6952949025
0.6952728836
0.6949193928
0.6947450173
1.110726433
1.047096396
0.9588565985
0.8914834032
0.8478505517
0.8145456621
0.7855244878
0.7716777826
0.765983596
0.7583856354
0.7508177173
0.7443801
0.7368166258
0.7323525111
0.7301743379
0.7259451149
0.7214260882
0.720839017
0.72033608
0.7176967603
0.7151022485
0.7146837715
0.7143633615
0.7124979317
0.7106086475
0.7105126498
0.7105115233
0.7094497496
0.7080494885
0.7077870863
0.7078547158
0.7072612735
0.7061718763
0.7056871768
0.7057082327
0.7054055503
0.7046350438
1.120087397
1.101490063
1.053917179
0.9899849402
0.9269007129
0.8798726502
0.8551918321
0.8327447863
0.8152111368
0.8020341925
0.7898575711
0.7824391683
0.7736323171
0.7628187249
0.7600659026
0.7571133137
0.7478610739
0.7446135503
0.7449200362
0.7420543291
0.7352877659
0.7347097026
0.7349632081
0.7323763673
0.7274398527
0.7272804201
0.7276639732
0.726167175
0.7225998411
0.7221167256
0.7224614143
0.7217664868
0.7192144595
0.7180704696
0.7183481563
0.7181346139
0.7165262523
1.121221567
1.116903175
1.096787118
1.057070988
1.007966284
0.9610836924
0.9248885832
0.891056519
0.8598756895
0.8388770756
0.8230717912
0.8112732865
0.8024396662
0.7911914774
0.7844357234
0.781436936
0.774429397
0.7655403665
0.7640144967
0.7623573764
0.7565736563
0.7511763052
0.750471813
0.7493269061
0.7451941146
0.7415590379
0.7410661209
0.7405305659
0.7378186689
0.7346375869
0.7337939206
0.7335924414
0.7321996725
0.7297697602
0.7285926993
0.7283795478
0.7276659385
1.121190477
1.120433269
1.114099862
1.093975203
1.059220735
1.01637692
0.9724552924
0.9350567707
0.9043860699
0.8805913094
0.8632497392
0.8473146827
0.8345787886
0.8233602021
0.812401621
0.8070395792
0.8015783711
0.7898735837
0.7838179496
0.7832632133
0.7796851894
0.7698624497
0.7665209176
0.7667335477
0.7642417067
0.7571382642
0.7551049514
0.7554702312
0.7537703416
0.7483439216
0.7461239167
0.7464587796
0.7457081373
0.7421889577
0.7394502798
0.739611771
0.7393976154
1.121155586
1.121059916
1.11948197
1.11159805
1.091754739
1.060482303
1.023033519
0.9871973847
0.9571606489
0.9289968857
0.9037847396
0.882894372
0.8658579606
0.8516210162
0.8376836031
0.8288326974
0.8234112083
0.8140617083
0.8031336269
0.8004850385
0.7978376535
0.7901276188
0.7821705037
0.7811826202
0.7798058271
0.7743632637
0.7688048763
0.7680782178
0.7671817305
0.7632020732
0.7585249121
0.7574401694
0.7570756989
0.7548941703
0.7511144974
0.7494317194
0.7491521208
1.121086061
1.12111496
1.120790536
1.118321634
1.109340479
1.090052621
1.061458317
1.028008304
0.9953198054
0.9650148933
0.9370489301
0.9145491013
0.8975326593
0.88265175
0.8670504769
0.8535086898
0.8467064771
0.8396639773
0.8265827354
0.8182607801
0.8163397827
0.8116998381
0.800595685
0.7956888451
0.7954661172
0.7926194356
0.78429363
0.7804180672
0.7805705069
0.7787277686
0.7721966833
0.7683645291
0.7686801143
0.7678417867
0.7635493447
0.7594268386
0.759448934
1.121015315
1.121056946
1.121033741
1.120413514
1.117127036
1.107349454
1.088626958
1.062204555
1.032202353
1.003638702
0.9769725369
0.9526778196
0.9322698915
0.9140550624
0.8959765411
0.8790583333
0.8685451974
0.861000515
0.8492655151
0.8359263774
0.8322430803
0.8291197774
0.8206748896
0.8108977911
0.8090265867
0.807236397
0.8011577526
0.7935265315
0.792077988
0.7910786875
0.7867653993
0.7805792347
0.7789612516
0.7785146238
0.775895761
0.7709578265
0.7687201386
1.120923004
1.120978594
1.120979396
1.120904119
1.119956511
1.115913963
1.105581482
1.087415561
1.062733843
1.035677486
1.008910818
0.9824566739
0.9591484061
0.9402068866
0.9227226299
0.9050150203
0.8910075352
0.8827309023
0.8738109864
0.8587424106
0.8485925098
0.8460473835
0.8411797615
0.829813332
0.822610783
0.8214225006
0.8182416778
0.8096661467
0.8035291411
0.8030410562
0.8011839106
0.7947624319
0.7890198099
0.7889475498
0.7882078645
0.7839547883
0.778158411
1.120855328
1.120901149
1.120922006
1.120886114
1.12066548
1.119332289
1.114644059
1.103963329
1.086267785
1.0631975
1.038610261
1.013564384
0.9894110614
0.9701507973
0.9531717024
0.9342763385
0.9159501639
0.904107589
0.8949041057
0.8815987202
0.8666797642
0.8613475636
0.8575794976
0.8486860369
0.8371516497
0.8340213077
0.8320550286
0.8261014136
0.8170488421
0.8140231844
0.8127957936
0.8087007241
0.8014114479
0.798536261
0.7981227362
0.7957795932
0.7901838247
1.120749284
1.12079566
1.120838622
1.120833747
1.120765224
1.120393264
1.118661852
1.113394855
1.102456878
1.085136667
1.063629421
1.040910128
1.01661464
0.9940324086
0.9761611891
0.9585135061
0.939008425
0.9236827858
0.9142081118
0.9040341606
0.8886638096
0.8772295452
0.8735735252
0.8681047275
0.8559315982
0.8466082751
0.8450525348
0.8420065435
0.8336192842
0.8253397959
0.8238812065
0.82200328
0.8161728565
0.8088337375
0.8076485016
0.8068344385
0.8031983663
1.120589838
1.120694483
1.120773164
1.120762907
1.120734382
1.120654186
1.120143465
1.117992712
1.112174584
1.100954507
1.08399144
1.064060955
1.042648789
1.019350106
0.9998980286
0.9843435948
0.9662379117
0.9473053636
0.9350148403
0.9252227267
0.9113994551
0.89547411
0.8882481405
0.8836952832
0.8745845223
0.8616410493
0.8568690661
0.8547162387
0.8489120978
0.838932193
0.834418489
0.8331516809
0.8294829033
0.8218264321
0.8171433715
0.816384886
0.8142938169
1.120541531
1.120625381
1.120674506
1.120655572
1.120673613
1.120721369
1.120627711
1.119906385
1.117260383
1.110909916
1.099434442
1.083057984
1.064635681
1.043881746
1.0220263
1.004896013
0.9885374334
0.9685167554
0.9519008252
0.9422948095
0.9319997385
0.916417608
0.9030159116
0.8979533626
0.8923891291
0.8810198469
0.8696266144
0.8666919344
0.8634535482
0.8553827906
0.8456841484
0.8435023375
0.8417506722
0.8364058645
0.8280227224
0.8254678973
0.8245346039
1.120441552
1.120455968
1.120487908
1.120538286
1.120667288
1.120770567
1.120741208
1.120488049
1.119432858
1.116316735
1.109612204
1.098074943
1.082556085
1.065168645
1.044672841
1.024764727
1.009609802
0.992795012
0.9731645734
0.9607790167
0.9519440897
0.9386677618
0.9216554802
0.9125216464
0.9075129685
0.8987823169
0.8851097378
0.8780599077
0.875580014
0.8702338743
0.8598808223
0.8534096223
0.8519217556
0.8486688395
0.8412449983
0.8349668443
0.8336316047
1.120155286
1.120196692
1.120312413
1.12057424
1.120748551
1.120815051
1.120781301
1.120685072
1.120239237
1.118903929
1.115458284
1.108480833
1.096925725
1.082204731
1.065232619
1.045050638
1.027609102
1.013120747
0.9946817212
0.9765202897
0.9663643911
0.9565044655
0.9412760241
0.9267198319
0.9206939073
0.9149205345
0.9037596502
0.8907609184
0.8868278228
0.8838008685
0.876417637
0.8653112273
0.8614433926
0.8597109663
0.8551480612
0.846634757
0.8422584102
1.120022776
1.120199593
1.120476984
1.120671593
1.120744494
1.120767222
1.120733742
1.120557004
1.120357091
1.119898215
1.118436605
1.114710136
1.107364639
1.095783238
1.08168794
1.064792917
1.04560194
1.030442502
1.01592611
0.9966997769
0.982038603
0.9738823994
0.9624833117
0.9454781966
0.9346552792
0.9293849313
0.921097211
0.9071687618
0.8980532775
0.8951236981
0.8901465755
0.8798839269
0.8714009092
0.8693980971
0.8665654742
0.8596816365
0.8518356732
1.120704202
1.120621359
1.120584206
1.120601008
1.12066527
1.120617321
1.120421491
1.120242587
1.120241068
1.120200588
1.119744001
1.118031052
1.113888681
1.106106945
1.09463781
1.081037178
1.064158774
1.046621813
1.033091587
1.017472684
0.9984981736
0.9869643203
0.9781884222
0.9641935184
0.9481056848
0.94086379
0.9353255227
0.9251290424
0.911331759
0.9054956997
0.9022712035
0.8955500173
0.8841037092
0.8785377643
0.876747452
0.8726948844
0.8641318501
1.121498958
1.120965896
1.120564251
1.120521474
1.120462343
1.120179374
1.11988579
1.119953057
1.120123123
1.120318223
1.120218645
1.119550465
1.117464705
1.112912476
1.104814673
1.093663183
1.080331618
1.063635999
1.048067346
1.035186528
1.01840017
1.001305096
0.9924102917
0.9829786056
0.9669434193
0.9540605812
0.9486684579
0.9414456301
0.9282072949
0.9169310809
0.9130992402
0.9085197791
0.8989218796
0.8886937274
0.8857145818
0.8831592416
0.8769477659
1.119797936
1.120285724
1.120966147
1.120801872
1.120178798
1.119476254
1.119524814
1.119790742
1.120270972
1.120489192
1.120451307
1.120186396
1.119235169
1.116815225
1.111914502
1.103640116
1.092857539
1.079549472
1.063385341
1.049659604
1.036571855
1.018875392
1.004757052
0.9965985139
0.9847919297
0.9680121774
0.9587928213
0.9536132274
0.944617119
0.9306254798
0.9227623558
0.9194268499
0.9135368043
0.9023743506
0.8945002681
0.8923269269
0.8888363032
1.116201078
1.120688614
1.122066146
1.121289592
1.119469868
1.119147926
1.119453795
1.120093301
1.120501639
1.120642979
1.120643785
1.120540812
1.120117356
1.118921657
1.116203537
1.1109595
1.102634522
1.092134348
1.078693541
1.063511635
1.051076163
1.0372091
1.01969977
1.008530318
1.000402076
0.9866439442
0.9714472513
0.9653848705
0.9595511799
0.9477885809
0.9346792498
0.9296748958
0.9255894639
0.9170456762
0.905597996
0.900948743
0.8985337796
1.11374479
1.121783497
1.121519567
1.119632018
1.118859411
1.119436245
1.120246643
1.120413682
1.120531739
1.120646816
1.120666563
1.120655116
1.120490964
1.119945415
1.118569316
1.115609225
1.1100831
1.101816284
1.09140013
1.077847541
1.063939298
1.052165915
1.037293189
1.021205552
1.012226033
1.00285193
0.9871761322
0.9749874402
0.9698837863
0.9624041006
0.9490541721
0.9388908848
0.9352255816
0.9300806216
0.9198080125
0.9100272192
0.907115888
1.088833159
1.116087371
1.116141573
1.117134764
1.11942771
1.121240857
1.121094296
1.120487397
1.120350079
1.12049892
1.120624241
1.120655922
1.120665258
1.120512856
1.119842385
1.118253499
1.115020264
1.109256942
1.101065309
1.090544787
1.077128036
1.064585627
1.052864593
1.037274823
1.023483104
1.015493547
1.004633688
0.9885027787
0.9799907042
0.9752111344
0.9657636784
0.9517409569
0.9449294127
0.941254318
0.9340046935
0.9222427534
0.9155750194
1.048659411
1.096132024
1.109103541
1.118126773
1.121587457
1.121502131
1.120563322
1.120360785
1.120453722
1.120619141
1.12059445
1.120594396
1.120634319
1.12061369
1.120460116
1.11969406
1.117918063
1.114427672
1.10847001
1.10031002
1.089614521
1.076707606
1.065302271
1.053154997
1.037472295
1.0261562
1.018136321
1.005226817
0.9905290631
0.984359715
0.9783585928
0.9665692847
0.9541815458
0.9497643589
0.9454392651
0.9364917404
0.9252855087
1.013162306
1.050948983
1.086989531
1.115255617
1.120797763
1.119350571
1.11979748
1.120645714
1.121065176
1.120958224
1.120699474
1.120705797
1.120732778
1.120705498
1.120558917
1.120247574
1.119432975
1.117556229
1.113830921
1.10773298
1.09956107
1.088729142
1.076618755
1.065884083
1.053010295
1.038151022
1.028785034
1.020015137
1.005622285
0.9936982785
0.9888157637
0.9816218358
0.9681492648
0.9589299068
0.9555127662
0.9497690679
0.9386371757
1.001504747
1.014463293
1.051882848
1.095216726
1.109405577
1.114959236
1.120783699
1.121745852
1.121561266
1.1211664
1.120964839
1.120961006
1.120927539
1.120870097
1.120773621
1.120589615
1.12017243
1.119259616
1.117236583
1.113277986
1.107083538
1.098816504
1.087944309
1.076711683
1.066145702
1.052600855
1.039337819
1.031129085
1.021076089
1.006194009
0.9972959151
0.9922673832
0.9828709545
0.9692674254
0.9630282543
0.9593774613
0.9520254715
1.000072242
1.002162038
1.018619756
1.053250326
1.086188842
1.111781403
1.120390952
1.119916931
1.119897625
1.120813289
1.121248132
1.121143827
1.121024442
1.120968495
1.120943192
1.120834608
1.120579196
1.12013082
1.119146992
1.116937648
1.112733148
1.106457155
1.098027647
1.087288612
1.076847559
1.066060154
1.052268971
1.040939471
1.033028058
1.021539666
1.007511352
1.000927936
0.9953618395
0.9840788102
0.9720951187
0.968066555
0.9637751082
1.000001394
1.000192974
1.003797048
1.017761503
1.054311105
1.094329254
1.110647266
1.113788693
1.117630595
1.121369503
1.121030683
1.12082518
1.120880799
1.12102516
1.121027694
1.120938783
1.120797883
1.120564443
1.120123547
1.119026286
1.116577883
1.112152768
1.105804365
1.097194056
1.086790036
1.076923248
1.065702257
1.052281809
1.042678216
1.034437961
1.021607828
1.009527777
1.004239343
0.9972972239
0.9844791429
0.9752039973
0.9717561195
1.000000011
1.000011787
1.000474356
1.003589414
1.022179981
1.054692055
1.08649628
1.108702449
1.119524733
1.120172145
1.119701983
1.120274356
1.121025033
1.121124247
1.120991073
1.120892938
1.120852134
1.120772366
1.120609675
1.120127214
1.118856897
1.11614905
1.111560524
1.105123766
1.096371731
1.086448276
1.076879399
1.065195644
1.052739495
1.04435394
1.035298075
1.021714969
1.012097045
1.007113417
0.99867589
0.9855276768
0.9791568561
1
1.000000569
1.000037552
1.000454731
1.005357397
1.020172611
1.054822325
1.08997021
1.114301951
1.114428759
1.117082683
1.120963207
1.121195701
1.120947191
1.120792927
1.120909883
1.120948234
1.120899397
1.120834953
1.12064683
1.120053697
1.118598136
1.115674246
1.110981677
1.104408152
1.095589599
1.086197122
1.076661302
1.064689838
1.05359639
1.045783926
1.035582684
1.02223017
1.014866152
1.009413187
0.9991133378
0.9871430913
1
1.000000021
1.000001937
1.000037505
1.000769438
1.004583973
1.023071941
1.055468181
1.089608294
1.104910602
1.116481215
1.120464406
1.120340475
1.12003672
1.120580616
1.121039808
1.12097156
1.120895788
1.120921247
1.120882455
1.12065385
1.119959973
1.118342627
1.115227906
1.110405371
1.103615642
1.094855913
1.085957373
1.076240536
1.064348357
1.05466916
1.046785446
1.035405438
1.023402741
1.017469129
1.011094384
0.9993802638
1
1.000000001
1.000000062
1.000002075
1.000069281
1.000657531
1.005933538
1.022199996
1.055760078
1.089522075
1.113608211
1.115373725
1.116422538
1.1185475
1.120448751
1.120779781
1.120703251
1.120705443
1.12087923
1.120924553
1.120843788
1.120571448
1.119795725
1.118001344
1.114678246
1.109698346
1.102723356
1.094219923
1.085674479
1.075650947
1.064281182
1.055702281
1.047277225
1.035134417
1.025098221
1.01975508
1.012071897
1
1
1.000000001
1.000000081
1.000004191
1.000062276
1.000941454
1.005723652
1.022992537
1.056354868
1.095263403
1.105008759
1.11225971
1.119320539
1.120235284
1.119810482
1.119950352
1.120307486
1.120754542
1.120852459
1.120852899
1.120759742
1.120387889
1.119471823
1.117482521
1.114007848
1.108910125
1.101848897
1.093700615
1.085275132
1.07497194
1.064455532
1.056517812
1.047306936
1.035132442
1.027049902
1.021611093
1
1
1
1.000000002
1.000000179
1.000004017
1.00009731
1.000903976
1.005973295
1.024027265
1.056790168
1.088012554
1.110762047
1.117977059
1.117795558
1.118469163
1.11938388
1.120167331
1.120331993
1.120490048
1.120639697
1.120652832
1.120553225
1.120081553
1.118982888
1.116822027
1.113272051
1.108079593
1.101012861
1.093187162
1.084685552
1.07429365
1.064774464
1.05706125
1.047028465
1.035571363
1.028988105
1
1
1
1
1.000000005
1.000000179
1.000006485
1.000091065
1.000969976
1.006432889
1.023008276
1.056980135
1.094302543
1.105803774
1.11228426
1.11912374
1.119966846
1.11983233
1.119907663
1.120241578
1.120498907
1.12048895
1.120392463
1.120178534
1.119660079
1.118483934
1.116217774
1.112574518
1.107218597
1.100175887
1.092589852
1.083918839
1.073715695
1.065157588
1.057328209
1.046610296
1.036442332
1
1
1
1
1
1.000000005
1.000000289
1.000005864
1.000105473
1.001096913
1.005842452
1.025223375
1.058786085
1.087085391
1.110020215
1.117781159
1.117315129
1.118253442
1.119755912
1.120374102
1.120417235
1.120329549
1.120262414
1.120198816
1.120007059
1.119428719
1.118126526
1.115704305
1.111878556
1.10630628
1.099345115
1.091920503
1.083055976
1.073312109
1.065518098
1.05729849
1.046243193
1
1
1
1
1
1
1.000000009
1.000000259
1.000007738
1.000118577
1.000991461
1.006885633
1.023733709
1.058168909
1.095050948
1.106118749
1.110792642
1.116283541
1.119712532
1.12008764
1.119904541
1.120040587
1.120187422
1.120252222
1.120179325
1.119930003
1.119267583
1.117816479
1.115181981
1.111126417
1.105391351
1.09860826
1.091243922
1.082210016
1.073112203
1.065772385
1.056977684
1
1
1
1
1
1
1
1.000000008
1.000000383
1.000008189
1.0001093
1.001208114
1.005977902
1.026266672
1.058965099
1.085852756
1.108383733
1.117814791
1.118186388
1.118274573
1.119052234
1.119855968
1.120134953
1.120105785
1.120157787
1.120113238
1.119810213
1.119025804
1.117396823
1.114598075
1.110391832
1.104605142
1.098011783
1.090560201
1.081454665
1.073080923
1.065870292
1
1
1
1
1
1
1
1
1.000000012
1.000000356
1.000008185
1.000134384
1.00099069
1.0073831
1.023793865
1.057275376
1.093229063
1.111644848
1.113632591
1.116251683
1.119786571
1.119930779
1.119820108
1.119903849
1.120126839
1.120112598
1.119968761
1.119583576
1.118714021
1.116969532
1.114074811
1.109745705
1.103955351
1.097483027
1.089839635
1.080848082
1.073159696
1
1
1
1
1
1
1
1
1
1.00000001
1.000000416
1.000010016
1.000111523
1.001298361
1.006178703
1.026833347
1.059166884
1.088079296
1.106901202
1.117456753
1.119154486
1.118668564
1.119159951
1.120194322
1.120436534
1.120219697
1.119996007
1.119855505
1.11949199
1.118534542
1.116652622
1.113637168
1.109153678
1.103371057
1.096932477
1.089084064
1.080425904
1
1
1
1
1
1
1
1
1
1
1.000000015
1.000000486
1.000008776
1.000148991
1.001046707
1.007819897
1.02480954
1.05847364
1.090952185
1.112724271
1.113150352
1.115445204
1.119311566
1.120461361
1.120397437
1.120159791
1.120159552
1.120111043
1.119972767
1.119522707
1.118441164
1.116418284
1.113215881
1.108538031
)
;

boundaryField
{
    inlet
    {
        type            fixedValue;
        value           nonuniform 0();
    }
    outlet
    {
        type            inletOutlet;
        inletValue      nonuniform 0();
        value           nonuniform 0();
    }
    bottom
    {
        type            slip;
    }
    top
    {
        type            slip;
    }
    obstacle
    {
        type            zeroGradient;
    }
    defaultFaces
    {
        type            empty;
    }
    procBoundary27to20
    {
        type            processor;
        value           nonuniform List<scalar> 
31
(
1.121625085
1.121521524
1.121418926
1.121323044
1.121197444
1.121124975
1.121061619
1.121011198
1.120902859
1.120804218
1.120697595
1.120529944
1.120443877
1.120538741
1.120320709
1.119884772
1.12036733
1.121849062
1.120621107
1.1138422
1.105093849
1.065555095
1.019162756
1.001383907
1.000006462
0.999999998
0.9999999997
1
1
1
1
)
;
    }
    procBoundary27to21
    {
        type            processor;
        value           nonuniform List<scalar> 
35
(
0.6497229923
0.6507496514
0.6521916518
0.6529215185
0.6546056608
0.6219754613
0.6192420173
0.5965056202
0.5762137049
0.5654720948
0.5557202176
0.5530116063
0.5644916688
0.5825144328
0.5967088796
0.6061063652
0.6110346172
0.6150601281
0.6188869105
0.6228392569
0.6257808616
0.6271382262
0.6296138099
0.6320852243
0.6344753551
0.6360820885
0.638405245
0.6407028777
0.6419322088
0.643363583
0.6452493629
0.6466717569
0.6480371584
0.6491076788
0.6491076788
)
;
    }
    procBoundary27to26
    {
        type            processor;
        value           nonuniform List<scalar> 9(1 1 1 1 1 1 1 1 1);
    }
    procBoundary27to28
    {
        type            processor;
        value           nonuniform List<scalar> 
55
(
0.656254255
0.6565717436
0.6578814075
0.661394299
0.6636950262
0.6636950262
0.6653260956
0.6658671805
0.6669758796
0.670094637
0.6727881329
0.6737840415
0.6742263917
0.6756652406
0.6756652406
0.6791506481
0.6814175864
0.6827293563
0.6834940296
0.6856302049
0.6880845675
0.6892270037
0.6905988215
0.6911737594
0.6911737594
0.6948289213
0.7041229131