/*--------------------------------*- C++ -*----------------------------------*\
  =========                 |
  \\      /  F ield         | OpenFOAM: The Open Source CFD Toolbox
   \\    /   O peration     | Website:  https://openfoam.org
    \\  /    A nd           | Version:  7
     \\/     M anipulation  |
\*---------------------------------------------------------------------------*/
FoamFile
{
    version     2.0;
    format      ascii;
    class       volScalarField;
    location    "4.3";
    object      T;
}
// * * * * * * * * * * * * * * * * * * * * * * * * * * * * * * * * * * * * * //

dimensions      [0 0 0 1 0 0 0];

internalField   nonuniform List<scalar> 
2222
(
1.012534224
1.012384134
1.01241324
1.012583982
1.01302066
1.013022528
1.012801524
1.012404294
1.01226167
1.012202235
1.012155812
1.012451087
1.013051351
1.013348037
1.013135173
1.012911009
1.012740797
1.012597329
1.012264989
1.011976652
1.012192395
1.012717424
1.013164307
1.01310162
1.012702751
1.012543342
1.012481877
1.012734519
1.012819986
1.01281697
1.012725753
1.012423924
1.01222285
1.012226451
1.012352967
1.012399873
1.012669607
1.012850996
1.012961388
1.012869645
1.012704813
1.012562009
1.012493222
1.012179002
1.012107427
1.012125859
1.01230651
1.012915176
1.013204422
1.01309983
1.012961103
1.012588919
1.012233991
1.012182049
1.012169213
1.012385432
1.012848396
1.012912747
1.012735403
1.012509557
1.01232955
1.012265728
1.012451443
1.012823966
1.012797318
1.012560971
1.012328229
1.012232411
1.012339352
1.012326281
1.012329705
1.012339901
1.012505782
1.01251216
1.01259061
1.012599811
1.012424673
1.012192243
1.012189118
1.012118031
1.012119007
1.012305857
1.012828289
1.012999907
1.012836822
1.012650376
1.012550939
1.012430256
1.012136348
1.012166351
1.012261899
1.012619441
1.01276446
1.01255715
1.012244117
1.012166447
1.012205225
1.012485688
1.012706317
1.012677756
1.012544781
1.012304692
1.012452453
1.012357267
1.012130523
1.012157753
1.012232957
1.012329685
1.012448468
1.012399998
1.012341721
1.0123836
1.012283238
1.012144484
1.011966743
1.012006525
1.012143759
1.01251918
1.012698879
1.012783089
1.012752589
1.012494777
1.012158747
1.011915702
1.012030092
1.012341899
1.012645202
1.012517404
1.012307621
1.012161195
1.011983304
1.01209384
1.012349362
1.012636336
1.012598922
1.012329129
1.012702231
1.012417654
1.012366424
1.012263283
1.012182184
1.012184245
1.012277717
1.012339842
1.012436924
1.01254281
1.01241464
1.012250722
1.012062556
1.011898265
1.011938843
1.012092975
1.012406638
1.012684051
1.0126843
1.012387833
1.012246022
1.011997356
1.011946889
1.012030917
1.01229672
1.012505363
1.012476113
1.012206102
1.012034133
1.011948769
1.012001711
1.012238653
1.012425245
1.012319681
1.01284394
1.012638149
1.01261477
1.012462243
1.012312385
1.012227389
1.012251733
1.012404337
1.012562898
1.012559598
1.012524218
1.01249248
1.012344325
1.012046361
1.011879249
1.011787408
1.011887932
1.012088836
1.012266549
1.01237104
1.012281979
1.012136054
1.011904089
1.011785693
1.011905649
1.012283307
1.012502839
1.012326257
1.012182738
1.011951803
1.011837678
1.011860285
1.012053803
1.012166369
1.012562674
1.012779192
1.012754808
1.012539041
1.012455759
1.0123507
1.012310979
1.012428619
1.01248492
1.012491941
1.012587841
1.012643185
1.012514929
1.012290672
1.011980901
1.011816937
1.011732639
1.011698832
1.01191953
1.012237139
1.012246611
1.012154403
1.011911635
1.011731102
1.011680446
1.011809724
1.012133641
1.01232364
1.012212827
1.012000286
1.011806185
1.011724221
1.011772948
1.011954387
1.011962364
1.012355064
1.012447278
1.012416667
1.012396727
1.012363483
1.012294932
1.012232187
1.012269036
1.012425331
1.012511625
1.012516039
1.012458998
1.012383156
1.012137565
1.011944289
1.011728748
1.01166894
1.011720788
1.011884241
1.012053945
1.012061494
1.011924826
1.011749396
1.011500776
1.011406119
1.011583824
1.011925497
1.01203619
1.011985262
1.011828636
1.011689755
1.011606204
1.011683521
1.011495559
1.011524427
1.011704385
1.011844612
1.011903046
1.01196379
1.011937643
1.011824942
1.011850597
1.011995979
1.012095605
1.012132999
1.012172416
1.012208706
1.012150931
1.011988181
1.01176953
1.011689596
1.011608772
1.011640602
1.011861902
1.011874805
1.011887381
1.011730949
1.011450567
1.011294631
1.011307785
1.011423861
1.011652754
1.01183257
1.011789994
1.011660854
1.011510716
1.011473732
1.011157915
1.011056949
1.011117477
1.011136576
1.011220998
1.011199821
1.01122426
1.011301119
1.01134302
1.01136135
1.011443043
1.011575336
1.011716136
1.011826556
1.011843138
1.011933713
1.011874353
1.011749627
1.011631623
1.011501561
1.011537172
1.011639275
1.011691441
1.011704536
1.011620209
1.011459742
1.011300096
1.011205186
1.011190116
1.011338244
1.011561334
1.011635973
1.011577272
1.011439371
1.01132634
1.011048185
1.010843024
1.010856506
1.010779698
1.010821982
1.010807743
1.010797008
1.010794746
1.010824389
1.010888478
1.010978625
1.011169284
1.01132541
1.011433485
1.011483095
1.011483055
1.011494186
1.011499145
1.011447989
1.011371114
1.011388908
1.011388081
1.011403239
1.011389304
1.011386844
1.011361291
1.011251309
1.011113103
1.011000657
1.011021626
1.011169483
1.01133209
1.011377382
1.011329397
1.011217024
1.010887908
1.01073511
1.010669978
1.010553148
1.010567605
1.010584053
1.010548333
1.010483161
1.010474245
1.010498901
1.010594884
1.010740238
1.010914998
1.01106247
1.011079002
1.011019877
1.011024622
1.011019613
1.010980646
1.011015553
1.010997603
1.011023345
1.011053526
1.011036596
1.011056218
1.011085923
1.011069066
1.010914604
1.010752506
1.010726492
1.010769932
1.010949567
1.01107874
1.011120045
1.011043254
1.01085646
1.010774644
1.010533884
1.010382432
1.010343871
1.01037814
1.010339928
1.010282752
1.010274086
1.010251657
1.010275109
1.010332698
1.010482832
1.010671425
1.010670685
1.010619436
1.010533842
1.010428385
1.010391867
1.010391061
1.010425349
1.01054633
1.010634403
1.010651349
1.010620287
1.010625706
1.010686945
1.010587099
1.010428656
1.010352024
1.010336899
1.010491713
1.010683121
1.01078796
1.010756249
1.010644965
1.010553996
1.010332415
1.01016836
1.010087292
1.010109399
1.010104158
1.010111875
1.01011738
1.010090916
1.010027732
1.009996145
1.010078615
1.010242972
1.010206739
1.010235968
1.010150231
1.010041662
1.009969371
1.00985285
1.009845932
1.009914364
1.010038056
1.010162534
1.010137207
1.010136492
1.010179956
1.010149184
1.010043384
1.009935316
1.009885925
1.009958368
1.010141491
1.01031018
1.01039531
1.009917001
1.009989854
1.010017903
1.009815758
1.009720775
1.009709371
1.009728046
1.00980564
1.009831198
1.009819302
1.009745015
1.00968202
1.009670835
1.009706745
1.009755764
1.009839358
1.009780203
1.009686359
1.009595361
1.009481773
1.00940253
1.009297849
1.009301734
1.009496434
1.009579945
1.009585173
1.009590635
1.009598396
1.009571008
1.009485457
1.009408886
1.009416573
1.009522558
1.009689402
1.009926009
1.008911981
1.009130026
1.009302275
1.00924269
1.009154493
1.009114383
1.009151545
1.009251947
1.00934781
1.009441871
1.009524529
1.009503075
1.009247109
1.009182376
1.009273605
1.009340785
1.009326316
1.009342386
1.009302566
1.009211484
1.008955008
1.008741503
1.008666745
1.008739477
1.008882085
1.008934826
1.008924563
1.008921995
1.008956452
1.008931655
1.008882461
1.008876398
1.008895825
1.008988441
1.009211417
1.008085215
1.00817157
1.008293786
1.00839757
1.008381874
1.008341332
1.00836534
1.008412479
1.008637728
1.008947582
1.009086866
1.009050561
1.008942769
1.008678092
1.008716252
1.008689208
1.008751622
1.008804581
1.008782615
1.008715288
1.0085888
1.008356811
1.008086829
1.008025219
1.008079952
1.00818834
1.008188776
1.008159347
1.008201278
1.008247472
1.00826836
1.008246945
1.008215334
1.008221011
1.008291381
1.007348674
1.007295559
1.007312232
1.007452584
1.007554325
1.007534387
1.007517977
1.007525017
1.007707532
1.008062906
1.008404543
1.0084367
1.008335917
1.00821364
1.00801032
1.007926433
1.007994872
1.008098095
1.008106192
1.00805402
1.007942551
1.007777985
1.007590404
1.007283848
1.007275529
1.007346911
1.007366569
1.007328446
1.007337439
1.007436029
1.007533757
1.007546092
1.007458933
1.007339701
1.007287755
1.006547454
1.00645884
1.006444382
1.006501449
1.006728415
1.006709609
1.006668246
1.006693163
1.006738642
1.00693381
1.007306225
1.007540473
1.007545216
1.007417585
1.007229251
1.007080479
1.006995694
1.00701743
1.007070107
1.007075653
1.007086607
1.006998325
1.006830238
1.006601607
1.006403597
1.006409077
1.006411801
1.006400672
1.006385807
1.00646329
1.006602255
1.006634202
1.006556618
1.006342997
1.006267575
1.005787856
1.005549119
1.005487583
1.00553399
1.005766851
1.005776888
1.005760439
1.005767911
1.005723226
1.005764779
1.005940939
1.006238499
1.006439611
1.006395081
1.00626039
1.006077315
1.005845088
1.005764757
1.00574826
1.005769197
1.005891619
1.005967241
1.005908211
1.005770118
1.005498588
1.005359265
1.005364564
1.005385849
1.005348387
1.005346443
1.005384396
1.005493035
1.005482072
1.005438707
1.005289352
1.004918481
1.00476247
1.00455543
1.004478058
1.004593282
1.004640761
1.004682716
1.004660243
1.004568982
1.004515805
1.004551815
1.004735939
1.00494553
1.005018057
1.004984865
1.004820514
1.004600721
1.004498045
1.00444846
1.004428302
1.00449654
1.004664027
1.00477377
1.004732024
1.00460281
1.004367186
1.004297348
1.00428633
1.004217039
1.004119097
1.00406516
1.004123478
1.004297592
1.004342646
1.00432769
1.003740535
1.003702303
1.003610667
1.003361195
1.00328486
1.003293037
1.003389088
1.00337284
1.003276682
1.003146625
1.003147966
1.003243726
1.003355156
1.003487013
1.003548875
1.003443012
1.003325564
1.00321591
1.00315455
1.003140721
1.003173922
1.003280232
1.00345171
1.003568596
1.003519996
1.003402818
1.003190615
1.003105562
1.003006149
1.002836721
1.002775147
1.002789296
1.002929298
1.003156313
1.003185762
1.002416926
1.002451192
1.002420468
1.002281215
1.001978318
1.001961094
1.001968112
1.001987921
1.00192671
1.001788
1.00176642
1.00177082
1.001850103
1.002017376
1.002141395
1.002126091
1.002089818
1.002016774
1.001894705
1.001877933
1.001904675
1.001956847
1.00208243
1.002274306
1.002350988
1.002258947
1.002079237
1.001874523
1.00177168
1.001656629
1.001572247
1.001558702
1.001611052
1.001831478
1.001980629
1.000967817
1.001037343
1.001146783
1.001153602
1.001142091
1.000885058
1.000679988
1.000620675
1.00065779
1.000746836
1.000680347
1.000503621
1.000387518
1.00047655
1.000647722
1.000815761
1.000898348
1.00098851
1.001004142
1.000934726
1.00083798
1.000729962
1.000725772
1.00082343
1.000969411
1.001084486
1.001093486
1.000997146
1.000819659
1.00068405
1.00062136
1.000509364
1.000408059
1.000440411
1.000542727
1.000703111
0.9997305549
0.9997776883
0.9998779907
0.9999344925
1.000018701
0.9999561825
0.9997536138
0.9995512194
0.9995494804
0.9996627167
0.9997368549
0.9996475695
0.9993527878
0.9992640596
0.9994215052
0.9996282425
0.9998139946
0.9999236203
1.00000024
1.00003103
1.00005135
0.9999229366
0.9996988852
0.9997110813
0.999775302
0.9998509341
0.9999669935
0.9999776747
0.9998882503
0.9997428798
0.999706484
0.9996367459
0.9994760176
0.9994033598
0.9994402397
0.9995051543
0.9985720275
0.9986521745
0.998748705
0.9988542928
0.9989629435
0.9990067129
0.9989100098
0.9987806444
0.998719132
0.9987358227
0.9988393974
0.9988472451
0.9987668932
0.9985935386
0.9985439991
0.998663545
0.9988362005
0.9989585546
0.999051292
0.9991403178
0.9992257967
0.9992418451
0.9991060632
0.9988543521
0.9987806508
0.9988448375
0.9989880404
0.9991065416
0.9990821292
0.9989842637
0.9989005906
0.9988553025
0.9987934558
0.9986068985
0.9985411823
0.9985631444
0.9975806428
0.9976794021
0.9977746199
0.9978946077
0.9980100387
0.9980876147
0.9980354259
0.9980206607
0.9979631273
0.9979391821
0.9980114929
0.9981049951
0.9981657437
0.9981455359
0.9980286953
0.9979365252
0.9979956946
0.9981242926
0.998251694
0.9984560189
0.9985103381
0.9986032184
0.9986020566
0.9984076317
0.9980944739
0.9980945089
0.9982277866
0.9983562386
0.9984016414
0.9983512745
0.9982606011
0.9982394682
0.9982429209
0.9981432631
0.9978784199
0.9978693018
0.996798805
0.9968805749
0.996979525
0.9970905984
0.997195415
0.9972674995
0.9972792992
0.997344138
0.99731371
0.9973294458
0.9974238538
0.997565713
0.9976820546
0.9976952773
0.9976000603
0.9974037022
0.9973747497
0.9975119328
0.997712042
0.997794329
0.9979266786
0.9980601133
0.9980850604
0.9980232181
0.9978389302
0.9976213299
0.9976446783
0.9977579436
0.9978387525
0.9978418644
0.9977984115
0.9977983696
0.9978253451
0.9978200389
0.9976573269
0.9974188272
0.9964781772
0.9963984038
0.9963731744
0.9964212706
0.9965337829
0.9966209154
0.9966690054
0.9967218663
0.9967778851
0.9968762816
0.9970428451
0.9971080441
0.9972266421
0.9972851414
0.9972599662
0.9971424308
0.997038222
0.9970801442
0.9972214591
0.9972628898
0.9973637951
0.9974841947
0.9976222399
0.9976862482
0.997662878
0.9974816614
0.99726753
0.9972870414
0.9973759287
0.9974381084
0.9974653135
0.9974956841
0.9975374948
0.997596353
0.9975907469
0.9973783812
0.9964571989
0.9963823307
0.9961863557
0.9960086528
0.9960565261
0.9961275778
0.9962012231
0.9962129964
0.9962996266
0.9964076112
0.9965288101
0.99663752
0.9968161239
0.9969601644
0.9970467609
0.9970733819
0.9970088596
0.9969210519
0.9968679283
0.9968568907
0.9969319827
0.9970482333
0.9972183294
0.9974075098
0.9974790515
0.9974036265
0.9971485705
0.996992536
0.9970194943
0.9971143144
0.9972102233
0.9972818119
0.9973504847
0.9974362885
0.9974982806
0.9974340161
0.9963183708
0.9963756126
0.9963190732
0.9960328378
0.9959059381
0.995946394
0.9959928661
0.995980809
0.995998364
0.9960427955
0.9960953961
0.9962345362
0.9964864172
0.9967467703
0.9969305998
0.9970335507
0.9970541993
0.9970107375
0.9968572842
0.9967678978
0.9967819111
0.996834038
0.996959861
0.9971375085
0.9972746022
0.9972910904
0.9971770966
0.9969969087
0.9969071
0.9969383295
0.9970317073
0.9971127035
0.997203826
0.9973218947
0.9974239632
0.9974336461
0.9960998226
0.9962666999
0.9963629513
0.9962602666
0.996104114
0.9961181645
0.9961101645
0.9960820712
0.9960315512
0.9959719847
0.9959493518
0.9960418187
0.9962593345
0.9965549237
0.9968084907
0.9969608912
0.9970344038
0.9970585185
0.9969914778
0.9969644907
0.996959774
0.9969757578
0.9969699667
0.9970069174
0.9970768828
0.9971273685
0.9971290088
0.9970960132
0.997035031
0.9969861278
0.9969947518
0.9970329492
0.9970873991
0.9972036663
0.9973339465
0.997390162
0.995846878
0.9960884737
0.9962364397
0.9963153674
0.9963079567
0.996305421
0.9962661545
0.9962762785
0.9962367093
0.9961779476
0.9961347258
0.9961433645
0.9962082318
0.9964049839
0.9966371398
0.9968041944
0.996907673
0.9970094191
0.9970687156
0.9971488835
0.9971850698
0.9972207075
0.9971842282
0.9970759492
0.9970023526
0.9970273299
0.997119377
0.9971476543
0.9971299901
0.9971136234
0.9971031555
0.9970688033
0.9970516055
0.9971024145
0.997205581
0.9973164977
0.9957025966
0.9959094293
0.9960560075
0.9962638874
0.9963480206
0.9963634124
0.996345817
0.9963791675
0.9963691128
0.9963828001
0.9963931704
0.9963707087
0.9962981895
0.9963434747
0.9964841219
0.9966206448
0.9967509343
0.9969124414
0.9970718311
0.9972003536
0.9972732478
0.9973460919
0.9973302214
0.997176687
0.9970709837
0.9970942267
0.9971745844
0.9971750434
0.9971708136
0.9971998257
0.9972126661
0.9971779349
0.9971345637
0.9970937803
0.9971128596
0.9972129444
0.9958052213
0.9958838475
0.9959547087
0.9961790475
0.9962978969
0.9963049859
0.9963107251
0.9963305033
0.9963586892
0.9964599312
0.9965997429
0.9966386137
0.996576959
0.9964601302
0.9964728797
0.9965521803
0.9966791127
0.9968479515
0.9970577155
0.9971958729
0.9972875062
0.9973390208
0.9973624513
0.9973035528
0.9972578828
0.9972676504
0.9972773307
0.9972478525
0.9972184979
0.9972315138
0.9972742386
0.9973095359
0.99730295
0.9972126615
0.997123354
0.9971553695
0.9962377892
0.9961958327
0.9960882011
0.9961677592
0.9962668463
0.996280855
0.9963107855
0.9963223903
0.9964071002
0.9965903297
0.9968167578
0.9969025912
0.9969216097
0.9968278152
0.9967740977
0.9967841445
0.9968356501
0.9969373072
0.9970934195
0.9972109314
0.9973076428
0.997343125
0.9973961545
0.9974128469
0.9974367953
0.9974702898
0.9974782152
0.9974568507
0.997375063
0.9973214576
0.9973515755
0.9974279018
0.9974855501
0.9974690402
0.9973405968
0.9972537722
0.9968395148
0.9968171508
0.9966961459
0.9965594571
0.9965325788
0.9965213644
0.996566283
0.9966101372
0.9967580221
0.9969479142
0.9971242045
0.9972415118
0.9973536478
0.9973943738
0.9973938209
0.997384158
0.9973819143
0.9973738488
0.997396278
0.9974381305
0.99750893
0.9975515803
0.9976311807
0.9976999152
0.9977442206
0.9977685031
0.9977997851
0.9978323877
0.9977865943
0.9976900789
0.9976617714
0.9977161914
0.9978017881
0.9978543835
0.9978158661
0.9976879531
0.9975298245
0.9976106945
0.9976007453
0.9975669375
0.9974100205
0.9973605121
0.9972970963
0.9973079843
0.9973749648
0.9975442014
0.9976772865
0.9977414082
0.997868187
0.9980372204
0.9981661147
0.9981878613
0.9981797241
0.9981893428
0.9981650227
0.9981290926
0.9981472891
0.998184032
0.9982208998
0.9983030749
0.9983898545
0.9984181925
0.9983816836
0.998370898
0.9984182959
0.9984523123
0.9984312738
0.9983922317
0.9984087807
0.9984518644
0.9985022353
0.998540385
0.9984720406
0.9987002428
0.9987893723
0.9987670111
0.9987443594
0.9985983134
0.9985747114
0.9985189221
0.9985136217
0.9985852294
0.9987106737
0.9988037073
0.9988479443
0.9989977286
0.999123865
0.9992415017
0.9992844124
0.9992989871
0.9993410833
0.9993267217
0.9992574656
0.9992736581
0.9993251796
0.9993880998
0.9994380096
0.9994918573
0.9995186572
0.9994702717
0.9994107604
0.9994255281
0.9994822918
0.9995180081
0.9995119295
0.9995167756
0.9995187019
0.9995562696
0.9996220328
0.9995863911
1.000342232
1.000485385
1.000490252
1.000482438
1.000380473
1.000351513
1.000304064
1.000286539
1.000351392
1.000416939
1.000461439
1.000519037
1.000678904
1.000746489
1.000831717
1.000887563
1.000920558
1.000970273
1.000972836
1.000910237
1.000923523
1.000998934
1.001084132
1.001104278
1.001111609
1.001131503
1.00111044
1.001072171
1.001069819
1.001095183
1.00113461
1.001139659
1.001117819
1.001085223
1.001105205
1.001155606
1.00113265
1.002556205
1.002728943
1.002773213
1.002824216
1.002863233
1.002829942
1.002806463
1.002767098
1.002811113
1.002834086
1.002845377
1.002899086
1.00298011
1.003019982
1.003081716
1.003110214
1.003114924
1.003130938
1.003139434
1.003141044
1.00318552
1.00329396
1.003414278
1.003442389
1.003420788
1.003412807
1.003412103
1.003391282
1.003357281
1.003361662
1.003399618
1.003407589
1.003352714
1.003286752
1.003267032
1.003253964
1.003203833
1.005505481
1.005640145
1.005693592
1.005775949
1.005931795
1.005902989
1.005921524
1.005886381
1.005899618
1.005910043
1.005924546
1.005979893
1.00597575
1.006009459
1.006046274
1.006041577
1.006000887
1.005960116
1.005949517
1.005987639
1.006064757
1.006202803
1.006339344
1.006397829
1.006404495
1.006413033
1.006450735
1.006449061
1.006360545
1.006314258
1.006334926
1.006350134
1.006305484
1.006236795
1.006156996
1.006055642
1.005938383
1.009228945
1.009285313
1.00936839
1.009461232
1.00963535
1.0096274
1.009666616
1.009672411
1.009661806
1.009669897
1.009715494
1.009793554
1.00977004
1.009784107
1.009756407
1.009718061
1.009643217
1.009562486
1.009525562
1.009567295
1.009667552
1.009802846
1.009923715
1.010005596
1.010054772
1.010098023
1.010158909
1.010184169
1.01010757
1.01002726
1.010020754
1.010032154
1.010007517
1.009946457
1.00981584
1.009634389
1.009446449
1.013692068
1.013663223
1.013783432
1.01388954
1.014016724
1.014028235
1.014065575
1.014128515
1.014111244
1.014136514
1.014234201
1.014334506
1.014323966
1.01431551
1.014231069
1.014155793
1.014042918
1.013929717
1.013885913
1.013934476
1.014038056
1.014131207
1.014219749
1.014318202
1.014396895
1.014464035
1.014521485
1.014561215
1.014548294
1.014506583
1.014485687
1.014485351
1.014458947
1.014384152
1.014229701
1.014014647
1.01376253
1.018838544
1.018781593
1.018895067
1.018972492
1.019014571
1.019062017
1.019111672
1.019250921
1.019234437
1.019286997
1.019464487
1.019548353
1.019536448
1.019505318
1.019434991
1.01933294
1.019187887
1.019050417
1.018999176
1.019027603
1.019080183
1.019121726
1.019195124
1.019303553
1.019407079
1.019495966
1.01954883
1.019595294
1.019647446
1.01967623
1.019676863
1.019656536
1.019600938
1.019497483
1.019342209
1.019143507
1.018851753
1.024598686
1.024571811
1.024639101
1.024674815
1.024606602
1.024702113
1.024765902
1.024939966
1.024944905
1.025040343
1.025244165
1.025285056
1.025291698
1.025262677
1.02525604
1.025153855
1.024998493
1.024856109
1.024791893
1.024763366
1.024743403
1.024751479
1.024814247
1.024917975
1.02504636
1.025163561
1.025220708
1.025282749
1.025377437
1.025448775
1.025466293
1.025424206
1.025340786
1.025224369
1.025089426
1.024919256
1.024605361
1.030861519
1.030878342
1.030880827
1.030870864
1.030759107
1.030896976
1.030924534
1.031021706
1.03112589
1.03129734
1.031418986
1.031476959
1.031570179
1.031586994
1.031588087
1.031465928
1.031310808
1.031191002
1.03112936
1.031039327
1.030996146
1.03098945
1.031026817
1.031113431
1.031252807
1.031379058
1.031437393
1.031514755
1.031617383
1.031692465
1.031708538
1.031664736
1.031585579
1.031488746
1.03137614
1.031200186
1.030863814
1.037434755
1.037452291
1.037393434
1.037313783
1.037320353
1.037429048
1.037420305
1.037466158
1.037678967
1.037910204
1.037928219
1.038030457
1.038234363
1.03827136
1.038208342
1.038072302
1.037943455
1.037856582
1.037783286
1.037691267
1.0376589
1.037646733
1.037667637
1.037765334
1.037908317
1.038000007
1.038059058
1.038123065
1.038192924
1.03824424
1.038273335
1.038260726
1.038222868
1.038153869
1.038020063
1.037804986
1.037452567
1.044148145
1.044130324
1.044050565
1.043917225
1.04401892
1.044102511
1.044134398
1.044218253
1.044518461
1.044658535
1.044695318
1.044845182
1.04493051
1.044958275
1.044884982
1.044823378
1.044765105
1.044679407
1.044582558
1.044542836
1.044489317
1.044474698
1.04453097
1.044664461
1.044775475
1.044838516
1.044901995
1.044909411
1.044924923
1.044983977
1.04503787
1.045069348
1.045068623
1.044984046
1.044812301
1.044599204
1.04425367
1.050945581
1.050821003
1.050741834
1.050631724
1.050736335
1.050794757
1.050907097
1.051123035
1.051372753
1.051431713
1.051508838
1.05157964
1.051603657
1.051582251
1.051471361
1.051463011
1.051498806
1.051466068
1.051362148
1.051331815
1.051291057
1.051330808
1.051470483
1.051582335
1.051619595
1.051691795
1.051759471
1.051757367
1.051710369
1.051760732
1.051856703
1.051910746
1.051881428
1.051768052
1.0516104
1.051433104
1.051114117
1.057308381
1.057641746
1.057443389
1.057371696
1.057344117
1.057388286
1.057430121
1.05762882
1.057865322
1.058042342
1.0580974
1.05820328
1.058198263
1.05812672
1.05804975
1.058008207
1.058010346
1.058005136
1.057998332
1.057918858
1.057908579
1.057929467
1.058068426
1.0582099
1.058253494
1.058294056
1.058379656
1.058423442
1.058403774
1.058393219
1.058430787
1.058485157
1.058498341
1.058461498
1.058362266
1.058241811
1.058099566
1.057801167
1.06344319
1.063827204
1.063815763
1.063767158
1.063851384
1.063824262
1.063872939
1.064039751
1.064197214
1.064356401
1.064424595
1.064547726
1.064417879
1.064297428
1.06429919
1.064286681
1.064264273
1.064177848
1.064130597
1.064102015
1.064097792
1.064267334
1.064425152
1.064477456
1.064513742
1.064564443
1.064641029
1.064659652
1.064669139
1.064731103
1.064728382
1.06470701
1.06468895
1.06465219
1.064580581
1.064488779
1.064332225
1.064065577
1.069291992
1.069528073
1.069796959
1.069771294
1.069816198
1.069774191
1.069834619
1.069917006
1.070016047
1.070105999
1.070236874
1.070331753
1.070289985
1.070200066
1.070221447
1.070211699
1.070032405
1.069902207
1.069874373
1.069857564
1.069871179
1.069950782
1.070076683
1.070143844
1.070186413
1.070246313
1.070295803
1.070309927
1.07037955
1.070430821
1.070405774
1.070345832
1.070312421
1.070273755
1.07021977
1.07012702
1.069979297
1.069743451
1.074645134
1.074722537
1.074950367
1.075003919
1.075104905
1.075066217
1.075114453
1.07514992
1.075102201
1.075113528
1.075323294
1.075373499
1.075422389
1.075502909
1.075599454
1.075571752
1.075339482
1.075081985
1.07499224
1.0749903
1.074994777
1.075016936
1.075046479
1.075086816
1.075127944
1.075163498
1.075183945
1.075217153
1.075317137
1.075360437
1.075328407
1.075261598
1.075190947
1.075174662
1.075128324
1.075030928
1.074880673
1.074667474
1.079264175
1.079266352
1.079449786
1.07947641
1.079518189
1.079535153
1.079534643
1.079484149
1.079362171
1.079392917
1.079582259
1.07967117
1.079849279
1.080046285
1.080111376
1.080028617
1.079835546
1.079610952
1.079429584
1.079369473
1.079325384
1.079267625
1.079219691
1.079260231
1.079303033
1.079300245
1.079306937
1.079336036
1.079394652
1.079414075
1.079388982
1.079340126
1.079284717
1.079245079
1.079202881
1.079098812
1.078943508
1.078746367
1.083017724
1.082995981
1.083126837
1.083097648
1.083068057
1.083018153
1.082911821
1.082885065
1.082879651
1.082899017
1.083017236
1.08316873
1.083449096
1.083691462
1.083640206
1.083524258
1.083386832
1.083205472
1.082987595
1.082834157
1.082753663
1.082640327
1.08258627
1.0826303
1.082640295
1.082642178
1.082631213
1.082649091
1.082636217
1.082583094
1.082557039
1.08255061
1.082504604
1.082456456
1.08240525
1.08230534
1.082179008
1.082017928
1.085907949
1.0858607
1.085831323
1.085759347
1.08563535
1.085508611
1.085445773
1.085489403
1.085552803
1.085599646
1.085656779
1.085835343
1.086197545
1.086298225
1.086201013
1.086102024
1.086039374
1.085846442
1.085605902
1.085395296
1.085284743
1.085204643
1.085157816
1.085158854
1.085146557
1.085154491
1.085165649
1.085150399
1.085044102
1.084933308
1.084911265
1.084924854
1.084894568
1.084845336
1.084788423
1.084707654
1.08461467
1.084474564
1.087908999
1.087871261
1.087542762
1.087471115
1.087353847
1.087340117
1.087320351
1.087363516
1.087448378
1.087541444
1.087528869
1.087647522
1.08785545
1.087873367
1.087775108
1.087718816
1.0877109
1.087614568
1.08738602
1.087140815
1.087018854
1.086967012
1.086937165
1.086903677
1.086915477
1.086926769
1.086936684
1.086868388
1.086707654
1.086593353
1.086547116
1.086541562
1.086529625
1.08648535
1.086430219
1.086375711
1.086338865
1.086259045
1.089158604
1.089063398
1.088634737
1.08862722
1.088568018
1.088574709
1.088558157
1.088570788
1.088750516
1.088807678
1.088745591
1.088840712
1.088861378
1.088800546
1.088723728
1.08868458
1.08863323
1.08856145
1.088412257
1.088216172
1.088091465
1.088055999
1.088074862
1.088065777
1.088063417
1.088050692
1.088013886
1.087919439
1.08777575
1.087657369
1.087593392
1.087560019
1.087550821
1.087501966
1.087467703
1.08746301
1.087479433
1.087403855
1.089845529
1.089677949
1.089398394
1.089383135
1.089310138
1.089311194
1.08928969
1.089297099
1.089475667
1.089454283
1.089405397
1.089404466
1.089333089
1.089298243
1.089252315
1.089174483
1.089052555
1.088986426
1.088905511
1.088779482
1.088685482
1.088661395
1.088669219
1.088680355
1.088682743
1.088648588
1.088561894
1.088422736
1.088368403
1.088291616
1.088201123
1.088105529
1.088065242
1.088054584
1.088057168
1.08807441
1.088063366
1.087977251
1.090125084
1.090069428
1.08987843
1.089857345
1.089779682
1.089796321
1.089822407
1.089749233
1.089759401
1.089711964
1.089663938
1.089547866
1.089415791
1.089419197
1.089434648
1.089386314
1.089256085
1.089174019
1.089082615
1.089018197
1.088969593
1.088943888
1.088941273
1.088956702
1.088964573
1.088914768
1.08877906
1.088677715
1.088644211
1.088599164
1.088478595
1.088355479
1.088297186
1.088305674
1.088303328
1.088286492
1.088268645
1.088201078
1.090186168
1.090240607
1.090264493
1.090218373
1.090127855
1.090039651
1.089992772
1.089916495
1.089767712
1.089648782
1.089628128
1.089474811
1.08946627
1.089457145
1.089455747
1.089418548
1.089313643
1.089182734
1.0890952
1.089052944
1.089043317
1.089020187
1.089077277
)
;

boundaryField
{
    inlet
    {
        type            fixedValue;
        value           nonuniform 0();
    }
    outlet
    {
        type            inletOutlet;
        inletValue      uniform 1;
        value           nonuniform List<scalar> 
62
(
1.012643139
1.012269415
1.012230016
1.012263583
1.012280497
1.012296339
1.012192319
1.01199877
1.011707697
1.011472855
1.011312023
1.011195335
1.011015857
1.010730967
1.010389269
1.009950325
1.009262502
1.008314179
1.007280517
1.006269497
1.005252651
1.004299722
1.00317863
1.001978987
1.000737137
0.9995382527
0.9985892514
0.9978913394
0.997406316
0.9973137395
0.9973988276
0.9974212162
0.9973905077
0.9973376155
0.997246127
0.9971831209
0.9972558522
0.9976590564
0.9984490867
0.9995772325
1.00113311
1.003207573
1.005938915
1.009444671
1.013763322
1.018855359
1.024605903
1.030857206
1.037445814
1.044253025
1.051119029
1.057793066
1.064053198
1.069732188
1.074659014
1.078743739
1.082023289
1.084483327
1.086283709
1.087405707
1.087973337
1.088198218
)
;
    }
    bottom
    {
        type            slip;
    }
    top
    {
        type            slip;
    }
    obstacle
    {
        type            zeroGradient;
    }
    defaultFaces
    {
        type            empty;
    }
    procBoundary17to11
    {
        type            processor;
        value           nonuniform List<scalar> 
36
(
1.012399235
1.012489389
1.012724321
1.012887744
1.012837488
1.012790805
1.012696799
1.012405059
1.012064597
1.012189818
1.012636676
1.013186823
1.013536087
1.013423652
1.01302074
1.012607529
1.01241508
1.012321761
1.012228944
1.012322353
1.012766247
1.013112063
1.013084344
1.013006035
1.012767384
1.012714053
1.012874332
1.013006511
1.012969824
1.012728962
1.012728962
1.01253601
1.013000747
1.013128868
1.01322215
1.01322215
)
;
    }
    procBoundary17to16
    {
        type            processor;
        value           nonuniform List<scalar> 
64
(
1.012361957
1.012583797
1.012602324
1.012674173
1.012736422
1.012390292
1.011757208
1.011389839
1.011389839
1.011429639
1.011368585
1.011232315
1.010900264
1.010345975
1.009568296
1.00877205
1.008137223
1.007525445
1.006796313
1.005892844
1.00483616
1.003604586
1.002283269
1.002283269
1.000952409
0.9997300843
0.9985393268
0.9975305015
0.9967345149
0.9964238803
0.9963038469
0.9961121419
0.9958787952
0.9956572764
0.9955876955
0.9957948872