/*--------------------------------*- C++ -*----------------------------------*\
  =========                 |
  \\      /  F ield         | OpenFOAM: The Open Source CFD Toolbox
   \\    /   O peration     | Website:  https://openfoam.org
    \\  /    A nd           | Version:  7
     \\/     M anipulation  |
\*---------------------------------------------------------------------------*/
FoamFile
{
    version     2.0;
    format      ascii;
    class       volScalarField;
    location    "1";
    object      p;
}
// * * * * * * * * * * * * * * * * * * * * * * * * * * * * * * * * * * * * * //

dimensions      [1 -1 -2 0 0 0 0];

internalField   nonuniform List<scalar> 
2222
(
1.860283079
1.841101235
1.817708283
1.787386647
1.766247169
1.74717121
1.722432948
1.691938988
1.668481336
1.650153899
1.630461635
1.602767823
1.579285374
1.563634045
1.547231261
1.523514362
1.504428498
1.477339523
2.328827474
2.275967662
2.234530946
2.201500298
2.167368363
2.132627367
2.1039249
2.079208236
2.044155637
2.003423353
1.970534163
1.946443865
1.91809263
1.887892482
1.863198388
1.843430832
1.821195833
1.79256839
1.775052529
1.759142294
1.736162291
1.706194379
1.682567317
1.663087579
1.642478118
1.613979872
1.589971834
1.574283342
1.557057446
1.532222764
1.512634249
1.485486094
2.333096677
2.288153226
2.246909049
2.221656887
2.187793542
2.146075861
2.108882705
2.083046217
2.049930999
2.011343303
1.980719328
1.958177652
1.930087158
1.898969529
1.873701262
1.851723152
1.828354137
1.798684859
1.780513458
1.764639832
1.742175237
1.712615661
1.689453564
1.669909965
1.648802686
1.620007498
1.596689097
1.583136015
1.566912048
1.54200293
1.522272754
1.494070551
2.340451995
2.306156527
2.269903244
2.247510783
2.217235968
2.170855269
2.124864713
2.095085916
2.064915722
2.029070943
2.001326293
1.980060124
1.95267261
1.920209518
1.89429663
1.869099644
1.841803311
1.808845328
1.787342661
1.769567635
1.746061734
1.715747198
1.693073538
1.674197874
1.653095828
1.624158191
1.601191505
1.589393459
1.574950971
1.550669331
1.531521077
1.502789508
2.353302756
2.320570143
2.289660141
2.265301544
2.237520537
2.194431465
2.150035999
2.117830141
2.088240661
2.052468277
2.024030249
1.999773615
1.971142117
1.937633457
1.914893198
1.890709268
1.860559848
1.824096896
1.797709758
1.776790405
1.751367545
1.719744519
1.697488143
1.679766475
1.659341806
1.630681697
1.607511853
1.595277726
1.581401808
1.557231899
1.539044109
1.510972789
2.37004103
2.331377097
2.293203525
2.266466579
2.239793868
2.204552985
2.169166944
2.139089303
2.107185524
2.064720441
2.030626521
2.00445082
1.975924568
1.943224384
1.924766491
1.905446815
1.87786522
1.841879862
1.812990278
1.788739298
1.760571448
1.726859465
1.704710128
1.688513547
1.66924285
1.641351034
1.617816201
1.603300217
1.58802366
1.562264269
1.544107892
1.517623225
2.385213758
2.341010511
2.298616909
2.270288384
2.243941589
2.209351742
2.178567944
2.150442181
2.116804292
2.07085178
2.035130808
2.009054724
1.980421736
1.947724267
1.929442934
1.912276137
1.888086924
1.855911994
1.829080541
1.80387894
1.773758649
1.738065153
1.715645299
1.700593995
1.682434559
1.655477836
1.631566623
1.614072847
1.596176187
1.567928204
1.548209445
1.52274466
2.397138825
2.352057035
2.308096236
2.27858668
2.250866253
2.214709727
2.18245033
2.155986782
2.122576337
2.077289018
2.042172723
2.016893735
1.987941948
1.954971657
1.934580263
1.91700552
1.893534061
1.863483633
1.840115928
1.816890022
1.787323597
1.75055324
1.727364318
1.711977497
1.694167927
1.668315771
1.645128183
1.626094799
1.605840597
1.57528599
1.553021226
1.52721883
2.408790439
2.366140722
2.322529689
2.292282645
2.261237088
2.221820269
2.187583885
2.161535497
2.129140351
2.086462711
2.053687164
2.029894076
2.001025245
1.967481394
1.942912309
1.922822126
1.897716899
1.867515253
1.846026285
1.824690131
1.796710633
1.760750952
1.737523765
1.721134617
1.702478577
1.676510375
1.654712656
1.636573432
1.615912623
1.584884816
1.560181092
1.532341219
2.420724502
2.381145338
2.33809731
2.308209848
2.27512656
2.233256487
2.196727391
2.170215386
2.139064012
2.098820242
2.069334469
2.047842232
2.020259271
1.986732751
1.957741606
1.93287753
1.903394625
1.870778915
1.849652228
1.829763332
1.803389041
1.76911655
1.746043656
1.728261167
1.70798898
1.681542324
1.660684225
1.644343452
1.624941319
1.59537493
1.569307665
1.538556759
2.433308074
2.394491507
2.350693124
2.321605638
2.28995647
2.249129035
2.212566796
2.185068484
2.153836344
2.114064443
2.086159939
2.065843762
2.039874897
2.008210601
1.977787992
1.948095011
1.912906568
1.876191499
1.854082506
1.835177065
1.810380361
1.778038553
1.754733896
1.735499007
1.713212086
1.68515652
1.664777386
1.650094286
1.632175481
1.605399639
1.579580454
1.545376105
2.446124768
2.406545348
2.360732914
2.331103407
2.302389573
2.265338815
2.231521719
2.2038352
2.171258573
2.129639729
2.102461501
2.083333373
2.057020004
2.026514757
1.995831865
1.964939812
1.926425825
1.885406345
1.861490384
1.842452385
1.81851569
1.787975496
1.76437624
1.744458984
1.720390418
1.691347761
1.669467244
1.654692953
1.637640008
1.612954346
1.588175377
1.551804512
2.457867732
2.418818337
2.37254087
2.340738806
2.311899366
2.275519191
2.245336076
2.220160295
2.18736953
2.143185938
2.109819264
2.083757102
2.055905372
2.026981489
2.004990059
1.977946065
1.940668209
1.898398598
1.873254931
1.853254026
1.828606676
1.799068349
1.775681236
1.755493963
1.730525994
1.700590473
1.677239677
1.66035247
1.641854295
1.61735978
1.592744507
1.555858395
2.469314842
2.434125465
2.390727709
2.354343983
2.321526862
2.281846153
2.252847626
2.23089066
2.199836982
2.154050819
2.11629908
2.086212687
2.055421632
2.027278437
2.007971039
1.985390702
1.951890441
1.9121983
1.887017647
1.866422946
1.841828941
1.812254302
1.788155898
1.767405994
1.742693238
1.709906447
1.687997591
1.672601999
1.65201763
1.625124189
1.597421608
1.559463244
2.480216225
2.452151961
2.413876898
2.373888208
2.334206219
2.288186647
2.257713288
2.23792896
2.209352758
2.164878252
2.124821776
2.092270189
2.058496025
2.029689976
2.011320246
1.990791385
1.959959704
1.92345209
1.898880654
1.877350174
1.851538563
1.82234607
1.798940876
1.777637197
1.752222604
1.717816928
1.690351133
1.670798692
1.648731737
1.621639549
1.598940188
1.563277388
2.49119791
2.468181396
2.435143371
2.395777114
2.351229273
2.297619643
2.263543833
2.243905881
2.217585441
2.176951156
2.136992117
2.1036348
2.066998054
2.03712836
2.017518383
1.996637469
1.966838087
1.931446617
1.906523281
1.884033685
1.855982768
1.826876877
1.805799345
1.785195714
1.759600376
1.724188889
1.692793818
1.671105623
1.648881407
1.622982738
1.599099232
1.568428694
2.502764443
2.480634118
2.451149091
2.414999596
2.3706261
2.311987197
2.273116119
2.251167873
2.225852714
2.189675914
2.153144648
2.120449302
2.082281944
2.051266943
2.029286417
2.005740823
1.974396839
1.938841289
1.911866434
1.887582975
1.858773835
1.829917487
1.809826957
1.790223373
1.765179889
1.729715797
1.696326758
1.672212092
1.650439974
1.623979436
1.600807531
1.577357034
2.512132183
2.48994815
2.461891012
2.429502595
2.388458639
2.329773736
2.286734974
2.261417332
2.235373082
2.202767472
2.170340411
2.139847685
2.100520015
2.066778092
2.043203992
2.017365609
1.984183725
1.947888692
1.918525279
1.891607906
1.861548758
1.833338044
1.814240876
1.794823352
1.7699859
1.735203285
1.700854081
1.674733278
1.654058653
1.627894213
1.608139557
1.595531605
2.521090466
2.498365993
2.470490689
2.440142152
2.402067417
2.34540186
2.300250109
2.272965738
2.245913133
2.215446758
2.185458694
2.155401889
2.115095481
2.082200992
2.055615346
2.028000319
1.995490532
1.960258819
1.929169181
1.8999412
1.866511342
1.834842389
1.816139874
1.79968164
1.775179822
1.74113619
1.706927813
1.68020816
1.660764812
1.63511008
1.624687434
1.625022227
2.534190926
2.509930848
2.479757616
2.448067539
2.409844008
2.35593596
2.310469652
2.282974578
2.255602982
2.226299679
2.196892983
2.165571675
2.122654223
2.080499693
2.05926056
2.039753108
2.010495408
1.975341384
1.943828499
1.913624157
1.876296269
1.838117609
1.816860691
1.799318732
1.776304523
1.746223843
1.715510427
1.690166914
1.672594824
1.659605517
1.655999412
1.658744456
2.548100707
2.524994114
2.494541305
2.45807578
2.417690069
2.363979139
2.317217147
2.290020443
2.263700186
2.234616772
2.20552703
2.172788897
2.127523756
2.081942936
2.056613688
2.035668345
2.010865775
1.983690561
1.955898581
1.926825763
1.889454575
1.845071306
1.818001905
1.800157062
1.780339848
1.753446573
1.728084763
1.708457264
1.702556121
1.694237823
1.692736074
1.688813963
2.567158275
2.534615772
2.500848254
2.467286373
2.427326559
2.375019185
2.326353305
2.29587462
2.268635925
2.239426147
2.212032885
2.180504175
2.135410342
2.087044651
2.056557071
2.03186657
2.010097744
1.991611753
1.96917019
1.942348548
1.902598755
1.853138382
1.819343125
1.800953858
1.783796666
1.762677318
1.748167903
1.741012235
1.739060107
1.726787216
1.723942731
1.713339359
2.586553087
2.542712546
2.506815841
2.477549477
2.441154363
2.392593353
2.340739571
2.301831767
2.269308391
2.240896636
2.216132844
2.1891757
2.149092833
2.100194833
2.061884351
2.033090009
2.0037795
1.981794275
1.961423447
1.937597181
1.905310258
1.8599623
1.823599388
1.80533517
1.789569617
1.781384336
1.780350519
1.779838727
1.77397912
1.755236082
1.747419923
1.729433443
2.608415648
2.551029567
2.512301584
2.487713926
2.457318141
2.412130378
2.358911524
2.312050946
2.271521954
2.240889893
2.21885634
2.196440259
2.164822335
2.120793644
2.07633694
2.038348809
2.000136226
1.972107199
1.952625552
1.932155354
1.904692426
1.866860681
1.832314408
1.816869751
1.810244632
1.811358009
1.812805679
1.812715136
1.802055703
1.780193834
1.764055149
1.743018349
2.622030093
2.563293366
2.520851381
2.495555627
2.466982589
2.425012495
2.377785698
2.330078103
2.283743452
2.246393783
2.227081992
2.21055554
2.180270341
2.140080974
2.094604887
2.048441296
2.003285464
1.969605656
1.947588594
1.930039334
1.907713009
1.879161311
1.85432425
1.850384479
1.846652931
1.84915712
1.848101301
1.838742514
1.824006823
1.79943734
1.77472153
1.743076666
2.638278053
2.580602999
2.532545031
2.500769443
2.472041252
2.437011152
2.392178485
2.350021986
2.302699973
2.258546406
2.231184319
2.206424542
2.180929702
2.147815539
2.104776732
2.059150174
2.011210183
1.972804351
1.949020797
1.932932524
1.918887882
1.90539029
1.896233093
1.893585361
1.883736535
1.881651255
1.875947685
1.860331903
1.840546836
1.813160365
1.783844516
1.745369105
2.654598525
2.604560369
2.546807448
2.496037572
2.455295128
2.425044265
2.40298479
2.370719484
2.324838216
2.275049765
2.234655971
2.204789658
2.172371233
2.138499455
2.106191206
2.066676632
2.02332583
1.983340384
1.959451421
1.948198351
1.951378993
1.947072466
1.942527814
1.933396285
1.918339248
1.909081804
1.89567381
1.874129867
1.848546036
1.816684299
1.784387354
1.749546836
2.669148174
2.616421959
2.55650729
2.501143214
2.453044194
2.418436266
2.395928797
2.373639226
2.33958387
2.288878336
2.240840003
2.199796995
2.159032882
2.124254172
2.096354269
2.068658669
2.036456063
2.00423945
1.991453793
1.989681753
1.99802835
1.992218575
1.978177804
1.961589625
1.943094194
1.927819121
1.913653349
1.888944689
1.85760405
1.818766181
1.787050627
1.755942072
2.671898605
2.617488473
2.565022347
2.514728003
2.465180118
2.419746516
2.391933904
2.369981858
2.338222826
2.296576746
2.248595299
2.199193806
2.155302928
2.120966769
2.096355902
2.076377934
2.055927958
2.043091699
2.038545714
2.041624907
2.044292159
2.032252079
2.007593045
1.98224557
1.959468761
1.936756714
1.910104583
1.879341823
1.853284302
1.820829768
1.795014644
1.767530522
2.669893483
2.615558252
2.572147781
2.530223295
2.481734788
2.433436921
2.397253606
2.362517194
2.32242822
2.276374361
2.234780814
2.197764528
2.159468849
2.126883587
2.106231985
2.094012846
2.090823353
2.087192381
2.079491453
2.078422687
2.068854401
2.051371638
2.027177704
1.996996159
1.967014108
1.938916838
1.906358453
1.875472947
1.854533999
1.829531495
1.813550548
1.783497347
2.674569157
2.625268812
2.585600405
2.547753479
2.500106833
2.450808716
2.409125049
2.36842741
2.323788201
2.275907167
2.234017667
2.205417505
2.17561943
2.150842018
2.142279358
2.140494211
2.140855216
2.130517642
2.115956919
2.104796332
2.08804219
2.064385893
2.041210389
2.010515312
1.975952962
1.941865116
1.905992598
1.879104773
1.86770111
1.857349673
1.836473064
1.797694776
2.6814211
2.631099096
2.583638288
2.538030774
2.487401933
2.43942077
2.400899964
2.363420285
2.321524266
2.275809477
2.233361565
2.204374508
2.180291204
2.160956203
2.157147411
2.161444938
2.163357419
2.150461843
2.12572874
2.106303676
2.088707352
2.070936173
2.046724152
2.015368444
1.973299356
1.930748577
1.905842392
1.885679519
1.877722599
1.869670013
1.846829777
1.80103331
2.680214364
2.630507061
2.582677932
2.535428948
2.48353146
2.435656958
2.397605093
2.360650638
2.319608791
2.274426891
2.233436953
2.205606532
2.18217491
2.163357408
2.16027337
2.164598296
2.166365725
2.152437731
2.12616155
2.106505184
2.089444913
2.072088492
2.046756932
2.012666393
1.96924301
1.928114732
1.904198342
1.885410703
1.877842378
1.869545711
1.847125788
1.802134669
2.679100759
2.629441513
2.581867869
2.533997275
2.480868487
2.432771751
2.395197186
2.358630918
2.318430724
2.273892208
2.233790204
2.206195445
2.183644618
2.165348541
2.1633608
2.167206916
2.169197435
2.154314322
2.127328998
2.10682871
2.090040055
2.073107211
2.046986427
2.010855528
1.965621051
1.925276102
1.90269017
1.88538024
1.878035884
1.869601317
1.847656715
1.803052957
2.677313535
2.628822211
2.580915114
2.531980986
2.477547632
2.429280304
2.392363761
2.356619272
2.316975244
2.273393088
2.234271128
2.206914275
2.185391373
2.16843413
2.16560819
2.171099522
2.171284805
2.155759243
2.128167843
2.107182143
2.091017802
2.074446818
2.047096455
2.009636013
1.963459403
1.923554665
1.901706026
1.885139988
1.878218667
1.869731033
1.848077393
1.803962814
2.675379879
2.62815161
2.580025545
2.529794374
2.474512283
2.426067182
2.389649162
2.354807561
2.316153033
2.27292966
2.234480347
2.207920765
2.187122954
2.171704966
2.168553803
2.174850408
2.17295086
2.157259752
2.129074986
2.107960651
2.092283013
2.075310339
2.047200892
2.008452945
1.962263093
1.921961198
1.90138877
1.885132003
1.878900412
1.87040561
1.848345468
1.80458943
2.674425275
2.627403215
2.57917072
2.527828215
2.471425702
2.422887301
2.386998605
2.35303411
2.315335697
2.27255981
2.234602047
2.209110191
2.189046192
2.174477644
2.173645182
2.176833603
2.175489985
2.158657948
2.129830857
2.108948234
2.093780863
2.076243236
2.047317802
2.007253039
1.960679332
1.920518346
1.900704882
1.885460363
1.879946645
1.871233034
1.848577781
1.804930932
2.673366303
2.626625544
2.578201427
2.526295679
2.468037401
2.419429681
2.38449814
2.35148824
2.31453209
2.272346334
2.235725694
2.210792255
2.191204737
2.176922545
2.178462721
2.178788137
2.178151241
2.159539846
2.130562186
2.11075495
2.095512739
2.077615712
2.047607484
2.00624918
1.959127364
1.919686591
1.900155208
1.886239451
1.881735135
1.872575095
1.848909236
1.805122206
2.67220113
2.625878963
2.576717824
2.524134463
2.46419457
2.41548982
2.38171436
2.349869168
2.31372342
2.272226372
2.236691624
2.212818325
2.194541599
2.180687999
2.180787684
2.182891713
2.17960227
2.160065239
2.131359915
2.112010668
2.097053668
2.079332426
2.048111149
2.005421449
1.957682369
1.918911223
1.900377289
1.887742126
1.8841472
1.873914512
1.849237578
1.805340383
2.671252337
2.625149696
2.575415245
2.520717563
2.460713503
2.412351409
2.378829775
2.3481994
2.312981576
2.272438795
2.238246922
2.215351764
2.198702059
2.185934694
2.181904173
2.188397116
2.180131857
2.160387375
2.132147596
2.112995034
2.098320203
2.080653581
2.048662154
2.004657257
1.956336887
1.918186832
1.900997207
1.889807206
1.886158886
1.874864788
1.849384026
1.805581545
2.670214775
2.624458433
2.574517418
2.517505777
2.457582817
2.40998651
2.376657172
2.346863822
2.312388818
2.272386509
2.240028537
2.217100609
2.200675237
2.189246043
2.184846546
2.190804546
2.181167529
2.161130012
2.13284732
2.114023933
2.099660814
2.081308411
2.048697379
2.003713773
1.955239434
1.917588463
1.90234134
1.892081793
1.887593499
1.875548733
1.849728772
1.805743684
2.669319643
2.623698411
2.573177018
2.515422156
2.453861167
2.406938533
2.375022447
2.346010885
2.312061627
2.273028264
2.241127694
2.218400528
2.201274868
2.190507839
2.19057301
2.19114682
2.183185092
2.162056137
2.133383229
2.114671991
2.100668421
2.081824729
2.04841452
2.002458163
1.954981905
1.917157111
1.904368413
1.894660226
1.889299845
1.87618268
1.849011367
1.805808962
2.668431487
2.622771144
2.570288717
2.51310419
2.449376306
2.402627707
2.373012845
2.345280358
2.311372301
2.273675386
2.242616801
2.220704517
2.203552929
2.192289178
2.195402263
2.192611763
2.185708783
2.162840167
2.133837307
2.115109286
2.101364156
2.082614897
2.047827643
2.002040163
1.952506719
1.917223684
1.906889686
1.897624633
1.891394093
1.876810496
1.848417072
1.80571029
2.667308274
2.621703757
2.567816411
2.508679916
2.44554452
2.399622929
2.36993915
2.344208325
2.311332456
2.274449762
2.244334967
2.223328682
2.208074233
2.196630724
2.198007242
2.197244716
2.187092657
2.163351879
2.134294842
2.115696837
2.102306091
2.083216591
2.046899904
1.999874232
1.950937621
1.918470559
1.909270256
1.900315188
1.892286687
1.877127033
1.848007365
1.805538221
2.666246354
2.620602911
2.567133894
2.503064618
2.442271325
2.398008006
2.367640235
2.342669654
2.31104054
2.274687448
2.245331867
2.225046528
2.212050306
2.203187201
2.198643385
2.203491193
2.187757365
2.163472861
2.134795137
2.116798185
2.10387722
2.0836314
2.046114689
1.998345992
1.949686417
1.919647687
1.910917959
1.901895222
1.892480903
1.877052415
1.848035021
1.805897538
2.665362719
2.61958708
2.566592323
2.500637222
2.438108113
2.395927223
2.366564702
2.342084592
2.310766181
2.27422646
2.246045192
2.226467512
2.214681422
2.207819803
2.200962334
2.2057309
2.188306161
2.163693079
2.135400936
2.118537235
2.105483237
2.083966694
2.045735742
1.997131228
1.948837312
1.920613282
1.912081911
1.902806578
1.89273287
1.87680912
1.846720091
1.805624051
2.664488157
2.618501153
2.564311451
2.499637497
2.433633268
2.392201791
2.365483806
2.341846126
2.310586629
2.27280256
2.247493046
2.228720584
2.216652237
2.210123633
2.206687342
2.205803026
2.189458783
2.164201613
2.136578674
2.120644294
2.106751199
2.084369357
2.044956504
1.996157167
1.94840678
1.92166046
1.912612552
1.903937309
1.893041004
1.876682949
1.846153112
1.805429033
2.693997041
2.663304286
2.616926232
2.559793462
2.497069383
2.430983597
2.388239947
2.363948187
2.34179127
2.3105708
2.274220666
2.250087242
2.232689706
2.220300939
2.211849837
2.213896715
2.205688638
2.191708958
2.165088497
2.138496801
2.122991627
2.107727489
2.084806543
2.043777647
1.995475491
1.948930966
1.922696134
1.91281708
1.905700377
1.894300377
1.87721452
1.845942072
1.804939361
2.693545312
2.662232356
2.615557904
2.557460295
2.49010451
2.428706773
2.386342931
2.361807982
2.34154573
2.310409386
2.275236032
2.253341715
2.237724492
2.226673846
2.216365383
2.216924803
2.207918467
2.193117159
2.166293001
2.140444502
2.124932259
2.108969674
2.085158344
2.042585397
1.996137647
1.949649921
1.923563447
1.913237197
1.907097513
1.89487457
1.877017573
1.845943737
1.804554324
2.693153648
2.661595488
2.614997476
2.557514726
2.484062703
2.424608933
2.385153722
2.35992801
2.341117117
2.309992907
2.276880076
2.255831901
2.241355349
2.232555631
2.224076515
2.216900629
2.212704379
2.19353277
2.167149532
2.142310748
2.126815982
2.110577004
2.085173763
2.04103166
1.99468332
1.949048754
1.924428922
1.914360119
1.907734633
1.894785945
1.876524608
1.846023652
1.80434358
2.691857512
2.661057032
2.614109721
2.557018578
2.482835991
2.419340281
2.383667389
2.358739855
2.340463684
2.309934474
2.278702515
2.257463556
2.243084085
2.235837358
2.229258783
2.217123923
2.214513939
2.193765574
2.167531237
2.14337934
2.128990964
2.11160755
2.084409128
2.039000311
1.991310625
1.947952523
1.9255301
1.916368084
1.908273121
1.894816904
1.876176569
1.845950454
1.804229575
2.689184145
2.660320528
2.611714394
2.553047308
2.482878996
2.416710877
2.381305677
2.357802562
2.339559836
2.308448508
2.280013964
2.260161065
2.245578456
2.236093634
2.231780347
2.220826072
2.215002999
2.194139821
2.168167107
2.144542307
2.130428398
2.112100229
2.083275954
2.036273987
1.987305522
1.947278954
1.926952009
1.917970458
1.90904018
1.894971024
1.876049811
1.845950857
1.804223712
2.688088994
2.65929634
2.609944077
2.547535324
2.479438016
2.415059948
2.377867914
2.356962925
2.338316661
2.309369223
2.282013338
2.264884814
2.250796522
2.238484196
2.231314254
2.228069813
2.214207339
2.194871737
2.169466811
2.146313656
2.131156518
2.111974464
2.081947487
2.034061749
1.985556044
1.946927374
1.928489619
1.918813914
1.91012777
1.895284172
1.876249217
1.846279009
1.804422459
2.688174502
2.657974765
2.609525805
2.545707488
2.470530699
2.41249219
2.375395037
2.355978115
2.3370055
2.310304612
2.284774469
2.268647568
2.256414327
2.244254693
2.233588122
2.230845477
2.214211155
2.196596535
2.170625622
2.147885947
2.131837522
2.111850272
2.080600244
2.033320549
1.984367023
1.946863229
1.929861458
1.91972871
1.911202556
1.89594661
1.876613364
1.846883442
1.804823399
2.687700043
2.656342831
2.60834968
2.545735431
2.464266965
2.408206726
2.373845574
2.354644485
2.337366535
2.31130614
2.286810215
2.270233648
2.259199468
2.249459159
2.23975109
2.231724536
2.215492804
2.198230587
2.171201866
2.14871176
2.132775756
2.111885907
2.079834798
2.032279817
1.982219069
1.946990199
1.930822136
1.921380728
1.912110045
1.897038801
1.876554045
1.847051628
1.805407218
2.686475234
2.654354025
2.604490385
2.543363042
2.462402013
2.404114532
2.372302288
2.353033442
2.337816216
2.312191276
2.287673787
2.270380936
2.259125781
2.252119492
2.246632918
2.230304709
2.218360004
2.198658823
2.171325991
2.149172472
2.133581239
2.111628337
2.078764008
2.029559689
1.979711423
1.947146366
1.931473495
1.922635793
1.913104895
1.897884854
1.876276794
1.846978273
1.806004008
2.684589719
2.652220979
2.599556166
2.536181509
2.461915899
2.401775433
2.370335171
2.35189227
2.337586453
2.312570893
2.289108743
2.272610398
2.260454324
2.252001288
2.24951108
2.231507282
2.219474487
2.198887064
2.171580594
2.150116602
2.133962356
2.110884824
2.076425669
2.02658239
1.978499124
1.947219036
1.932129238
1.922892478
1.914271316
1.898274665
1.876088052
1.846951131
1.80659987
2.682745218
2.650221135
2.597327106
2.527970841
2.458224562
2.400227884
2.368055299
2.351793581
2.336969359
2.313226557
2.29217995
2.27726619
2.265306723
2.25428668
2.249436896
2.235758796
2.219941607
2.199379395
2.172533508
2.152151406
2.134079502
2.10977629
2.074120842
2.024893938
1.978338161
1.947369692
1.933002097
1.923305889
1.915213655
1.898605048
1.876106712
1.847097098
1.807132254
2.681168879
2.648379382
2.59704467
2.52438554
2.449537436
2.398267642
2.366112839
2.351796316
2.337878966
2.314736154
2.295096875
2.280920584
2.27189215
2.260139062
2.249578634
2.239895945
2.219933106
2.200593841
2.174908571
2.153746257
2.134215355
2.10911285
2.072559483
2.023532396
1.978240253
1.947719824
1.934339658
1.925010705
1.91631268
1.899328894
1.876425163
1.847473216
1.807681597
2.679659857
2.646060826
2.594625655
2.524865014
2.442781281
2.395000802
2.364630838
2.351240914
2.339145622
2.316482527
2.296521823
2.283044937
2.275573251
2.265826618
2.253568232
2.24103936
2.220039139
2.202350748
2.176702171
2.15399056
2.13423634
2.108603132
2.070381284
2.020788283
1.976768006
1.948521544
1.936662614
1.929274259
1.918439049
1.90055994
1.876927792
1.848009178
1.808378829
2.678082054
2.641969419
2.587573388
2.523273965
2.440728343
2.391767317
2.364484233
2.35081229
2.34007421
2.317733579
2.297087845
2.283389547
2.276899055
2.26866154
2.261143276
2.241532664
2.220931736
2.204125696
2.177449004
2.154243262
2.134213788
2.107142628
2.066647739
2.015485739
1.974701698
1.950260873
1.941593978
1.935574931
1.921355033
1.901839847
1.877216492
1.848580909
1.809211669
2.676421757
2.63751655
2.581852816
2.516161753
2.4411994
2.390827519
2.364523181
2.35107475
2.340312715
2.318207558
2.299303115
2.285188267
2.277530258
2.26898184
2.264216975
2.240466972
2.222635701
2.206367594
2.178231936
2.155566241
2.133511195
2.104639386
2.061069709
2.010255735
1.974274578
1.954347242
1.948532515
1.940495647
1.923382471
1.90240104
1.877284086
1.849206759
1.810188603
2.674493901
2.635745975
2.580646127
2.506637213
2.43937298
2.390329963
2.364537253
2.351999374
2.340290711
2.319340689
2.304109379
2.290232878
2.282132142
2.271835029
2.265249723
2.240831093
2.223586003
2.207919124
2.180627589
2.158708423
2.132805486
2.101289755
2.056213728
2.008140879
1.975110205
1.960364568
1.954351401
1.943032361
1.925036943
1.902751448
1.877357507
1.850007586
1.811216717
2.699531472
2.671819752
2.635117173
2.581018319
2.502867841
2.434440832
2.389738426
2.363740772
2.353479461
2.341702326
2.322321573
2.307972823
2.296117681
2.290240359
2.277543802
2.263927903
2.242632981
2.22404346
2.208244575
2.184602655
2.16107163
2.131808685
2.098252763
2.052331661
2.007897386
1.978213349
1.965752825
1.960733247
1.946932394
1.927291452
1.903287712
1.877648058
1.850814766
1.812210483
2.697503345
2.668749573
2.632891397
2.577393419
2.503164738
2.42808067
2.388579356
2.36351709
2.353951455
2.344351092
2.326202448
2.309585268
2.29911838
2.294738091
2.281090726
2.264304864
2.246002739
2.223939409
2.208409609
2.186482444
2.161398625
2.130913544
2.095255839
2.046186522
2.005879955
1.982971477
1.96965044
1.965342087
1.951155873
1.928534448
1.903769454
1.877734031
1.851299579
1.813092738
2.695520917
2.665926442
2.626579519
2.568688876
2.501879073
2.426104231
2.387049206
2.364042013
2.354443223
2.346203937
2.328527709
2.310246919
2.299142191
2.296650956
2.282730579
2.267006327
2.24725914
2.224252531
2.209424665
2.18645507
2.160996165
2.130115451
2.091088764
2.041711351
2.00458993
1.985545534
1.975085528
1.966734078
1.951922706
1.928434057
1.903853398
1.877465653
1.851575913
1.813910163
2.693293215
2.662602908
2.620408348
2.563294806
2.496116203
2.42585526
2.387054645
2.36490666
2.356132559
2.346742931
2.329392488
2.313358785
2.300343886
2.295480897
2.281967966
2.270887047
2.247782227
2.225389182
2.212015599
2.186359752
2.161135496
2.129097444
2.0876458
2.039781773
2.005341873
1.987471812
1.979655799
1.968530303
1.952084377
1.928017434
1.903435176
1.876890041
1.851823968
1.814800263
2.690135416
2.659421714
2.618633261
2.561687188
2.486886758
2.425431661
2.387229531
2.36618658
2.357119811
2.346890223
2.330238501
2.318549273
2.305165939
2.298218181
2.28366779
2.272186552
2.247510284
2.226755678
2.214925894
2.188152671
2.16276719
2.127957557
2.084127625
2.036790105
2.006757055
1.99069793
1.98096862
1.971595246
1.952540072
1.927817541
1.902947047
1.876356056
1.852158217
1.816027889
2.686697663
2.657844071
2.619703939
2.562843444
2.483145422
2.424041508
2.387165904
2.366989865
2.35838803
2.348965582
2.333276819
2.321990983
2.310795239
2.30450796
2.287163199
2.272905461
2.246793641
2.22726491
2.216006903
2.191929946
2.165224186
2.126742751
2.081351644
2.034922849
2.008161535
1.993818395
1.982006341
1.973311427
1.95338826
1.928326142
2.684629248
2.656728903
2.618721613
2.560598773
)
;

boundaryField
{
    inlet
    {
        type            fixedValue;
        value           nonuniform 0();
    }
    outlet
    {
        type            zeroGradient;
    }
    bottom
    {
        type            slip;
    }
    top
    {
        type            slip;
    }
    obstacle
    {
        type            zeroGradient;
    }
    defaultFaces
    {
        type            empty;
    }
    procBoundary11to5
    {
        type            processor;
        value           nonuniform List<scalar> 
33
(
1.860566079
1.840587259
1.812533462
1.777084541
1.749722898
1.727483165
1.702823037
1.673279596
1.650545041
1.633257813
1.614451459
1.588460671
1.567209132
1.554089442
1.539587301
1.516722905
1.497055111
1.468803537
2.292497844
2.270125964
2.235177121
2.193947728
2.160829996
2.127688017
2.102551503
2.07781905
2.042491832
2.001361163
1.967615998
1.94226342
1.913641479
1.883773971
1.883773971
)
;
    }
    procBoundary11to10
    {
        type            processor;
        value           nonuniform List<scalar> 
70
(
2.368702771
2.370715977
2.378579211
2.391355811
2.406760344
2.422488255
2.434986903
2.445743359
2.454988862
2.464638045
2.474885678
2.484347548
2.491817642
2.49858807
2.509511681
2.523645292
2.536548199
2.551350022
2.565195855
2.579587966
2.601474141
2.627217662
2.65888145
2.673167864
2.683432772
2.679585382
2.691101513
2.712712228
2.722606755
2.720930627
2.722119428
2.721409922
2.719902404
2.718171718
2.716288577
2.71441031
2.712302059
2.709909067
2.708388481
2.706480713
2.704809841
2.702481143
2.701173034
2.69995392
2.69796507
2.695451922
2.695451922
2.731813598
2.729095518
2.728258677
2.727670283
2.72554783
2.722128192
2.718415235
2.716498103
2.715645993
2.71421482
2.712311386
2.71035536
2.708420699
2.705913389
2.703326211
2.701345798
2.701345798
2.708902422
2.706913381
2.703346936
2.699334932
2.697797223
2.698358129
)
;
    }
    procBoundary11to16
    {
        type            processor;
        value           uniform 2.699441871;
    }
    procBoundary11to17
    {
        type            processor;
        value           nonuniform List<scalar> 
36
(
1.902811954
1.876021344
1.852637783
1.817908707
2.482599317
2.419890053
2.386819049
2.367145659
2.36017942
2.352625282
2.338281341
2.323071187
2.313945797
2.309492267
2.289824018
2.272021629
2.247364021
2.227820395
2.216126695
2.193327819
2.165310611
2.125655438
2.080276514
2.03485925
2.008642848
1.994877589
1.984357113
1.973660631
1.954335466
1.902811954
1.929716599
2.683044957
2.654368251
2.613437303
2.482599317
2.553421836
)
;
    }
}


// ************************************************************************* //
