/*--------------------------------*- C++ -*----------------------------------*\
  =========                 |
  \\      /  F ield         | OpenFOAM: The Open Source CFD Toolbox
   \\    /   O peration     | Website:  https://openfoam.org
    \\  /    A nd           | Version:  7
     \\/     M anipulation  |
\*---------------------------------------------------------------------------*/
FoamFile
{
    version     2.0;
    format      ascii;
    class       volScalarField;
    location    "1.7";
    object      rho;
}
// * * * * * * * * * * * * * * * * * * * * * * * * * * * * * * * * * * * * * //

dimensions      [1 -3 0 0 0 0 0];

internalField   nonuniform List<scalar> 
2222
(
1.380897898
1.376135131
1.373311118
1.374161077
1.379506195
1.379694386
1.377504136
0.8603285137
0.8907944548
0.910696185
0.9231813582
0.9310107559
0.9330702966
0.929637468
0.9202697679
0.9098438443
0.903667026
0.903442977
0.9034933997
0.9027069517
0.8999166872
0.8971293919
0.896469028
0.8971309007
0.9039013085
0.9403609414
1.050204531
1.22085357
1.322614634
1.363253255
1.371456716
1.377026269
1.380096925
1.375751269
1.372944896
1.373271382
1.378478137
1.380412283
1.378429483
0.7935898846
0.8083753376
0.8569219659
0.8928644529
0.9105479093
0.9229716203
0.9307830415
0.9324940973
0.9290951292
0.9211654777
0.910574848
0.9038571644
0.9033151787
0.9033520679
0.9027577517
0.9002073522
0.8973035025
0.8964602205
0.8968757822
0.9009864992
0.9244885041
1.013944113
1.187269894
1.323534075
1.363869197
1.371648167
1.376284171
1.379206399
1.375985468
1.372918866
1.373142155
1.378225206
1.381212085
1.378704922
0.7929317175
0.8043254756
0.8536716313
0.8932138255
0.9101589675
0.9230410801
0.9297182436
0.9309430853
0.9289478126
0.9218419157
0.9113343111
0.9040356135
0.9032225941
0.9031520462
0.9026941551
0.9004722052
0.8975897182
0.8965329645
0.8967326464
0.8991850192
0.9160132254
0.9868311511
1.141459677
1.309389707
1.364084452
1.372996208
1.37576728
1.378992137
1.376971484
1.373918886
1.373933117
1.379010495
1.381357293
1.378531503
0.7928947038
0.8005794103
0.8497318858
0.8938793703
0.9093363504
0.9216755407
0.9280427523
0.9297844304
0.9289494695
0.9224215116
0.9122664616
0.9043163041
0.9031968142
0.9029572691
0.9026446804
0.9010068104
0.8983032654
0.8968157945
0.8966871842
0.8985080107
0.9103163218
0.9617268062
1.107336324
1.274223113
1.359959612
1.372392792
1.375828114
1.380631657
1.378726314
1.375435968
1.37562979
1.380302191
1.381146681
1.37831518
0.7926316886
0.7970320854
0.8457761182
0.8944619752
0.9087424221
0.9190090333
0.9268144065
0.9290941182
0.9289629985
0.9230718
0.9134866841
0.9049597053
0.9031601721
0.9028099121
0.9026810432
0.9016720954
0.8989279506
0.8971321042
0.896930839
0.8977938073
0.9051437923
0.9460316255
1.071624776
1.238381669
1.340364081
1.370397914
1.376011154
1.382832389
1.380723188
1.376252047
1.376439651
1.380400662
1.380822015
1.377520339
1.376790429
0.7922571342
0.7941096329
0.8426933637
0.8950613881
0.9093475155
0.9177226822
0.9261228745
0.9287338741
0.9284454143
0.9235466873
0.9144573093
0.9058595515
0.9030756549
0.9027068974
0.9027596486
0.9019691894
0.8992562754
0.8973373291
0.8970879259
0.8975180064
0.9025420707
0.9293616721
1.025650977
1.204924392
1.321090023
1.36455912
1.376277617
1.384221865
1.381058181
1.376305051
1.376562947
1.379732404
1.380178211
1.377588831
1.37699062
0.7921994456
0.7916899091
0.8399901674
0.8952191126
0.9104767145
0.9175621258
0.9256470119
0.9280641557
0.9267710281
0.9236287984
0.9151207723
0.9064104312
0.9031168355
0.9026025797
0.902700393
0.9020913698
0.8995199111
0.8975898826
0.8972894398
0.8972992117
0.9003889458
0.917413962
0.9867358027
1.158312055
1.306063682
1.35918765
1.376623933
1.384172904
1.380964056
1.376002323
1.37625895
1.378197205
1.380191939
1.377782087
1.377663114
0.7943857532
0.7896812906
0.8371839718
0.8949936121
0.9114216947
0.9172410725
0.9245075714
0.9261068097
0.9248126543
0.9234927337
0.915821569
0.9068603702
0.9029185546
0.9024951605
0.9024172637
0.9021606429
0.9000032331
0.8979680574
0.8974626319
0.8973288952
0.899144994
0.9127393196
0.9662184058
1.102686084
1.281879515
1.35984852
1.376529024
1.38230724
1.38048978
1.376129975
1.376310177
1.377391755
1.380267453
1.378425998
1.378678021
0.7966035826
0.788787375
0.8340476556
0.8943467543
0.9120773305
0.9155115109
0.9216868106
0.9236421953
0.9235231716
0.922956608
0.9167221546
0.9075717625
0.9028501766
0.9024483065
0.9024108368
0.9022394929
0.9006981614
0.8983321148
0.8976140628
0.8973757842
0.8985033794
0.908011929
0.9511917752
1.068905546
1.243437979
1.354321105
1.376710007
1.379944937
1.380373203
1.376575172
1.376613197
1.377125553
1.380600934
1.37904095
1.378677476
0.7987019262
0.7880328268
0.8310416966
0.8937724869
0.9122903416
0.913526249
0.9197308102
0.9222131304
0.9223751168
0.9218719691
0.9174570808
0.9088310121
0.9031727734
0.9022930059
0.9021503728
0.9023505287
0.9013350832
0.898698177
0.8977904573
0.8974768463
0.8979679431
0.9037356149
0.934702898
1.042049113
1.208616828
1.333055378
1.371924653
1.379279606
1.381686377
1.377221547
1.377315151
1.377710989
1.380878067
1.379055206
1.378136439
0.8034144485
0.7883295868
0.8276762844
0.8929212426
0.9150131889
0.9132494459
0.9190073847
0.9212938022
0.9206437777
0.9208466154
0.9177736824
0.9097133805
0.9035488
0.9021953953
0.9020407767
0.9026160473
0.9018030653
0.8991775635
0.8979581495
0.897631135
0.8977363173
0.9016249134
0.9213133367
1.003756659
1.173935449
1.309591193
1.360600011
1.381459441
1.384054816
1.377432
1.377356189
1.37797832
1.380939272
1.378942061
1.377461346
0.8073776338
0.7890062165
0.8236316168
0.8914724197
0.9174376411
0.9137225076
0.9180851104
0.9199729348
0.918893324
0.9198860568
0.9181223534
0.9104522991
0.9037054341
0.9021760515
0.9021482375
0.9028870698
0.9020798671
0.8996738918
0.8981346422
0.8978048812
0.8977527816
0.9001446477
0.9151020571
0.9716034123
1.12613981
1.281168692
1.351543181
1.384091445
1.384732881
1.376933658
1.376991098
1.377606341
1.380480291
1.378696264
1.376756567
0.8117450244
0.7895070797
0.8196551888
0.8893204865
0.9200337555
0.9137223921
0.9161962556
0.9181349591
0.9175508197
0.9190340904
0.9181724131
0.9109261699
0.9037650659
0.9022009728
0.9023548751
0.9030037107
0.9021838075
0.9000180575
0.8983646579
0.8980320042
0.89783175
0.8993658307
0.9109922731
0.9566526553
1.074564362
1.253573064
1.347149661
1.383522621
1.384675137
1.376126034
1.376567728
1.375882371
1.379956862
1.377737312
1.375663358
1.375990591
0.8165968026
0.790832163
0.8158568065
0.8872525749
0.9231209323
0.9140368833
0.9146431602
0.9161868648
0.9161748568
0.9173495396
0.918078458
0.9115139774
0.9044179436
0.9025013313
0.902353956
0.9029307232
0.9022370739
0.9003565417
0.8987672524
0.8982932611
0.8979781056
0.8988761572
0.9064579497
0.9426535078
1.050018712
1.218658998
1.346469659
1.382336725
1.383624191
1.374767428
1.375956757
1.374390673
1.378208153
1.375480661
1.374674062
1.375255232
0.822085156
0.7937432538
0.8111481021
0.8850389063
0.9268335853
0.9145478488
0.9138137716
0.9144740554
0.9143505872
0.915756022
0.9179693161
0.9120397692
0.9050272748
0.9025106709
0.9021230745
0.9028471458
0.9025565141
0.9009181368
0.899134552
0.8986133077
0.8981423748
0.8985734178
0.9036122035
0.9273250988
1.027740562
1.191004323
1.338221833
1.378453146
1.38113934
1.373729003
1.375560733
1.373338349
1.376084428
1.373913296
1.373673273
1.374650098
0.8280983649
0.7958284186
0.8065143199
0.8828672807
0.931117016
0.9167325739
0.9133356676
0.9131686145
0.9123897524
0.9147900884
0.9177013746
0.9123759498
0.9054408997
0.9024644071
0.9019676372
0.9030224482
0.9029233128
0.9014072434
0.8993051767
0.8988698887
0.8983925574
0.8984456338
0.9023609932
0.9179691425
0.9874934356
1.165013152
1.305086497
1.370909673
1.380050446
1.372863828
1.374912309
1.372354544
1.37484282
1.373440814
1.37332821
1.374425869
0.834835125
0.7972904628
0.8026568964
0.8821134027
0.9353978676
0.9187115362
0.9129087845
0.9118435623
0.9107720671
0.9131440194
0.9171792764
0.9125810244
0.9060212823
0.9026652709
0.9021107677
0.9032184632
0.9031367089
0.9017163591
0.8995037333
0.8990707897
0.8986913687
0.898496945
0.9012271557
0.9132168223
0.9594441554
1.105068305
1.273181553
1.362910083
1.381512454
1.371254372
1.374020461
1.371416736
1.374141494
1.372871062
1.372899773
1.374120248
0.8425502289
0.7992125191
0.7999966381
0.8831726112
0.94013205
0.9218190717
0.9129609268
0.9105135103
0.9093601422
0.911131621
0.9163960273
0.9126426142
0.9065099154
0.9028425013
0.9020856236
0.9030918176
0.9033904067
0.9020393181
0.8998953441
0.8992714779
0.8989643204
0.8986192046
0.9003975888
0.9092192363
0.9461507053
1.052622737
1.24231892
1.351731107
1.383688628
1.369366975
1.373362208
1.370988588
1.374008335
1.373196937
1.372963249
1.374170014
0.8516127635
0.7998856485
0.7990175899
0.8868346414
0.9439599223
0.9257530476
0.9132754081
0.9090739898
0.9074456324
0.9094887186
0.9156106628
0.9125859276
0.9069098453
0.9030369608
0.9019702722
0.9033167113
0.9037039452
0.902442746
0.900368638
0.8995139072
0.8992228429
0.8987209162
0.9000045849
0.9057703453
0.934065789
1.027704974
1.205506932
1.332413984
1.380113796
1.368115089
1.373468995
1.371503007
1.374555572
1.374105209
1.372486808
1.373259928
0.8601789177
0.8042110254
0.7987986708
0.8930865746
0.9479060557
0.9307592484
0.9136596294
0.9077438006
0.9053886597
0.9081838741
0.9150910316
0.912491576
0.9070615297
0.9031444882
0.9020559331
0.9030415093
0.9038816929
0.9027577789
0.9007060963
0.8997171363
0.8994868717
0.8988594792
0.8998268154
0.9039722618
0.9232313027
1.005061422
1.162242563
1.314459052
1.372796541
1.367601287
1.374075169
1.371667531
1.374592999
1.373642037
1.371155622
1.372017071
0.8964401285
0.8120486703
0.7977012651
0.892998494
0.9480047126
0.9363061566
0.9147036687
0.9064705216
0.9033232155
0.9060530846
0.9134334733
0.9121410488
0.907181205
0.9033455945
0.9022708993
0.9029554173
0.9040528173
0.9031728272
0.9012175726
0.90001278
0.8997933048
0.8990844398
0.8997434943
0.9024352328
0.9139748812
0.9683589289
1.110103221
1.287248276
1.364617796
1.366541385
1.373202007
1.37154823
1.373084952
1.372733335
1.370760473
1.371766343
1.451977528
1.040069224
0.9589808836
0.9600164294
0.9708296111
0.9506390642
0.9170139397
0.9026059304
0.8983113197
0.898463454
0.9002661732
0.8984749924
0.8957210001
0.896007562
0.8982201956
0.9007289623
0.90270551
0.9037990522
0.9026654264
0.9015264694
0.9009953848
0.9008260188
0.9010872138
0.901846858
0.9044717922
0.9203147354
0.9809240463
1.125428499
1.281686787
1.327417493
1.366928913
1.370152122
1.373091365
1.373610966
1.371289266
1.373222237
1.37767505
1.759143168
1.552426259
1.316464563
1.128577186
1.029772687
0.9469065411
0.9105775999
0.8976573022
0.9005512418
0.9010254926
0.8992797436
0.8913531874
0.8909465458
0.8946449452
0.8993825249
0.9002064381
0.9007670973
0.9024678817
0.9034835218
0.9039856529
0.9048401128
0.9047322975
0.9040849411
0.9031130595
0.9032383683
0.9040469688
0.9086569737
0.9398796281
1.033922661
1.182639663
1.311163655
1.341346148
1.365168324
1.36853578
1.370172501
1.377193929
1.382734576
1.817796776
1.737510931
1.564400508
1.335637152
1.155221366
1.054087874
0.9818950387
0.962394148
0.9420840551
0.9124957457
0.8959455959
0.8861944333
0.8895925885
0.8987942988
0.8985325245
0.897052876
0.8976741819
0.9003348152
0.9024276356
0.9037308605
0.9046000057
0.9053287273
0.9054790871
0.9053157436
0.9050124609
0.9048647011
0.9050716819
0.9065392087
0.9195161703
0.9835048611
1.10191749
1.224550871
1.334349345
1.346534575
1.362227227
1.382865768
1.384442638
1.823944649
1.804506322
1.724197244
1.571534992
1.385427016
1.256265105
1.126722221
1.049067062
0.9853603119
0.932858223
0.9224190788
0.9157542596
0.9126087619
0.9106818975
0.9028664129
0.8962728974
0.8981544501
0.9003526051
0.9019621181
0.9038035512
0.9046388855
0.9043108219
0.9043594173
0.9050289691
0.905332248
0.9050556586
0.9051014848
0.9053599655
0.906020668
0.9120536171
0.94101401
1.039488376
1.177014741
1.273209532
1.344906115
1.380917993
1.375992656
1.824537644
1.821015711
1.794390949
1.715934596
1.579075223
1.425287063
1.28389722
1.165266188
1.096055662
1.040013264
1.014422859
0.9820588579
0.9408527482
0.9201011409
0.9094240866
0.9024442449
0.9068045804
0.9070438025
0.9036929739
0.9031686479
0.9032474909
0.9023299523
0.9022634832
0.9029352186
0.9039974554
0.9043545946
0.9046489916
0.90508
0.9051647426
0.9053168514
0.9072478631
0.9240394942
0.9751494538
1.10091118
1.220426199
1.314199708
1.339267694
1.82490165
1.824364142
1.817722008
1.786652934
1.708253111
1.587126726
1.463098043
1.321157784
1.235200099
1.15198663
1.080023223
1.033894189
0.9774278317
0.9660850623
0.9591046432
0.9360952047
0.9278605284
0.920475692
0.9072604986
0.9032994962
0.9040449112
0.9024106628
0.902322933
0.9035649883
0.903358504
0.9030860974
0.9033418143
0.9042173343
0.9047226485
0.9049164797
0.9051134478
0.9061900354
0.9115805774
0.9437676162
1.020061979
1.1415162
1.265906384
1.825112486
1.825072758
1.823675465
1.813804091
1.77897543
1.702654809
1.597429261
1.475894459
1.36055231
1.264762087
1.167896149
1.122468951
1.0773862
1.040724184
1.011575012
0.9715266188
0.9417973566
0.9356580556
0.9214277387
0.9144566119
0.9164188026
0.9110385225
0.9060101956
0.9064544592
0.9057755488
0.9037185433
0.9040636245
0.9056672576
0.905965627
0.9055132627
0.90551278
0.9053436684
0.9053825624
0.907489842
0.919962605
0.9677790337
1.071148365
1.825277187
1.825142263
1.824990614
1.822496979
1.809757582
1.771895761
1.700609392
1.600934672
1.490108381
1.394844604
1.296058386
1.226307658
1.161593666
1.094790787
1.057975918
1.019738433
0.9866806989
0.9825611982
0.9668114299
0.9426265582
0.9336719878
0.9229584968
0.9095188605
0.9098176457
0.909487066
0.9061293106
0.9062626994
0.9075399114
0.9068082113
0.9055154646
0.9056496598
0.9057977411
0.9055756678
0.9054837873
0.9060103953
0.9102851564
0.9361698319
1.825302766
1.825202665
1.825113624
1.824784985
1.821160707
1.805745403
1.76646534
1.697306394
1.603826968
1.506459832
1.405913806
1.32034323
1.251514097
1.177948907
1.140426598
1.106804326
1.061440027
1.030476356
1.002021899
0.9643111173
0.9529264092
0.9465784142
0.9272190347
0.9244939305
0.9221997493
0.9117278502
0.9082954766
0.9088271205
0.9068006462
0.9044221678
0.9048072756
0.9052405562
0.9045357755
0.9044477847
0.9050949964
0.9053614756
0.9065733243
1.825356874
1.82532958
1.825283491
1.825132597
1.824356109
1.819402102
1.80173791
1.76104817
1.692859133
1.610059361
1.514314915
1.422249291
1.351442904
1.27555329
1.218683391
1.170706334
1.112279287
1.07679325
1.054700474
1.021677637
1.003614797
0.9903750485
0.9637813888
0.9468675997
0.9416116655
0.9286903507
0.9159438677
0.9153967558
0.9117406237
0.9053799294
0.905534716
0.9056819781
0.9045067085
0.9039914666
0.9047772624
0.9049483625
0.9044485318
1.825364903
1.825374707
1.825417479
1.825383749
1.825191489
1.823849959
1.817389474
1.797644674
1.755226885
1.690919482
1.610461326
1.521819391
1.445268173
1.363508808
1.292759196
1.244113225
1.185656854
1.145939748
1.121101504
1.080233726
1.043849827
1.023704785
0.9993776783
0.9732485294
0.9676881049
0.9580794444
0.9395362992
0.9363359132
0.9311063799
0.917472524
0.9137936892
0.9130346845
0.908192599
0.9052835289
0.9062371826
0.9060285023
0.9046990748
1.825149625
1.825457919
1.825574779
1.825496436
1.825438567
1.825195028
1.823291914
1.815258708
1.793125295
1.750778052
1.688261638
1.609339708
1.53439569
1.456220374
1.379763116
1.325970247
1.265456383
1.210389437
1.174819424
1.129587704
1.086007487
1.070319163
1.051642421
1.02339494
1.007250721
0.9916834239
0.9633382204
0.951526546
0.9463268675
0.9329112071
0.9246096249
0.925109219
0.9211960433
0.9138411771
0.9137006582
0.9130424875
0.9088224079
1.825116976
1.825474331
1.825529522
1.825492554
1.825600889
1.825723212
1.825288036
1.822476934
1.812561175
1.78869054
1.746675027
1.684732206
1.614844044
1.540580472
1.461679484
1.40159449
1.33900064
1.273312562
1.236520387
1.199090572
1.15296513
1.127986857
1.101027406
1.059396033
1.036485332
1.023982805
0.9998955976
0.9798554883
0.9732343723
0.9586317389
0.9383428834
0.9366250094
0.9327769002
0.9219163058
0.9183565945
0.9183296796
0.9141902638
1.824920569
1.825045208
1.825143962
1.825397962
1.82598967
1.826247053
1.826104952
1.824989749
1.820942046
1.809489085
1.784913073
1.742124082
1.684344232
1.618844669
1.541457266
1.47576953
1.415967152
1.347576617
1.302638927
1.261486257
1.206265995
1.172776138
1.148657987
1.107040941
1.0816177
1.07069013
1.047654717
1.018527255
1.006524295
0.9928981404
0.9675081811
0.9572859841
0.9521944737
0.9362604292
0.9243334532
0.9231712794
0.9184965532
1.823955112
1.82421214
1.824693185
1.825816687
1.82660218
1.826661989
1.826423899
1.82577911
1.824219167
1.819533243
1.807232277
1.78153863
1.738826091
1.684028493
1.616481662
1.548593292
1.488273034
1.418058262
1.364249915
1.323379128
1.265592642
1.224649237
1.20320324
1.165604704
1.127828069
1.11014766
1.085138581
1.048098788
1.035138122
1.026402272
1.002369484
0.9854009058
0.9810858016
0.9682284451
0.9490234743
0.9434708916
0.9380958958
1.823752382
1.824268204
1.825504862
1.826520516
1.826730125
1.82664701
1.826171022
1.825416203
1.825109201
1.824015274
1.819091047
1.805605499
1.778268336
1.736391746
1.680419878
1.615692041
1.557054762
1.491143325
1.428191602
1.386187168
1.333385818
1.281324734
1.253626955
1.215880508
1.167307808
1.148048747
1.13003888
1.092970654
1.074541838
1.065170117
1.041577816
1.013340786
1.004687058
0.9936739726
0.9693632538
0.9626592049
0.9604747289
1.826706522
1.826393813
1.826407861
1.826450283
1.826582376
1.826198924
1.825151026
1.824989109
1.825285203
1.825387236
1.823984696
1.818024365
1.802814421
1.774482532
1.732528328
1.676932759
1.619237104
1.559130634
1.493846071
1.445976378
1.395682515
1.334973251
1.301835897
1.271090136
1.220488696
1.19411587
1.177703336
1.140755153
1.107483509
1.095652784
1.076359503
1.043143097
1.032425536
1.024956034
1.002195172
0.9858747948
0.9808323822
1.830709954
1.828383441
1.826581624
1.826223476
1.825759826
1.824622822
1.824189314
1.824473074
1.825313966
1.825843707
1.825448274
1.823166005
1.81588828
1.79930639
1.770512174
1.728008745
1.67630162
1.62170297
1.55799634
1.50358512
1.457979752
1.397619103
1.353203772
1.324206353
1.275725678
1.234915339
1.216884792
1.185301255
1.143107349
1.132197456
1.119707291
1.086966446
1.066833547
1.057973714
1.037429768
1.011959325
1.005230776
1.825260827
1.827344035
1.827444934
1.826787385
1.824555208
1.82344458
1.82371383
1.824414824
1.825474916
1.826165952
1.826150959
1.825269312
1.821991931
1.813469608
1.79606557
1.76684715
1.724594197
1.676567868
1.620879007
1.561464228
1.514499344
1.459356029
1.404357952
1.372842653
1.331069308
1.278912534
1.258160873
1.235206796
1.190205136
1.16820097
1.154789995
1.123254367
1.094030408
1.08585263
1.071443145
1.04234754
1.033988902
1.813872938
1.830279156
1.829034029
1.825205116
1.822182366
1.822817544
1.823991861
1.824995433
1.82590471
1.826167363
1.826006347
1.825604093
1.824355975
1.820610085
1.811347352
1.793411213
1.763485313
1.72281564
1.675473383
1.618756916
1.568780855
1.519619044
1.458954965
1.420476701
1.386190924
1.331954761
1.299919378
1.278987528
1.237022207
1.202263298
1.188921069
1.163573207
1.127854953
1.119030731
1.108121322
1.079861325
1.061137753
1.807324592
1.827306386
1.818334603
1.818098045
1.821896136
1.824604009
1.825854741
1.825882042
1.826140821
1.826283155
1.826080473
1.825628359
1.825155971
1.823727602
1.819467592
1.809565752
1.790696114
1.760261026
1.721588788
1.672291301
1.619674435
1.574599793
1.517951168
1.468362808
1.43514508
1.385579368
1.340825165
1.319540797
1.284911669
1.241242812
1.226610552
1.207737126
1.169634064
1.149803543
1.136737712
1.109187329
1.086299258
1.719240695
1.789278978
1.796983834
1.812586024
1.828388162
1.828187085
1.827117596
1.826478131
1.826359392
1.826353924
1.826107077
1.825781104
1.825352225
1.824801742
1.823069856
1.818289512
1.807753812
1.787701862
1.757809523
1.718960342
1.669484904
1.624247367
1.574305426
1.518051047
1.482260152
1.440556408
1.387271893
1.360961067
1.332685432
1.285692406
1.261475498
1.24300601
1.206529467
1.180978932
1.17013512
1.148055233
1.120813215
1.554328761
1.705653114
1.7822347
1.824283535
1.827631554
1.824549578
1.824936464
1.826111238
1.826446625
1.826123245
1.825923552
1.825814142
1.825551844
1.825202286
1.824421226
1.822305661
1.817149127
1.805817646
1.785104324
1.755560291
1.71452694
1.670149154
1.626540251
1.570719719
1.527575928
1.490581799
1.437108544
1.401443148
1.375154095
1.330811341
1.298233914
1.280383457
1.248032404
1.215453153
1.20260127
1.182469951
1.151620948
1.434996602
1.56095457
1.704308468
1.801700904
1.801759525
1.810339238
1.821522918
1.826157481
1.825571949
1.825285405
1.825496119
1.825554225
1.825427403
1.825100284
1.824562557
1.823703495
1.821775577
1.816381895
1.803945386
1.782926435
1.75198696
1.711629613
1.67185762
1.622684676
1.573776655
1.53740753
1.48811707
1.44381387
1.417100663
1.377151174
1.337166357
1.317707891
1.289671223
1.252470963
1.234232936
1.214760635
1.18113663
1.40321367
1.447863686
1.566025546
1.713924595
1.763313608
1.803894168
1.823801306
1.824525647
1.822922394
1.82438741
1.825406543
1.825350717
1.82522878
1.824968068
1.824792118
1.824298388
1.823569183
1.821484202
1.815201799
1.801750109
1.780035713
1.747862727
1.711556373
1.669615734
1.619707626
1.581543321
1.53810666
1.488445793
1.457962325
1.422051298
1.377661271
1.35353702
1.327079241
1.287190861
1.266831662
1.251079692
1.219995153
1.400121496
1.408324312
1.453931252
1.562767062
1.696520322
1.797228713
1.812701651
1.815150682
1.819201563
1.824132897
1.824775006
1.824472272
1.824611882
1.824496257
1.824510112
1.824547796
1.824429467
1.82371632
1.820918741
1.813446617
1.799327104
1.776308826
1.745442612
1.710247019
1.664872175
1.623796951
1.584144368
1.534078871
1.498815172
1.465553541
1.41953159
1.390846333
1.366856292
1.326921347
1.30025531
1.283485243
1.253116662
1.400006883
1.40088052
1.41023022
1.45541744
1.56756378
1.713495892
1.762194226
1.798016239
1.820815343
1.823697516
1.822769749
1.823127359
1.823988312
1.824040652
1.823941464
1.824426129
1.824737782
1.824685958
1.823619146
1.819929335
1.811577617
1.796598639
1.773085185
1.743836725
1.705706448
1.664537684
1.627264552
1.579833918
1.539539701
1.507554096
1.462510103
1.427653556
1.403941172
1.366064629
1.333576379
1.316506651
1.288843109
1.400005052
1.400065889
1.401167661
1.411432675
1.461343105
1.568456749
1.691717788
1.787969953
1.810682283
1.816126623
1.820659181
1.823553322
1.82333809
1.822860789
1.82328627
1.82424222
1.824685396
1.82500884
1.824887805
1.82341322
1.81892092
1.809849615
1.793918375
1.771059651
1.740618119
1.702524753
1.666659802
1.624078796
1.580506081
1.547984028
1.505881764
1.465571642
1.44098021
1.405905859
1.367129514
1.349331131
1.326249008
1.40000504
1.400007792
1.400086335
1.401563939
1.413436862
1.459786299
1.570700807
1.708763625
1.758148206
1.796644159
1.823603709
1.823766067
1.822091264
1.821739795
1.823090063
1.824036915
1.824416266
1.824828228
1.8253252
1.825033598
1.822974862
1.817862967
1.808137544
1.791900396
1.768713405
1.736751907
1.702657207
1.664857332
1.620950188
1.586855108
1.548756034
1.504272765
1.476943374
1.446300078
1.404071181
1.381111979
1.359779743
1.40000504
1.400005121
1.400008661
1.400145115
1.401891703
1.413054059
1.465445834
1.570847606
1.687759883
1.785038021
1.813671571
1.815728952
1.819767209
1.822819645
1.823787266
1.823946281
1.824278352
1.824756067
1.825133079
1.825317571
1.824709203
1.822202011
1.816821654
1.806621256
1.79009139
1.765416475
1.734874172
1.701703453
1.660779071
1.62409341
1.5893609
1.544809291
1.512345355
1.484482478
1.442148305
1.413035241
1.394393738
1.40000504
1.400005042
1.400005146
1.400013481
1.400169344
1.40195491
1.415279508
1.462592183
1.573887776
1.708675571
1.757088027
1.79290782
1.822128176
1.823269426
1.822705111
1.823002274
1.824258884
1.825107219
1.8248857
1.824993574
1.824940251
1.824035997
1.821471485
1.815890874
1.805279816
1.787828855
1.762800776
1.733756009
1.698133746
1.660401894
1.627250969
1.585820165
1.547701256
1.521013276
1.482895265
1.445506522
1.426089656
1.40000504
1.40000504
1.400005042
1.400005373
1.400014325
1.400199842
1.402356602
1.414300372
1.468280536
1.571397885
1.683380811
1.780996104
1.811717236
1.813560488
1.819839918
1.824365095
1.824886924
1.824622181
1.824636331
1.824831172
1.824785552
1.824517972
1.823573822
1.821028574
1.815111162
1.803870407
1.785516625
1.761186012
1.731370125
1.695399768
1.662208684
1.625855397
1.584458467
1.55520531
1.522681247
1.481006846
1.457188095
1.40000504
1.40000504
1.40000504
1.400005048
1.400005378
1.400018616
1.400232144
1.402198217
1.416395907
1.462648854
1.572512
1.706751571
1.755111928
1.789180437
1.821968323
1.824998974
1.824403818
1.824394302
1.824537202
1.824910627
1.824640371
1.824469957
1.824236289
1.823416283
1.820717525
1.814288071
1.802230366
1.78351147
1.75929838
1.728303188
1.694986476
1.662306458
1.622483928
1.588495853
1.559821907
1.519192904
1.487532015
1.40000504
1.40000504
1.40000504
1.40000504
1.400005048
1.400005654
1.400019289
1.40022818
1.402570453
1.414556666
1.468902379
1.571021468
1.679432876
1.777791286
1.812110918
1.8146123
1.820272429
1.824749792
1.824868516
1.824674558
1.824530998
1.824699532
1.824671462
1.824457338
1.823417894
1.820237123
1.813174755
1.800405889
1.781631215
1.75677472
1.725894243
1.69520281
1.660042269
1.621967073
1.593539761
1.558828268
1.520017404
1.40000504
1.40000504
1.40000504
1.40000504
1.40000504
1.400005057
1.400005597
1.400021149
1.400262156
1.40227944
1.416983071
1.462765323
1.570983175
1.705735294
1.75734502
1.78856394
1.820091603
1.824341057
1.823762208
1.824402362
1.824657173
1.825289263
1.825336206
1.825081151
1.824504149
1.823127757
1.819516781
1.811830904
1.798554944
1.779671907
1.753907611
1.724734353
1.694371252
1.657009689
1.625202271
1.595356783
1.555283811
1.40000504
1.40000504
1.40000504
1.40000504
1.40000504
1.400005041
1.400005054
1.400005821
1.400022369
1.400243093
1.402708216
1.414818218
1.469281782
1.57101492
1.678367454
1.776563848
1.810573681
1.811871945
1.817932971
1.824297017
1.825214158
1.825424031
1.825269302
1.825192181
1.824917109
1.824387651
1.822752626
1.818632147
1.810295362
1.796798906
1.777318828
1.751524394
1.724310968
1.691335735
1.656504094
1.628567554
1.592391261
1.40000504
1.40000504
1.40000504
1.40000504
1.40000504
1.40000504
1.40000504
1.400005065
1.400005781
1.400022826
1.400283736
1.402339646
1.417417121
1.462979788
1.569975679
1.703781956
1.757638765
1.7860567
1.81773221
1.823829119
1.823686722
1.825449751
1.825495954
1.825313352
1.825089137
1.824846578
1.824080785
1.822098813
1.817584822
1.808902157
1.795141936
1.774721028
1.750361542
1.722576138
1.688193961
1.658944392
1.627753878
1.40000504
1.40000504
1.40000504
1.40000504
1.40000504
1.40000504
1.40000504
1.400005041
1.400005061
1.400005946
1.400024612
1.400251881
1.402793582
1.414897377
1.469092948
1.569758365
1.675628629
1.773819975
1.80926324
1.811565312
1.817968104
1.824665853
1.825741677
1.82544793
1.824932145
1.824838472
1.824662401
1.823901949
1.821725312
1.816763839
1.807712777
1.793114438
1.772696037
1.749138381
1.719004727
1.688357593
1.659914568
1.40000504
1.40000504
1.40000504
1.40000504
1.40000504
1.40000504
1.40000504
1.40000504
1.400005041
1.400005072
1.400005925
1.40002359
1.400294606
1.402349705
1.417565299
1.462714057
1.568341821
1.701065026
1.758121792
1.786595584
1.817362353
1.824057478
1.823349529
1.824757428
1.825004566
1.825254515
1.825276574
1.824887964
1.823730958
1.82111942
1.815753227
1.806212863
1.790980763
1.771351161
1.746399217
1.716820909
1.689504656
1.40000504
1.40000504
1.40000504
1.40000504
1.40000504
1.40000504
1.40000504
1.40000504
1.40000504
1.400005041
1.400005067
1.400006012
1.40002587
1.400256435
1.402854611
1.414993574
1.468936157
1.568651436
1.67416988
1.772626633
1.809620114
1.810816072
1.815562308
1.822454679
1.824862279
1.825489337
1.825423149
1.82520617
1.824638838
1.823340451
1.820467936
1.814753462
1.804547145
1.789311789
)
;

boundaryField
{
    inlet
    {
        type            calculated;
        value           nonuniform 0();
    }
    outlet
    {
        type            calculated;
        value           nonuniform 0();
    }
    bottom
    {
        type            calculated;
        value           nonuniform 0();
    }
    top
    {
        type            calculated;
        value           nonuniform 0();
    }
    obstacle
    {
        type            calculated;
        value           nonuniform List<scalar> 
20
(
0.7935898846
0.7929317175
0.7928947038
0.7926316886
0.7922571342
0.7921994456
0.7943857532
0.7966035826
0.7987019262
0.8034144485
0.8073776338
0.8117450244
0.8165968026
0.822085156
0.8280983649
0.834835125
0.8425502289
0.8516127635
0.8601789177
0.8964401285
)
;
    }
    defaultFaces
    {
        type            empty;
    }
    procBoundary27to20
    {
        type            processor;
        value           nonuniform List<scalar> 
31
(
1.823940267
1.824157404
1.824424198
1.824627399
1.824646049
1.82488822
1.825160918
1.825374775
1.825406536
1.825446052
1.825437607
1.824770962
1.82406237
1.82481038
1.824773544
1.823806442
1.82632196
1.832518441
1.827871402
1.800205045
1.755219865
1.612738871
1.459517673
1.404351536
1.400029271
1.400004972
1.400005025
1.40000504
1.40000504
1.40000504
1.40000504
)
;
    }
    procBoundary27to21
    {
        type            processor;
        value           nonuniform List<scalar> 
36
(
1.381405662
1.376530148
1.374111177
1.375066607
1.380570761
1.379497271
1.376863693
0.8637539338
0.8916394031
0.9106593209
0.9241062626
0.9311690176
0.9328304823
0.9297975693
0.9191381198
0.9089560481
0.903549306
0.9035501311
0.9035469797
0.9024984895
0.8995710532
0.8970712774
0.8966101248
0.8977114371
0.9077041871
0.9566400624
1.092834707
1.250535655
1.338476173
1.366335977
1.372228465
1.378194337
1.378194337
0.7949729711
0.8130073041
0.8130073041
)
;
    }
    procBoundary27to26
    {
        type            processor;
        value           nonuniform List<scalar> 9(1.40000504 1.40000504 1.40000504 1.40000504 1.40000504 1.40000504 1.40000504 1.40000504 1.40000504);
    }