/*--------------------------------*- C++ -*----------------------------------*\
  =========                 |
  \\      /  F ield         | OpenFOAM: The Open Source CFD Toolbox
   \\    /   O peration     | Website:  https://openfoam.org
    \\  /    A nd           | Version:  7
     \\/     M anipulation  |
\*---------------------------------------------------------------------------*/
FoamFile
{
    version     2.0;
    format      ascii;
    class       volScalarField;
    location    "4";
    object      T;
}
// * * * * * * * * * * * * * * * * * * * * * * * * * * * * * * * * * * * * * //

dimensions      [0 0 0 1 0 0 0];

internalField   nonuniform List<scalar> 
2222
(
1.85031389
1.840629338
1.831648968
1.858377699
1.848242754
1.837066608
1.827369973
1.818986219
1.809965054
1.799413201
1.788298503
1.779463813
1.77165815
1.763229152
1.753271337
1.74256301
1.734011263
1.726491129
1.718645821
1.709609318
1.699216689
1.690574832
1.683267764
1.675889694
1.667946708
1.658412784
1.649530013
1.642205827
1.635330772
1.628549309
1.620022901
1.611174238
1.863081663
1.853668199
1.844440036
1.834714786
1.824386631
1.815185835
1.806914661
1.798238361
1.788524265
1.777867735
1.76903328
1.761496315
1.753526346
1.744623915
1.734210874
1.724953444
1.717623686
1.710264238
1.702319772
1.692878942
1.683215711
1.675698786
1.668829752
1.661720433
1.653580729
1.64407551
1.63640483
1.629876257
1.623316422
1.616380567
1.608003058
1.600486481
1.594046598
1.587993581
1.581662638
1.574547977
1.568281344
1.56183273
1.554758357
1.547819386
1.542794213
1.537853337
1.531821171
1.524150642
1.518012735
1.513636615
1.509221736
1.503931347
1.496509053
1.490862232
1.486176588
1.481120209
1.475732774
1.469473971
1.464800964
1.46040795
1.455289988
1.857927963
1.848894528
1.840697159
1.832242129
1.822842971
1.812412046
1.803392259
1.795559478
1.787402212
1.778572119
1.768258154
1.7588358
1.751317969
1.743788213
1.735710073
1.726251659
1.716361359
1.708647001
1.701730758
1.694460143
1.68640591
1.676866565
1.668431979
1.661691133
1.655063788
1.648255735
1.640019468
1.631355211
1.624822636
1.618784036
1.612613514
1.605548516
1.598116413
1.591622217
1.585097072
1.578868816
1.573322515
1.567542365
1.560399233
1.552519568
1.546951124
1.542649494
1.537776888
1.53212697
1.524591419
1.517700498
1.512903412
1.508351966
1.503667677
1.498015308
1.490776781
1.485419039
1.481338176
1.477248613
1.471561849
1.464775562
1.460748941
1.457335376
1.452840289
1.44599459
1.440725164
1.43743179
1.433338861
1.427946666
1.423994229
1.419885421
1.862417632
1.854445928
1.844972963
1.835125855
1.826906925
1.819197998
1.811143493
1.801633189
1.791615966
1.783561409
1.775931022
1.768018669
1.759065462
1.748993545
1.740903033
1.733687954
1.726187398
1.718285369
1.708724781
1.700047699
1.693283749
1.686527399
1.679527152
1.671332985
1.662228095
1.655281409
1.649188971
1.642908163
1.636299184
1.628282883
1.620682188
1.614554101
1.608892346
1.603272772
1.596600236
1.588756531
1.582062481
1.576806967
1.571722304
1.56611516
1.559764363
1.551965808
1.545408751
1.541154841
1.536623484
1.531334927
1.524248633
1.516271213
1.512017153
1.508191383
1.50340802
1.497422543
1.491398653
1.486655361
1.481913567
1.476812014
1.471630405
1.467173217
1.46229539
1.456509676
1.452351667
1.448932345
1.44436822
1.437471457
1.433660795
1.430362854
1.864553068
1.855662572
1.847905598
1.840436202
1.83254721
1.823210146
1.814259699
1.806496856
1.798808794
1.790882189
1.781551055
1.772550913
1.764813954
1.757117317
1.749516673
1.740749809
1.7316491
1.724329019
1.717064486
1.709767236
1.702068811
1.693157501
1.685890153
1.679388648
1.672639622
1.666095066
1.658113697
1.649980581
1.643971169
1.638170449
1.632163572
1.625419667
1.617346103
1.610771512
1.605196333
1.599575259
1.594054945
1.587333252
1.579518883
1.573948618
1.569226718
1.563926385
1.558154213
1.550831674
1.544020161
1.539293676
1.534475873
1.529105415
1.523660387
1.517496372
1.511146281
1.506618904
1.502685116
1.498378607
1.491952105
1.485347864
1.481375268
1.477672412
1.473249264
1.466645613
1.462002321
1.458588813
1.454406078
1.449090752
1.444200531
1.43972673
1.865618193
1.858778709
1.851297624
1.842367462
1.833684264
1.826394902
1.819374868
1.811712463
1.802647668
1.793976338
1.786553045
1.779308565
1.771672302
1.762730335
1.754212669
1.746789123
1.739538531
1.732384934
1.724242062
1.715638715
1.708415211
1.701661982
1.695058735
1.687840855
1.67944508
1.67288465
1.666649135
1.660070613
1.653773835
1.646225666
1.639030412
1.633041577
1.627069172
1.621392077
1.614781872
1.606729028
1.601055273
1.595737478
1.590002596
1.584621801
1.57790725
1.571181343
1.565914066
1.560572308
1.55543263
1.550031747
1.542571012
1.537136173
1.53284072
1.527914217
1.522464064
1.515851199
1.510998704
1.506783555
1.501850095
1.49683275
1.491418411
1.486713112
1.481759285
1.476089788
1.472110388
1.468739954
1.463882244
1.457586836
1.453762492
1.449731874
1.868273278
1.859941499
1.851718441
1.844616433
1.837722178
1.830416247
1.821895711
1.813758058
1.80666057
1.799548326
1.792085457
1.783573629
1.775328168
1.768107192
1.761098756
1.753893705
1.745516636
1.737311763
1.730427979
1.723482565
1.716506338
1.709015468
1.701156196
1.694083473
1.687558201
1.681386169
1.674991984
1.6670575
1.660260674
1.654418586
1.64809436
1.641794383
1.63444179
1.628172247
1.622323153
1.61591374
1.61033385
1.60442685
1.596668869
1.591077819
1.586094489
1.580531426
1.575198926
1.56852088
1.562858883
1.558131136
1.552567138
1.547217826
1.542218935
1.536559916
1.529891519
1.524594622
1.520590656
1.516482728
1.509930702
1.504608399
1.501139089
1.49643794
1.491225172
1.484866921
1.480360056
1.476921302
1.472746954
1.467534985
1.463091846
1.458624873
1.868038385
1.860876994
1.854485046
1.847599925
1.839636174
1.831568019
1.824544811
1.81788354
1.810763228
1.802563678
1.794511037
1.787596617
1.780796164
1.773663236
1.765643105
1.757741092
1.750588763
1.743877743
1.737258979
1.729769127
1.721450707
1.71462178
1.708334075
1.701726802
1.694625237
1.687212778
1.680875327
1.67439223
1.668011569
1.662074098
1.655308326
1.647805748
1.641675478
1.636135505
1.630406822
1.623423835
1.616786239
1.611588676
1.605214302
1.599075949
1.593808572
1.587385714
1.581200697
1.5765864
1.571452359
1.566252845
1.560074159
1.554761987
1.550358295
1.544996884
1.539486738
1.53339219
1.528139594
1.52381274
1.518203253
1.513108491
1.509394687
1.505375719
1.498997776
1.493104578
1.489582812
1.485666868
1.48034269
1.474804792
1.471740456
1.467617802
1.870419282
1.863912203
1.856391488
1.848475606
1.841568923
1.835253171
1.828387121
1.820379206
1.812318209
1.80543271
1.798944086
1.79214821
1.784422689
1.776279239
1.769425732
1.763100886
1.756384897
1.748640181
1.740952224
1.734246303
1.72761491
1.721270945
1.714795442
1.70704188
1.69946342
1.693693607
1.687826426
1.681418441
1.673739179
1.667528528
1.661983433
1.655299462
1.648802222
1.642717437
1.636463152
1.62988063
1.624097298
1.618815528
1.613106095
1.605649732
1.600088426
1.594886938
1.588773909
1.583495158
1.578906808
1.572718994
1.566788618
1.562655109
1.557694396
1.552196246
1.545858967
1.541688484
1.537182323
1.531897665
1.526066263
1.520309802
1.516493799
1.512457611
1.507294891
1.501619605
1.49762552
1.493729478
1.487916381
1.482685321
1.479158331
1.475202233
1.871617729
1.864302973
1.857057791
1.85072326
1.844177234
1.836679588
1.828871192
1.821920762
1.815643557
1.809144017
1.801535314
1.793691032
1.786918111
1.78053729
1.774054363
1.766913178
1.759002794
1.752008375
1.746100237
1.73996891
1.732592454
1.724791241
1.718932091
1.712824356
1.706153323
1.699846035
1.693540413
1.686092314
1.679076272
1.673762666
1.668170232
1.661487788
1.65385188
1.64841808
1.643096756
1.636721852
1.630091961
1.624016272
1.618662021
1.612705563
1.606908611
1.60191148
1.595944604
1.589623604
1.58519682
1.579670303
1.573532512
1.568951959
1.564805143
1.558518052
1.552523741
1.548801108
1.544241097
1.539046304
1.532712636
1.528630809
1.524530746
1.519570378
1.513239889
1.508702903
1.505233226
1.501024065
1.495532338
1.49050363
1.486982413
1.482510368
1.870751648
1.864005313
1.858163229
1.85146322
1.84376585
1.836555713
1.830517088
1.824243582
1.816882574
1.809276907
1.802512777
1.79643169
1.790293822
1.783261129
1.775622832
1.769253032
1.763181901
1.75667214
1.74978262
1.742597873
1.735401834
1.729813736
1.724549136
1.718011044
1.710106068
1.703900378
1.698616656
1.692143944
1.685303797
1.67889462
1.672761958
1.665650565
1.659407836
1.654273101
1.648373467
1.641535093
1.634881697
1.629907706
1.625186762
1.61939835
1.612728779
1.606486784
1.601621786
1.596562265
1.591261653
1.586301927
1.579901254
1.575065344
1.570953162
1.565107149
1.559115396
1.554972912
1.550833671
1.545217522
1.539361752
1.535550414
1.531305509
1.526158256
1.519659463
1.515813123
1.512186279
1.50777175
1.501829172
1.497576391
1.494116716
1.489579222
1.870345927
1.864388935
1.857674383
1.850684272
1.844128048
1.83780907
1.831067268
1.824004506
1.817199933
1.811282257
1.805416115
1.798555996
1.790787681
1.784409731
1.778878565
1.772556649
1.765228565
1.758225029
1.752786084
1.747461299
1.74082949
1.733450952
1.727566166
1.721033259
1.714247145
1.709309584
1.70390328
1.696332233
1.688557241
1.683700217
1.678099921
1.670762838
1.663725339
1.658432964
1.653110168
1.647054882
1.640718971
1.635169696
1.629772716
1.624161652
1.618640564
1.61298302
1.60789981
1.602505349
1.596466355
1.590237369
1.58587182
1.581402304
1.576511526
1.571059264
1.565159681
1.561344105
1.557057925
1.550844638
1.545619528
1.541750087
1.537461831
1.532381367
1.526362643
1.52246447
1.518595125
1.513616028
1.50779896
1.504164662
1.500617908
1.495761104
1.869500815
1.863102203
1.856235432
1.849710277
1.84372842
1.837462083
1.831202449
1.824968249
1.818292969
1.811386841
1.80535217
1.799322897
1.79267014
1.786498043
1.780077093
1.773380667
1.767355438
1.76205242
1.755827994
1.748795518
1.742947216
1.73749534
1.731805275
1.725764001
1.717931164
1.711176943
1.706014986
1.699562552
1.693164537
1.68830434
1.682740361
1.675006459
1.66820106
1.663507305
1.657529001
1.64986723
1.644876425
1.640698784
1.635459143
1.629894249
1.623543088
1.617919542
1.612774295
1.607318249
1.601668224
1.59576718
1.591451956
1.586841053
1.581563406
1.575239994
1.571017159
1.56694665
1.562286561
1.556208076
1.551493602
1.547918772
1.543500946
1.537337768
1.532769446
1.52876709
1.524399997
1.51944445
1.513740522
1.509945438
1.506135173
1.50121748
1.867641993
1.861265249
1.85451526
1.849024547
1.843565087
1.837411846
1.831071094
1.824989216
1.81888506
1.812467851
1.806117125
1.799680746
1.793667729
1.788287299
1.782647011
1.775660171
1.768698144
1.763384066
1.757847855
1.751772475
1.746206382
1.740335004
1.733554499
1.72676602
1.720979974
1.715101353
1.70927625
1.702637874
1.695448272
1.69102093
1.686203962
1.679317301
1.67298528
1.668159526
1.662464814
1.655035069
1.649080446
1.644597737
1.63913741
1.63279058
1.628262491
1.623899993
1.618418954
1.612936828
1.606256823
1.600479467
1.595998698
1.591438176
1.5864626
1.580971203
1.577044518
1.572699658
1.56730035
1.560636785
1.556499926
1.552748844
1.548245811
1.542578119
1.538668194
1.534802303
1.530109986
1.523905406
1.519619417
1.515645243
1.511426846
1.506391845
1.864618531
1.858495935
1.853190761
1.847737617
1.841771606
1.835793649
1.830328826
1.824651493
1.818478433
1.812480329
1.806599788
1.800430022
1.793781082
1.788014202
1.782769526
1.777311979
1.771834324
1.766303326
1.759589344
1.75167574
1.74561692
1.740838886
1.735436201
1.729787252
1.72458467
1.718633707
1.711768731
1.703820292
1.698297282
1.693793681
1.688938138
1.682730252
1.677414406
1.672744758
1.666790664
1.659253594
1.653474008
1.648719643
1.643487482
1.637074421
1.632176538
1.627888082
1.622731656
1.616553919
1.611275618
1.606502581
1.601201042
1.596204261
1.589940155
1.585340069
1.581763206
1.577470778
1.572188653
1.566597283
1.562539532
1.558182997
1.552424996
1.546539362
1.542974494
1.53919897
1.534601268
1.529370734
1.52541275
1.521332958
1.516360466
1.511044622
1.860778832
1.856365169
1.851217288
1.845536515
1.839141847
1.832859574
1.827805351
1.822962982
1.817741621
1.812353667
1.806342917
1.799360747
1.793241984
1.78825645
1.782862868
1.776450527
1.770542538
1.765881626
1.760298709
1.754091496
1.748285055
1.742343374
1.735056706
1.72882813
1.724704066
1.720300835
1.714529159
1.708267653
1.70291264
1.697033938
1.689759547
1.683041486
1.679314893
1.675304806
1.670186383
1.664324217
1.659214769
1.653711679
1.646672327
1.639505106
1.635212524
1.631181687
1.626701044
1.621354269
1.616731771
1.611938969
1.606409691
1.599083711
1.593426283
1.590128147
1.585896951
1.581775275
1.576345837
1.571608167
1.567721602
1.563075859
1.55688799
1.551868261
1.548058159
1.543953355
1.538261562
1.53361027
1.530159928
1.525900001
1.521006725
1.516314076
1.857175192
1.852460495
1.847729364
1.842529613
1.837165895
1.831863668
1.826179815
1.820135819
1.814297654
1.809763369
1.805345609
1.800263313
1.7946426
1.788342434
1.781039818
1.773743755
1.769615863
1.765704758
1.760615982
1.754898829
1.749897909
1.743821941
1.736226708
1.730389427
1.725621231
1.720447478
1.714317001
1.709877887
1.70565584
1.700114232
1.692562855
1.686395342
1.682030039
1.677049475
1.67068023
1.665701132
1.662116961
1.657343001
1.65071793
1.644501731
1.639933642
1.634769719
1.62808867
1.62347183
1.620270352
1.616083871
1.611350311
1.605052139
1.599531129
1.594812712
1.589593215
1.583352917
1.579264693
1.576318313
1.572124581
1.567881285
1.562108036
1.556984002
1.552843464
1.547961251
1.541941474
1.538362313
1.535034559
1.530967786
1.525806842
1.521288919
1.852716445
1.847780094
1.843050069
1.838859116
1.834973506
1.830114235
1.823872296
1.816859852
1.811744349
1.807194357
1.801921778
1.797145549
1.792994832
1.788094485
1.782394902
1.776328296
1.769822306
1.76273592
1.757282866
1.753886314
1.7504367
1.745752841
1.739621142
1.733087831
1.726465047
1.719053927
1.714133223
1.711065719
1.707261244
1.702332716
1.695595214
1.690023746
1.684768809
1.678433056
1.67163728
1.668079716
1.66457366
1.659919608
1.653523621
1.648145998
1.643698382
1.63814859
1.630984528
1.626844874
1.623585829
1.619215405
1.61354855
1.609086794
1.604901306
1.599620397
1.594194444
1.587467228
1.583144129
1.57967209
1.575353108
1.570363925
1.566464951
1.562558277
1.557883322
1.553053094
1.546846317
1.542544621
1.539024624
1.534300795
1.530053862
1.526687631
1.853681816
1.846459971
1.838043117
1.832968908
1.829770766
1.826210589
1.822097088
1.817348135
1.811618679
1.804316118
1.797019688
1.793371611
1.790098286
1.785731631
1.780380743
1.775835992
1.770748967
1.764347187
1.758072311
1.752785777
1.747570677
1.742929022
1.739064215
1.734935522
1.729551067
1.722957617
1.716187588
1.71043468
1.705222918
1.70067846
1.69727716
1.69334159
1.688425525
1.6821944
1.674499031
1.669175061
1.664533023
1.659248897
1.655289561
1.652157582
1.648013783
1.642657991
1.635199864
1.629530773
1.625340219
1.620100636
1.615227272
1.612611397
1.609190512
1.604593801
1.598453085
1.591811007
1.587322741
1.582857367
1.578181646
1.573142541
1.570205972
1.566873131
1.562605764
1.557121938
1.552223752
1.547782955
1.543335086
1.538330649
1.533670221
1.530583045
1.849892682
1.845839959
1.840357398
1.833898112
1.826109923
1.819365768
1.816384815
1.813990485
1.81039733
1.805491731
1.799377091
1.792270399
1.784748491
1.779742785
1.777332513
1.774416909
1.770204666
1.764368708
1.757990966
1.751914602
1.745760672
1.740819809
1.73725472
1.73342469
1.728869951
1.723994674
1.718694695
1.712815382
1.706952084
1.700783098
1.695874603
1.692328997
1.688322797
1.683435423
1.678231381
1.672628211
1.667160069
1.661112806
1.654766553
1.651641447
1.648592645
1.644020441
1.639049942
1.63416398
1.629089768
1.623410918
1.616664054
1.612692916
1.610014096
1.606207872
1.601460142
1.597205151
1.59270093
1.587604896
1.580887288
1.575014422
1.572482633
1.569502851
1.565534523
1.56119914
1.557747827
1.553644262
1.548487161
1.541830609
1.537241346
1.534105906
1.841574265
1.838143666
1.835764934
1.832193465
1.827127439
1.82120386
1.814776442
1.808509458
1.804453139
1.801733375
1.798287105
1.793690692
1.787666959
1.780586117
1.773355734
1.76850294
1.76602962
1.763102264
1.758809127
1.753687939
1.74747125
1.740231745
1.733855124
1.729812128
1.727148013
1.724110112
1.720226289
1.715256525
1.708836982
1.701201328
1.695386841
1.69134442
1.687544133
1.683778053
1.68009126
1.675691332
1.670271777
1.662955283
1.656587639
1.652718769
1.649198006
1.644916701
1.640566643
1.636998835
1.632785675
1.626266155
1.619270475
1.615247347
1.611926185
1.608072666
1.602837359
1.599399646
1.596104517
1.591421092
1.584436412
1.579362479
1.576146818
1.57254035
1.567641171
1.563094806
1.560763476
1.557597698
1.552621236
1.547060463
1.54289081
1.538313383
1.837048497
1.833111941
1.828762691
1.824761495
1.821606221
1.818248483
1.813928152
1.809037149
1.804070788
1.798592213
1.793316737
1.789508855
1.78580846
1.7812638
1.775695101
1.769821693
1.764185551
1.759042422
1.754788496
1.751057465
1.746844764
1.74195702
1.736700836
1.731505865
1.725465311
1.72045822
1.717298466
1.713982557
1.709667623
1.704229053
1.698450282
1.692543039
1.686303488
1.681734157
1.678691804
1.675516968
1.671468752
1.666525413
1.661308018
1.655682261
1.649176155
1.643571918
1.640279684
1.63769281
1.634468442
1.629850831
1.624268581
1.619293719
1.614324422
1.607700431
1.603476396
1.601303156
1.598256216
1.594505388
1.588913217
1.583943832
1.579764343
1.575102799
1.569006021
1.565713906
1.563710381
1.560634085
1.555710031
1.550913613
1.547663651
1.542720461
1.82638969
1.824608222
1.822363624
1.819338247
1.815293241
1.811117113
1.807770442
1.804396085
1.800666646
1.796752469
1.792560371
1.787738727
1.782311862
1.777845313
1.773832785
1.76944278
1.764395685
1.758282323
1.753089419
1.749210911
1.745414291
1.741034896
1.736359106
1.731193703
1.72572963
1.721304562
1.717193848
1.712858995
1.707970391
1.703549562
1.699647559
1.694208413
1.687396786
1.682797676
1.679317525
1.675573419
1.670520979
1.665848572
1.662530469
1.658130438
1.651899745
1.645690796
1.641692621
1.638153564
1.633871136
1.629490677
1.62593011
1.622280709
1.617393877
1.611466405
1.605975341
1.602259086
1.598981429
1.59464036
1.590913786
1.587509144
1.583396893
1.578756902
1.572280509
1.568214731
1.565463701
1.56209253
1.557629987
1.553960069
1.551400345
1.546976529
1.818757843
1.813413618
1.811034841
1.809694118
1.808016638
1.805695177
1.80240478
1.797649256
1.793270499
1.790359348
1.787519279
1.784175483
1.780609111
1.776586824
1.771345695
1.765797015
1.761757442
1.757896052
1.753754622
1.749072268
1.743874474
1.739240074
1.73517281
1.730844973
1.726206596
1.721494408
1.716858459
1.711940154
1.706905967
1.702771602
1.69907652
1.694833144
1.689641881
1.684164257
1.679402625
1.674746644
1.670158246
1.666830625
1.663635395
1.659682485
1.653979655
1.647392656
1.643124026
1.639176499
1.634281575
1.63026859
1.627907219
1.624511899
1.61965679
1.614129094
1.608394593
1.604146193
1.6004752
1.596439829
1.592552222
1.589311013
1.58615108
1.580910052
1.575032291
1.571601055
1.568204053
1.564590774
1.559491538
1.556371983
1.553700136
1.549308213
1.817590782
1.8130719
1.807977405
1.802474184
1.798286201
1.795971568
1.794075304
1.791573881
1.788437064
1.784697614
1.780166445
1.776386161
1.774042312
1.771619055
1.768252426
1.764164772
1.759517287
1.754528792
1.750513924
1.747251121
1.743608792
1.739507591
1.734758861
1.729531936
1.724748346
1.720258407
1.716024796
1.71195542
1.707868507
1.703615483
1.698848459
1.693592859
1.688410655
1.684026199
1.680032075
1.675963056
1.671566219
1.666916492
1.662895577
1.658869854
1.654198001
1.649366996
1.645162084
1.641234379
1.636291307
1.630550868
1.627490038
1.624993102
1.621018421
1.61616754
1.611859432
1.607367258
1.602661902
1.597230279
1.593038088
1.590756939
1.58804619
1.583584556
1.578387458
1.574323672
1.57085976
1.565566924
1.561008935
1.558682721
1.555876709
1.552152975
1.816737461
1.810875126
1.805754511
1.802018358
1.798476213
1.794564048
1.789674621
1.784517024
1.780108776
1.776975076
1.774383982
1.7716925
1.768777287
1.765217065
1.761254328
1.757642025
1.754483065
1.751211427
1.747753469
1.744077618
1.740188152
1.736444578
1.732250526
1.728107647
1.723936969
1.719603311
1.714914709
1.710059876
1.706020684
1.702360741
1.698302999
1.693751519
1.689132037
1.684682766
1.679848759
1.67458877
1.670270072
1.667144699
1.66376173
1.659881493
1.655462836
1.650357142
1.645129615
1.640810838
1.636844919
1.632531008
1.629229529
1.626354855
1.622186245
1.617043807
1.612876763
1.60949637
1.60470524
1.597779725
1.594755225
1.592618106
1.589328508
1.585576761
1.580904453
1.577371136
1.573755587
1.568238891
1.563088588
1.560156002
1.557079948
1.553512693
1.818799745
1.813321083
1.807533114
1.801465543
1.796361164
1.792472857
1.788943664
1.784911842
1.780378484
1.774982646
1.768934811
1.764245294
1.761501684
1.759067178
1.756236493
1.753137755
1.749532017
1.745158503
1.740923358
1.737818184
1.735468544
1.732672341
1.729159115
1.725047325
1.720511377
1.716160947
1.711763652
1.7076485
1.704120277
1.700689271
1.696904459
1.692429404
1.687602404
1.683198271
1.679100423
1.675190337
1.671514139
1.667687035
1.663088585
1.658797373
1.655090339
1.65119719
1.646805488
1.642598936
1.637617715
1.632625862
1.629333218
1.626272437
1.622899672
1.618982543
1.614791683
1.611499577
1.606944231
1.600657241
1.596038977
1.593107581
1.589507111
1.585112737
1.582533496
1.579757805
1.57602517
1.571205076
1.565535559
1.562378411
1.558980389
1.554788304
1.819613806
1.814480854
1.808717096
1.802767203
1.798049633
1.793744985
1.788952356
1.78413963
1.779621289
1.774294854
1.768395659
1.764125788
1.760682062
1.756828846
1.752123806
1.747969168
1.744256157
1.740039306
1.736106678
1.733049864
1.730045611
1.726607872
1.723231431
1.720110261
1.716546714
1.712254224
1.707826344
1.703434958
1.699527324
1.696255482
1.69313856
1.690035864
1.68663087
1.682724476
1.678272813
1.672855988
1.669008313
1.66632052
1.663024479
1.659143275
1.655338116
1.651398096
1.646800308
1.641789126
1.637259472
1.633843001
1.6304416
1.627215585
1.62299388
1.618756827
1.615484265
1.611536626
1.607394855
1.602576604
1.59781335
1.594676856
1.590936088
1.586264655
1.58249048
1.580084709
1.577194108
1.572181575
1.567870991
1.564859872
1.56129851
1.556757675
1.820511515
1.816442572
1.811271421
1.805217094
1.799258655
1.793828638
1.788882594
1.785157301
1.781303935
1.776301654
1.770421194
1.76456247
1.759160832
1.754482565
1.751114492
1.748337292
1.744579895
1.73974508
1.733409932
1.728428445
1.724476729
1.720915971
1.718568546
1.716084068
1.712309608
1.707438835
1.701833269
1.697361843
1.694265275
1.691490202
1.688716642
1.685694187
1.682484766
1.679198088
1.675184946
1.67057062
1.667315882
1.664514577
1.661039887
1.65702675
1.653247662
1.649970427
1.646525442
1.642301137
1.63786229
1.63369181
1.629916264
1.626161252
1.622271006
1.619228377
1.616096446
1.612715621
1.607881735
1.602763435
1.599139168
1.595288816
1.591466705
1.587153211
1.583202278
1.580854845
1.578085306
1.573881432
1.569965216
1.566995868
1.562751191
1.557793268
1.820761895
1.815971901
1.811165612
1.806027565
1.800684023
1.795617809
1.791019084
1.786447804
1.78154069
1.776650013
1.771666959
1.766437762
1.761034562
1.755936269
1.752017886
1.74817662
1.743662025
1.738121712
1.733238979
1.729369954
1.725324246
1.720233298
1.715838319
1.712315992
1.70800204
1.702637556
1.698573479
1.695320066
1.69167908
1.687042063
1.682883131
1.679921719
1.677199004
1.674392217
1.671106533
1.667122857
1.663543046
1.660434917
1.657274296
1.654032464
1.650793347
1.648025715
1.644565737
1.640252715
1.636036566
1.632233135
1.629059994
1.625936313
1.622650747
1.61877961
1.614714215
1.611243155
1.607682418
1.604178301
1.600685364
1.596731746
1.591447598
1.586458372
1.583996248
1.581680928
1.578683148
1.574409335
1.570963537
1.568217469
1.564630314
1.559912264
1.817653676
1.813940915
1.81051274
1.806269062
1.801419982
1.796186902
1.791386768
1.786800922
1.782538482
1.778571933
1.774053149
1.768747642
1.762796488
1.757459226
1.753052106
1.748938622
1.744935621
1.740466268
1.735435049
1.729706186
1.724123366
1.719794749
1.716224938
1.712401131
1.708329169
1.703736576
1.698433105
1.692629263
1.687862086
1.684940236
1.682425841
1.679480973
1.675744573
1.670631202
1.665439389
1.662017002
1.659334704
1.656566599
1.653920736
1.6500602
1.646809669
1.644292199
1.640888522
1.636959562
1.632979925
1.630145745
1.627116684
1.623125712
1.620021332
1.617553171
1.614651216
1.611186256
1.606537069
1.602371001
1.599168602
1.595926591
1.592410995
1.588679698
1.584563118
1.581276042
1.577722109
1.574217548
1.571535609
1.569051167
1.56530719
1.560471553
1.818295589
1.81397329
1.809026851
1.804136897
1.79937838
1.795363669
1.792074428
1.788215193
1.783832475
1.778997294
1.77405212
1.768829722
1.764341908
1.760645247
1.756364203
1.751224846
1.745764236
1.741249219
1.736600685
1.731046953
1.726330153
1.722279941
1.717843601
1.71278272
1.707683093
1.703244578
1.699027907
1.694646572
1.690146006
1.685447719
1.680840471
1.677235531
1.673956468
1.670306601
1.666221544
1.662163365
1.657883125
1.653313864
1.648860573
1.645904125
1.643762926
1.640866067
1.637744601
1.633274823
1.628563874
1.625616294
1.623023058
1.620174354
1.617542692
1.61476588
1.611563507
1.608037927
1.604490997
1.601006948
1.597805615
1.594019924
1.589502214
1.587003961
1.584662342
1.581346744
1.577929791
1.573990782
1.569990995
1.567308837
1.564555319
1.561035412
1.816909592
1.810926684
1.804626197
1.801923225
1.799318214
1.795656757
1.791232818
1.786979086
1.782995189
1.779031803
1.774967527
1.770537289
1.765691749
1.760473957
1.755814734
1.751651825
1.747915198
1.744028317
1.739493454
1.733909541
1.728132844
1.72303719
1.718732398
1.714852487
1.710712601
1.706085535
1.700646645
1.694661001
1.689698811
1.685861991
1.682502288
1.679103305
1.675354258
1.671076155
1.665918645
1.660478817
1.656561633
1.653461526
1.650193021
1.647024681
1.64335607
1.638994586
1.6338728
1.629581994
1.626808868
1.624127262
1.620875745
1.616640173
1.612985784
1.610730181
1.608375761
1.605335282
1.601744953
1.597693504
1.594142555
1.590453483
1.587041359
1.584833539
1.582582837
1.579439768
1.575423772
1.572073898
1.569441244
1.566456508
1.563111067
1.559302805
1.817782984
1.814369318
1.808085091
1.802379187
1.797005706
1.791694455
1.787814589
1.785374511
1.782349038
1.778747998
1.774555231
1.769940352
1.765215693
1.760822778
1.756885388
1.752880143
1.74852296
1.743970434
1.739728688
1.735577718
1.73110814
1.726329149
1.721393619
1.715995159
1.71121906
1.707157829
1.70275808
1.697749948
1.692920084
1.688095612
1.683170136
1.679201846
1.6759047
1.672554199
1.668499784
1.663873592
1.658744199
1.652840236
1.648669873
1.64616944
1.643625499
1.640549834
1.636677598
1.631665482
1.625743182
1.62123368
1.618274622
1.61571959
1.613303139
1.610783134
1.607158573
1.602459379
1.598236981
1.594755394
1.591547742
1.588321346
1.584347625
1.581269229
1.579229807
1.576524556
1.573007126
1.570008169
1.567413745
1.564010484
1.560335247
1.557555701
1.62406034
1.619954143
1.614984375
1.611290546
1.609158155
1.606830837
1.603690783
1.600140994
1.595846067
1.589925225
1.584246254
1.58164536
1.580040826
1.577868403
1.575354983
1.571584778
1.568249595
1.56516175
1.561675401
1.558116086
1.554902602
)
;

boundaryField
{
    inlet
    {
        type            fixedValue;
        value           nonuniform 0();
    }
    outlet
    {
        type            inletOutlet;
        inletValue      nonuniform 0();
        value           nonuniform 0();
    }
    bottom
    {
        type            slip;
    }
    top
    {
        type            slip;
    }
    obstacle
    {
        type            zeroGradient;
    }
    defaultFaces
    {
        type            empty;
    }
    procBoundary26to19
    {
        type            processor;
        value           nonuniform List<scalar> 5(1.861546775 1.867520683 1.872869083 1.86806417 1.86806417);
    }
    procBoundary26to20
    {
        type            processor;
        value           nonuniform List<scalar> 
70
(
1.84434674
1.832903178
1.821935038
1.821795958
1.821795958
1.810491406
1.799917645
1.790944564
1.782308922
1.772740555
1.761701979
1.751776688
1.743361318
1.735245075
1.726477018
1.715971329
1.706321319
1.698288491
1.690477814
1.682524757
1.67294243
1.663137408
1.655372869
1.648071183
1.640878613
1.632362253
1.623001202
1.615784254
1.608784896
1.601898491
1.60433021
1.60433021
1.597756912
1.591347308
1.582990127
1.575716822
1.570018433
1.563791024
1.556955108
1.548800745
1.543436965
1.538279893
1.531951285
1.524110531
1.517711124
1.513130426
1.508370221
1.502375038
1.495948438
1.490465251
1.485302238
1.480717317
1.475314299
1.468099534
1.463187767
1.459040333
1.454728126
1.449540455
1.44208146
1.450664906
1.450664906
1.446187477
1.440333909
1.434167708
1.430573753
1.42743455
1.422915994
1.415929609
1.411956112
1.40866473
)
;
    }
    procBoundary26to25
    {
        type            processor;
        value           nonuniform List<scalar> 
31
(
1.869904406
1.87344026
1.872970008
1.875443673
1.876112517
1.876608744
1.878247523
1.87827072
1.876912174
1.87518015
1.873421225
1.870468904
1.865609992
1.862375884
1.858924812
1.859019779
1.852019797
1.846975292
1.840481242
1.828268538
1.824808344
1.821753174
1.822393541
1.82360351
1.824778619
1.824147177
1.825040098
1.82264189
1.822641626
1.819499029
1.817748128
)
;
    }
    procBoundary26to27
    {
        type            processor;
        value           nonuniform List<scalar> 6(1.410246696 1.420680641 1.430203143 1.439572297 1.448452016 1.457163318);
    }
    procBoundary26to32
    {
        type            processor;
        value           nonuniform List<scalar> 
67
(
1.792399483
1.803083257
1.805640443
1.802723646
1.79672228
1.792255961
1.788433175
1.784012114
1.779583631
1.775770476
1.772471484
1.769504719
1.765776984
1.761366875
1.756517247
1.751888431
1.747714634
1.744424544
1.741308038
1.737442282
1.732605662
1.727210309
1.722214909
1.717619487
1.71356661
1.709574073
1.704850155
1.699522138
1.694754711
1.690252123
1.686091314
1.682253538
1.67855963
1.674150149
1.669256081
1.665142625
1.660837797