/*--------------------------------*- C++ -*----------------------------------*\
  =========                 |
  \\      /  F ield         | OpenFOAM: The Open Source CFD Toolbox
   \\    /   O peration     | Website:  https://openfoam.org
    \\  /    A nd           | Version:  7
     \\/     M anipulation  |
\*---------------------------------------------------------------------------*/
FoamFile
{
    version     2.0;
    format      ascii;
    class       volVectorField;
    location    "2.5";
    object      U;
}
// * * * * * * * * * * * * * * * * * * * * * * * * * * * * * * * * * * * * * //

dimensions      [0 1 -1 0 0 0 0];

internalField   nonuniform List<vector> 
138
(
(3.235002543 0.002633863895 0)
(3.23762615 -0.0001955207935 0)
(3.20391748 0.002637536188 0)
(3.214855394 -0.006776619093 0)
(3.220040513 -0.007504777849 0)
(3.22635057 -0.003240165483 0)
(3.230608832 -0.002103003303 0)
(3.232441229 0.002837888274 0)
(3.235734714 0.002768002481 0)
(3.235971307 0.0006956288503 0)
(3.237987351 -0.0004474408832 0)
(3.211729352 -0.003807408598 0)
(3.219241354 -0.002806654385 0)
(3.225572312 0.001185895303 0)
(3.229575104 0.002037385602 0)
(3.233482778 9.139116283e-05 0)
(3.236120201 0.001548698077 0)
(3.238971488 0.001370610295 0)
(3.239793018 0.0008636128073 0)
(3.240896903 -0.0001832683252 0)
(3.2300697 -0.007684066893 0)
(3.232398628 0.001981496956 0)
(3.236113879 0.01133250681 0)
(3.238785254 0.006824205932 0)
(3.240585832 0.002824607714 0)
(3.243970113 -0.002261724136 0)
(3.246230123 -0.001280781808 0)
(3.24705306 1.094989561e-05 0)
(3.247306584 -0.0002362679859 0)
(3.249317888 -0.002849878503 0)
(3.252841098 -0.002605903515 0)
(3.251341628 0.003090682018 0)
(3.254456004 0.007715298169 0)
(3.255834083 0.002460164777 0)
(3.256017847 -0.002031538619 0)
(3.258661213 -0.0004412382262 0)
(3.261402932 -0.001895100027 0)
(3.261887939 -0.00531982893 0)
(3.260909031 -0.004871926368 0)
(3.262096391 0.0001111386429 0)
(3.274261471 -0.001535332018 0)
(3.276328605 -0.002052648893 0)
(3.275948514 0.001123192108 0)
(3.274931913 -0.0007262152975 0)
(3.277652394 0.003763598524 0)
(3.28004213 0.002602297734 0)
(3.279359052 -0.0008241449245 0)
(3.277271231 -0.0007180353949 0)
(3.278289556 -0.0007534489368 0)
(3.298043552 -0.005892231984 0)
(3.296436313 -0.005101878103 0)
(3.294440554 0.0007650301874 0)
(3.292007858 -0.001114244937 0)
(3.293632252 0.002996120152 0)
(3.294721176 0.003837574957 0)
(3.293388283 0.002696132337 0)
(3.29135298 -0.0004507891881 0)
(3.2898754 -0.0005224575935 0)
(3.305162571 -0.0007416936902 0)
(3.30311525 -0.002019808001 0)
(3.302046978 0.001683121611 0)
(3.298548254 -0.001889396389 0)
(3.298201113 -0.00113728193 0)
(3.29822317 0.002865904099 0)
(3.296119824 0.003707708624 0)
(3.293886113 0.0001588676197 0)
(3.290370699 4.420528264e-05 0)
(3.294341466 0.001851842006 0)
(3.29084418 0.003216708921 0)
(3.291531715 0.005252284778 0)
(3.289559508 -0.002270997837 0)
(3.28936577 -0.002116886016 0)
(3.289227316 0.001198293716 0)
(3.28491356 0.001464235318 0)
(3.281777168 -0.002693999929 0)
(3.27814921 -0.001093675011 0)
(3.277599437 -0.000455731213 0)
(3.272299902 0.005231756815 0)
(3.269633125 0.009254800688 0)
(3.267810039 0.000689057333 0)
(3.268110906 -0.002180543027 0)
(3.268250967 0.00113499359 0)
(3.263767982 -0.0004281779697 0)
(3.259759998 -0.004008752251 0)
(3.255071108 -0.003939356751 0)
(3.257454774 -0.002862715208 0)
(3.25326856 0.003147006857 0)
(3.24576033 0.0059643565 0)
(3.240555482 0.001559726663 0)
(3.237766048 0.001424130589 0)
(3.237458385 0.004112328424 0)
(3.233786819 -0.001453046195 0)
(3.23019091 -0.004914729302 0)
(3.224924827 -0.003099105715 0)
(3.227011313 -0.002150941946 0)
(3.223005273 -0.00308399536 0)
(3.214851068 0.001767548726 0)
(3.208095708 -0.0002201806477 0)
(3.205180196 0.002371890556 0)
(3.204336358 0.006625287623 0)
(3.198665919 0.0007181332124 0)
(3.195486374 -0.003004462936 0)
(3.190444051 -0.00157500161 0)
(3.182855601 -0.005350675751 0)
(3.17489019 0.0007373887182 0)
(3.171790455 -0.001567091255 0)
(3.17127269 0.0009639218892 0)
(3.170486312 0.006993156239 0)
(3.164298737 0.003694715166 0)
(3.160169817 -0.0007644168286 0)
(3.155037788 -0.0001553187586 0)
(3.136972453 -0.002845282369 0)
(3.135513942 0.005540457348 0)
(3.132841413 0.0004783304644 0)
(3.130608657 0.0002511378275 0)
(3.129624653 0.005904675174 0)
(3.127282037 0.004704038651 0)
(3.123436909 0.0001439197094 0)
(3.118358319 -3.835524774e-05 0)
(3.093058472 0.002482400613 0)
(3.092714449 0.01139113 0)
(3.086457134 0.003310532905 0)
(3.082240119 -0.001235958311 0)
(3.082769103 0.00320791974 0)
(3.083176824 0.003503818771 0)
(3.080018275 0.0001531633203 0)
(3.075161794 -0.0007608984312 0)
(3.046578508 0.006576488408 0)
(3.038465198 0.01323760137 0)
(3.031534071 0.005312941241 0)
(3.029198172 -0.0004823374348 0)
(3.032312247 0.003817658316 0)
(3.034388629 0.001777026095 0)
(3.031501047 -0.001755405078 0)
(3.027026988 -0.003288372844 0)
(2.982820455 0.004720126442 0)
(2.978996149 0.008560477379 0)
(2.974670635 0.00179745585 0)
)
;

boundaryField
{
    inlet
    {
        type            fixedValue;
        value           nonuniform 0();
    }
    outlet
    {
        type            inletOutlet;
        inletValue      nonuniform 0();
        value           nonuniform 0();
    }
    bottom
    {
        type            slip;
    }
    top
    {
        type            slip;
    }
    obstacle
    {
        type            slip;
    }
    defaultFaces
    {
        type            empty;
    }
    procBoundary22to16
    {
        type            processor;
        value           nonuniform List<vector> 10((3.239193498 0.0006983412855 0) (3.240225457 -7.858869574e-06 0) (3.205985257 0.004555982722 0) (3.215318707 -0.004256599408 0) (3.219154687 -0.009459754936 0) (3.223629348 -0.003931024938 0) (3.229166178 -0.001996129381 0) (3.230812867 0.0005309363997 0) (3.234109372 0.002243065158 0) (3.234109372 0.002243065158 0));
    }
    procBoundary22to17
    {
        type            processor;
        value           uniform (3.239148531 0.002440312453 0);
    }
    procBoundary22to21
    {
        type            processor;
        value           nonuniform List<vector> 
18
(
(3.199378768 0.01456685309 0)
(3.208564721 0.003220771628 0)
(3.231982134 -0.004464173848 0)
(3.263968979 -0.005148338112 0)
(3.281199704 0.001469861635 0)
(3.281199704 0.001469861635 0)
(3.302888674 0.002722198551 0)
(3.306459952 0.01354226874 0)
(3.299650791 0.01412842859 0)
(3.28366617 0.005003287042 0)
(3.260681555 0.002049854813 0)
(3.224824561 0.006656118209 0)
(3.189664817 0.003935275489 0)
(3.189664817 0.003935275489 0)
(3.146024578 0.007897568831 0)
(3.098996896 0.01066758475 0)
(3.04996882 0.00962040769 0)
(2.984887961 0.005993506207 0)
)
;
    }
    procBoundary22to23
    {
        type            processor;
        value           nonuniform List<vector> 
16
(
(3.239397835 0.001491196704 0)
(3.242340405 -0.0006282399185 0)
(3.242340405 -0.0006282399185 0)
(3.251199948 -0.003774215352 0)
(3.262807464 -0.002446488879 0)
(3.27774892 -0.000214627054 0)
(3.288429904 -0.000137722523 0)
(3.287662422 0.002362642522 0)
(3.274906752 0.002131002302 0)
(3.251768748 -0.001442411879 0)
(3.221274822 -0.002870183376 0)
(3.185710748 -0.001790442122 0)
(3.14997664 0.0004859607773 0)
(3.113091714 0.001436571284 0)
(3.069982149 0.0005693004073 0)
(3.022815688 -0.001481590531 0)
)
;
    }
    procBoundary22to28
    {
        type            processor;
        value           nonuniform List<vector> 9((2.975587877 -0.001269180806 0) (2.98019353 0.005296489367 0) (2.983504976 0.002242991182 0) (2.98137196 -0.001640908999 0) (2.97844624 -0.003887982305 0) (2.920851553 0.001036065183 0) (2.927827786 0.00128692219 0) (2.975587877 -0.001269180806 0) (2.926566701 -0.003927516001 0));
    }
}


// ************************************************************************* //
