/*--------------------------------*- C++ -*----------------------------------*\
  =========                 |
  \\      /  F ield         | OpenFOAM: The Open Source CFD Toolbox
   \\    /   O peration     | Website:  https://openfoam.org
    \\  /    A nd           | Version:  7
     \\/     M anipulation  |
\*---------------------------------------------------------------------------*/
FoamFile
{
    version     2.0;
    format      ascii;
    class       volScalarField;
    location    "0.8";
    object      rho;
}
// * * * * * * * * * * * * * * * * * * * * * * * * * * * * * * * * * * * * * //

dimensions      [1 -3 0 0 0 0 0];

internalField   nonuniform List<scalar> 5(1.271354417 1.403870409 1.391375793 1.331126709 1.353590798);

boundaryField
{
    inlet
    {
        type            calculated;
        value           nonuniform 0();
    }
    outlet
    {
        type            calculated;
        value           nonuniform 0();
    }
    bottom
    {
        type            calculated;
        value           nonuniform 0();
    }
    top
    {
        type            calculated;
        value           nonuniform 0();
    }
    obstacle
    {
        type            calculated;
        value           nonuniform 0();
    }
    defaultFaces
    {
        type            empty;
    }
    procBoundary28to22
    {
        type            processor;
        value           nonuniform List<scalar> 2(1.297969905 1.411989717);
    }
    procBoundary28to27
    {
        type            processor;
        value           nonuniform List<scalar> 4(1.180940434 1.238008528 1.238008528 1.314109061);
    }
    procBoundary28to34
    {
        type            processor;
        value           nonuniform List<scalar> 2(1.354084323 1.348417755);
    }
    procBoundary28to35
    {
        type            processor;
        value           nonuniform List<scalar> 4(1.396802588 1.394644287 1.394644287 1.372667357);
    }
}


// ************************************************************************* //
