/*--------------------------------*- C++ -*----------------------------------*\
  =========                 |
  \\      /  F ield         | OpenFOAM: The Open Source CFD Toolbox
   \\    /   O peration     | Website:  https://openfoam.org
    \\  /    A nd           | Version:  7
     \\/     M anipulation  |
\*---------------------------------------------------------------------------*/
FoamFile
{
    version     2.0;
    format      ascii;
    class       volScalarField;
    location    "3.2";
    object      p;
}
// * * * * * * * * * * * * * * * * * * * * * * * * * * * * * * * * * * * * * //

dimensions      [1 -1 -2 0 0 0 0];

internalField   nonuniform List<scalar> 
23
(
0.8821039997
0.8915877388
1.008359185
0.9115244997
0.8848425411
1.119593962
1.032120094
0.9469057759
1.143881376
1.118456001
1.04944344
1.14101
1.137311401
1.115561529
1.092567605
1.117686046
1.126653605
1.034701229
1.084546747
1.122915637
1.008589259
1.043033893
1.106549991
)
;

boundaryField
{
    inlet
    {
        type            fixedValue;
        value           nonuniform 0();
    }
    outlet
    {
        type            zeroGradient;
    }
    bottom
    {
        type            slip;
    }
    top
    {
        type            slip;
    }
    obstacle
    {
        type            zeroGradient;
    }
    defaultFaces
    {
        type            empty;
    }
    procBoundary34to27
    {
        type            processor;
        value           uniform 1.129795609;
    }
    procBoundary34to28
    {
        type            processor;
        value           nonuniform List<scalar> 4(0.8793194801 0.9519507318 0.8962421667 0.8962421667);
    }
    procBoundary34to33
    {
        type            processor;
        value           nonuniform List<scalar> 6(1.168626068 1.144177543 1.089831986 1.034237936 1.007563711 1.000954708);
    }
    procBoundary34to35
    {
        type            processor;
        value           nonuniform List<scalar> 8(0.9269941082 0.895110217 0.9215863418 0.974324354 1.06105536 1.115679821 1.157904897 1.177645411);
    }
}


// ************************************************************************* //
