/*--------------------------------*- C++ -*----------------------------------*\
  =========                 |
  \\      /  F ield         | OpenFOAM: The Open Source CFD Toolbox
   \\    /   O peration     | Website:  https://openfoam.org
    \\  /    A nd           | Version:  7
     \\/     M anipulation  |
\*---------------------------------------------------------------------------*/
FoamFile
{
    version     2.0;
    format      ascii;
    class       volVectorField;
    location    "0.3";
    object      U;
}
// * * * * * * * * * * * * * * * * * * * * * * * * * * * * * * * * * * * * * //

dimensions      [0 1 -1 0 0 0 0];

internalField   nonuniform List<vector> 
22
(
(3.075150329 -0.2902320647 0)
(3.094745887 -0.1754491514 0)
(2.971370854 -0.3254076015 0)
(3.085877409 -0.3091918638 0)
(3.089328876 -0.2227771612 0)
(2.947920106 0.06320071879 0)
(3.02041047 -0.311876146 0)
(3.080360424 -0.236284733 0)
(3.074698769 -0.1704639898 0)
(2.917994072 0.2060074187 0)
(2.93678348 0.1084503633 0)
(2.984085704 -0.01602755704 0)
(3.033999956 -0.09679126145 0)
(2.947359038 0.1234008285 0)
(2.948753512 0.1247530156 0)
(2.971068018 0.07667512717 0)
(3.009305099 -0.01651062988 0)
(2.974912884 0.05568249827 0)
(2.953263393 0.1295201941 0)
(2.961563308 0.123186164 0)
(2.987615447 0.08655591651 0)
(2.995447569 0.009744141665 0)
)
;

boundaryField
{
    inlet
    {
        type            fixedValue;
        value           nonuniform 0();
    }
    outlet
    {
        type            inletOutlet;
        inletValue      nonuniform 0();
        value           nonuniform 0();
    }
    bottom
    {
        type            slip;
    }
    top
    {
        type            slip;
    }
    obstacle
    {
        type            slip;
    }
    defaultFaces
    {
        type            empty;
    }
    procBoundary27to20
    {
        type            processor;
        value           nonuniform List<vector> 2((2.886926575 0.1368517665 0) (2.914133233 0.2227780543 0));
    }
    procBoundary27to21
    {
        type            processor;
        value           nonuniform List<vector> 4((3.063886294 -0.2681457973 0) (3.101267953 -0.1344528883 0) (2.983396083 -0.3231085184 0) (2.983396083 -0.3231085184 0));
    }
    procBoundary27to26
    {
        type            processor;
        value           nonuniform List<vector> 3((2.983929741 0.04676339201 0) (2.998045945 0.004410716831 0) (2.999964717 5.704447075e-05 0));
    }
    procBoundary27to28
    {
        type            processor;
        value           nonuniform List<vector> 6((3.105147878 -0.03192948863 0) (3.097816013 -0.06600058805 0) (3.097816013 -0.06600058805 0) (3.066001158 -0.09399097127 0) (3.040756923 -0.1048679045 0) (3.05246622 -0.119893737 0));
    }
    procBoundary27to33
    {
        type            processor;
        value           nonuniform List<vector> 5((2.974638862 0.0614213172 0) (2.973100245 0.09550650991 0) (2.984918836 0.09053289517 0) (2.974638862 0.0614213172 0) (2.999654131 0.0007691001597 0));
    }
    procBoundary27to34
    {
        type            processor;
        value           uniform (3.025908152 0.01524358504 0);
    }
}


// ************************************************************************* //
