/*--------------------------------*- C++ -*----------------------------------*\
  =========                 |
  \\      /  F ield         | OpenFOAM: The Open Source CFD Toolbox
   \\    /   O peration     | Website:  https://openfoam.org
    \\  /    A nd           | Version:  7
     \\/     M anipulation  |
\*---------------------------------------------------------------------------*/
FoamFile
{
    version     2.0;
    format      ascii;
    class       volVectorField;
    location    "0.8";
    object      U;
}
// * * * * * * * * * * * * * * * * * * * * * * * * * * * * * * * * * * * * * //

dimensions      [0 1 -1 0 0 0 0];

internalField   nonuniform List<vector> 
22
(
(3.065077804 -0.2740677148 0)
(3.072589383 -0.1632929179 0)
(2.966358485 -0.3230227003 0)
(3.078378299 -0.2913995854 0)
(3.070395912 -0.2128093326 0)
(2.947065697 0.06565593124 0)
(3.01574397 -0.3035828407 0)
(3.059942091 -0.2222938085 0)
(3.040322652 -0.1482454442 0)
(2.917964826 0.2056672747 0)
(2.934600155 0.1103773346 0)
(2.982187868 -0.01786827859 0)
(3.00976268 -0.08857817729 0)
(2.948081021 0.1227251703 0)
(2.946897765 0.1243318446 0)
(2.969012571 0.06500781287 0)
(2.988888079 -0.006620030184 0)
(2.9788691 0.05154876693 0)
(2.949972668 0.132032487 0)
(2.952286934 0.1238353336 0)
(2.965896383 0.08411246967 0)
(2.996238868 0.008984470131 0)
)
;

boundaryField
{
    inlet
    {
        type            fixedValue;
        value           nonuniform 0();
    }
    outlet
    {
        type            inletOutlet;
        inletValue      nonuniform 0();
        value           nonuniform 0();
    }
    bottom
    {
        type            slip;
    }
    top
    {
        type            slip;
    }
    obstacle
    {
        type            slip;
    }
    defaultFaces
    {
        type            empty;
    }
    procBoundary27to20
    {
        type            processor;
        value           nonuniform List<vector> 2((2.887011759 0.1372777755 0) (2.914074342 0.2224874931 0));
    }
    procBoundary27to21
    {
        type            processor;
        value           nonuniform List<vector> 4((3.048692581 -0.2503678058 0) (3.065581584 -0.1286460069 0) (2.975162244 -0.3191569152 0) (2.975162244 -0.3191569152 0));
    }
    procBoundary27to26
    {
        type            processor;
        value           nonuniform List<vector> 3((2.983710973 0.04708365251 0) (2.997981774 0.004610913061 0) (2.999967697 5.259142e-05 0));
    }
    procBoundary27to28
    {
        type            processor;
        value           nonuniform List<vector> 6((3.041710582 -0.02446266049 0) (3.048096461 -0.0492778377 0) (3.048096461 -0.0492778377 0) (3.024677902 -0.07590663212 0) (3.009741334 -0.09906203278 0) (3.007940177 -0.1299341623 0));
    }
    procBoundary27to33
    {
        type            processor;
        value           nonuniform List<vector> 5((2.97459629 0.06396264158 0) (2.961103484 0.09586722143 0) (2.961782452 0.09663502339 0) (2.97459629 0.06396264158 0) (2.999757161 0.0005525920391 0));
    }
    procBoundary27to34
    {
        type            processor;
        value           uniform (2.9895535 0.005182060285 0);
    }
}


// ************************************************************************* //
