/*--------------------------------*- C++ -*----------------------------------*\
  =========                 |
  \\      /  F ield         | OpenFOAM: The Open Source CFD Toolbox
   \\    /   O peration     | Website:  https://openfoam.org
    \\  /    A nd           | Version:  7
     \\/     M anipulation  |
\*---------------------------------------------------------------------------*/
FoamFile
{
    version     2.0;
    format      ascii;
    class       volScalarField;
    location    "0.9";
    object      T;
}
// * * * * * * * * * * * * * * * * * * * * * * * * * * * * * * * * * * * * * //

dimensions      [0 0 0 1 0 0 0];

internalField   nonuniform List<scalar> 
2222
(
1
1
1
1
1
1
1
1
1
1
1
1
1
1
1
1
1
1
1
1
1
1
1
1
1
1
1
1
1
1
1
1
1
1
1
1
1
1
1
1
1
1
1
1
1
1
1
1
1
1
1
1
1
1
1
1
1
1
1
1
1
1
1
1
1
1
1
1
1
1
1
1
1
1
1
1
1
1
1
1
1
1
1
1
1
1
1
1
1
1
1
1
1
1
1
1
1
1
1
1
1
1
1
1
1
1
1
1
1
1
1
1
1
1
1
1
1
1
1
1
1
1
1
1
1
1
1
1.000000004
1
1
1
1
1
1
1
1
1
1
1
1
1
1
1
1
1
1
1
1
1
1
1
1
1
1
1
1
1
1
1.000000005
1.000000121
1
1
1
1
1
1
1
1
1
1
1
1
1
1
1
1
1
1
1
1
1
1
1
1
1
1
1
1
1
1.000000004
1.00000015
1.000002619
1
1
1
1
1
1
1
1
1
1
1
1
1
1
1
1
1
1
1
1
1
1
1
1
1
1
1
1
1.000000005
1.000000129
1.000003084
1.000039605
1
1
1
1
1
1
1
1
1
1
1
1
1
1
1
1
1
1
1
1
1
1
1
1
1
1
1
1.000000004
1.000000162
1.000002799
1.000043625
1.000402567
1
1
1
1
1
1
1
1
1
1
1
1
1
1
1
1
1
1
1
1
1
1
1
1
1
1
1.000000006
1.000000139
1.000003294
1.000041941
1.000410216
1.002786261
1
1
1
1
1
1
1
1
1
1
1
1
1
1
1
1
1
1
1
1
1
1
1
1
1
1.000000005
1.000000175
1.000002943
1.000045476
1.000419541
1.002652886
1.012730685
1
1
1
1
1
1
1
1
1
1
1
1
1
1
1
1
1
1
1
1
1
1
1
1
1.000000006
1.000000146
1.000003437
1.000043161
1.000422428
1.002847402
1.011763201
1.036538
1
1
1
1
1
1
1
1
1
1
1
1
1
1
1
1
1
1
1
1
1
1
1
1.000000005
1.000000182
1.000003055
1.000046462
1.000430663
1.002716032
1.012926533
1.034165663
1.067580694
1
1
1
1
1
1
1
1
1
1
1
1
1
1
1
1
1
1
1
1
1
1
1.000000006
1.000000152
1.000003498
1.000044596
1.000432516
1.002931312
1.012011762
1.036979411
1.068300147
1.088275532
1
1
1
1
1
1
1
1
1
1
1
1
1
1
1
1
1
1
1
1
1
1.000000005
1.000000184
1.000003189
1.00004677
1.000449943
1.002779933
1.013346491
1.034702398
1.067810241
1.097384129
1.10429362
1
1
1
1
1
1
1
1
1
1
1
1
1
1
1
1
1
1
1
1
1.000000007
1.000000156
1.000003516
1.000046395
1.00044062
1.003048969
1.012337992
1.037650654
1.069165034
1.088392606
1.105202945
1.111146639
1
1
1
1
1
1
1
1
1
1
1
1
1
1
1
1
1
1
1
1.000000005
1.000000183
1.000003312
1.000046743
1.00047269
1.002833203
1.013784399
1.035527237
1.0678468
1.097663807
1.105391345
1.108487197
1.111451249
1
1
1
1
1
1
1
1
1
1
1
1
1
1
1
1
1
1
1.000000007
1.00000016
1.0000035
1.000048428
1.000446189
1.003193194
1.012583539
1.038286711
1.070312902
1.088538506
1.104794357
1.110969816
1.111338098
1.111957145
1
1
1
1
1
1
1
1
1
1
1
1
1
1
1
1
1
1.000000005
1.000000182
1.000003432
1.000046894
1.000496599
1.002897869
1.014227008
1.036426621
1.067911653
1.097579641
1.10655924
1.108931373
1.111013247
1.112360145
1.112381818
1
1
1
1
1
1
1
1
1
1
1
1
1
1
1
1
1.000000007
1.000000166
1.000003516
1.000050675
1.000452917
1.00334259
1.012887749
1.038820792
1.071863052
1.088997188
1.103944325
1.111045129
1.111402981
1.111778439
1.112388953
1.112262823
1
1
1
1
1
1
1
1
1
1
1
1
1
1
1
1.000000006
1.000000184
1.000003598
1.000047482
1.000520572
1.002965426
1.014655513
1.037320907
1.068087336
1.097668343
1.107329904
1.109424667
1.110935489
1.112221099
1.112383543
1.112268699
1.111599128
1
1
1
1
1
1
1
1
1
1
1
1
1
1
1.000000007
1.000000172
1.000003552
1.000052883
1.00045975
1.003478361
1.013188148
1.039285301
1.073067153
1.089629078
1.103204699
1.111091532
1.112032398
1.111807661
1.112275358
1.112311533
1.111782076
1.110313345
1
1
1
1
1
1
1
1
1
1
1
1
1
1.000000006
1.000000188
1.000003704
1.000047828
1.000536219
1.003010078
1.01500774
1.038100039
1.068272536
1.097597564
1.107785607
1.109911289
1.11130403
1.112314506
1.112415733
1.112294784
1.111809595
1.110482067
1.108225972
1
1
1
1
1
1
1
1
1
1
1
1
1.000000007
1.000000179
1.000003598
1.000054326
1.00046435
1.003544317
1.013359387
1.039705827
1.074003336
1.090074193
1.102520655
1.111138054
1.11260421
1.112226988
1.112353077
1.112435072
1.111988848
1.11070215
1.108525958
1.105572383
1
1
1
1
1
1
1
1
1
1
1
1.000000006
1.000000195
1.000003814
1.000048505
1.000551552
1.003062748
1.015164984
1.038635761
1.068674574
1.097628057
1.107713127
1.109956593
1.111558107
1.112651593
1.112658922
1.1125509
1.112062226
1.110862965
1.108768819
1.105889218
1.102488406
1
1
1
1
1
1
1
1
1
1
1.000000008
1.000000186
1.000003694
1.000055524
1.00046987
1.003634057
1.013580928
1.039995446
1.074785785
1.090825738
1.102220732
1.111114322
1.112781108
1.112541571
1.112552932
1.112668719
1.112265397
1.11111357
1.109091655
1.106230811
1.102842499
1.0991804
1
1
1
1
1
1
1
1
1
1.000000006
1.000000207
1.000003977
1.000049609
1.000562869
1.0030979
1.015401185
1.039015045
1.069043824
1.098159728
1.108081592
1.109915741
1.111553803
1.112757802
1.112825295
1.112660429
1.112261352
1.111240649
1.109344501
1.106596077
1.103172174
1.099530065
1.095494861
1
1
1
1
1
1
1
1
1.000000008
1.000000191
1.000003863
1.000057175
1.000478883
1.003725242
1.013757442
1.040327118
1.075012975
1.091310582
1.102484196
1.111316247
1.113002297
1.112707887
1.112651493
1.11274735
1.112395739
1.111380568
1.109561885
1.106945647
1.10355872
1.099839841
1.095916847
1.091398372
1
1
1
1
1
1
1
1.000000006
1.000000216
1.000004062
1.000050719
1.000568476
1.003133955
1.015737175
1.03954009
1.069470992
1.098235853
1.108440035
1.110219669
1.111988582
1.113041076
1.113003729
1.112789601
1.112367644
1.111439196
1.10969473
1.10717879
1.103942708
1.100144405
1.096265049
1.091899973
1.087154649
1
1
1
1
1
1
1.000000008
1.000000197
1.000004077
1.000058555
1.000484403
1.00373973
1.013795031
1.040830806
1.0756038
1.091936741
1.102543923
1.111502182
1.113099368
1.11298228
1.112897256
1.112952233
1.112608924
1.111661654
1.109940809
1.107442568
1.104302338
1.10055371
1.096512287
1.092310534
1.087557162
1.082952908
1
1
1
1
1
1.000000007
1.000000228
1.000004163
1.000053257
1.000580299
1.003173855
1.015931131
1.039548663
1.069693887
1.09866551
1.109219411
1.110319951
1.111863955
1.113077268
1.113194646
1.113054969
1.112709095
1.11185503
1.1101935
1.10773754
1.104628479
1.100957745
1.09687428
1.092558037
1.087982294
1.083205983
1.078651145
1
1
1
1
1.000000008
1.000000205
1.000004345
1.000059781
1.000497999
1.003768172
1.013999413
1.041638029
1.075342582
1.091962857
1.103033228
1.111792856
1.113088098
1.112896297
1.112906683
1.113146342
1.112912019
1.112122804
1.110520146
1.108092663
1.10502817
1.101337385
1.097231401
1.092897102
1.088212656
1.08351627
1.078816737
1.073968553
1
1
1
1.000000007
1.000000239
1.000004258
1.000057134
1.000588919
1.003202254
1.015960434
1.03988528
1.070600597
1.099106113
1.110097577
1.110292294
1.111497786
1.113016449
1.113257773
1.113080172
1.112914058
1.112255259
1.110743613
1.108361333
1.10535127
1.101775148
1.097537079
1.093212393
1.088590842
1.083596914
1.079053847
1.074186454
1.069082063
1
1
1.000000009
1.000000212
1.000004639
1.000061129
1.000526634
1.003803319
1.014140041
1.041894372
1.075172687
1.091907794
1.10462971
1.112525527
1.113166603
1.112774504
1.112801559
1.113203434
1.113191202
1.11257481
1.111094911
1.108758953
1.105632368
1.102141338
1.09794318
1.093320639
1.088963296
1.083923154
1.078914165
1.074555139
1.06927593
1.0642702
1
1.000000007
1.000000248
1.000004325
1.000062423
1.000594159
1.003321282
1.016055819
1.040410482
1.071477739
1.099396569
1.109738784
1.10995948
1.111382782
1.113282746
1.113377093
1.113085112
1.113022607
1.112550795
1.111256355
1.109102141
1.106005159
1.102368184
1.09845588
1.093583469
1.088974688
1.084513074
1.079002341
1.0743218
1.069883326
1.064139993
1.05952347
1.000000009
1.000000215
1.000004893
1.000062133
1.000568957
1.00382728
1.014350983
1.041986139
1.076324191
1.092559983
1.105977886
1.112454698
1.112835778
1.112672354
1.113035844
1.113482341
1.113430269
1.112827923
1.111434293
1.109311739
1.106410976
1.102617337
1.098739448
1.094222985
1.08895572
1.084663321
1.079747199
1.07400178
1.069757731
1.064881025
1.058911311
1.054775367
1.000000257
1.000004383
1.000067908
1.000593285
1.003557639
1.016018525
1.040316563
1.072302447
1.100850908
1.10862887
1.109453821
1.111264509
1.113471005
1.113548329
1.113403047
1.113441215
1.112972939
1.111645477
1.109480724
1.106703533
1.103003212
1.098882357
1.094745989
1.08949296
1.084486733
1.080238119
1.074514948
1.069083216
1.065067968
1.059475865
1.053722623
1.049952802
1.000005177
1.000063103
1.000621998
1.003817296
1.014819147
1.042141195
1.076398561
1.092612882
1.106452424
1.112204472
1.112444458
1.112713091
1.113463069
1.113813594
1.113719558
1.113127255
1.111811559
1.109688952
1.106946404
1.103443021
1.099142229
1.094993561
1.090213907
1.084646827
1.080147753
1.075266231
1.069020337
1.064361854
1.060056121
1.053712314
1.048667891
1.04505998
1.000073342
1.000597627
1.003895968
1.015755187
1.040436486
1.073623398
1.101890227
1.106395839
1.108639804
1.11173263
1.11375668
1.11391094
1.113844294
1.113782921
1.113257614
1.112006773
1.109920318
1.107154413
1.103834765
1.099565527
1.095206247
1.09075894
1.085150692
1.080048121
1.075489218
1.069589592
1.063795793
1.05954862
1.054420541
1.048038706
1.043892806
1.040099318
1.000675846
1.003845894
1.015610304
1.042202729
1.075045613
1.093161847
1.107538925
1.112266474
1.112290724
1.112964166
1.113810996
1.114043341
1.113942432
1.113406207
1.112199341
1.110210896
1.107413261
1.104174752
1.100079242
1.095408085
1.091133558
1.08580088
1.080026527
1.075518151
1.070041434
1.063684422
1.058953026
1.054327352
1.048449621
1.042976436
1.039146508
1.034842058
1.004209792
1.01568289
1.041323455
1.074451415
1.10121895
1.105465426
1.108432612
1.112608299
1.113922139
1.1140064
1.114000502
1.113959283
1.113542365
1.112413584
1.110515585
1.107756749
1.104463617
1.100653516
1.095745426
1.091224839
1.086493278
1.080204229
1.075182836
1.070481789
1.063814143
1.05834242
1.054088629
1.04850418
1.042804473
1.038337319
1.034185111
1.02945228
1.016363697
1.042549609
1.073842707
1.094037181
1.108515404
1.112565249
1.112380366
1.112959243
1.113789872
1.114134578
1.113978719
1.113573306
1.112594243
1.11083094
1.108214161
1.104791305
1.101085248
1.096368214
1.09115401
1.086771989
1.080901592
1.074601096
1.07038479
1.064607124
1.057687986
1.053531597
1.048729502
1.042505142
1.037863383
1.033579131
1.028831258
1.024105684
1.042126986
1.074960585
1.100528131
1.10560994
1.10928658
1.113008536
1.114020148
1.113926094
1.113919312
1.113899756
1.113666158
1.112802078
1.111127995
1.108690603
1.105316555
1.101417507
1.097060537
1.091452391
1.086501987
1.081616569
1.074640234
1.06947418
1.065215046
1.058010293
1.052346808
1.048759076
1.042790538
1.036974922
1.033139491
1.028261391
1.023240397
1.018965539
1.07306915
1.094872967
1.109360035
1.112765646
1.112401643
1.11287219
1.113780924
1.114081919
1.113844032
1.113600793
1.112927625
1.111420552
1.109054695
1.105859313
1.101795075
1.09744493
1.092220149
1.086320865
1.081572932
1.075631985
1.068662368
1.064563444
1.0593324
1.051606601
1.047621997
1.043536802
1.036439722
1.031863927
1.028194191
1.022510629
1.017866318
1.013999863
1.100161037
1.105934963
1.109974721
1.113412653
1.113896636
1.113727716
1.11399228
1.113936572
1.113798408
1.113118745
1.111673698
1.109376046
1.106247944
1.102312897
1.097671756
1.092732177
1.08686999
1.081191336
1.076138667
1.069256785
1.063354747
1.059404713
1.052751941
1.046030796
1.042868702
1.037544573
1.030399095
1.027032136
1.02284997
1.016532171
1.012701288
1.008963699
1.109972218
1.112726368
1.11244197
1.113089628
1.113826417
1.114138691
1.114088223
1.113908207
1.113266507
1.111879788
1.109706155
1.106569897
1.102680319
1.098125267
1.092879036
1.087486445
1.081472585
1.075849105
1.070216872
1.063235164
1.058269625
1.053626884
1.046052293
1.041076578
1.037724006
1.030937903
1.025002325
1.022178467
1.017006024
1.010786701
1.00779784
1.003811678
1.110360945
1.11336586
1.113659109
1.113745693
1.114152992
1.114151478
1.114013138
1.113410222
1.112115305
1.109994435
1.106996904
1.102922275
1.098523432
1.093337799
1.087562623
1.082116414
1.07593453
1.070099851
1.064192429
1.057601561
1.052822296
1.047258175
1.039997016
1.036147686
1.031955337
1.024394141
1.02009944
1.017141807
1.010841903
1.00550053
1.002945879
0.9982440531
1.112581334
1.113088808
1.113754553
1.114178356
1.114186875
1.114036931
1.113506391
1.112334785
1.110238852
1.107355682
1.103393975
1.098645327
1.093950748
1.08793025
1.082093522
1.076678263
1.069964783
1.064142615
1.058273817
1.051844615
1.046925215
1.040801222
1.034474761
1.030885526
1.025697004
1.01855551
1.015303781
1.01171754
1.004602291
1.000424877
0.9978638316
0.9922436467
1.11368659
1.113630635
1.114005282
1.114194034
1.114048551
1.113561619
1.112489536
1.110533193
1.107604286
1.103958882
1.099001086
1.094076438
1.088838459
1.082086184
1.076716787
1.070815579
1.063566764
1.058293396
1.052269941
1.045740627
1.040855997
1.034624338
1.029072863
1.025312963
1.01933179
1.013191606
1.010243648
1.005759269
0.9985820294
0.9954159383
0.9925247783
0.986141969
1.113858081
1.113997456
1.114162209
1.114074363
1.113640791
1.112631768
1.110835936
1.107939745
1.104293697
1.099743453
1.094137293
1.089222827
1.082997859
1.076254333
1.071234055
1.064211891
1.057268852
1.052563334
1.045776079
1.039504192
1.034970963
1.028648871
1.02348749
1.01948177
1.013094506
1.007874157
1.004835852
0.9994483347
0.992983627
0.9903498907
0.986797159
0.9800373791
1.114106933
1.114206664
1.114080127
1.11365367
1.112706623
1.111010247
1.108339045
1.104578668
1.100290423
1.094749114
1.089091278
1.083804433
1.076557481
1.070606036
1.065241297
1.05709205
1.051396932
1.04658926
1.038873446
1.03360653
1.029172621
1.022429594
1.017684117
1.013535225
1.006956593
1.002380374
0.9991614893
0.9931142405
0.9876049549
0.9850836629
0.9807315375
0.9743690288
1.114280617
1.114168683
1.113758736
1.11282657
1.111151111
1.108612482
1.104974983
1.100578323
1.095509721
1.08930407
1.083834616
1.07756836
1.070090869
1.064935379
1.058390486
1.050160779
1.045793458
1.040070245
1.032095979
1.027977189
1.023046237
1.015980325
1.011878946
1.007509614
1.000757718
0.9967117932
0.9932915544
0.9868509016
0.9822782342
0.9797165291
0.9747218858
0.9691972147
1.114258181
1.113866032
1.112993576
1.111384815
1.108877064
1.105358451
1.100864497
1.095924374
1.089926414
1.083703647
1.078057047
1.070619627
1.063975665
1.058830089
1.050787424
1.04403961
1.040064497
1.032770953
1.025794503
1.022370862
1.016450606
1.009629462
1.006128154
1.001222724
0.994397865
0.9909671866
0.9873595975
0.9808589002
0.9770267423
0.9742578612
0.9687142527
0.9639603131
1.113997039
1.113221942
1.111696222
1.109233302
1.105791524
1.101250386
1.096196864
1.090537633
1.083853429
1.07797238
1.071504259
1.063543746
1.058048556
1.052016814
1.043260428
1.038352668
1.033741298
1.025245159
1.020059872
1.016504772
1.009298089
1.003451392
1.000348359
0.9946853397
0.9882834434
0.9854159473
0.981432027
0.9749476746
0.9716317618
0.968562187
0.9626880977
0.958763828
1.11341064
1.112014914
1.10961338
1.106255142
1.101783471
1.096423494
1.090979694
1.084381252
1.077626
1.071834876
1.064225424
1.056886945
1.051880266
1.044391888
1.036448907
1.032606773
1.026689815
1.018180998
1.014381301
1.010084796
1.002013861
0.9975877099
0.9945420392
0.9880343091
0.9824382967
0.979829207
0.9751597167
0.9689414395
0.966187117
0.9628688609
0.9570283415
0.9536199239
1.112321004
1.110047536
1.106677441
1.102440079
1.096891551
1.091122578
1.085130546
1.077672957
1.071351584
1.065112621
1.056667841
1.050498219
1.045171305
1.036541867
1.030332663
1.0264428
1.018927938
1.011680967
1.008513196
1.003126269
0.9952139751
0.9919621118
0.9885353607
0.9812065985
0.9766938485
0.9742011155
0.9688394789
0.9632552354
0.9607581125
0.9570171212
0.9513811276
0.9485570727
1.110460242
1.107126439
1.102898262
1.097696909
1.091254567
1.085399887
1.078546809
1.070744921
1.064885645
1.057739244
1.049269662
1.044073149
1.037903541
1.029063176
1.024269769
1.01969092
1.011148178
1.005619422
1.002398138
0.9957345541
0.9888342829
0.9862327088
0.9821050837
0.9745877499
0.9711454428
0.9684634676
0.9623528292
0.9576485861
0.9553375662
0.9511098539
0.9457755109
0.9431848577
1.107688517
1.103259475
1.098322505
1.091982641
1.085176953
1.079199933
1.071259443
1.063805986
1.058111387
1.049897007
1.042181812
1.03740804
1.030158088
1.022058397
1.01798634
1.012430955
1.003828515
0.9996057589
0.9959152894
0.9882190015
0.9828562167
0.9804973529
0.975453983
0.9683196643
0.9655737401
0.9624136823
0.9558784856
0.9521422632
0.9498736087
0.9451891723
0.9404182751
0.938178564
1.103843629
1.098580331
1.092872015
1.085421586
1.078844344
1.072332503
1.063503343
1.056943541
1.050915482
1.041751545
1.035270338
1.030496126
1.022297449
1.015360638
1.011406082
1.004733852
0.9968757914
0.9934399143
0.9891082381
0.9811525743
0.9770876198
0.9744789875
0.9683112307
0.9621886267
0.9599634993
0.956206164
0.9496613563
0.9466585163
0.9442025391
0.9391422247
0.934843705
0.9327043235
1.093225481
1.0864217
1.07842955
1.072261712
1.064660693
1.05570111
1.050052754
1.043114538
1.033672032
1.028512829
1.02326028
1.014312021
1.008646795
1.004584388
0.9970051378
0.9903648357
0.9872194468
0.9820301097
0.9743336041
0.9712122264
0.9681918872
0.9612561526
0.9564146582
0.9542399081
0.9497108595
0.9438238761
0.9414980394
0.938867577
0.9333889368
0.9294460566
0.9272484582
1.087080159
1.079027581
1.07144801
1.06516943
1.056150188
1.048258347
1.043013262
1.034604828
1.02598076
1.021773191
1.015487786
1.006404696
1.002023468
0.9975909748
0.9892355145
0.9838568866
0.9807359654
0.974643381
0.9678734024
0.9653227132
0.961717283
0.9544138559
0.9507162645
0.9483483347
0.9430863247
0.9379617617
0.9357651179
0.932606402
0.9268441067
0.9236640041
0.921808944
1.079971925
1.071213292
1.064468122
1.057232975
1.047480985
1.041252919
1.035377333
1.025469735
1.018949838
1.014966695
1.007080688
0.9989708288
0.9954930544
0.9901490183
0.9813593882
0.9774688496
0.9743063437
0.967378071
0.9616207235
0.959165767
0.9546912259
0.9478039576
0.9451189987
0.9425167891
0.9367361786
0.9325632278
0.9305323817
0.926868126
0.9210646014
0.9180709064
0.9160183684
1.071858185
1.063587148
1.057161576
1.048317281
1.039387606
1.034214043
1.026765389
1.016890949
1.012428102
1.007542526
0.997998207
0.9920998719
0.9888833273
0.982078066
0.9740823101
0.9713186962
0.9676062183
0.9596588601
0.9553263484
0.9530508269
0.9477492153
0.9415660312
0.9391626721
0.9359884632
0.9300600845
0.92667013
0.9246069053
0.9203511865
0.9148463532
0.9126654776
0.9108147268
1.063328372
1.056218266
1.049005773
1.038913974
1.032109808
1.026739126
1.017292371
1.009426199
1.005750731
0.9990226834
0.9895057782
0.9858741792
0.9820629027
0.9734873254
0.9673699258
0.9650827196
0.9601418177
0.9520758945
0.9493468884
0.9469365072
0.9406924543
0.9357037209
0.9336853367
0.929989413
0.9239934324
0.9210064843
0.9187182689
0.9139113999
0.9090768451
0.9070998167
0.9051230268
1.054985171
1.048609211
1.039888541
1.030251703
1.024995256
1.018169817
1.007837297
1.002694046
0.9985230379
0.9897508197
0.9824220923
0.9794839326
0.9740382981
0.9647247401
0.9613696088
0.9589924364
0.9523606852
0.9454175321
0.9434417791
0.9401393511
0.9330306481
0.9294328676
0.9274291168
0.9229767602
0.917404644
0.915260975
0.9130828575
0.9080646525
0.9037692377
0.9017319158
0.8994212357
1.047047955
1.040461013
1.030180503
1.022274163
1.01737869
1.008744926
0.9997727877
0.9960266065
0.9903721522
0.9806119663
0.9758296585
0.9725640614
0.9651688591
0.9576302799
0.955495941
0.9519882532
0.943769945
0.9394467541
0.937875234
0.9333905331
0.9264260748
0.923926052
0.921657794
0.9164453473
0.9115778224
0.909424708
0.9066252498
0.9009264522
0.8974997496
0.8962249641
0.8942036677
1.039072539
1.031389564
1.020592161
1.014639433
1.009211359
0.9992539199
0.9924337811
0.988640427
0.9810953026
0.9724168393
0.969320268
0.9652362332
0.9565295661
0.9514760881
0.9492708454
0.943931943
0.9359654992
0.9335761433
0.9313055609
0.9253097691
0.9197076776
0.9180505595
0.9154861467
0.9095530291
0.9056063374
0.9036899849
0.9006636309
0.8953491369
0.8928132066
0.8913691172
0.8888448021
1.030704683
1.021784713
1.011846007
1.006880051
1.000262432
0.9901037927
0.9850362634
0.9807432199
0.9720817023
0.9654307731
0.9623877864
0.9566224304
0.9479946943
0.9451507927
0.9426492102
0.9359416253
0.930098916
0.9283120323
0.9248679473
0.9180241987
0.9140800674
0.9122824495
0.9083584173
0.9020681857
0.8997096295
0.8982291714
0.8948394022
0.889510384
0.8871296768
0.8854452348
0.8825869122
1.022007839
1.011839323
1.003238334
0.9985802601
0.99082634
0.9816852424
0.9775189105
0.9724467423
0.9633480509
0.9582414317
0.9549380718
0.9479667312
0.9410725741
0.9387269611
0.9350251932
0.9274619692
0.9236607307
0.9216807136
0.9172137125
0.9105605485
0.9082645914
0.9061660883
0.901675669
0.896743894
0.8947401306
0.8927116231
0.888099364
0.8830445131
0.8817200525
0.8805213362
0.8777266894
1.012645101
1.001816552
0.994772861
0.990129482
0.9816142937
0.9737063887
0.9696026763
0.9633756826
0.9545808894
0.9506646118
0.9471417957
0.9397845596
0.9347264714
0.9324198824
0.927617991
0.9206812627
0.9177418598
0.9150687539
0.909217453
0.9042483343
0.9026447779
0.8999247946
0.8944802236
0.8902174291
0.8884481867
0.8858615543
0.881817326
0.8785162979
0.8773198172
0.8753757183
0.8714954751
1.002915997
0.9922558712
0.9862860681
0.9812437775
0.97207923
0.9652741822
0.9613401983
0.9546442988
0.9470100416
0.9434184741
0.9390674043
0.9314828074
0.9273418465
0.924676217
0.9191193441
0.9133373704
0.9109801875
0.9079816802
0.9021116403
0.898842207
0.8968157312
0.8931160309
0.8870117554
0.8849008543
0.883775264
)
;

boundaryField
{
    inlet
    {
        type            fixedValue;
        value           nonuniform 0();
    }
    outlet
    {
        type            inletOutlet;
        inletValue      nonuniform 0();
        value           nonuniform 0();
    }
    bottom
    {
        type            slip;
    }
    top
    {
        type            slip;
    }
    obstacle
    {
        type            zeroGradient;
    }
    defaultFaces
    {
        type            empty;
    }
    procBoundary4to3
    {
        type            processor;
        value           nonuniform List<scalar> 
62
(
1
1
1
1
1
1
1
1
1
1
1
1
1
1
1
1
1
1
1
1
1
1
1
1
1
1
1
1
1
1
1
1
1
1
1
1.000000008
1.000000218
1.000004494
1.000064629
1.000606506
1.003866932
1.015679344
1.042900512
1.075490181
1.095575409
1.10624807
1.112874275
1.113750184
1.113522701
1.113986059
1.114285134
1.114357833
1.114296543
1.114090545
1.113601011
1.112540777
1.110803446
1.108193899
1.098983398
1.098983398
1.093356474
1.087193955
)
;
    }
    procBoundary4to5
    {
        type            processor;
        value           nonuniform List<scalar> 
69
(
1
1
1.000000004
1.000000141
1.000002955
1.000042613
1.000403041
1.002614153
1.011562145
1.033762633
1.067705587
1.096894871
1.10526781
1.10801303
1.111252769
1.112351627
1.112357928
1.112165568
1.111467044
1.110043464
1.107957528
1.105233845
1.102178601
1.098851421
1.095161859
1.091106604
1.087039387
1.083002593
1.078706977
1.073994547
1.069176363
1.064606657
1.060057503
1.055249561
1.050163921
1.044861897
1.039538778
1.034255108
1.029059505
1.02407864
1.019120057
1.014080112
1.008810999
1.00339081
0.9979667447
0.992386924
0.9869729108
0.981782338
0.9766887526
0.9717245325
0.9668168023
0.96160866
0.9564810012
0.9512073112
0.9460519654
0.9405026592
0.9352902596
0.9295241754
0.9236637613
0.9181628224
0.9120016497
0.9067453311
0.90063066
0.8948053867
0.8899309044
0.8839149336
0.8783642697
0.8736721379
0.8670740328
)
;
    }
    procBoundary4to9
    {
        type            processor;
        value           nonuniform List<scalar> 9(1.08037276 1.072651934 1.063968255 1.054706833 1.045617865 1.036672946 1.027995463 1.019192598 1.010017109);
    }
    procBoundary4to10
    {
        type            processor;
        value           nonuniform List<scalar> 
32
(
0.8811242229
0.8765174893
0.873409925
0.8713522575
0.8685739536
0.8642462464
0.9929662027
0.9828382248
0.9775024124
0.9719502405
0.962678829
0.9568344917
0.9528402864
0.9456159138
0.9390013881
0.9358609821
0.9312004907
0.9242568929
0.9207536068
0.9176262189
0.9116961122
0.9069905694
0.9046367173
0.9006276777
0.8948486719
0.891989822
0.8899154466
0.8857006565
0.8814230728
0.880001197
0.8811242229
0.8779872304
)
;
    }
}


// ************************************************************************* //
