/*--------------------------------*- C++ -*----------------------------------*\
  =========                 |
  \\      /  F ield         | OpenFOAM: The Open Source CFD Toolbox
   \\    /   O peration     | Website:  https://openfoam.org
    \\  /    A nd           | Version:  7
     \\/     M anipulation  |
\*---------------------------------------------------------------------------*/
FoamFile
{
    version     2.0;
    format      ascii;
    class       volVectorField;
    location    "1.4";
    object      U;
}
// * * * * * * * * * * * * * * * * * * * * * * * * * * * * * * * * * * * * * //

dimensions      [0 1 -1 0 0 0 0];

internalField   nonuniform List<vector> 
2222
(
(3 3.902895766e-15 0)
(3 3.472546203e-15 0)
(3 2.724506113e-15 0)
(3 2.009643619e-15 0)
(3 2.447138655e-15 0)
(3 2.350911277e-15 0)
(3 1.867568442e-15 0)
(3 1.612562731e-15 0)
(3 1.421853437e-15 0)
(3 7.582772376e-16 0)
(3 3.797877235e-16 0)
(3 3.156691649e-16 0)
(3 7.803534531e-16 0)
(3 2.173052983e-15 0)
(3 2.734540085e-15 0)
(3 2.198465117e-15 0)
(3 2.389714493e-16 0)
(3 -6.194041019e-16 0)
(3 -1.356937336e-15 0)
(3 -1.281126698e-15 0)
(3 -1.604192366e-15 0)
(3 -3.659293795e-15 0)
(3 -5.180654285e-15 0)
(3 -6.399177211e-15 0)
(3 -6.580259154e-15 0)
(3 -6.827504899e-15 0)
(3 -4.768252134e-15 0)
(3 -4.375383048e-15 0)
(3 -4.584049259e-15 0)
(3 -5.217232067e-15 0)
(3 -5.585945822e-15 0)
(3 -6.684214953e-15 0)
(3 -7.625868617e-15 0)
(3 -8.773986711e-15 0)
(3 -1.041183463e-14 0)
(3 -1.176065108e-14 0)
(3 -1.037701954e-14 0)
(3 -8.198832384e-15 0)
(3 -6.136801269e-15 0)
(3 -3.723092061e-15 0)
(3 -1.115802808e-15 0)
(3 1.556040782e-15 0)
(3 4.142546464e-15 0)
(3 8.198168277e-15 0)
(3 9.21083105e-15 0)
(3 3.700111886e-15 0)
(3 2.79218504e-15 0)
(3 1.46526967e-15 0)
(3 -2.463557398e-16 0)
(3 -2.157102682e-15 0)
(3 -3.979159479e-15 0)
(3 -3.883929969e-15 0)
(3 -3.7620417e-15 0)
(3 -3.040574866e-15 0)
(3 -3.470056999e-15 0)
(3 -4.20206478e-15 0)
(3 -5.185915274e-15 0)
(3 -4.365617531e-15 0)
(3 -3.260168232e-15 0)
(3 -3.165934641e-15 0)
(3 -3.437985307e-15 0)
(3 -3.77238216e-15 0)
(3 -3.724098285e-15 0)
(3 -3.413763765e-15 0)
(3 -3.407163116e-15 0)
(3 -2.359265711e-15 0)
(3 4.312548993e-15 0)
(3 2.640180017e-15 0)
(3 3.576873147e-15 0)
(3 4.160703645e-15 0)
(3 4.397010364e-15 0)
(3 4.522842061e-15 0)
(3 4.406934988e-15 0)
(3 3.88197755e-15 0)
(3 3.775138729e-15 0)
(3 3.537646129e-15 0)
(3 1.984889038e-15 0)
(3 2.279402128e-15 0)
(3 3.227051589e-15 0)
(3 5.165218456e-15 0)
(3 6.860762391e-15 0)
(3 6.149269679e-15 0)
(3 3.556521275e-15 0)
(3 2.197188788e-15 0)
(3 -5.73021391e-16 0)
(3 -1.95251215e-15 0)
(3 -3.066179027e-15 0)
(3 -6.561146318e-15 0)
(3 -8.737823253e-15 0)
(3 -1.026372544e-14 0)
(3 -1.263673215e-14 0)
(3 -1.362913868e-14 0)
(3 -1.282486304e-14 0)
(3 -1.277246959e-14 0)
(3 -1.355106022e-14 0)
(3 -1.378939924e-14 0)
(3 -1.25798493e-14 0)
(3 -1.257813382e-14 0)
(3 -1.434072502e-14 0)
(3 -1.57354517e-14 0)
(3 -1.663681711e-14 0)
(3 -1.794491612e-14 0)
(3 -1.781816592e-14 0)
(3 -1.533465581e-14 0)
(3 -1.168520846e-14 0)
(3 -7.725842574e-15 0)
(3 -2.194876204e-15 0)
(3 2.770335168e-15 0)
(3 6.663895483e-15 0)
(3 7.77441908e-15 0)
(3 7.790716609e-15 0)
(3 5.521511255e-15 0)
(3 2.420657301e-15 0)
(3 -6.930024942e-16 0)
(3 -3.880593176e-15 0)
(3 -6.256933879e-15 0)
(3 -7.168602724e-15 0)
(3 -6.096870725e-15 0)
(3 -5.470822202e-15 0)
(3 -5.395220697e-15 0)
(3 -5.02223871e-15 0)
(3 -7.695960241e-15 0)
(3 -1.110790595e-14 0)
(3 -1.086883692e-14 0)
(3 -1.006779952e-14 0)
(3 -9.135850474e-15 0)
(3 -9.620514547e-15 0)
(3 -7.740004736e-15 0)
(3 -6.886696793e-15 0)
(3 -7.768317861e-15 0)
(3 -6.996123355e-15 0)
(3 -5.879545661e-15 0)
(3 -4.317840246e-15 0)
(3 1.087776045e-14 0)
(3 8.724770438e-15 0)
(3 5.429039882e-15 0)
(3 5.533809333e-15 0)
(3 5.16689247e-15 0)
(3 6.062794042e-15 0)
(3 6.902626236e-15 0)
(3 8.08113697e-15 0)
(3 8.740476382e-15 0)
(3 8.388865839e-15 0)
(3 7.311983613e-15 0)
(3 7.65432369e-15 0)
(3 7.847262165e-15 0)
(3 7.388359618e-15 0)
(3 6.483973369e-15 0)
(3 5.718919145e-15 0)
(3 3.590936491e-15 0)
(3 6.002771332e-16 0)
(3 -2.548135889e-15 0)
(3 -6.534560479e-15 0)
(3 -1.090932834e-14 0)
(3 -1.235461649e-14 0)
(3 -1.328865195e-14 0)
(3 -1.504386374e-14 0)
(3 -1.760117905e-14 0)
(3 -1.960060387e-14 0)
(3 -2.112136514e-14 0)
(3 -2.116115011e-14 0)
(3 -2.124075485e-14 0)
(3 -2.177205276e-14 0)
(3 -2.207379666e-14 0)
(3 -2.155408433e-14 0)
(3 -2.118664516e-14 0)
(3 -2.079530005e-14 0)
(3 -2.099004022e-14 0)
(3 -2.001876416e-14 0)
(3 -1.80884549e-14 0)
(3 -1.583610479e-14 0)
(3 -1.210055908e-14 0)
(3 -9.142066857e-15 0)
(3 -5.232598449e-15 0)
(3 -2.07625521e-15 0)
(3 1.9112787e-15 0)
(3 2.403811234e-15 0)
(3 3.192942668e-15 0)
(3 2.65720052e-15 0)
(3 -3.896319598e-16 0)
(3 -1.679869349e-15 0)
(3 -3.212038693e-15 0)
(3 -4.939843308e-15 0)
(3 -4.881933049e-15 0)
(3 -5.616637864e-15 0)
(3 -6.362319026e-15 0)
(3 -8.611420723e-15 0)
(3 -9.697387679e-15 0)
(3 -1.17707023e-14 0)
(3 -1.303541679e-14 0)
(3 -1.487684788e-14 0)
(3 -1.581243892e-14 0)
(3 -1.587384485e-14 0)
(3 -1.516200437e-14 0)
(3 -1.502182098e-14 0)
(3 -1.200358574e-14 0)
(3 -9.724385035e-15 0)
(3 -9.898551099e-15 0)
(3 -8.730143541e-15 0)
(3 -7.247707143e-15 0)
(3 1.536665552e-14 0)
(3 1.587155383e-14 0)
(3 1.365754361e-14 0)
(3 1.158869042e-14 0)
(3 1.050070021e-14 0)
(3 1.043986814e-14 0)
(3 1.039595363e-14 0)
(3 1.117811786e-14 0)
(3 1.325570327e-14 0)
(3 1.434104153e-14 0)
(3 1.428061536e-14 0)
(3 1.216397307e-14 0)
(3 1.046283831e-14 0)
(3 7.083924552e-15 0)
(3 2.537308914e-15 0)
(3 9.048013557e-16 0)
(3 -7.050607358e-16 0)
(3 -2.981620483e-15 0)
(3 -6.678819946e-15 0)
(3 -1.001040954e-14 0)
(3 -1.255222864e-14 0)
(3 -1.334517506e-14 0)
(3 -1.390300642e-14 0)
(3 -1.560307085e-14 0)
(3 -1.759988002e-14 0)
(3 -2.016827574e-14 0)
(3 -2.042747402e-14 0)
(3 -2.334660895e-14 0)
(3 -2.444479362e-14 0)
(3 -2.344753188e-14 0)
(3 -2.391531222e-14 0)
(3 -2.380596598e-14 0)
(3 -2.356503153e-14 0)
(3 -2.253984251e-14 0)
(3 -1.930913792e-14 0)
(3 -1.663147055e-14 0)
(3 -1.633036639e-14 0)
(3 -1.277643246e-14 0)
(3 -1.209810203e-14 0)
(3 -1.0956123e-14 0)
(3 -1.028601802e-14 0)
(3 -7.65842312e-15 0)
(3 -5.911680904e-15 0)
(3 -3.872502083e-15 0)
(3 -2.721662512e-15 0)
(3 -3.216411655e-15 0)
(3 -2.989923388e-15 0)
(3 -3.146634451e-15 0)
(3 -2.534734882e-15 0)
(3 -2.403195369e-15 0)
(3 -2.49024273e-15 0)
(3 -2.671380364e-15 0)
(3 -2.787154136e-15 0)
(3 -3.681412375e-15 0)
(3 -5.520498157e-15 0)
(3 -8.007276051e-15 0)
(3 -8.399357392e-15 0)
(3 -8.565273715e-15 0)
(3 -9.104465753e-15 0)
(3 -1.00069642e-14 0)
(3 -1.027656215e-14 0)
(3 -1.026619944e-14 0)
(3 -8.113685835e-15 0)
(3 -4.30896886e-15 0)
(3 -3.910243987e-15 0)
(3 -3.103379159e-15 0)
(3 -3.53213539e-15 0)
(3 1.143342319e-14 0)
(3 1.237883859e-14 0)
(3 1.367115972e-14 0)
(3 1.435702637e-14 0)
(3 1.448554742e-14 0)
(3 1.292955131e-14 0)
(3 1.092592158e-14 0)
(3 1.01374923e-14 0)
(3 1.044002962e-14 0)
(3 1.044745797e-14 0)
(3 1.019068996e-14 0)
(3 8.963468642e-15 0)
(3 7.371732975e-15 0)
(3 4.625244776e-15 0)
(3 2.384151316e-15 0)
(3 -1.240771027e-15 0)
(3 -6.352226548e-15 0)
(3 -8.483642887e-15 0)
(3 -8.242995814e-15 0)
(3 -8.305127761e-15 0)
(3 -9.44287903e-15 0)
(3 -9.924440849e-15 0)
(3 -1.021740056e-14 0)
(3 -1.108798895e-14 0)
(3 -1.349357536e-14 0)
(3 -1.605305354e-14 0)
(3 -1.916065327e-14 0)
(3 -1.924075668e-14 0)
(3 -1.742020211e-14 0)
(3 -1.50401325e-14 0)
(3 -1.444364921e-14 0)
(3 -1.420253412e-14 0)
(3 -1.370300268e-14 0)
(3 -1.36491347e-14 0)
(3 -1.353226101e-14 0)
(3 -1.402217527e-14 0)
(3 -1.492688904e-14 0)
(3 -1.530467045e-14 0)
(3 -1.66521697e-14 0)
(3 -1.670226118e-14 0)
(3 -1.491358232e-14 0)
(3 -1.455625431e-14 0)
(3 -1.460154884e-14 0)
(3 -1.274767589e-14 0)
(3 -1.021455822e-14 0)
(3 -9.613946607e-15 0)
(3 -8.23671012e-15 0)
(3 -5.44826651e-15 0)
(3 -3.190866006e-15 0)
(3 5.510435204e-17 0)
(3 1.041756739e-15 0)
(3 1.348830162e-15 0)
(3 2.105241359e-15 0)
(3 2.307087439e-15 0)
(3 1.182956609e-15 0)
(3 5.062371176e-18 0)
(3 -1.103141099e-15 0)
(3 -1.393835746e-15 0)
(3 -1.472802495e-15 0)
(3 -2.133589303e-15 0)
(3 -3.100198996e-15 0)
(3 -3.683153009e-15 0)
(3 -4.202816787e-15 0)
(3 -4.179597517e-15 0)
(3 -3.336523735e-15 0)
(3 -2.971182497e-15 0)
(3 -2.930110811e-15 0)
(3 5.2605227e-15 0)
(3 7.382558326e-15 0)
(3 8.901949891e-15 0)
(3 1.204598963e-14 0)
(3 1.394545279e-14 0)
(3 1.581434385e-14 0)
(3 1.504447875e-14 0)
(3 1.431954565e-14 0)
(3 1.156181531e-14 0)
(3 8.959350596e-15 0)
(3 7.95007771e-15 0)
(3 6.315271063e-15 0)
(3 4.351521213e-15 0)
(3 2.996088426e-15 0)
(3 2.162946865e-15 0)
(3 3.936490414e-16 0)
(3 -2.663227919e-15 0)
(3 -4.464806007e-15 0)
(3 -5.361759757e-15 0)
(3 -5.749049687e-15 0)
(3 -7.144222543e-15 0)
(3 -1.012142296e-14 0)
(3 -1.15846647e-14 0)
(3 -1.305617263e-14 0)
(3 -1.441124817e-14 0)
(3 -1.567915706e-14 0)
(3 -1.660589895e-14 0)
(3 -1.468403285e-14 0)
(3 -1.010821436e-14 0)
(3 -8.377988071e-15 0)
(3 -7.924990701e-15 0)
(3 -8.557050297e-15 0)
(3 -8.779403485e-15 0)
(3 -1.077808367e-14 0)
(3 -1.401950167e-14 0)
(3 -1.606840491e-14 0)
(3 -1.725302782e-14 0)
(3 -1.902083965e-14 0)
(3 -2.176186537e-14 0)
(3 -2.130098241e-14 0)
(3 -2.02104736e-14 0)
(3 -2.112971445e-14 0)
(3 -2.112111085e-14 0)
(3 -2.074138919e-14 0)
(3 -1.589865749e-14 0)
(3 -1.358562928e-14 0)
(3 -1.136049005e-14 0)
(3 -8.857391822e-15 0)
(3 -3.438363025e-16 0)
(3 1.408440963e-15 0)
(3 2.896550498e-15 0)
(3 2.71948701e-15 0)
(3 1.745203186e-15 0)
(3 4.748002136e-16 0)
(3 8.218130947e-16 0)
(3 1.642803711e-15 0)
(3 3.970796247e-15 0)
(3 4.607978416e-15 0)
(3 5.5150416e-15 0)
(3 5.483103828e-15 0)
(3 4.26595454e-15 0)
(3 2.120960685e-15 0)
(3 8.464070663e-16 0)
(3 -3.961593385e-16 0)
(3 -4.381149127e-16 0)
(3 -4.364011315e-16 0)
(3 -1.154687397e-15 0)
(3 1.192091441e-15 0)
(3 3.93626657e-15 0)
(3 6.992047695e-15 0)
(3 7.748364715e-15 0)
(3 6.35507452e-15 0)
(3 8.980718879e-15 0)
(3 1.219920852e-14 0)
(3 1.306381412e-14 0)
(3 1.191941399e-14 0)
(3 8.858144207e-15 0)
(3 5.265246526e-15 0)
(3 3.17949019e-15 0)
(3 1.88324153e-15 0)
(3 2.25568282e-15 0)
(3 1.107827448e-15 0)
(3 7.910967674e-16 0)
(3 -4.499218745e-16 0)
(3 -9.350025459e-16 0)
(3 8.683902213e-16 0)
(3 1.342393582e-15 0)
(3 1.016428834e-15 0)
(3 -4.989237748e-16 0)
(3 -2.465671006e-15 0)
(3 -7.193093446e-15 0)
(3 -9.118297026e-15 0)
(3 -7.720577636e-15 0)
(3 -5.310656416e-15 0)
(3 -8.433312834e-15 0)
(3 -1.078362342e-14 0)
(3 -1.141661069e-14 0)
(3 -1.121152053e-14 0)
(3 -1.093372077e-14 0)
(3 -1.063574942e-14 0)
(3 -1.2144913e-14 0)
(3 -1.42758892e-14 0)
(3 -1.726535962e-14 0)
(3 -2.048859198e-14 0)
(3 -2.168307793e-14 0)
(3 -2.115188557e-14 0)
(3 -2.088947466e-14 0)
(3 -2.163189134e-14 0)
(3 -2.18713312e-14 0)
(3 -2.195949629e-14 0)
(3 -2.072470933e-14 0)
(3 -2.006480002e-14 0)
(3 -1.488348079e-14 0)
(3 -6.123085944e-15 0)
(3 -3.207262764e-15 0)
(3 -2.198847263e-15 0)
(3 -2.112557753e-15 0)
(3 -3.75094885e-15 0)
(3 -3.30063583e-15 0)
(3 -2.137590683e-15 0)
(3 -1.430327326e-15 0)
(3 2.873232614e-16 0)
(3 4.905774729e-16 0)
(3 1.066297408e-15 0)
(3 2.563762495e-15 0)
(3 3.282840372e-15 0)
(3 3.52050482e-15 0)
(3 2.172840696e-15 0)
(3 -9.78401847e-17 0)
(3 -8.963752141e-16 0)
(3 -1.108696626e-15 0)
(3 -1.116433586e-15 0)
(3 -8.166058711e-16 0)
(3 -7.838005271e-16 0)
(3 1.860168596e-15 0)
(3 2.074044048e-15 0)
(3 4.8697538e-15 0)
(3 5.232789805e-15 0)
(3 3.79814621e-15 0)
(3 3.041499926e-15 0)
(3 3.948576047e-15 0)
(3 4.042799672e-15 0)
(3 3.88291932e-15 0)
(3 3.061472219e-15 0)
(3 1.978843912e-15 0)
(3 9.659877673e-16 0)
(3 1.592816304e-16 0)
(3 -1.178186928e-15 0)
(3 -2.304305719e-15 0)
(3 -3.056687808e-15 0)
(3 -2.581742895e-15 0)
(3 -1.649172593e-15 0)
(3 2.301633938e-15 0)
(3 3.231959261e-15 0)
(3 3.220815276e-15 0)
(3 3.197211107e-15 0)
(3 2.88413954e-15 0)
(3 1.328923664e-15 0)
(3 5.308154756e-16 0)
(3 -2.377017271e-16 0)
(3 -2.080358585e-15 0)
(3 -6.078855079e-15 0)
(3 -1.126568794e-14 0)
(3 -1.388344877e-14 0)
(3 -1.352943888e-14 0)
(3 -1.214723519e-14 0)
(3 -1.122463679e-14 0)
(3 -1.200470207e-14 0)
(3 -1.418084165e-14 0)
(3 -1.740808805e-14 0)
(3 -2.254060951e-14 0)
(3 -2.602297346e-14 0)
(3 -2.760268631e-14 0)
(3 -2.906481734e-14 0)
(3 -2.952918617e-14 0)
(3 -2.874477354e-14 0)
(3 -2.675095055e-14 0)
(3 -2.322443202e-14 0)
(3 -2.214725127e-14 0)
(3 -1.997192947e-14 0)
(3 -1.492730078e-14 0)
(3 -8.342908535e-15 0)
(3 -6.686583822e-15 0)
(3 -6.931826053e-15 0)
(3 -7.3755354e-15 0)
(3 -6.404322538e-15 0)
(3 -4.554217493e-15 0)
(3 -3.601549835e-15 0)
(3 -1.139654567e-15 0)
(3 6.112538329e-17 0)
(3 -4.340711972e-16 0)
(3 -6.560357082e-17 0)
(3 3.538542744e-16 0)
(3 5.093947628e-16 0)
(3 1.638247924e-16 0)
(3 2.589124667e-16 0)
(3 9.116839277e-16 0)
(3 1.755482677e-15 0)
(3 2.88086721e-15 0)
(3 3.581504821e-15 0)
(3 4.472955346e-15 0)
(3 4.283398506e-15 0)
(3 1.933127449e-15 0)
(3 1.191955642e-15 0)
(3 1.533244082e-15 0)
(3 2.817637843e-16 0)
(3 -2.082021732e-15 0)
(3 -2.31114735e-15 0)
(3 -2.97829308e-15 0)
(3 -3.368524612e-15 0)
(3 -5.830753737e-15 0)
(3 -3.715178731e-15 0)
(3 -2.535182436e-15 0)
(3 -2.348640778e-15 0)
(3 -3.101594543e-15 0)
(3 -2.765326696e-15 0)
(3 -2.396321219e-15 0)
(3 -1.922296424e-15 0)
(3 -1.545411037e-15 0)
(3 -2.620935244e-15 0)
(3 -5.463277736e-17 0)
(3 3.097111332e-16 0)
(3 1.77646129e-15 0)
(3 3.498944915e-15 0)
(3 4.927780768e-15 0)
(3 4.53217639e-15 0)
(3 3.05237701e-15 0)
(3 -5.665626522e-16 0)
(3 -3.154608767e-15 0)
(3 -5.267330394e-15 0)
(3 -4.594890988e-15 0)
(3 -6.490855722e-15 0)
(3 -8.265382162e-15 0)
(3 -9.334994683e-15 0)
(3 -1.037054414e-14 0)
(3 -1.229319242e-14 0)
(3 -1.589704138e-14 0)
(3 -2.06739415e-14 0)
(3 -2.663479193e-14 0)
(3 -3.020870085e-14 0)
(3 -3.048410433e-14 0)
(3 -3.067692745e-14 0)
(3 -2.88849572e-14 0)
(3 -2.523067289e-14 0)
(3 -2.250876392e-14 0)
(3 -1.997283675e-14 0)
(3 -1.862236993e-14 0)
(3 -1.468900964e-14 0)
(3 -1.25486202e-14 0)
(3 -1.063442638e-14 0)
(3 -9.979807515e-15 0)
(3 -8.098939943e-15 0)
(3 -5.88073028e-15 0)
(3 -5.656214126e-15 0)
(3 -5.424102159e-15 0)
(3 -4.470621969e-15 0)
(3 -3.5445882e-15 0)
(3 -2.72033939e-15 0)
(3 -2.366290747e-15 0)
(3 -2.285562117e-15 0)
(3 -1.533234438e-15 0)
(3 2.392199729e-16 0)
(3 9.674201152e-16 0)
(3 2.377243688e-15 0)
(3 4.164243233e-15 0)
(3 7.390669328e-15 0)
(3 9.308398154e-15 0)
(3 9.386130801e-15 0)
(3 4.258595685e-15 0)
(3 3.091880143e-15 0)
(3 -6.327836447e-16 0)
(3 -8.697701448e-16 0)
(3 -6.112991168e-16 0)
(3 -3.84239167e-15 0)
(3 -6.994036927e-15 0)
(3 -8.374001905e-15 0)
(3 -1.120905406e-14 0)
(3 -1.136933587e-14 0)
(3 -9.368858904e-15 0)
(3 -5.821321933e-15 0)
(3 -3.618785707e-15 0)
(3 -1.478071854e-15 0)
(3 8.965802063e-16 0)
(3 2.570786709e-15 0)
(3 2.879765777e-15 0)
(3 1.822119493e-15 0)
(3 -1.038035405e-15 0)
(3 -1.728173032e-15 0)
(3 -3.957906402e-16 0)
(3 4.601911658e-16 0)
(3 1.373620406e-15 0)
(3 1.965954312e-15 0)
(3 2.729903477e-15 0)
(3 3.103057799e-15 0)
(3 1.940588696e-15 0)
(3 2.282123275e-16 0)
(3 -1.375552774e-16 0)
(3 6.754889948e-16 0)
(3 -5.07827379e-16 0)
(3 -2.067662709e-15 0)
(3 -4.074030035e-15 0)
(3 -7.226983796e-15 0)
(3 -8.177515952e-15 0)
(3 -1.038419e-14 0)
(3 -1.20884307e-14 0)
(3 -1.765489257e-14 0)
(3 -2.12536743e-14 0)
(3 -2.27584748e-14 0)
(3 -2.344958606e-14 0)
(3 -2.346480624e-14 0)
(3 -2.259892553e-14 0)
(3 -2.057103343e-14 0)
(3 -1.762897778e-14 0)
(3 -1.567296295e-14 0)
(3 -1.441410819e-14 0)
(3 -1.499500485e-14 0)
(3 -1.374476518e-14 0)
(3 -1.241987149e-14 0)
(3 -9.679973396e-15 0)
(3 -8.265293613e-15 0)
(3 -7.611221683e-15 0)
(3 -7.962296376e-15 0)
(3 -7.974513899e-15 0)
(3 -8.291280943e-15 0)
(3 -7.105857972e-15 0)
(3 -3.949458992e-15 0)
(3 -9.62180109e-16 0)
(3 -6.522385334e-16 0)
(3 1.092076867e-15 0)
(3 2.527359622e-15 0)
(3 4.185745493e-15 0)
(3 5.612066746e-15 0)
(3 8.219400327e-15 0)
(3 1.031776817e-14 0)
(3 1.262796248e-14 0)
(3 5.045245941e-16 0)
(3 -1.428063108e-16 0)
(3 -5.977234483e-16 0)
(3 -3.349508778e-15 0)
(3 -4.746801665e-15 0)
(3 -5.020497825e-15 0)
(3 -5.155976949e-15 0)
(3 -4.121035145e-15 0)
(3 -2.679145179e-15 0)
(3 1.452363814e-15 0)
(3 3.202774057e-15 0)
(3 2.555054296e-15 0)
(3 2.267857087e-15 0)
(3 4.266588823e-15 0)
(3 5.653113008e-15 0)
(3 6.095711684e-15 0)
(3 8.111505283e-15 0)
(3 7.543133288e-15 0)
(3 5.320678585e-15 0)
(3 1.829651246e-15 0)
(3 -3.922228022e-16 0)
(3 -5.397382767e-16 0)
(3 -4.175672622e-16 0)
(3 8.260031193e-16 0)
(3 2.980607508e-15 0)
(3 5.390116321e-15 0)
(3 5.431148279e-15 0)
(3 5.015115921e-15 0)
(3 4.348794431e-15 0)
(3 4.562826311e-15 0)
(3 4.697033564e-15 0)
(3 3.725980851e-15 0)
(3 1.056555349e-15 0)
(3 -1.381047115e-15 0)
(3 -2.980080825e-15 0)
(3 -5.300637426e-15 0)
(3 -5.876948286e-15 0)
(3 -8.017203073e-15 0)
(3 -1.013323066e-14 0)
(3 -1.258940405e-14 0)
(3 -1.435968391e-14 0)
(3 -1.750225669e-14 0)
(3 -1.823736577e-14 0)
(3 -1.759378971e-14 0)
(3 -1.726921632e-14 0)
(3 -1.593492064e-14 0)
(3 -1.55776618e-14 0)
(3 -1.528224872e-14 0)
(3 -1.465040577e-14 0)
(3 -1.345980856e-14 0)
(3 -1.042698285e-14 0)
(3 -9.527431449e-15 0)
(3 -9.080822805e-15 0)
(3 -9.427546169e-15 0)
(3 -1.020600302e-14 0)
(3 -1.044209069e-14 0)
(3 -6.218328419e-15 0)
(3 -3.793916997e-15 0)
(3 -1.386658456e-15 0)
(3 -8.138350689e-18 0)
(3 2.546349571e-15 0)
(3 4.017096575e-15 0)
(3 5.59561985e-15 0)
(3 6.71796422e-15 0)
(3 7.263273952e-15 0)
(3 8.978253583e-15 0)
(3 1.278908473e-14 0)
(3 -2.432293444e-15 0)
(3 -2.184066235e-15 0)
(3 -2.545214246e-15 0)
(3 -3.274028499e-15 0)
(3 -4.50779387e-15 0)
(3 -5.662651801e-15 0)
(3 -5.123874376e-15 0)
(3 -5.040212385e-15 0)
(3 -1.541432973e-15 0)
(3 2.018185197e-15 0)
(3 5.192390145e-15 0)
(3 6.070877265e-15 0)
(3 7.251126676e-15 0)
(3 7.180458177e-15 0)
(3 7.233633802e-15 0)
(3 8.909654226e-15 0)
(3 1.088800883e-14 0)
(3 1.011882317e-14 0)
(3 8.649453136e-15 0)
(3 6.684419118e-15 0)
(3 2.7167542e-15 0)
(3 8.108780679e-16 0)
(3 7.463904343e-16 0)
(3 1.103052721e-15 0)
(3 2.256059061e-15 0)
(3 2.944741788e-15 0)
(3 5.673147674e-15 0)
(3 8.693768472e-15 0)
(3 9.441485628e-15 0)
(3 8.770813403e-15 0)
(3 8.026696268e-15 0)
(3 3.137708746e-15 0)
(3 2.42432898e-15 0)
(3 1.968434083e-15 0)
(3 -5.465055083e-16 0)
(3 -1.173266752e-15 0)
(3 -2.835251086e-15 0)
(3 -4.61998083e-15 0)
(3 -5.696442897e-15 0)
(3 -5.230728375e-15 0)
(3 -7.838441522e-15 0)
(3 -1.014523242e-14 0)
(3 -1.240147539e-14 0)
(3 -1.423706982e-14 0)
(3 -1.482339708e-14 0)
(3 -1.36298469e-14 0)
(3 -1.261748948e-14 0)
(3 -1.217224561e-14 0)
(3 -1.170197364e-14 0)
(3 -1.09457023e-14 0)
(3 -1.033486266e-14 0)
(3 -1.039389669e-14 0)
(3 -1.120299478e-14 0)
(3 -1.106446004e-14 0)
(3 -1.082381628e-14 0)
(3 -8.96151056e-15 0)
(3 -7.251528233e-15 0)
(3 -5.558314535e-15 0)
(3 -4.294391825e-15 0)
(3 -3.75807875e-15 0)
(3 -1.619525979e-15 0)
(3 8.762400033e-16 0)
(3 3.924253702e-15 0)
(3 7.139045858e-15 0)
(3 8.103744487e-15 0)
(3 1.008836196e-14 0)
(3 1.300682247e-14 0)
(3 5.1918248e-16 0)
(3 2.312077511e-15 0)
(3 2.135661368e-15 0)
(3 5.155312428e-15 0)
(3 7.114695352e-15 0)
(3 8.855726631e-15 0)
(3 9.686418204e-15 0)
(3 8.431313035e-15 0)
(3 8.341304668e-15 0)
(3 8.193539247e-15 0)
(3 7.243668157e-15 0)
(3 7.071974978e-15 0)
(3 6.218407155e-15 0)
(3 4.397057358e-15 0)
(3 5.715549239e-15 0)
(3 6.462037213e-15 0)
(3 6.626646071e-15 0)
(3 6.310251469e-15 0)
(3 5.939225298e-15 0)
(3 4.143196107e-15 0)
(3 2.843131219e-15 0)
(3 2.29944426e-15 0)
(3 2.884870466e-15 0)
(3 3.504482301e-15 0)
(3 3.005153206e-15 0)
(3 2.262551033e-15 0)
(3 2.573276156e-15 0)
(3 4.06200241e-15 0)
(3 4.200807786e-15 0)
(3 3.173678867e-15 0)
(3 1.231710473e-15 0)
(3 -4.31898012e-16 0)
(3 -6.947446326e-16 0)
(3 -1.195998164e-15 0)
(3 -4.180794805e-16 0)
(3 -7.70207736e-16 0)
(3 -9.040305625e-16 0)
(3 -9.869668136e-16 0)
(3 -2.412960924e-16 0)
(3 -6.884735105e-17 0)
(3 1.358796585e-16 0)
(3 1.304487558e-16 0)
(3 -1.924360931e-15 0)
(3 -5.374902177e-15 0)
(3 -8.012665991e-15 0)
(3 -9.477520698e-15 0)
(3 -1.032660023e-14 0)
(3 -1.108823109e-14 0)
(3 -1.100151696e-14 0)
(3 -1.247232363e-14 0)
(3 -1.322379201e-14 0)
(3 -1.335887271e-14 0)
(3 -1.325105412e-14 0)
(3 -1.215211139e-14 0)
(3 -1.022700338e-14 0)
(3 -9.307113656e-15 0)
(3 -1.034055125e-14 0)
(3 -9.007369888e-15 0)
(3 -7.643989611e-15 0)
(3 -7.955233249e-15 0)
(3 -8.300707928e-15 0)
(3 -6.847979898e-15 0)
(3 -3.832681044e-15 0)
(3 9.680210835e-16 0)
(3 3.401066311e-15 0)
(3 6.95858337e-15 0)
(3 8.866351554e-15 0)
(3 8.436000536e-15 0)
(3 7.917488044e-15 0)
(3 9.484104541e-15 0)
(3 9.618310721e-15 0)
(3 9.109238955e-15 0)
(3 9.335904478e-15 0)
(3 9.978715067e-15 0)
(3 1.114482144e-14 0)
(3 1.176744182e-14 0)
(3 1.116401714e-14 0)
(3 1.03884449e-14 0)
(3 1.046489713e-14 0)
(3 9.964233645e-15 0)
(3 6.99732513e-15 0)
(3 2.38885441e-15 0)
(3 -1.75979822e-15 0)
(3 -3.250133782e-15 0)
(3 -4.137403561e-15 0)
(3 -3.804184622e-15 0)
(3 -2.530869561e-15 0)
(3 -6.802379854e-16 0)
(3 -8.616610857e-16 0)
(3 -7.965075567e-16 0)
(3 -4.130449506e-16 0)
(3 1.724289865e-16 0)
(3 -2.529939894e-16 0)
(3 -1.34192939e-15 0)
(3 -1.259710513e-15 0)
(3 -1.079110891e-15 0)
(3 -1.59712648e-15 0)
(3 -2.335852814e-15 0)
(3 -2.752354361e-15 0)
(3 -2.886153399e-15 0)
(3 -2.928365154e-15 0)
(3 -2.447759571e-15 0)
(3 -2.357711093e-15 0)
(3 -1.828095117e-15 0)
(3 -7.93993418e-16 0)
(3 1.66104883e-15 0)
(3 2.97230255e-15 0)
(3 3.698785735e-15 0)
(3 3.403754222e-15 0)
(3 2.120197503e-15 0)
(3 -2.150669732e-16 0)
(3 -3.33824369e-15 0)
(3 -6.22683152e-15 0)
(3 -7.893693788e-15 0)
(3 -1.211553897e-14 0)
(3 -1.546572974e-14 0)
(3 -1.645163568e-14 0)
(3 -1.600066446e-14 0)
(3 -1.428865072e-14 0)
(3 -1.203167174e-14 0)
(3 -1.026996604e-14 0)
(3 -1.04050707e-14 0)
(3 -1.086196369e-14 0)
(3 -1.000513622e-14 0)
(3 -7.990002493e-15 0)
(3 -7.428147333e-15 0)
(3 -7.771903045e-15 0)
(3 -9.317847212e-15 0)
(3 -9.853167712e-15 0)
(3 -9.349901042e-15 0)
(3 -7.331570001e-15 0)
(3 -5.597312509e-15 0)
(3 -3.107837113e-16 0)
(3 6.795125283e-16 0)
(3 9.385148233e-15 0)
(3 1.114106674e-14 0)
(3 1.171496831e-14 0)
(3 1.374364922e-14 0)
(3 1.57072364e-14 0)
(3 1.672047528e-14 0)
(3 1.730673655e-14 0)
(3 1.732076399e-14 0)
(3 1.607720805e-14 0)
(3 1.512053355e-14 0)
(3 1.235012783e-14 0)
(3 9.465140834e-15 0)
(3 8.32325474e-15 0)
(3 6.738884798e-15 0)
(3 1.430406004e-15 0)
(3 -1.837305319e-15 0)
(3 -4.057267643e-15 0)
(3 -7.718631588e-15 0)
(3 -9.163368511e-15 0)
(3 -8.758563689e-15 0)
(3 -8.718176855e-15 0)
(3 -7.873900936e-15 0)
(3 -8.09192094e-15 0)
(3 -8.002644857e-15 0)
(3 -7.896945574e-15 0)
(3 -6.13688049e-15 0)
(3 -7.425066799e-15 0)
(3 -8.529695816e-15 0)
(3 -7.959683392e-15 0)
(3 -7.851995412e-15 0)
(3 -6.816161012e-15 0)
(3 -6.678824339e-15 0)
(3 -6.403555589e-15 0)
(3 -6.00738505e-15 0)
(3 -5.711798023e-15 0)
(3 -4.41862071e-15 0)
(3 -1.930730447e-15 0)
(3 -1.815627156e-15 0)
(3 -5.674019459e-16 0)
(3 2.270703111e-15 0)
(3 3.102556529e-15 0)
(3 3.548457127e-15 0)
(3 1.665859192e-15 0)
(3 4.896665951e-16 0)
(3 -1.987584777e-15 0)
(3 -4.273330869e-15 0)
(3 -5.575572815e-15 0)
(3 -9.941433199e-15 0)
(3 -1.402079089e-14 0)
(3 -1.547644986e-14 0)
(3 -1.555390965e-14 0)
(3 -1.525317396e-14 0)
(3 -1.446660521e-14 0)
(3 -1.301640966e-14 0)
(3 -1.173436212e-14 0)
(3 -1.058657161e-14 0)
(3 -9.248649423e-15 0)
(3 -7.01260925e-15 0)
(3 -6.107395632e-15 0)
(3 -7.881723354e-15 0)
(3 -1.104790327e-14 0)
(3 -1.18406303e-14 0)
(3 -1.151115184e-14 0)
(3 -1.07046305e-14 0)
(3 -1.04158988e-14 0)
(3 -7.710857818e-15 0)
(3 -5.309167674e-15 0)
(3 1.254667441e-14 0)
(3 1.399915734e-14 0)
(3 1.490806032e-14 0)
(3 1.737458381e-14 0)
(3 2.122908422e-14 0)
(3 2.319350682e-14 0)
(3 2.546994133e-14 0)
(3 2.592396396e-14 0)
(3 2.42824957e-14 0)
(3 1.963398029e-14 0)
(3 1.448306401e-14 0)
(3 8.718420451e-15 0)
(3 4.068437144e-15 0)
(3 6.799223115e-16 0)
(3 7.801230215e-16 0)
(3 -1.156996032e-15 0)
(3 -2.759816203e-15 0)
(3 -2.927543468e-15 0)
(3 -5.461155557e-15 0)
(3 -8.374999117e-15 0)
(3 -9.014170991e-15 0)
(3 -9.485451864e-15 0)
(3 -8.941534759e-15 0)
(3 -9.882626921e-15 0)
(3 -1.155234658e-14 0)
(3 -1.162954848e-14 0)
(3 -1.175690475e-14 0)
(3 -1.368934017e-14 0)
(3 -1.349619013e-14 0)
(3 -1.218012239e-14 0)
(3 -1.245566922e-14 0)
(3 -1.173459912e-14 0)
(3 -1.16963996e-14 0)
(3 -1.159814429e-14 0)
(3 -1.135619177e-14 0)
(3 -1.033520513e-14 0)
(3 -8.802237789e-15 0)
(3 -8.359505392e-15 0)
(3 -8.294066387e-15 0)
(3 -7.59854918e-15 0)
(3 -7.16082845e-15 0)
(3 -6.529566167e-15 0)
(3 -6.068216153e-15 0)
(3 -6.075801731e-15 0)
(3 -5.706501053e-15 0)
(3 -5.497867493e-15 0)
(3 -5.719300424e-15 0)
(3 -7.360197823e-15 0)
(3 -9.423769519e-15 0)
(3 -1.018886597e-14 0)
(3 -1.085411712e-14 0)
(3 -1.192440824e-14 0)
(3 -1.289429314e-14 0)
(3 -1.150785594e-14 0)
(3 -1.000101832e-14 0)
(3 -8.235013411e-15 0)
(3 -7.809406307e-15 0)
(3 -8.575624546e-15 0)
(3 -1.024689468e-14 0)
(3 -1.498008371e-14 0)
(3 -1.638497848e-14 0)
(3 -1.630289289e-14 0)
(3 -1.470269763e-14 0)
(3 -1.508006802e-14 0)
(3 -1.462644673e-14 0)
(3 -1.428285516e-14 0)
(3 -1.039913764e-14 0)
(3 2.009408497e-14 0)
(3 2.008059936e-14 0)
(3 1.920977264e-14 0)
(3 1.822483339e-14 0)
(3 1.865572338e-14 0)
(3 1.954507474e-14 0)
(3 2.014522997e-14 0)
(3 1.913953075e-14 0)
(3 1.483364058e-14 0)
(3 1.119524266e-14 0)
(3 8.239550019e-15 0)
(3 7.060739756e-15 0)
(3 3.093505313e-15 0)
(3 9.456872085e-16 0)
(3 -4.612807102e-15 0)
(3 -6.703372273e-15 0)
(3 -7.683796226e-15 0)
(3 -8.40018227e-15 0)
(3 -1.065648362e-14 0)
(3 -1.211012062e-14 0)
(3 -1.280972965e-14 0)
(3 -1.29216907e-14 0)
(3 -1.292797214e-14 0)
(3 -1.310604444e-14 0)
(3 -1.489050511e-14 0)
(3 -1.803740063e-14 0)
(3 -1.83796943e-14 0)
(3 -1.745762965e-14 0)
(3 -1.608365583e-14 0)
(3 -1.519768967e-14 0)
(3 -1.464852883e-14 0)
(3 -1.446068747e-14 0)
(3 -1.519357982e-14 0)
(3 -1.634182388e-14 0)
(3 -1.815266038e-14 0)
(3 -1.867853961e-14 0)
(3 -1.720806119e-14 0)
(3 -1.598953811e-14 0)
(3 -1.56415762e-14 0)
(3 -1.644246255e-14 0)
(3 -1.734835773e-14 0)
(3 -1.673273584e-14 0)
(3 -1.461838346e-14 0)
(3 -1.184485904e-14 0)
(3 -9.18201739e-15 0)
(3 -6.548229169e-15 0)
(3 -6.013446293e-15 0)
(3 -5.803946606e-15 0)
(3 -6.28820765e-15 0)
(3 -6.953564871e-15 0)
(3 -8.388717514e-15 0)
(3 -8.734668448e-15 0)
(3 -9.319453209e-15 0)
(3 -8.896787467e-15 0)
(3 -8.300647559e-15 0)
(3 -8.287650864e-15 0)
(3 -9.320143034e-15 0)
(3 -1.120434489e-14 0)
(3 -1.294309511e-14 0)
(3 -1.357020615e-14 0)
(3 -1.304841233e-14 0)
(3 -1.236277508e-14 0)
(3 -1.219028059e-14 0)
(3 -1.229226452e-14 0)
(3 -1.231175673e-14 0)
(3 -1.34486858e-14 0)
(3 -1.151524563e-14 0)
(3 1.993137471e-14 0)
(3 2.115907798e-14 0)
(3 2.069339657e-14 0)
(3 1.894242167e-14 0)
(3 1.78714978e-14 0)
(3 1.719848694e-14 0)
(3 1.599210446e-14 0)
(3 1.49747896e-14 0)
(3 1.09967855e-14 0)
(3 8.72808685e-15 0)
(3 8.001173267e-15 0)
(3 5.88121382e-15 0)
(3 2.4374026e-15 0)
(3 6.930053295e-16 0)
(3 -3.134308382e-15 0)
(3 -6.044425411e-15 0)
(3 -1.15143027e-14 0)
(3 -1.56751598e-14 0)
(3 -1.771842035e-14 0)
(3 -1.772495373e-14 0)
(3 -1.847738072e-14 0)
(3 -1.78602429e-14 0)
(3 -1.895386655e-14 0)
(3 -1.972114928e-14 0)
(3 -2.130692992e-14 0)
(3 -2.194698218e-14 0)
(3 -2.209678812e-14 0)
(3 -2.147714214e-14 0)
(3 -2.078179595e-14 0)
(3 -2.100159234e-14 0)
(3 -1.997002865e-14 0)
(3 -1.763651492e-14 0)
(3 -1.678884414e-14 0)
(3 -1.676738387e-14 0)
(3 -1.952002322e-14 0)
(3 -2.078673466e-14 0)
(3 -2.135115992e-14 0)
(3 -1.991006669e-14 0)
(3 -1.808359093e-14 0)
(3 -1.732825698e-14 0)
(3 -1.71639211e-14 0)
(3 -1.477508795e-14 0)
(3 -1.098581724e-14 0)
(3 -8.529954404e-15 0)
(3 -7.925214703e-15 0)
(3 -7.9486711e-15 0)
(3 -7.624535361e-15 0)
(3 -7.408630624e-15 0)
(3 -7.530883005e-15 0)
(3 -6.992994299e-15 0)
(3 -6.682375466e-15 0)
(3 -6.391312955e-15 0)
(3 -4.90443457e-15 0)
(3 -4.713029279e-15 0)
(3 -6.211667282e-15 0)
(3 -7.244643984e-15 0)
(3 -8.735991002e-15 0)
(3 -8.988018857e-15 0)
(3 -9.132138322e-15 0)
(3 -6.446543744e-15 0)
(3 -6.422070273e-15 0)
(3 -5.540131591e-15 0)
(3 -5.383796008e-15 0)
(3 -5.459443509e-15 0)
(3 -5.810418127e-15 0)
(3 -5.246272194e-15 0)
(3 -7.082140166e-15 0)
(3 1.744986535e-14 0)
(3 1.695418041e-14 0)
(3 2.060684217e-14 0)
(3 2.207571586e-14 0)
(3 2.09741791e-14 0)
(3 1.909559872e-14 0)
(3 1.765115093e-14 0)
(3 1.436308856e-14 0)
(3 1.057473658e-14 0)
(3 6.274603209e-15 0)
(3 4.833890783e-15 0)
(3 1.562026153e-15 0)
(3 -1.521014489e-15 0)
(3 -1.445250754e-15 0)
(3 -2.676502542e-15 0)
(3 -4.398379759e-15 0)
(3 -7.262103146e-15 0)
(3 -9.804208085e-15 0)
(3 -1.399688121e-14 0)
(3 -1.723094465e-14 0)
(3 -1.765692409e-14 0)
(3 -1.811689651e-14 0)
(3 -2.174290916e-14 0)
(3 -2.458892937e-14 0)
(3 -2.474697897e-14 0)
(3 -2.322036374e-14 0)
(3 -2.268075806e-14 0)
(3 -2.28230231e-14 0)
(3 -2.426040006e-14 0)
(3 -2.497950914e-14 0)
(3 -2.527918962e-14 0)
(3 -2.47380494e-14 0)
(3 -2.301589389e-14 0)
(3 -1.984808167e-14 0)
(3 -1.843611506e-14 0)
(3 -1.580796267e-14 0)
(3 -1.455782582e-14 0)
(3 -1.425279601e-14 0)
(3 -1.359497982e-14 0)
(3 -1.114194062e-14 0)
(3 -9.872108198e-15 0)
(3 -7.171013668e-15 0)
(3 -4.183839745e-15 0)
(3 -1.695983304e-15 0)
(3 -1.72849396e-15 0)
(3 -2.20576089e-15 0)
(3 -2.830444793e-15 0)
(3 -1.564278178e-15 0)
(3 -6.864803582e-16 0)
(3 3.405239736e-16 0)
(3 1.998734464e-15 0)
(3 2.116653651e-15 0)
(3 2.053106638e-15 0)
(3 1.936162782e-15 0)
(3 1.454374995e-16 0)
(3 -1.377598488e-15 0)
(3 -2.012255591e-15 0)
(3 -2.03909165e-15 0)
(3 -2.066413687e-15 0)
(3 -1.513589973e-15 0)
(3 -8.844652587e-16 0)
(3 -8.009558391e-16 0)
(3 -8.22313836e-16 0)
(3 -1.021252789e-15 0)
(3 -2.255571971e-15 0)
(3 -2.036773286e-15 0)
(3 -5.683424412e-16 0)
(3 1.367993931e-14 0)
(3 1.347252723e-14 0)
(3 1.247794492e-14 0)
(3 1.247124692e-14 0)
(3 1.114683215e-14 0)
(3 9.836502572e-15 0)
(3 6.586214236e-15 0)
(3 4.831733937e-15 0)
(3 3.252199484e-15 0)
(3 1.672874845e-15 0)
(3 3.35693336e-16 0)
(3 -1.537786389e-15 0)
(3 -3.124046607e-15 0)
(3 -3.629624302e-15 0)
(3 -5.665188872e-15 0)
(3 -8.531654441e-15 0)
(3 -1.130107996e-14 0)
(3 -1.287877606e-14 0)
(3 -1.516683201e-14 0)
(3 -1.714898645e-14 0)
(3 -1.794384802e-14 0)
(3 -1.876631857e-14 0)
(3 -1.996811654e-14 0)
(3 -1.91562592e-14 0)
(3 -1.873792272e-14 0)
(3 -1.940106376e-14 0)
(3 -1.931016835e-14 0)
(3 -1.86633619e-14 0)