/*--------------------------------*- C++ -*----------------------------------*\
  =========                 |
  \\      /  F ield         | OpenFOAM: The Open Source CFD Toolbox
   \\    /   O peration     | Website:  https://openfoam.org
    \\  /    A nd           | Version:  7
     \\/     M anipulation  |
\*---------------------------------------------------------------------------*/
FoamFile
{
    version     2.0;
    format      ascii;
    class       volVectorField;
    location    "4.8";
    object      U;
}
// * * * * * * * * * * * * * * * * * * * * * * * * * * * * * * * * * * * * * //

dimensions      [0 1 -1 0 0 0 0];

internalField   nonuniform List<vector> 
2222
(
(3 -2.176593827e-15 0)
(3 -2.097984346e-15 0)
(3 -2.327099428e-15 0)
(3 -1.497474261e-15 0)
(3 7.756161333e-16 0)
(3 2.966210322e-15 0)
(3 6.672848009e-16 0)
(3 -2.057466475e-15 0)
(3 -1.623431422e-15 0)
(3 -5.917192799e-16 0)
(3 4.690127102e-16 0)
(3 -6.645561366e-17 0)
(3 -1.618625457e-15 0)
(3 -1.557028606e-15 0)
(3 -1.870572913e-16 0)
(3 7.569789231e-16 0)
(3 1.246324083e-15 0)
(3 6.334703434e-16 0)
(3 4.854027988e-16 0)
(3 -1.573848118e-17 0)
(3 -4.399901381e-16 0)
(3 -1.725564303e-15 0)
(3 -3.041827573e-15 0)
(3 -3.476499259e-15 0)
(3 -2.935422612e-15 0)
(3 -1.356871343e-15 0)
(3 -4.176028215e-16 0)
(3 2.465777163e-16 0)
(3 1.113649214e-15 0)
(3 1.79176339e-15 0)
(3 3.243052475e-15 0)
(3 3.354227816e-15 0)
(3 2.831483194e-15 0)
(3 1.633755758e-15 0)
(3 1.978259208e-15 0)
(3 -1.858257067e-15 0)
(3 -5.407516495e-15 0)
(3 -7.788935012e-15 0)
(3 -8.259073892e-15 0)
(3 -7.165900171e-15 0)
(3 -6.406058024e-15 0)
(3 -6.378604423e-15 0)
(3 -6.840348865e-15 0)
(3 -6.809934892e-15 0)
(3 -7.137115177e-15 0)
(3 -1.049548356e-14 0)
(3 -1.282549813e-14 0)
(3 -1.154032575e-14 0)
(3 -7.490631156e-15 0)
(3 -4.713875665e-15 0)
(3 -2.256188379e-15 0)
(3 -1.308096809e-15 0)
(3 -7.596400856e-16 0)
(3 1.831713168e-15 0)
(3 3.058451117e-15 0)
(3 2.959184124e-15 0)
(3 2.629249889e-15 0)
(3 2.582143172e-15 0)
(3 2.979727141e-15 0)
(3 3.025788638e-15 0)
(3 3.273725469e-15 0)
(3 3.238129291e-15 0)
(3 3.328842309e-15 0)
(3 4.026567996e-15 0)
(3 4.375725685e-15 0)
(3 2.978934279e-15 0)
(3 -1.192754524e-15 0)
(3 -8.1171491e-17 0)
(3 -2.079414064e-16 0)
(3 -1.722109319e-16 0)
(3 7.377290647e-16 0)
(3 1.32226578e-15 0)
(3 1.163740064e-15 0)
(3 -4.531330498e-16 0)
(3 5.866499397e-17 0)
(3 2.067587233e-15 0)
(3 2.892078044e-15 0)
(3 3.257406972e-15 0)
(3 5.679723352e-17 0)
(3 -6.330663777e-17 0)
(3 2.284483464e-16 0)
(3 2.20392562e-15 0)
(3 4.055166607e-15 0)
(3 6.018901081e-15 0)
(3 4.76219124e-15 0)
(3 3.234509176e-15 0)
(3 1.485690104e-15 0)
(3 -1.242753673e-15 0)
(3 -4.823519063e-15 0)
(3 -6.166158106e-15 0)
(3 -6.254740615e-15 0)
(3 -5.33994722e-15 0)
(3 -3.670070875e-15 0)
(3 -2.449355457e-15 0)
(3 -1.077645404e-15 0)
(3 -6.105601043e-16 0)
(3 8.804127807e-16 0)
(3 4.705117779e-16 0)
(3 -1.49835903e-15 0)
(3 -4.116068029e-15 0)
(3 -4.502465325e-15 0)
(3 -4.337941348e-15 0)
(3 -5.183796181e-15 0)
(3 -6.803938482e-15 0)
(3 -9.080148357e-15 0)
(3 -8.750705078e-15 0)
(3 -8.230316601e-15 0)
(3 -8.145597866e-15 0)
(3 -8.997264485e-15 0)
(3 -1.004559242e-14 0)
(3 -1.110617547e-14 0)
(3 -1.367213772e-14 0)
(3 -1.428743626e-14 0)
(3 -1.172691439e-14 0)
(3 -7.585261322e-15 0)
(3 -3.818255093e-15 0)
(3 -1.099177907e-15 0)
(3 -8.922112711e-16 0)
(3 7.021483246e-16 0)
(3 3.079230255e-15 0)
(3 4.781976065e-15 0)
(3 4.709954655e-15 0)
(3 2.997688235e-15 0)
(3 2.383641666e-15 0)
(3 2.993446749e-15 0)
(3 2.907969075e-15 0)
(3 3.556794285e-15 0)
(3 3.693778341e-15 0)
(3 3.85999679e-15 0)
(3 4.523469272e-15 0)
(3 5.101188244e-15 0)
(3 5.107213902e-15 0)
(3 5.19403623e-15 0)
(3 5.641521673e-15 0)
(3 5.905282771e-15 0)
(3 5.007910069e-15 0)
(3 3.024351559e-15 0)
(3 9.662126874e-16 0)
(3 3.956559078e-16 0)
(3 2.187403033e-15 0)
(3 3.724934452e-15 0)
(3 5.310649269e-15 0)
(3 5.318205793e-15 0)
(3 4.893713901e-15 0)
(3 6.796091806e-15 0)
(3 6.999475419e-15 0)
(3 5.56050953e-15 0)
(3 2.48977591e-15 0)
(3 1.996370567e-15 0)
(3 2.751885174e-15 0)
(3 4.443665396e-15 0)
(3 4.648280921e-15 0)
(3 4.285755004e-15 0)
(3 1.530669686e-15 0)
(3 -7.652232212e-16 0)
(3 -4.628990231e-15 0)
(3 -8.142419925e-15 0)
(3 -8.483616295e-15 0)
(3 -8.19559969e-15 0)
(3 -7.201094773e-15 0)
(3 -7.013174587e-15 0)
(3 -6.681423217e-15 0)
(3 -6.249602365e-15 0)
(3 -6.347133228e-15 0)
(3 -7.926212234e-15 0)
(3 -8.443575969e-15 0)
(3 -8.384500448e-15 0)
(3 -7.54670418e-15 0)
(3 -9.127659102e-15 0)
(3 -1.081386299e-14 0)
(3 -1.237012656e-14 0)
(3 -1.281145271e-14 0)
(3 -1.321201834e-14 0)
(3 -1.354451414e-14 0)
(3 -1.408565902e-14 0)
(3 -1.454595055e-14 0)
(3 -1.691264038e-14 0)
(3 -1.813493767e-14 0)
(3 -1.938464229e-14 0)
(3 -2.058721607e-14 0)
(3 -1.952749678e-14 0)
(3 -1.810995679e-14 0)
(3 -1.766053257e-14 0)
(3 -1.585367425e-14 0)
(3 -9.985980161e-15 0)
(3 -7.240595546e-15 0)
(3 -5.414259012e-15 0)
(3 -5.860953548e-15 0)
(3 -3.825291181e-15 0)
(3 -3.420399449e-16 0)
(3 1.729269403e-16 0)
(3 5.503921662e-16 0)
(3 1.735052588e-17 0)
(3 7.393686009e-16 0)
(3 3.136824088e-15 0)
(3 4.444454535e-15 0)
(3 6.116461834e-15 0)
(3 7.86843078e-15 0)
(3 8.885731441e-15 0)
(3 9.640554521e-15 0)
(3 6.543100398e-15 0)
(3 7.186525251e-15 0)
(3 7.21920824e-15 0)
(3 2.770478665e-15 0)
(3 1.965758399e-15 0)
(3 1.606150315e-15 0)
(3 1.50985277e-15 0)
(3 2.424628868e-15 0)
(3 2.490638619e-15 0)
(3 2.976681676e-15 0)
(3 3.236519011e-15 0)
(3 5.272947126e-15 0)
(3 7.925646724e-15 0)
(3 9.226104879e-15 0)
(3 8.375196304e-15 0)
(3 6.139951207e-15 0)
(3 4.726687581e-15 0)
(3 4.32020827e-15 0)
(3 4.586403109e-15 0)
(3 4.143484495e-15 0)
(3 2.419429683e-15 0)
(3 2.240162058e-15 0)
(3 1.662766762e-16 0)
(3 -6.493181703e-16 0)
(3 -1.928321357e-15 0)
(3 -3.460834663e-15 0)
(3 -3.93521229e-15 0)
(3 -3.925345676e-15 0)
(3 -4.479193881e-15 0)
(3 -6.194037324e-15 0)
(3 -8.333472396e-15 0)
(3 -9.522903429e-15 0)
(3 -9.953012342e-15 0)
(3 -9.866541285e-15 0)
(3 -1.068317185e-14 0)
(3 -1.224949737e-14 0)
(3 -1.430383112e-14 0)
(3 -1.558341223e-14 0)
(3 -1.562550046e-14 0)
(3 -1.526693527e-14 0)
(3 -1.571910575e-14 0)
(3 -1.678619936e-14 0)
(3 -1.844581996e-14 0)
(3 -2.022810773e-14 0)
(3 -2.243863075e-14 0)
(3 -2.422816589e-14 0)
(3 -2.423100738e-14 0)
(3 -2.503138579e-14 0)
(3 -2.599061546e-14 0)
(3 -2.832673662e-14 0)
(3 -2.896370657e-14 0)
(3 -2.694352866e-14 0)
(3 -2.297829159e-14 0)
(3 -2.111667324e-14 0)
(3 -1.847745887e-14 0)
(3 -1.682070533e-14 0)
(3 -1.196168844e-14 0)
(3 -5.008928322e-15 0)
(3 1.113178106e-15 0)
(3 6.587604885e-15 0)
(3 6.952340353e-15 0)
(3 1.030763283e-14 0)
(3 1.164075567e-14 0)
(3 1.181432672e-14 0)
(3 1.072625389e-14 0)
(3 1.033377239e-14 0)
(3 1.100564992e-14 0)
(3 1.097683674e-14 0)
(3 7.811961263e-15 0)
(3 5.282537546e-15 0)
(3 2.858248356e-15 0)
(3 4.721319459e-16 0)
(3 -6.787725539e-16 0)
(3 3.076742149e-16 0)
(3 1.15365772e-15 0)
(3 2.162669206e-15 0)
(3 2.281040133e-15 0)
(3 1.946267884e-15 0)
(3 1.640450712e-15 0)
(3 1.246673758e-15 0)
(3 2.766219257e-16 0)
(3 4.849802405e-15 0)
(3 8.613922902e-15 0)
(3 8.855248072e-15 0)
(3 7.812823382e-15 0)
(3 6.637236361e-15 0)
(3 6.724289804e-15 0)
(3 6.210605068e-15 0)
(3 5.431158729e-15 0)
(3 4.440150344e-15 0)
(3 4.175556052e-15 0)
(3 1.050651065e-15 0)
(3 -6.167031081e-16 0)
(3 -2.419984224e-15 0)
(3 -3.881983733e-15 0)
(3 -7.065068141e-15 0)
(3 -9.389539992e-15 0)
(3 -1.060957131e-14 0)
(3 -1.048511801e-14 0)
(3 -1.109978916e-14 0)
(3 -1.243245311e-14 0)
(3 -1.488999104e-14 0)
(3 -1.540651192e-14 0)
(3 -1.562825969e-14 0)
(3 -1.420685899e-14 0)
(3 -1.427895002e-14 0)
(3 -1.398040434e-14 0)
(3 -1.444937332e-14 0)
(3 -1.580568153e-14 0)
(3 -1.882314575e-14 0)
(3 -2.17713359e-14 0)
(3 -2.394340169e-14 0)
(3 -2.71440315e-14 0)
(3 -2.929594471e-14 0)
(3 -3.02084636e-14 0)
(3 -3.230756744e-14 0)
(3 -3.24557525e-14 0)
(3 -3.207928105e-14 0)
(3 -3.215057519e-14 0)
(3 -3.373048517e-14 0)
(3 -3.138188275e-14 0)
(3 -2.711471579e-14 0)
(3 -2.067538853e-14 0)
(3 -1.437388561e-14 0)
(3 -7.349458002e-15 0)
(3 -3.663254647e-15 0)
(3 2.862399221e-15 0)
(3 7.246447861e-15 0)
(3 7.781091353e-15 0)
(3 1.096720837e-14 0)
(3 1.666402675e-14 0)
(3 1.834591078e-14 0)
(3 1.863007005e-14 0)
(3 1.71408073e-14 0)
(3 7.263164952e-15 0)
(3 1.902527405e-15 0)
(3 -1.081830986e-15 0)
(3 -1.655035581e-15 0)
(3 -1.274889803e-15 0)
(3 -5.336895868e-15 0)
(3 -7.290019982e-15 0)
(3 -1.125276891e-14 0)
(3 -1.251622464e-14 0)
(3 -9.340666795e-15 0)
(3 -6.58767287e-15 0)
(3 -6.89827141e-15 0)
(3 -6.733968774e-15 0)
(3 -5.814496309e-15 0)
(3 -3.954605588e-15 0)
(3 -3.749016848e-16 0)
(3 1.892272414e-15 0)
(3 4.652440408e-15 0)
(3 6.199963611e-15 0)
(3 7.487322939e-15 0)
(3 9.534579395e-15 0)
(3 9.544660163e-15 0)
(3 8.523974326e-15 0)
(3 5.402082977e-15 0)
(3 2.163669919e-15 0)
(3 -1.541842212e-15 0)
(3 -3.630969525e-15 0)
(3 -7.897996564e-15 0)
(3 -1.043241009e-14 0)
(3 -1.124039802e-14 0)
(3 -7.907789122e-15 0)
(3 -6.426952084e-15 0)
(3 -5.960956501e-15 0)
(3 -5.281763084e-15 0)
(3 -5.945196818e-15 0)
(3 -8.446721261e-15 0)
(3 -1.017050657e-14 0)
(3 -1.143744307e-14 0)
(3 -1.054723066e-14 0)
(3 -1.08860989e-14 0)
(3 -8.053760838e-15 0)
(3 -8.235197399e-15 0)
(3 -9.40779157e-15 0)
(3 -1.213938344e-14 0)
(3 -1.428341611e-14 0)
(3 -1.855175939e-14 0)
(3 -2.368780951e-14 0)
(3 -2.810448212e-14 0)
(3 -2.956061218e-14 0)
(3 -3.191576545e-14 0)
(3 -3.285369807e-14 0)
(3 -3.350540431e-14 0)
(3 -3.422693152e-14 0)
(3 -3.093503651e-14 0)
(3 -2.401570319e-14 0)
(3 -1.876680916e-14 0)
(3 -1.463353388e-14 0)
(3 -1.318050713e-14 0)
(3 -9.418433441e-15 0)
(3 -4.084195911e-15 0)
(3 2.988214224e-15 0)
(3 8.244489559e-15 0)
(3 1.043668594e-14 0)
(3 1.294088229e-14 0)
(3 1.542085829e-14 0)
(3 1.749418889e-14 0)
(3 1.817607765e-14 0)
(3 -1.878766361e-15 0)
(3 -4.22723004e-15 0)
(3 -3.5535301e-15 0)
(3 -1.85001084e-15 0)
(3 -7.500337815e-16 0)
(3 -4.933776859e-15 0)
(3 -1.229177099e-14 0)
(3 -1.869173967e-14 0)
(3 -1.90944752e-14 0)
(3 -1.677268411e-14 0)
(3 -1.458384256e-14 0)
(3 -1.237162364e-14 0)
(3 -1.029172513e-14 0)
(3 -9.336962673e-15 0)
(3 -9.879838696e-15 0)
(3 -9.84130735e-15 0)
(3 -5.967450908e-15 0)
(3 3.202536423e-15 0)
(3 6.412636654e-15 0)
(3 6.542216258e-15 0)
(3 6.620060864e-15 0)
(3 3.462935448e-15 0)
(3 2.357930842e-16 0)
(3 7.829967773e-16 0)
(3 -9.408251009e-16 0)
(3 -2.839488305e-15 0)
(3 -7.269535688e-15 0)
(3 -8.933322398e-15 0)
(3 -8.559606023e-15 0)
(3 -6.347463152e-15 0)
(3 -3.637108986e-15 0)
(3 -1.803705986e-15 0)
(3 -2.547856239e-15 0)
(3 -1.312553221e-15 0)
(3 -5.641644741e-15 0)
(3 -8.046416224e-15 0)
(3 -8.156226611e-15 0)
(3 -8.443365886e-15 0)
(3 -7.339350359e-15 0)
(3 -5.102140182e-15 0)
(3 -6.56163271e-15 0)
(3 -6.437717684e-15 0)
(3 -5.512940901e-15 0)
(3 -6.621013675e-15 0)
(3 -1.137158938e-14 0)
(3 -1.356195458e-14 0)
(3 -1.67023062e-14 0)
(3 -2.033506016e-14 0)
(3 -2.316217557e-14 0)
(3 -2.434876619e-14 0)
(3 -2.548399122e-14 0)
(3 -2.595807334e-14 0)
(3 -2.448701748e-14 0)
(3 -2.150412844e-14 0)
(3 -1.840388285e-14 0)
(3 -1.818195705e-14 0)
(3 -1.589315953e-14 0)
(3 -1.359862282e-14 0)
(3 -1.012465741e-14 0)
(3 -4.721953749e-15 0)
(3 7.638295282e-16 0)
(3 3.092380101e-15 0)
(3 4.092696688e-15 0)
(3 7.067972267e-15 0)
(3 1.200387626e-14 0)
(3 1.331609014e-14 0)
(3 1.707038205e-14 0)
(3 -5.682667111e-15 0)
(3 -4.513659709e-15 0)
(3 -1.290065017e-15 0)
(3 -1.71124979e-15 0)
(3 -2.730342367e-15 0)
(3 -9.141357887e-15 0)
(3 -1.113384488e-14 0)
(3 -1.322719551e-14 0)
(3 -1.334379826e-14 0)
(3 -1.37265887e-14 0)
(3 -1.35081756e-14 0)
(3 -1.35012827e-14 0)
(3 -1.432873988e-14 0)
(3 -1.493936769e-14 0)
(3 -1.503768212e-14 0)
(3 -1.379852488e-14 0)
(3 -9.296224048e-15 0)
(3 -2.580372602e-15 0)
(3 1.674384606e-15 0)
(3 2.196435117e-15 0)
(3 -1.912919298e-15 0)
(3 -6.095246848e-15 0)
(3 -8.358732932e-15 0)
(3 -8.091394693e-15 0)
(3 -7.00954136e-15 0)
(3 -4.089957995e-15 0)
(3 -3.594731762e-15 0)
(3 -4.912271095e-15 0)
(3 -3.268727989e-15 0)
(3 -1.414160366e-15 0)
(3 1.030088409e-16 0)
(3 -1.288320515e-16 0)
(3 -1.547242823e-15 0)
(3 -1.523057906e-15 0)
(3 -1.559747411e-15 0)
(3 -1.570915526e-15 0)
(3 4.56717311e-16 0)
(3 4.403932975e-15 0)
(3 6.629050498e-15 0)
(3 5.799140702e-15 0)
(3 2.249766048e-15 0)
(3 9.577949314e-16 0)
(3 -2.041868638e-15 0)
(3 -3.534468299e-15 0)
(3 -6.189912621e-15 0)
(3 -7.946183267e-15 0)
(3 -1.093003364e-14 0)
(3 -1.259798167e-14 0)
(3 -1.606123892e-14 0)
(3 -1.771739892e-14 0)
(3 -1.861956967e-14 0)
(3 -1.926574953e-14 0)
(3 -1.903941424e-14 0)
(3 -1.634399043e-14 0)
(3 -1.389985851e-14 0)
(3 -1.0214595e-14 0)
(3 -7.00481471e-15 0)
(3 -4.961568664e-15 0)
(3 -4.14776218e-15 0)
(3 -4.054237492e-15 0)
(3 -2.029154131e-15 0)
(3 -7.443151088e-16 0)
(3 1.992871328e-15 0)
(3 6.690790204e-15 0)
(3 6.74547473e-15 0)
(3 6.622055349e-15 0)
(3 1.277525089e-14 0)
(3 -2.852005804e-15 0)
(3 -1.96377243e-15 0)
(3 -4.575187921e-15 0)
(3 -6.815696195e-15 0)
(3 -8.01764591e-15 0)
(3 -6.100548268e-15 0)
(3 -4.561442962e-15 0)
(3 -3.742384448e-15 0)
(3 -1.99330257e-15 0)
(3 -4.500785843e-15 0)
(3 -7.466545593e-15 0)
(3 -9.395184566e-15 0)
(3 -1.483993684e-14 0)
(3 -1.537475123e-14 0)
(3 -1.510722808e-14 0)
(3 -1.420903141e-14 0)
(3 -1.342846023e-14 0)
(3 -1.071255651e-14 0)
(3 -7.040494311e-15 0)
(3 -6.387501033e-15 0)
(3 -9.242014681e-15 0)
(3 -1.165965761e-14 0)
(3 -1.119149111e-14 0)
(3 -1.025446719e-14 0)
(3 -7.96713788e-15 0)
(3 -5.082815054e-15 0)
(3 -2.06429257e-16 0)
(3 1.690422613e-15 0)
(3 1.76250489e-15 0)
(3 3.712468204e-15 0)
(3 6.638872641e-15 0)
(3 4.994300171e-15 0)
(3 4.062205133e-15 0)
(3 5.496676857e-15 0)
(3 8.525064894e-15 0)
(3 6.835527384e-15 0)
(3 7.400229123e-15 0)
(3 1.356232545e-14 0)
(3 1.540794851e-14 0)
(3 1.336571432e-14 0)
(3 7.872003073e-15 0)
(3 3.406752156e-15 0)
(3 1.24023625e-15 0)
(3 -2.412432043e-16 0)
(3 -1.091077404e-15 0)
(3 -2.474486274e-15 0)
(3 -3.589242849e-15 0)
(3 -6.089796634e-15 0)
(3 -8.204712573e-15 0)
(3 -9.111926741e-15 0)
(3 -8.574372104e-15 0)
(3 -8.188986912e-15 0)
(3 -9.835774739e-15 0)
(3 -1.218346038e-14 0)
(3 -9.723849519e-15 0)
(3 -8.748342894e-16 0)
(3 1.23102701e-15 0)
(3 2.06582622e-15 0)
(3 2.196192267e-15 0)
(3 1.392248949e-15 0)
(3 9.131683786e-16 0)
(3 2.27763665e-15 0)
(3 3.084504165e-15 0)
(3 1.906704689e-15 0)
(3 2.216246535e-15 0)
(3 3.080033577e-15 0)
(3 8.917339969e-15 0)
(3 -4.867158894e-16 0)
(3 2.956258288e-16 0)
(3 -8.416589468e-16 0)
(3 -2.260168157e-15 0)
(3 -2.827881376e-15 0)
(3 -4.218115867e-15 0)
(3 -4.981443989e-15 0)
(3 -4.629769301e-15 0)
(3 -4.773066509e-15 0)
(3 -5.109243101e-15 0)
(3 -5.697883301e-15 0)
(3 -6.512546895e-15 0)
(3 -7.760899925e-15 0)
(3 -8.997297779e-15 0)
(3 -9.60887572e-15 0)
(3 -1.056399767e-14 0)
(3 -1.135872156e-14 0)
(3 -1.212813081e-14 0)
(3 -1.144878673e-14 0)
(3 -1.451382072e-14 0)
(3 -1.571128445e-14 0)
(3 -1.465644741e-14 0)
(3 -1.221382447e-14 0)
(3 -8.094235036e-15 0)
(3 -7.058835824e-15 0)
(3 -5.731646118e-15 0)
(3 -1.519657041e-15 0)
(3 4.905333812e-15 0)
(3 5.477478759e-15 0)
(3 5.656143005e-15 0)
(3 8.888095619e-15 0)
(3 9.648417108e-15 0)
(3 9.714263525e-15 0)
(3 1.080382581e-14 0)
(3 9.620363615e-15 0)
(3 1.182381435e-14 0)
(3 1.49819096e-14 0)
(3 1.7352272e-14 0)
(3 1.462150498e-14 0)
(3 1.380640403e-14 0)
(3 1.000053269e-14 0)
(3 6.94067726e-15 0)
(3 5.031509915e-15 0)
(3 2.100893636e-15 0)
(3 1.58505824e-15 0)
(3 3.527598144e-16 0)
(3 1.478688078e-15 0)
(3 2.532202509e-15 0)
(3 2.052528044e-15 0)
(3 3.888305378e-16 0)
(3 -5.798726012e-16 0)
(3 -1.955849017e-15 0)
(3 -1.975908879e-15 0)
(3 -2.977231495e-15 0)
(3 -2.4187075e-15 0)
(3 -2.699060949e-16 0)
(3 6.698004591e-16 0)
(3 1.626550527e-15 0)
(3 3.347157506e-15 0)
(3 3.905803425e-15 0)
(3 3.861981039e-15 0)
(3 2.702847601e-15 0)
(3 1.977724859e-15 0)
(3 1.324358713e-15 0)
(3 2.72367206e-15 0)
(3 4.29323962e-15 0)
(3 7.479738635e-15 0)
(3 -1.127546887e-14 0)
(3 -9.653704715e-15 0)
(3 -7.550326022e-15 0)
(3 -7.623668367e-15 0)
(3 -8.106933191e-15 0)
(3 -9.07247578e-15 0)
(3 -9.770655678e-15 0)
(3 -9.157884966e-15 0)
(3 -1.048233218e-14 0)
(3 -1.133909418e-14 0)
(3 -1.14259758e-14 0)
(3 -1.12968897e-14 0)
(3 -1.030076304e-14 0)
(3 -1.113745017e-14 0)
(3 -1.189826203e-14 0)
(3 -1.307311013e-14 0)
(3 -1.429917899e-14 0)
(3 -1.651887148e-14 0)
(3 -1.932070387e-14 0)
(3 -2.148591685e-14 0)
(3 -2.124492243e-14 0)
(3 -1.926585456e-14 0)
(3 -1.44347819e-14 0)
(3 -1.24996275e-14 0)
(3 -1.055461052e-14 0)
(3 -8.419723564e-15 0)
(3 -5.568878029e-15 0)
(3 -2.335137859e-15 0)
(3 2.877303298e-15 0)
(3 4.270588171e-15 0)
(3 7.814542842e-15 0)
(3 1.005341417e-14 0)
(3 1.21002119e-14 0)
(3 1.443824024e-14 0)
(3 1.613119457e-14 0)
(3 1.806163504e-14 0)
(3 1.770909805e-14 0)
(3 1.491703625e-14 0)
(3 1.29579504e-14 0)
(3 1.334663572e-14 0)
(3 1.409800238e-14 0)
(3 1.502677691e-14 0)
(3 1.307183305e-14 0)
(3 1.007698079e-14 0)
(3 9.453048113e-15 0)
(3 9.646939887e-15 0)
(3 1.01563101e-14 0)
(3 1.014712112e-14 0)
(3 7.775821917e-15 0)
(3 5.524152238e-15 0)
(3 4.682435339e-15 0)
(3 5.37370978e-15 0)
(3 6.946769775e-15 0)
(3 9.467756987e-15 0)
(3 9.064548104e-15 0)
(3 5.244174483e-15 0)
(3 3.551344902e-15 0)
(3 3.891821303e-15 0)
(3 6.124470414e-15 0)
(3 6.708086336e-15 0)
(3 6.663144802e-15 0)
(3 5.86291015e-15 0)
(3 5.67470448e-15 0)
(3 6.340518385e-15 0)
(3 6.328579728e-15 0)
(3 5.660783962e-15 0)
(3 7.375840336e-15 0)
(3 -1.175308919e-14 0)
(3 -1.495927548e-14 0)
(3 -1.536842711e-14 0)
(3 -1.515380441e-14 0)
(3 -1.506702319e-14 0)
(3 -1.283152983e-14 0)
(3 -1.138965051e-14 0)
(3 -1.0238999e-14 0)
(3 -1.265626514e-14 0)
(3 -1.458942786e-14 0)
(3 -1.593809964e-14 0)
(3 -1.708127172e-14 0)
(3 -1.801607732e-14 0)
(3 -1.832374432e-14 0)
(3 -1.80979418e-14 0)
(3 -1.835791287e-14 0)
(3 -2.028483993e-14 0)
(3 -2.294066477e-14 0)
(3 -2.44942007e-14 0)
(3 -2.330859317e-14 0)
(3 -2.214074558e-14 0)
(3 -2.079574528e-14 0)
(3 -2.111480762e-14 0)
(3 -1.919276718e-14 0)
(3 -1.784556372e-14 0)
(3 -1.58476737e-14 0)
(3 -1.187860825e-14 0)
(3 -6.717202187e-15 0)
(3 -7.403975639e-16 0)
(3 6.012747098e-15 0)
(3 8.462651628e-15 0)
(3 9.755731024e-15 0)
(3 1.364480392e-14 0)
(3 1.734958508e-14 0)
(3 2.21315906e-14 0)
(3 2.284776196e-14 0)
(3 2.245986006e-14 0)
(3 1.8804192e-14 0)
(3 1.701999115e-14 0)
(3 1.497463553e-14 0)
(3 1.536251696e-14 0)
(3 1.693334152e-14 0)
(3 1.808747232e-14 0)
(3 2.016391223e-14 0)
(3 1.836750426e-14 0)
(3 1.912358334e-14 0)
(3 1.585335659e-14 0)
(3 1.449884401e-14 0)
(3 1.418275874e-14 0)
(3 1.673959416e-14 0)
(3 1.760347015e-14 0)
(3 1.885925575e-14 0)
(3 2.021086454e-14 0)
(3 2.110344187e-14 0)
(3 1.712520154e-14 0)
(3 1.048883717e-14 0)
(3 7.547768308e-15 0)
(3 6.864797197e-15 0)
(3 8.663008032e-15 0)
(3 1.014277558e-14 0)
(3 1.017901626e-14 0)
(3 9.58363935e-15 0)
(3 9.139343275e-15 0)
(3 9.762821571e-15 0)
(3 1.015719633e-14 0)
(3 9.921307522e-15 0)
(3 8.649417065e-15 0)
(3 -1.855015807e-14 0)
(3 -1.984522457e-14 0)
(3 -2.017587707e-14 0)
(3 -1.962725075e-14 0)
(3 -1.777672053e-14 0)
(3 -1.353362432e-14 0)
(3 -1.061386907e-14 0)
(3 -1.11973992e-14 0)
(3 -1.274014103e-14 0)
(3 -1.420032959e-14 0)
(3 -1.490450839e-14 0)
(3 -1.656366464e-14 0)
(3 -1.927063571e-14 0)
(3 -2.068514411e-14 0)
(3 -2.250068434e-14 0)
(3 -2.415634813e-14 0)
(3 -2.492615961e-14 0)
(3 -2.492920486e-14 0)
(3 -2.411565085e-14 0)
(3 -1.898593163e-14 0)
(3 -1.708934882e-14 0)
(3 -1.677579149e-14 0)
(3 -1.526690737e-14 0)
(3 -1.459317984e-14 0)
(3 -1.209072529e-14 0)
(3 -1.184830551e-14 0)
(3 -1.033144306e-14 0)
(3 -6.571945113e-15 0)
(3 -2.345797493e-15 0)
(3 -1.759525157e-16 0)
(3 4.522286646e-15 0)
(3 1.020080063e-14 0)
(3 1.287534335e-14 0)
(3 1.445152102e-14 0)
(3 1.544889592e-14 0)
(3 1.770952382e-14 0)
(3 1.932430787e-14 0)
(3 2.009993748e-14 0)
(3 1.870442138e-14 0)
(3 1.669411336e-14 0)
(3 1.512438676e-14 0)
(3 1.531747232e-14 0)
(3 1.663903383e-14 0)
(3 1.833813971e-14 0)
(3 2.096908362e-14 0)
(3 2.12831911e-14 0)
(3 2.37190171e-14 0)
(3 2.489516549e-14 0)
(3 2.603567083e-14 0)
(3 2.577735528e-14 0)
(3 2.408974924e-14 0)
(3 2.398077117e-14 0)
(3 2.391966212e-14 0)
(3 2.01454103e-14 0)
(3 1.916821302e-14 0)
(3 1.823551226e-14 0)
(3 1.822633951e-14 0)
(3 1.917773788e-14 0)
(3 1.849679444e-14 0)
(3 1.890890926e-14 0)
(3 1.962306433e-14 0)
(3 1.785213863e-14 0)
(3 1.802592861e-14 0)
(3 1.667247024e-14 0)
(3 1.692404434e-14 0)
(3 1.578483628e-14 0)
(3 1.421457184e-14 0)
(3 -2.131258358e-14 0)
(3 -2.106152988e-14 0)
(3 -2.037708226e-14 0)
(3 -1.86488189e-14 0)
(3 -1.570077257e-14 0)
(3 -1.104918155e-14 0)
(3 -9.830368645e-15 0)
(3 -1.193262022e-14 0)
(3 -1.137965348e-14 0)
(3 -1.208528563e-14 0)
(3 -1.423264037e-14 0)
(3 -1.369493461e-14 0)
(3 -1.545104601e-14 0)
(3 -1.663600052e-14 0)
(3 -1.796705122e-14 0)
(3 -1.806499004e-14 0)
(3 -1.739520927e-14 0)
(3 -1.759684589e-14 0)
(3 -1.751972263e-14 0)
(3 -1.475915581e-14 0)
(3 -1.308287782e-14 0)
(3 -1.105633626e-14 0)
(3 -9.999724243e-15 0)
(3 -9.257047674e-15 0)
(3 -6.791637993e-15 0)
(3 -4.533791111e-15 0)
(3 -2.860606636e-15 0)
(3 -6.424223001e-16 0)
(3 7.258206011e-16 0)
(3 1.171351291e-15 0)
(3 3.735884193e-15 0)
(3 5.449936419e-15 0)
(3 7.989541257e-15 0)
(3 9.959567816e-15 0)
(3 1.314871823e-14 0)
(3 1.534324026e-14 0)
(3 1.555317399e-14 0)
(3 1.719433413e-14 0)
(3 1.617873412e-14 0)
(3 1.601738542e-14 0)
(3 1.551098685e-14 0)
(3 1.563176713e-14 0)
(3 1.732646997e-14 0)
(3 1.825075573e-14 0)
(3 1.964483799e-14 0)
(3 2.192758327e-14 0)
(3 2.302075576e-14 0)
(3 2.441052511e-14 0)
(3 2.74765771e-14 0)
(3 2.954216852e-14 0)
(3 3.078497731e-14 0)
(3 3.206093247e-14 0)
(3 3.178739958e-14 0)
(3 3.189995839e-14 0)
(3 2.933884155e-14 0)
(3 2.666501858e-14 0)
(3 2.55012931e-14 0)
(3 2.329560445e-14 0)
(3 1.996922351e-14 0)
(3 1.709033078e-14 0)
(3 1.534714418e-14 0)
(3 1.757248541e-14 0)
(3 1.920921591e-14 0)
(3 1.615605395e-14 0)
(3 1.375863462e-14 0)
(3 1.284194825e-14 0)
(3 1.306090309e-14 0)
(3 -2.109823499e-14 0)
(3 -2.186396139e-14 0)
(3 -1.845668112e-14 0)
(3 -1.634942693e-14 0)
(3 -1.322197151e-14 0)
(3 -1.077058699e-14 0)
(3 -1.084968898e-14 0)
(3 -1.122980206e-14 0)
(3 -9.960130615e-15 0)
(3 -9.136802407e-15 0)
(3 -8.119093101e-15 0)
(3 -6.676892369e-15 0)
(3 -6.915731351e-15 0)
(3 -6.67335289e-15 0)
(3 -5.265320762e-15 0)
(3 -4.712987243e-15 0)
(3 -2.712484571e-15 0)
(3 -1.289150966e-15 0)
(3 -4.833243699e-16 0)
(3 -2.97899097e-16 0)
(3 5.258532088e-17 0)
(3 -1.083307366e-15 0)
(3 -2.502478711e-16 0)
(3 6.000424676e-16 0)
(3 -2.512025042e-17 0)
(3 -6.869428589e-16 0)
(3 -2.358764486e-15 0)
(3 -2.571237361e-15 0)
(3 -2.421085135e-15 0)
(3 -2.700284392e-15 0)
(3 -1.104505109e-15 0)
(3 -5.793119079e-16 0)
(3 2.920275572e-15 0)
(3 6.340479655e-15 0)
(3 8.178659931e-15 0)
(3 5.680173993e-15 0)
(3 4.314995964e-15 0)
(3 8.648693897e-15 0)
(3 1.059577175e-14 0)
(3 1.442081156e-14 0)
(3 1.359331542e-14 0)
(3 1.49879889e-14 0)
(3 1.433458539e-14 0)
(3 1.469390573e-14 0)
(3 1.584060051e-14 0)
(3 1.466643268e-14 0)
(3 1.359685774e-14 0)
(3 1.337851238e-14 0)
(3 1.457061307e-14 0)
(3 1.611716365e-14 0)
(3 1.774404478e-14 0)
(3 1.983423098e-14 0)
(3 2.051753798e-14 0)
(3 2.207146787e-14 0)
(3 2.377555707e-14 0)
(3 2.51406683e-14 0)
(3 2.487275515e-14 0)
(3 2.277440137e-14 0)
(3 2.107953907e-14 0)
(3 1.998253587e-14 0)
(3 1.678548427e-14 0)
(3 1.287534475e-14 0)
(3 1.271882601e-14 0)
(3 1.28938428e-14 0)
(3 1.239358947e-14 0)
(3 9.889254644e-15 0)
(3 8.134384314e-15 0)
(3 -2.005136172e-14 0)
(3 -1.927450908e-14 0)
(3 -1.796942962e-14 0)
(3 -1.486908651e-14 0)
(3 -1.468351562e-14 0)
(3 -1.461123627e-14 0)
(3 -1.239143781e-14 0)
(3 -8.634263102e-15 0)
(3 -4.461014669e-15 0)
(3 -2.177221351e-15 0)
(3 6.252453599e-16 0)
(3 1.125773546e-15 0)
(3 7.254559188e-16 0)
(3 7.930510579e-17 0)
(3 3.669319701e-15 0)
(3 4.624528316e-15 0)
(3 6.970812641e-15 0)
(3 8.754152297e-15 0)
(3 1.026577678e-14 0)
(3 7.273647045e-15 0)
(3 9.024417344e-15 0)
(3 6.711765446e-15 0)
(3 9.077146598e-15 0)
(3 9.59201418e-15 0)
(3 8.459577496e-15 0)
(3 6.181257366e-15 0)
(3 4.727268731e-15 0)
(3 2.729578777e-15 0)
(3 1.749130283e-15 0)
(3 2.092491377e-15 0)
(3 2.402313407e-15 0)
(3 2.782230147e-15 0)
(3 2.726574095e-15 0)
(3 2.052111373e-15 0)
(3 3.452923964e-16 0)
(3 -1.534817853e-15 0)
(3 -1.8531561e-15 0)
(3 3.847211856e-16 0)
(3 7.133608498e-16 0)
(3 4.246524364e-15 0)
(3 8.670496751e-15 0)
(3 9.591403989e-15 0)
(3 8.602797544e-15 0)
(3 7.487022402e-15 0)
(3 6.714938107e-15 0)
(3 4.930652683e-15 0)
(3 4.514896988e-15 0)
(3 4.863340872e-15 0)
(3 6.858436248e-15 0)
(3 8.841238455e-15 0)
(3 1.022299263e-14 0)
(3 1.092904788e-14 0)
(3 1.170714157e-14 0)
(3 1.300125519e-14 0)
(3 1.657133809e-14 0)
(3 1.837724003e-14 0)
(3 1.917943671e-14 0)
(3 1.690355755e-14 0)
(3 1.430679236e-14 0)
(3 1.441762013e-14 0)
(3 1.46606981e-14 0)
(3 1.267674309e-14 0)
(3 1.142078022e-14 0)
(3 1.019030754e-14 0)
(3 9.075185958e-15 0)
(3 6.446479047e-15 0)
(3 5.599253969e-15 0)
(3 -1.540290193e-14 0)
(3 -1.539134144e-14 0)
(3 -1.538175034e-14 0)
(3 -1.540122473e-14 0)
(3 -1.478873371e-14 0)
(3 -1.302016897e-14 0)
(3 -1.022141108e-14 0)
(3 -7.350193137e-15 0)
(3 -4.278364173e-15 0)
(3 5.385411671e-17 0)
(3 2.90731495e-15 0)
(3 4.721478237e-15 0)
(3 8.020214954e-15 0)
(3 1.018239686e-14 0)
(3 1.088045872e-14 0)
(3 1.346805457e-14 0)
(3 1.346617591e-14 0)
(3 1.33901041e-14 0)
(3 1.457023092e-14 0)
(3 1.423255969e-14 0)
(3 1.387634851e-14 0)
(3 1.552028498e-14 0)
(3 1.598842575e-14 0)
(3 1.715316007e-14 0)
(3 1.614684112e-14 0)
(3 1.581776907e-14 0)
(3 1.507045444e-14 0)
(3 1.406386118e-14 0)
(3 9.702660134e-15 0)
(3 8.438186177e-15 0)
(3 7.228855795e-15 0)
(3 5.684905479e-15 0)
(3 2.041872455e-15 0)
(3 -3.126587405e-15 0)
(3 -6.948789206e-15 0)
(3 -7.877441721e-15 0)
(3 -5.520596177e-15 0)
(3 -5.265422108e-15 0)
(3 -4.488614677e-15 0)
(3 -8.120260793e-16 0)
(3 9.92088987e-16 0)
(3 9.305706884e-16 0)
(3 9.352225581e-16 0)
(3 1.278193907e-15 0)
(3 8.217730082e-16 0)
(3 7.291759337e-16 0)
(3 1.543974024e-16 0)
(3 1.309581802e-15 0)
(3 2.417120939e-15 0)
(3 4.836604228e-15 0)
(3 6.892612131e-15 0)
(3 6.900976525e-15 0)
(3 7.430051363e-15 0)
(3 8.12136032e-15 0)
(3 8.560684484e-15 0)
(3 9.547482279e-15 0)
(3 1.094437429e-14 0)
(3 1.247717982e-14 0)
(3 1.311227835e-14 0)
(3 1.355119446e-14 0)
(3 1.418473797e-14 0)
(3 1.187642095e-14 0)
(3 8.09709044e-15 0)
(3 6.828698979e-15 0)
(3 5.369374054e-15 0)
(3 3.865656469e-15 0)
(3 2.858056561e-15 0)
(3 -5.690391684e-15 0)
(3 -6.845724742e-15 0)
(3 -8.6679933e-15 0)
(3 -7.82383216e-15 0)
(3 -5.202889079e-15 0)
(3 -4.241543624e-15 0)
(3 -3.026043533e-15 0)
(3 -2.628541823e-15 0)
(3 -1.482877416e-15 0)
(3 -5.792195965e-16 0)
(3 5.009205449e-16 0)
(3 4.387014404e-15 0)
(3 9.978900287e-15 0)
(3 1.327023453e-14 0)
(3 1.389347649e-14 0)
(3 1.282324013e-14 0)
(3 1.228502826e-14 0)
(3 1.285556569e-14 0)
(3 1.321064955e-14 0)
(3 1.552325833e-14 0)
(3 1.664846641e-14 0)
(3 2.066213592e-14 0)
(3 2.204767469e-14 0)
(3 2.378532022e-14 0)
(3 2.410579632e-14 0)
(3 2.303336219e-14 0)
(3 2.096974547e-14 0)
(3 1.833079455e-14 0)
(3 1.485150494e-14 0)
(3 1.050093279e-14 0)
(3 6.759939009e-15 0)
(3 4.305107334e-15 0)
(3 1.45349377e-15 0)
(3 -2.018062991e-15 0)
(3 -7.817856597e-15 0)
(3 -1.216707134e-14 0)
(3 -1.182002124e-14 0)
(3 -9.321228958e-15 0)
(3 -4.44811125e-15 0)
(3 -2.107598761e-15 0)
(3 -1.834438329e-15 0)
(3 -3.498966944e-15 0)
(3 -3.69521887e-15 0)
(3 -2.514215427e-15 0)
(3 -1.858764765e-15 0)
(3 -2.338923576e-16 0)
(3 1.283299747e-15 0)
(3 1.398464605e-15 0)
(3 1.103246521e-15 0)
(3 1.690132635e-15 0)
(3 1.898496255e-15 0)
(3 5.044638221e-15 0)
(3 5.959840368e-15 0)
(3 6.913471433e-15 0)
(3 6.86371007e-15 0)
(3 7.274836371e-15 0)
(3 8.966427039e-15 0)
(3 1.142052647e-14 0)
(3 1.390027413e-14 0)
(3 1.307141043e-14 0)
(3 1.126464232e-14 0)
(3 8.252566083e-15 0)
(3 8.134108275e-15 0)
(3 8.515733917e-15 0)
(3 7.451761191e-15 0)
(3 6.361268652e-15 0)
(3 5.686799316e-15 0)
(3 -5.382276351e-16 0)
(3 -1.552339938e-15 0)
(3 -1.956483064e-15 0)
(3 -1.954590045e-15 0)
(3 -1.342828618e-15 0)
(3 -7.875645264e-17 0)
(3 -8.920651677e-17 0)
(3 3.651487188e-16 0)
(3 2.480884818e-15 0)
(3 4.314128764e-15 0)
(3 5.660646097e-15 0)
(3 8.901633483e-15 0)
(3 1.16383413e-14 0)
(3 1.239883967e-14 0)
(3 1.296158358e-14 0)
(3 1.351343303e-14 0)
(3 1.465409114e-14 0)
(3 1.525716545e-14 0)
(3 1.561148554e-14 0)
(3 1.660938796e-14 0)
(3 1.774601135e-14 0)
(3 1.734870608e-14 0)
(3 1.88794476e-14 0)
(3 2.009837398e-14 0)
(3 2.10253027e-14 0)
(3 1.985993568e-14 0)
(3 2.039424045e-14 0)
(3 1.948460593e-14 0)
(3 1.74557318e-14 0)
(3 1.442260269e-14 0)
(3 1.010948195e-14 0)
(3 6.634790952e-15 0)
(3 5.146986331e-15 0)
(3 6.276820658e-15 0)
(3 4.779153263e-15 0)
(3 1.040974385e-15 0)
(3 -3.063250148e-15 0)
(3 -3.797523198e-15 0)
(3 -3.474421306e-15 0)
(3 -2.098700081e-15 0)
(3 -3.395359673e-15 0)
(3 -3.922580511e-15 0)
(3 -3.989153517e-15 0)
(3 -4.829729197e-15 0)
(3 -4.443540665e-15 0)
(3 -3.25153674e-15 0)
(3 -8.470422944e-16 0)
(3 2.627930401e-15 0)
(3 3.329647352e-15 0)
(3 2.771856128e-15 0)
(3 1.514193903e-15 0)
(3 1.623935255e-15 0)
(3 2.862584968e-15 0)
(3 3.175298622e-15 0)
(3 3.758171299e-15 0)
(3 3.660737405e-15 0)
(3 2.500229144e-15 0)
(3 1.831953846e-15 0)
(3 2.566483736e-15 0)
(3 3.102776275e-15 0)
(3 3.852693776e-15 0)
(3 6.324666138e-15 0)
(3 8.230352668e-15 0)
(3 8.007173022e-15 0)
(3 7.383533149e-15 0)
(3 6.98683106e-15 0)
(3 6.222648638e-15 0)
(3 1.420629295e-15 0)
(3 3.032398824e-15 0)
(3 5.25792417e-15 0)
(3 5.676671338e-15 0)
(3 5.678688788e-15 0)
(3 6.926554563e-15 0)
(3 7.240731656e-15 0)
(3 8.264312652e-15 0)
(3 7.255856657e-15 0)
(3 7.263883123e-15 0)
(3 7.492913335e-15 0)
(3 8.340685888e-15 0)
(3 8.676340379e-15 0)
(3 7.773573652e-15 0)
(3 8.393008819e-15 0)
(3 1.153251161e-14 0)
(3 1.284890016e-14 0)
(3 1.410891962e-14 0)
(3 1.545811178e-14 0)
(3 1.644971525e-14 0)
(3 1.521487535e-14 0)
(3 1.3410881e-14 0)
(3 1.089924674e-14 0)
(3 9.736038563e-15 0)
(3 9.938400827e-15 0)
(3 9.404806039e-15 0)
(3 9.854403241e-15 0)
(3 9.612891257e-15 0)
(3 9.449442416e-15 0)
(3 1.048221109e-14 0)
(3 1.119260223e-14 0)
(3 1.097994032e-14 0)
(3 1.066441996e-14 0)
(3 1.009783158e-14 0)
(3 8.069851439e-15 0)
(3 5.180990525e-15 0)
(3 3.006535057e-15 0)