/*--------------------------------*- C++ -*----------------------------------*\
  =========                 |
  \\      /  F ield         | OpenFOAM: The Open Source CFD Toolbox
   \\    /   O peration     | Website:  https://openfoam.org
    \\  /    A nd           | Version:  7
     \\/     M anipulation  |
\*---------------------------------------------------------------------------*/
FoamFile
{
    version     2.0;
    format      ascii;
    class       volScalarField;
    location    "1.5";
    object      p;
}
// * * * * * * * * * * * * * * * * * * * * * * * * * * * * * * * * * * * * * //

dimensions      [1 -1 -2 0 0 0 0];

internalField   nonuniform List<scalar> 5(0.8370067261 0.8173352416 0.8205313497 0.8361636142 0.8227483812);

boundaryField
{
    inlet
    {
        type            fixedValue;
        value           nonuniform 0();
    }
    outlet
    {
        type            zeroGradient;
    }
    bottom
    {
        type            slip;
    }
    top
    {
        type            slip;
    }
    obstacle
    {
        type            zeroGradient;
    }
    defaultFaces
    {
        type            empty;
    }
    procBoundary21to15
    {
        type            processor;
        value           uniform 0.824674764;
    }
    procBoundary21to16
    {
        type            processor;
        value           nonuniform List<scalar> 3(0.9523628899 0.9942167746 0.9896451493);
    }
    procBoundary21to22
    {
        type            processor;
        value           nonuniform List<scalar> 2(0.9558701925 0.9341257512);
    }
    procBoundary21to27
    {
        type            processor;
        value           uniform 0.8079507211;
    }
}


// ************************************************************************* //
