/*--------------------------------*- C++ -*----------------------------------*\
  =========                 |
  \\      /  F ield         | OpenFOAM: The Open Source CFD Toolbox
   \\    /   O peration     | Website:  https://openfoam.org
    \\  /    A nd           | Version:  7
     \\/     M anipulation  |
\*---------------------------------------------------------------------------*/
FoamFile
{
    version     2.0;
    format      ascii;
    class       volVectorField;
    location    "5";
    object      U;
}
// * * * * * * * * * * * * * * * * * * * * * * * * * * * * * * * * * * * * * //

dimensions      [0 1 -1 0 0 0 0];

internalField   nonuniform List<vector> 
2223
(
(2.214170878 -1.027160803 0)
(2.224870698 -1.024165697 0)
(2.239123726 -1.020813849 0)
(2.575715371 0.06372317553 0)
(2.587945376 0.04678131622 0)
(2.601857868 0.02380324754 0)
(2.618386316 -0.01209081258 0)
(2.629165533 -0.0308303734 0)
(2.63583927 -0.03456018897 0)
(2.649502752 -0.05810622102 0)
(2.662801086 -0.09582318622 0)
(2.670068618 -0.1127428244 0)
(2.674989192 -0.110747682 0)
(2.684357365 -0.1263933745 0)
(2.69714798 -0.1606681236 0)
(2.703163985 -0.1798974474 0)
(2.708638273 -0.1776647881 0)
(2.71450384 -0.1861199831 0)
(2.727507004 -0.2156631059 0)
(2.731994794 -0.2382235108 0)
(2.736985481 -0.240898602 0)
(2.739620157 -0.2415577025 0)
(2.749675137 -0.2631217776 0)
(2.754289946 -0.2878704027 0)
(2.759175158 -0.2936378571 0)
(2.76096874 -0.2925329948 0)
(2.769489481 -0.307979136 0)
(2.774327086 -0.3140980894 0)
(2.776299263 -0.3309323649 0)
(2.76988114 -0.3582557111 0)
(2.694958274 -0.5051680054 0)
(2.274856744 -0.8999115484 0)
(2.144536164 -1.008132302 0)
(2.153059871 -1.013790102 0)
(2.170858451 -1.01416862 0)
(2.190007024 -1.010192339 0)
(2.205103021 -1.007701349 0)
(2.217689494 -1.007630751 0)
(2.229764714 -1.006439427 0)
(2.244113503 -1.002469908 0)
(2.567215932 0.08710865149 0)
(2.579795352 0.06918428867 0)
(2.594261595 0.04555482366 0)
(2.610987286 0.009934545833 0)
(2.621898075 -0.007871788145 0)
(2.628620218 -0.01211590893 0)
(2.643128666 -0.037011185 0)
(2.65639525 -0.07485593736 0)
(2.663905734 -0.09081286582 0)
(2.668844425 -0.08904890958 0)
(2.679297233 -0.1062467517 0)
(2.692146183 -0.1409845621 0)
(2.698333678 -0.1589358889 0)
(2.703546819 -0.1565597732 0)
(2.710404865 -0.1669013573 0)
(2.723003038 -0.1967130205 0)
(2.727105134 -0.2183628612 0)
(2.732399461 -0.2197026443 0)
(2.733999642 -0.2193440808 0)
(2.745003741 -0.2418268761 0)
(2.750187149 -0.2656595449 0)
(2.753881474 -0.268975403 0)
(2.758383971 -0.275406927 0)
(2.767876187 -0.2876333923 0)
(2.7706545 -0.2952046298 0)
(2.770850451 -0.3229552848 0)
(2.756635382 -0.372319436 0)
(2.490180187 -0.6876921392 0)
(2.195644666 -0.9370376881 0)
(2.148601298 -0.9960829693 0)
(2.159221388 -0.9981712798 0)
(2.178471111 -0.9976124094 0)
(2.196153459 -0.9948048977 0)
(2.210006063 -0.9922856382 0)
(2.222562179 -0.9902612183 0)
(2.235216226 -0.9885119097 0)
(2.249722563 -0.9861392742 0)
(2.55955923 0.1081513078 0)
(2.571532637 0.09128116111 0)
(2.586573203 0.06710867921 0)
(2.603651072 0.03165327399 0)
(2.614704662 0.01460752185 0)
(2.621482095 0.009808303535 0)
(2.636868875 -0.01643582621 0)
(2.650116096 -0.054350829 0)
(2.657879591 -0.0691524779 0)
(2.662765865 -0.06751782754 0)
(2.6742556 -0.08625808873 0)
(2.687106257 -0.1213927934 0)
(2.693479378 -0.1387619046 0)
(2.698590131 -0.1364815943 0)
(2.705703045 -0.1473381332 0)
(2.718066921 -0.177440918 0)
(2.722264636 -0.1992002905 0)
(2.72764643 -0.1989884329 0)
(2.730215833 -0.2019986013 0)
(2.742133205 -0.2267546133 0)
(2.748154881 -0.248470186 0)
(2.750666566 -0.2527607115 0)
(2.75686997 -0.26145919 0)
(2.764007301 -0.2647302096 0)
(2.76937151 -0.2807821988 0)
(2.760670149 -0.3124477405 0)
(2.70120783 -0.4428119389 0)
(2.288301176 -0.8435529611 0)
(2.149914877 -0.9639800174 0)
(2.149085619 -0.9752672301 0)
(2.165666381 -0.9783045406 0)
(2.184314065 -0.9770141156 0)
(2.20000812 -0.9731050524 0)
(2.213446388 -0.9707412709 0)
(2.226754096 -0.9706706936 0)
(2.240654378 -0.9711385235 0)
(2.255590144 -0.9700061671 0)
(2.550877891 0.1298963223 0)
(2.563456225 0.1126060227 0)
(2.579037558 0.08795194625 0)
(2.596263338 0.05290360753 0)
(2.607398032 0.03667885568 0)
(2.614377542 0.03113209901 0)
(2.630608558 0.00361761305 0)
(2.643775695 -0.03417333367 0)
(2.651768076 -0.04775173575 0)
(2.656599808 -0.046454426 0)
(2.669252138 -0.06698455335 0)
(2.681873053 -0.1024068307 0)
(2.688187971 -0.1183840026 0)
(2.693069996 -0.1159415701 0)
(2.700769214 -0.128182575 0)
(2.713152982 -0.1592989462 0)
(2.71764018 -0.1800635754 0)
(2.722564148 -0.1784499578 0)
(2.726253295 -0.1829788048 0)
(2.738309956 -0.2078718578 0)
(2.743835145 -0.2256328239 0)
(2.746728657 -0.2353332539 0)
(2.754769821 -0.2426367126 0)
(2.759192211 -0.2446101038 0)
(2.762070238 -0.2729924103 0)
(2.748256644 -0.3192587904 0)
(2.517487952 -0.6124212315 0)
(2.197664013 -0.8969547182 0)
(2.144294265 -0.9607306099 0)
(2.15450102 -0.9626520073 0)
(2.172593774 -0.9625059429 0)
(2.189802144 -0.9611549468 0)
(2.204573401 -0.9590445263 0)
(2.218418344 -0.9571789555 0)
(2.232433227 -0.9554130367 0)
(2.246821322 -0.9536790837 0)
(2.261562147 -0.9522818279 0)
(2.542461621 0.1504186416 0)
(2.555271859 0.1334429353 0)
(2.571261555 0.1086840704 0)
(2.588647199 0.07372458531 0)
(2.599807648 0.05822635026 0)
(2.607054368 0.05202185303 0)
(2.624052882 0.02340627547 0)
(2.637168856 -0.01415255757 0)
(2.645397001 -0.02665794818 0)
(2.650295118 -0.0259567819 0)
(2.663788056 -0.04780692151 0)
(2.676145917 -0.08319848761 0)
(2.682576523 -0.09846955348 0)
(2.68751293 -0.09610971727 0)
(2.695607591 -0.1091969741 0)
(2.707944127 -0.1411645633 0)
(2.712910064 -0.1603329695 0)
(2.717084571 -0.1582109266 0)
(2.723123126 -0.1662699337 0)
(2.734943364 -0.1898006466 0)
(2.73965543 -0.2079117987 0)
(2.743419291 -0.220524904 0)
(2.750865031 -0.2210493822 0)
(2.757548332 -0.2305492818 0)
(2.750553473 -0.263457601 0)
(2.701663446 -0.3810262683 0)
(2.291489394 -0.7960059429 0)
(2.152675474 -0.9153629072 0)
(2.144908151 -0.9365957716 0)
(2.15958588 -0.9395974242 0)
(2.177197636 -0.9408853628 0)
(2.192928527 -0.9399080566 0)
(2.20781163 -0.9382175003 0)
(2.222755221 -0.9373216998 0)
(2.237730388 -0.9371393247 0)
(2.252543045 -0.9365676891 0)
(2.267013026 -0.9351196926 0)
(2.533653208 0.1704556441 0)
(2.546568834 0.1540849982 0)
(2.563285709 0.128751882 0)
(2.580757014 0.09404886552 0)
(2.591947418 0.07926771018 0)
(2.599577604 0.07226722068 0)
(2.617339514 0.04254021971 0)
(2.630318882 0.005417143125 0)
(2.638631877 -0.005683916376 0)
(2.64353138 -0.005571943066 0)
(2.658132234 -0.02917279347 0)
(2.670187258 -0.06463188463 0)
(2.676729106 -0.07867802463 0)
(2.681273368 -0.07574884349 0)
(2.69058509 -0.09090994769 0)
(2.70274899 -0.1234515492 0)
(2.708100274 -0.1409333675 0)
(2.711943486 -0.139520081 0)
(2.720000468 -0.1490799096 0)
(2.729701288 -0.1687159265 0)
(2.73505544 -0.1913168762 0)
(2.740396421 -0.2026607275 0)
(2.743746921 -0.1997615964 0)
(2.751696751 -0.2243970318 0)
(2.738958744 -0.2668620776 0)
(2.529614028 -0.5463401681 0)
(2.19933967 -0.8497473741 0)
(2.132910858 -0.9238701437 0)
(2.144958353 -0.9268352476 0)
(2.164304023 -0.9272379017 0)
(2.181864759 -0.9265634036 0)
(2.197390824 -0.925741539 0)
(2.212711821 -0.925117623 0)
(2.228230325 -0.9239577001 0)
(2.243378849 -0.9218103123 0)
(2.257852075 -0.9192376994 0)
(2.271797328 -0.9176893225 0)
(2.524093079 0.1916436222 0)
(2.537912693 0.1742355801 0)
(2.555210055 0.148256473 0)
(2.572790438 0.1138142055 0)
(2.583976019 0.09986777612 0)
(2.591926684 0.09218597401 0)
(2.610322042 0.06151154895 0)
(2.623214577 0.02495890682 0)
(2.631670516 0.01485483534 0)
(2.636830023 0.01415433752 0)
(2.652120188 -0.01054769037 0)
(2.663881346 -0.04587493311 0)
(2.67076207 -0.05895935794 0)
(2.674926455 -0.05604516559 0)
(2.685648794 -0.07323093263 0)
(2.697554131 -0.1057220289 0)
(2.702768375 -0.1211784871 0)
(2.707448722 -0.1221219953 0)
(2.71540361 -0.1297575143 0)
(2.725199192 -0.1514115082 0)
(2.730435216 -0.1758881222 0)
(2.73714456 -0.1824274561 0)
(2.738943333 -0.1852828048 0)
(2.742106977 -0.2147847926 0)
(2.699858563 -0.3215988816 0)
(2.295008536 -0.7453565863 0)
(2.143303677 -0.8754214486 0)
(2.136100301 -0.9024871888 0)
(2.150058182 -0.9032631276 0)
(2.168272044 -0.9039831041 0)
(2.185073849 -0.9053133569 0)
(2.200899952 -0.9055697574 0)
(2.216717662 -0.9048068867 0)
(2.232464217 -0.9039923261 0)
(2.247790468 -0.9034138499 0)
(2.262366254 -0.9026090331 0)
(2.276178004 -0.9015130905 0)
(2.516255438 0.2098634915 0)
(2.529617984 0.1936716637 0)
(2.547288927 0.1671826438 0)
(2.564864356 0.1331370169 0)
(2.576039238 0.1200493084 0)
(2.584393904 0.1115493891 0)
(2.603448608 0.0798599898 0)
(2.616215276 0.04403011407 0)
(2.624723542 0.03517373931 0)
(2.630127948 0.03370387197 0)
(2.646297414 0.007499713093 0)
(2.6577403 -0.02785048516 0)
(2.664836658 -0.03926203899 0)
(2.668643798 -0.03675247247 0)
(2.680620482 -0.05570532878 0)
(2.692392453 -0.08769388607 0)
(2.697111243 -0.102319248 0)
(2.703609812 -0.1054537354 0)
(2.708996038 -0.1098222485 0)
(2.721343454 -0.1359162882 0)
(2.726793848 -0.1590000949 0)
(2.728652283 -0.1580202298 0)
(2.737147681 -0.1798206689 0)
(2.726339242 -0.2197066027 0)
(2.534753733 -0.4891075044 0)
(2.197012081 -0.8073119353 0)
(2.12501562 -0.8851347614 0)
(2.136457459 -0.8890921534 0)
(2.15528449 -0.8903370863 0)
(2.173157814 -0.8901589623 0)
(2.189264189 -0.8899675515 0)
(2.205030012 -0.8902834111 0)
(2.22104612 -0.8906346335 0)
(2.236928946 -0.8901616366 0)
(2.252191896 -0.8882688656 0)
(2.266537656 -0.8856061848 0)
(2.280242149 -0.8836802204 0)
(2.507733916 0.2291021997 0)
(2.520953959 0.2131248944 0)
(2.539393048 0.1856356098 0)
(2.557072034 0.151982449 0)
(2.568281543 0.1397495325 0)
(2.577124418 0.1304406449 0)
(2.59666916 0.09796124315 0)
(2.609334315 0.06298926021 0)
(2.618002426 0.05502790643 0)
(2.623727393 0.05277252934 0)
(2.640547087 0.02540690738 0)
(2.651692173 -0.009645063753 0)
(2.658865982 -0.01950525081 0)
(2.662701235 -0.01804586242 0)
(2.675874502 -0.03861716673 0)
(2.687132893 -0.06936160713 0)
(2.691783456 -0.08535193217 0)
(2.698923184 -0.08605349284 0)
(2.704258744 -0.09339899105 0)
(2.716858489 -0.1212442396 0)
(2.724067488 -0.1386455879 0)
(2.722641578 -0.1425616826 0)
(2.729372291 -0.1704222114 0)
(2.689715171 -0.2728910331 0)
(2.300414031 -0.696450864 0)
(2.13759543 -0.8352708279 0)
(2.128771449 -0.8672213807 0)
(2.142362764 -0.8678128034 0)
(2.159666876 -0.8666487025 0)
(2.176227086 -0.8683923173 0)
(2.192253276 -0.870809383 0)
(2.208259155 -0.8718114199 0)
(2.224272365 -0.8714915481 0)
(2.240076618 -0.8706983894 0)
(2.255589165 -0.8698466121 0)
(2.270713254 -0.8690829555 0)
(2.285501293 -0.8683925122 0)
(2.498539506 0.2482615742 0)
(2.512608631 0.2313180438 0)
(2.531631526 0.2032692801 0)
(2.549320949 0.1703148913 0)
(2.560543282 0.1589964806 0)
(2.569965112 0.1488464907 0)
(2.589991736 0.1155630647 0)
(2.602527932 0.08154472146 0)
(2.611338543 0.07470125868 0)
(2.617341786 0.07157129064 0)
(2.635113652 0.04264057004 0)
(2.645996175 0.008220996791 0)
(2.653064608 -0.0002384161745 0)
(2.657420455 6.610614858e-05 0)
(2.670925391 -0.02101826519 0)
(2.681781915 -0.05174397678 0)
(2.687227441 -0.06877922934 0)
(2.692809034 -0.06584629348 0)
(2.700867973 -0.07827494145 0)
(2.713514395 -0.1069082345 0)
(2.715866069 -0.1130223649 0)
(2.721716901 -0.1362611772 0)
(2.712271996 -0.1764794326 0)
(2.531176288 -0.4442730963 0)
(2.195363095 -0.770361858 0)
(2.117940661 -0.8470408807 0)
(2.129329952 -0.85106564 0)
(2.147435105 -0.8512920117 0)
(2.164664665 -0.8518430635 0)
(2.180354348 -0.8534960942 0)
(2.195790524 -0.854625145 0)
(2.211509884 -0.8555549192 0)
(2.227667697 -0.8563629239 0)
(2.243948082 -0.8563790699 0)
(2.260074859 -0.8548788463 0)
(2.275892747 -0.8524521413 0)
(2.291659653 -0.8506676235 0)
(2.4898767 0.2658868 0)
(2.504175521 0.2489004623 0)
(2.52369704 0.2208214541 0)
(2.541366259 0.1886095416 0)
(2.552555738 0.1780974673 0)
(2.562634439 0.1670631493 0)
(2.583090602 0.1330470325 0)
(2.595560162 0.09988948077 0)
(2.604534032 0.09401368083 0)
(2.610998472 0.08975948901 0)
(2.629526629 0.05966665737 0)
(2.640261845 0.02620047536 0)
(2.647188594 0.01884290733 0)
(2.652642209 0.01783939059 0)
(2.665641256 -0.003131459526 0)
(2.676783791 -0.03603106489 0)
(2.68325252 -0.0502358517 0)
(2.686679685 -0.04784471961 0)
(2.698390964 -0.0654593053 0)
(2.711103382 -0.08677190964 0)
(2.70925744 -0.09626178597 0)
(2.714488928 -0.127002532 0)
(2.675339919 -0.2315167456 0)
(2.296773079 -0.6599299895 0)
(2.134745742 -0.7980288789 0)
(2.120744377 -0.8272073605 0)
(2.133635335 -0.8302108856 0)
(2.151124981 -0.8300355638 0)
(2.167533343 -0.8309980053 0)
(2.183160345 -0.833697907 0)
(2.198878251 -0.8363031632 0)
(2.214972543 -0.8379451814 0)
(2.231489762 -0.8385818287 0)
(2.248352143 -0.8385880583 0)
(2.265626056 -0.8381535833 0)
(2.283162367 -0.837590403 0)
(2.300700111 -0.8370886755 0)
(2.48212218 0.2837555874 0)
(2.496416428 0.2663138909 0)
(2.516443288 0.2376810563 0)
(2.53393797 0.2063785912 0)
(2.545012886 0.1966237675 0)
(2.555567737 0.1848335107 0)
(2.576271356 0.1501086416 0)
(2.588553251 0.1178529036 0)
(2.597407434 0.1130919374 0)
(2.604532205 0.1073692337 0)
(2.623805915 0.07611713289 0)
(2.634433608 0.04380162893 0)
(2.641585356 0.03689387059 0)
(2.647264083 0.03604470806 0)
(2.661228767 0.01317118125 0)
(2.671994165 -0.02016046812 0)
(2.678875221 -0.03093708195 0)
(2.681907779 -0.03184088337 0)
(2.696372758 -0.05242926941 0)
(2.702883121 -0.06171906932 0)
(2.706982065 -0.08897896123 0)
(2.697776607 -0.1330286065 0)
(2.517463548 -0.4083657609 0)
(2.19354784 -0.7308733149 0)
(2.108215494 -0.8104197192 0)
(2.119631462 -0.8143700324 0)
(2.137367326 -0.8135702998 0)
(2.154764024 -0.8133642935 0)
(2.171221822 -0.8155818854 0)
(2.187371564 -0.8178232336 0)
(2.203523374 -0.8195618931 0)
(2.220140454 -0.8214890521 0)
(2.237492631 -0.8235508294 0)
(2.255436467 -0.8248794316 0)
(2.273804654 -0.8246308449 0)
(2.292325501 -0.823098773 0)
(2.310682122 -0.8216459531 0)
(2.475810116 0.3006262192 0)
(2.489738329 0.2832529884 0)
(2.509968291 0.2543806709 0)
(2.52715804 0.2241001648 0)
(2.538025778 0.2150204624 0)
(2.548852212 0.2025233583 0)
(2.569650055 0.1670659612 0)
(2.581688536 0.1357006619 0)
(2.590227246 0.1316593082 0)
(2.598114206 0.124376765 0)
(2.617845857 0.09226938671 0)
(2.628238636 0.06116395906 0)
(2.636136271 0.0545819818 0)
(2.640964745 0.05418630906 0)
(2.657262391 0.02835382381 0)
(2.667763673 -0.003490921491 0)
(2.672931788 -0.01063452577 0)
(2.679317216 -0.01913490128 0)
(2.69387418 -0.03337204181 0)
(2.695801363 -0.04519080477 0)
(2.699727941 -0.08101172047 0)
(2.65924056 -0.1895657895 0)
(2.282622068 -0.6281162783 0)
(2.122189734 -0.7650404441 0)
(2.110659028 -0.7886880022 0)
(2.122788128 -0.7908888155 0)
(2.140339396 -0.7926218 0)
(2.157722758 -0.7940800765 0)
(2.174843235 -0.7958002982 0)
(2.192138033 -0.7982427826 0)
(2.209717847 -0.8011923714 0)
(2.227640869 -0.8040844937 0)
(2.245908494 -0.8063474692 0)
(2.264475894 -0.8076448477 0)
(2.283351354 -0.8078474787 0)
(2.302329596 -0.8073773819 0)
(2.320984799 -0.8068143145 0)
(2.468648488 0.3164521539 0)
(2.482627048 0.3004225947 0)
(2.503318646 0.2712034044 0)
(2.520507604 0.2417635104 0)
(2.531446413 0.2330872121 0)
(2.542775535 0.2196009171 0)
(2.563621228 0.1834271515 0)
(2.575309456 0.1532907862 0)
(2.583368783 0.1498312323 0)
(2.592025335 0.1410036826 0)
(2.611844781 0.1082355907 0)
(2.622055636 0.0776435856 0)
(2.630475884 0.07281592845 0)
(2.635416345 0.07060375041 0)
(2.65299221 0.04312272117 0)
(2.663692388 0.0144245886 0)
(2.667012334 0.006595713234 0)
(2.677096659 -0.005887822832 0)
(2.686130289 -0.01005682957 0)
(2.692303708 -0.03844605067 0)
(2.68247326 -0.08625142475 0)
(2.495783629 -0.3742135951 0)
(2.186091683 -0.6849864163 0)
(2.0954919 -0.7699960497 0)
(2.108145369 -0.7756954047 0)
(2.12731865 -0.7773638835 0)
(2.145474601 -0.7779978848 0)
(2.163302899 -0.7795594774 0)
(2.181801783 -0.7819177907 0)
(2.200752179 -0.7842747515 0)
(2.219676377 -0.7866779996 0)
(2.238484903 -0.7895145651 0)
(2.257175415 -0.7925074591 0)
(2.275770049 -0.7946453894 0)
(2.294249238 -0.7950942178 0)
(2.312506967 -0.7940343363 0)
(2.330252726 -0.7925655871 0)
(2.460015732 0.3344654224 0)
(2.475460125 0.3165654835 0)
(2.496463407 0.2870954252 0)
(2.513778822 0.2587591291 0)
(2.524910945 0.2507085666 0)
(2.537122599 0.2360586988 0)
(2.558082096 0.1993346437 0)
(2.569500052 0.1706231592 0)
(2.577234123 0.167524988 0)
(2.586501498 0.1574128867 0)
(2.606204613 0.1238858887 0)
(2.616333574 0.09383375 0)
(2.624350599 0.09135952122 0)
(2.630607476 0.0863314983 0)
(2.648974811 0.05768900487 0)
(2.657898244 0.0342292371 0)
(2.662610513 0.01997015762 0)
(2.674269482 0.01247648125 0)
(2.678717196 0.006005836701 0)
(2.68507372 -0.03245974058 0)
(2.640982901 -0.1450495582 0)
(2.266582544 -0.5914318202 0)
(2.100996252 -0.7337719799 0)
(2.096294346 -0.7509463154 0)
(2.112816927 -0.7532690592 0)
(2.132428507 -0.7565550895 0)
(2.15160232 -0.7606461271 0)
(2.171063745 -0.7633377418 0)
(2.190977966 -0.7650934178 0)
(2.21105717 -0.7670079339 0)
(2.230867454 -0.7696655755 0)
(2.250111035 -0.7726868006 0)
(2.268540915 -0.7753178666 0)
(2.28625243 -0.7768424816 0)
(2.303456603 -0.7771148109 0)
(2.320381403 -0.776602308 0)
(2.336935698 -0.7759697256 0)
(2.453374969 0.3504313088 0)
(2.468567628 0.3323532743 0)
(2.489675492 0.3027174968 0)
(2.507014063 0.2753319724 0)
(2.518254425 0.2678260582 0)
(2.53160892 0.2519335106 0)
(2.552724432 0.2149425285 0)
(2.564000484 0.1878362217 0)
(2.57176693 0.1849894969 0)
(2.581340288 0.1738752294 0)
(2.601228915 0.1390211144 0)
(2.611240021 0.1107467017 0)
(2.618187698 0.109286717 0)
(2.626993916 0.1011724278 0)
(2.644273897 0.07463168867 0)
(2.652033627 0.05045631475 0)
(2.658996997 0.03412991028 0)
(2.666641808 0.03536942757 0)
(2.676270469 0.01018780361 0)
(2.665665596 -0.03893848044 0)
(2.467869887 -0.3423041792 0)
(2.173895462 -0.6391821354 0)
(2.087837769 -0.7249387717 0)
(2.100471761 -0.733308696 0)
(2.121077922 -0.7382718793 0)
(2.141244533 -0.7431958394 0)
(2.161091082 -0.7471760266 0)
(2.181407033 -0.7501564636 0)
(2.202068796 -0.7524972221 0)
(2.222595425 -0.7543717286 0)
(2.242400295 -0.7563016313 0)
(2.261216278 -0.7586449586 0)
(2.278884912 -0.7611746169 0)
(2.295592974 -0.762935352 0)
(2.311550018 -0.7633770243 0)
(2.327077127 -0.7626646001 0)
(2.342255977 -0.7615914115 0)
(2.448488405 0.3666910614 0)
(2.462556314 0.3487976651 0)
(2.483657853 0.3180906855 0)
(2.500626701 0.2914690704 0)
(2.511782463 0.2842512716 0)
(2.526187343 0.2672980727 0)
(2.547377881 0.2303059744 0)
(2.558667062 0.2047742689 0)
(2.566573671 0.2024222413 0)
(2.576860807 0.1897421311 0)
(2.596801599 0.1538704286 0)
(2.60664602 0.127912162 0)
(2.612700144 0.126193154 0)
(2.62425133 0.115848295 0)
(2.638102553 0.09287668207 0)
(2.647251595 0.06377005206 0)
(2.656256909 0.05219051655 0)
(2.658884318 0.05130782297 0)
(2.669206289 0.01518548128 0)
(2.619095948 -0.1062914341 0)
(2.25137504 -0.5538920094 0)
(2.082788496 -0.6997100197 0)
(2.08567958 -0.7146557658 0)
(2.105946512 -0.7161910042 0)
(2.128748776 -0.7197462826 0)
(2.150117266 -0.7256147006 0)
(2.170636267 -0.7308529392 0)
(2.191081742 -0.7343182903 0)
(2.211423396 -0.7362633274 0)
(2.231376102 -0.7375571762 0)
(2.250537415 -0.7391413947 0)
(2.26868571 -0.7410329143 0)
(2.285573594 -0.7428248765 0)
(2.301380814 -0.7437952449 0)
(2.316352864 -0.7438536062 0)
(2.330922653 -0.7433076563 0)
(2.345295884 -0.7427099772 0)
(2.446260059 0.3829783878 0)
(2.458717774 0.3642764885 0)
(2.478870595 0.3332715679 0)
(2.495065058 0.3074550503 0)
(2.505872719 0.3002113384 0)
(2.521086621 0.2822173334 0)
(2.542096697 0.2453718764 0)
(2.553518771 0.2213736338 0)
(2.561115271 0.2199510193 0)
(2.572984406 0.2049665516 0)
(2.592643782 0.1689291683 0)
(2.601862683 0.1454403032 0)
(2.608977332 0.141248529 0)
(2.619206579 0.1339401127 0)
(2.6341249 0.1066290233 0)
(2.643255139 0.07804519453 0)
(2.648029729 0.07707110816 0)
(2.658286758 0.0531179479 0)
(2.647243766 0.003156495279 0)
(2.438107112 -0.3209755284 0)
(2.158600642 -0.6049931353 0)
(2.08078538 -0.6836689745 0)
(2.094165426 -0.69364331 0)
(2.116773729 -0.7007052829 0)
(2.139139583 -0.7070611736 0)
(2.159722018 -0.7127355085 0)
(2.179316275 -0.717089919 0)
(2.19868972 -0.7201912355 0)
(2.218022347 -0.7223305633 0)
(2.237196966 -0.7237062582 0)
(2.25577738 -0.7248852244 0)
(2.273511099 -0.7261405692 0)
(2.290173809 -0.7275733914 0)
(2.305955152 -0.7285977916 0)
(2.320972554 -0.7289848924 0)
(2.335504757 -0.728740324 0)
(2.349730505 -0.7282747369 0)
(2.443062133 0.3989656451 0)
(2.455881592 0.3802920615 0)
(2.475493243 0.3483816372 0)
(2.490545987 0.3233961585 0)
(2.500699664 0.3161214648 0)
(2.516363835 0.2970438326 0)
(2.537076017 0.2600846977 0)
(2.548589191 0.237903756 0)
(2.555707057 0.2367403461 0)
(2.569307343 0.2197616798 0)
(2.588565868 0.1841915333 0)
(2.596943184 0.162080333 0)
(2.606058896 0.1566460503 0)
(2.613600218 0.1504630202 0)
(2.630593594 0.1194697804 0)
(2.641297602 0.09656359526 0)
(2.640643723 0.09294354074 0)
(2.650519829 0.05858492811 0)
(2.592180428 -0.07739935697 0)
(2.237938673 -0.5292020151 0)
(2.072114788 -0.6642099896 0)
(2.077914184 -0.6824222239 0)
(2.100808316 -0.6826451347 0)
(2.124269437 -0.6832933646 0)
(2.145995248 -0.6883593638 0)
(2.166044747 -0.694764341 0)
(2.184848787 -0.7000506 0)
(2.203174784 -0.7034759162 0)
(2.22139353 -0.7053257458 0)
(2.23965851 -0.7062479186 0)
(2.25774085 -0.7071300161 0)
(2.275420357 -0.7081028309 0)
(2.292333178 -0.7090878156 0)
(2.308531704 -0.7095436781 0)
(2.324041699 -0.7095250143 0)
(2.339089655 -0.7092799902 0)
(2.353842713 -0.7091938037 0)
(2.437404735 0.4160122956 0)
(2.452778145 0.395027451 0)
(2.472445025 0.3634169606 0)
(2.486910399 0.3393837271 0)
(2.496404495 0.3320137488 0)
(2.51213274 0.3117557998 0)
(2.53244134 0.2745310362 0)
(2.543713732 0.2546037013 0)
(2.550693177 0.2527561991 0)
(2.565714393 0.2343892309 0)
(2.583795873 0.2001093622 0)
(2.592639252 0.1765535888 0)
(2.600894853 0.1757420737 0)
(2.610388788 0.1633411534 0)
(2.627840246 0.1309009713 0)
(2.632087125 0.1234579845 0)
(2.640026823 0.09516520923 0)
(2.627585462 0.04022431938 0)
(2.398675012 -0.3086885423 0)
(2.150616958 -0.5767794144 0)
(2.070411047 -0.6464962116 0)
(2.085563957 -0.6546245958 0)
(2.109169032 -0.6600986796 0)
(2.131603417 -0.667536711 0)
(2.152224576 -0.6750369934 0)
(2.171252729 -0.6806292189 0)
(2.188988722 -0.6846170731 0)
(2.206344969 -0.6874938175 0)
(2.223941221 -0.689638801 0)
(2.24198941 -0.6910971088 0)
(2.260192584 -0.6922771934 0)
(2.278320988 -0.6933162153 0)
(2.296022794 -0.6944514808 0)
(2.313301832 -0.6952550195 0)
(2.330009223 -0.6956668928 0)
(2.346134169 -0.6957649274 0)
(2.361731755 -0.6958575762 0)
(2.432873502 0.4277786275 0)
(2.448098927 0.4098247005 0)
(2.468666533 0.3787576718 0)
(2.483149509 0.3556999899 0)
(2.492281867 0.3481167088 0)
(2.508539612 0.3260485227 0)
(2.528207837 0.2890038837 0)
(2.538930719 0.271089973 0)
(2.546463004 0.2681741129 0)
(2.561621365 0.2494844241 0)
(2.579177095 0.2144487826 0)
(2.588889135 0.1922139227 0)
(2.594294484 0.1930778864 0)
(2.608368162 0.1745421233 0)
(2.625888272 0.149757642 0)
(2.625420032 0.1386931622 0)
(2.630809714 0.1004088037 0)
(2.561551234 -0.05518647522 0)
(2.207333736 -0.5100854153 0)
(2.064222668 -0.630680205 0)
(2.066164596 -0.6429110871 0)
(2.09038171 -0.6439966796 0)
(2.114293352 -0.645294293 0)
(2.135135529 -0.6496169308 0)
(2.155092964 -0.6554278833 0)
(2.174240685 -0.6612309141 0)
(2.192361498 -0.6663535229 0)
(2.209959017 -0.6702712367 0)
(2.227556467 -0.6728972964 0)
(2.245530403 -0.6743790972 0)
(2.263824895 -0.6754280755 0)
(2.282358689 -0.6762778026 0)
(2.300758833 -0.6771355289 0)
(2.318943219 -0.6775655845 0)
(2.336657569 -0.6775927953 0)
(2.35375973 -0.6774638718 0)
(2.370225251 -0.6775421303 0)
(2.426628822 0.4445146435 0)
(2.443525595 0.4237225697 0)
(2.464259817 0.3933507191 0)
(2.479045084 0.37166293 0)
(2.488070106 0.3637910918 0)
(2.505407301 0.3398157308 0)
(2.524272331 0.3036040497 0)
(2.534363877 0.2871264222 0)
(2.542856735 0.283453246 0)
(2.557057051 0.2646679149 0)
(2.575049988 0.2274369226 0)
(2.584651716 0.2104412735 0)
(2.588585077 0.2074426699 0)
(2.607211152 0.1842326918 0)
(2.61594239 0.1757239551 0)
(2.622500249 0.1413173392 0)
(2.60849514 0.07703155203 0)
(2.348372111 -0.3006588592 0)
(2.124820853 -0.5462202129 0)
(2.055374638 -0.6098993625 0)
(2.068969413 -0.6177881033 0)
(2.093409182 -0.6217165688 0)
(2.11662539 -0.6276745522 0)
(2.138520924 -0.6355242391 0)
(2.159787073 -0.6422768603 0)
(2.179960857 -0.6473922059 0)
(2.198742947 -0.6513137597 0)
(2.216703301 -0.654442567 0)
(2.234500183 -0.6570703059 0)
(2.252638619 -0.6590953717 0)
(2.271159558 -0.660752032 0)
(2.290050045 -0.6619954018 0)
(2.308973533 -0.6631245156 0)
(2.327849851 -0.6638456997 0)
(2.346372195 -0.6641869852 0)
(2.364253966 -0.6643377513 0)
(2.381356074 -0.6645552084 0)
(2.423316139 0.4561584692 0)
(2.439016703 0.4374628853 0)
(2.459843689 0.4075878197 0)
(2.474447948 0.3874940516 0)
(2.48364897 0.3787565307 0)
(2.502134297 0.3534228364 0)
(2.520203401 0.3183754258 0)
(2.530339752 0.3024110238 0)
(2.538170901 0.3000028014 0)
(2.554146965 0.2776079615 0)
(2.571359282 0.2415497983 0)
(2.578327638 0.229676087 0)
(2.586306279 0.2178935535 0)
(2.604443908 0.2034614755 0)
(2.610384315 0.1894315142 0)
(2.609363628 0.1427870772 0)
(2.530748369 -0.03744021385 0)
(2.164801832 -0.4851678365 0)
(2.041724058 -0.5960160879 0)
(2.047476727 -0.6047906406 0)
(2.072250014 -0.6054529864 0)
(2.097378821 -0.6102056932 0)
(2.120613426 -0.6162988398 0)
(2.14310626 -0.6208677354 0)
(2.1649841 -0.6249533375 0)
(2.186203853 -0.6291642568 0)
(2.206431133 -0.6336401457 0)
(2.225663358 -0.6377715971 0)
(2.244191418 -0.6410914016 0)
(2.262567098 -0.6433338035 0)
(2.28109367 -0.6449146736 0)
(2.299982352 -0.6459429297 0)
(2.318973766 -0.6467657705 0)
(2.337970048 -0.6471025791 0)
(2.356646153 -0.6470125232 0)
(2.37467341 -0.6468198923 0)
(2.391892882 -0.6468408905 0)
(2.417337334 0.4713171202 0)
(2.433777393 0.4519859517 0)
(2.454905327 0.4216572932 0)
(2.46907434 0.4031522475 0)
(2.479218414 0.393036097 0)
(2.498481605 0.3670881555 0)
(2.51590619 0.3328947729 0)
(2.526854713 0.3175994494 0)
(2.533069087 0.3156480397 0)
(2.55192352 0.2899470551 0)
(2.568241164 0.2578011182 0)
(2.572158547 0.2457954978 0)
(2.585047011 0.2286838571 0)
(2.596174997 0.2273388426 0)
(2.605039648 0.189664478 0)
(2.58603952 0.1118733193 0)
(2.289451503 -0.3019491792 0)
(2.086859945 -0.5161960457 0)
(2.041083082 -0.5771392468 0)
(2.055265665 -0.5831527675 0)
(2.079535787 -0.5872548484 0)
(2.103163831 -0.5930294951 0)
(2.126459299 -0.5991212599 0)
(2.149879296 -0.6054176348 0)
(2.173033938 -0.6111607481 0)
(2.195452028 -0.6156697154 0)
(2.216644805 -0.6191470466 0)
(2.236583146 -0.6219770236 0)
(2.255632119 -0.6246320285 0)
(2.2744018 -0.6270949206 0)
(2.293191466 -0.6294355529 0)
(2.312175911 -0.6312672017 0)
(2.331097137 -0.6327139568 0)
(2.349890161 -0.6334925648 0)
(2.368315147 -0.633672841 0)
(2.386073941 -0.6336120559 0)
(2.403013345 -0.6335863924 0)
(2.41327482 0.4853571539 0)
(2.429534959 0.464759613 0)
(2.450283629 0.4350686475 0)
(2.463976747 0.4176992755 0)
(2.475286864 0.406665806 0)
(2.494468839 0.380793768 0)
(2.511910692 0.3463345012 0)
(2.522534847 0.3345899114 0)
(2.529022817 0.3295632486 0)
(2.550080325 0.302116941 0)
(2.562162108 0.2774101106 0)
(2.569584742 0.2560104795 0)
(2.581478367 0.2485711881 0)
(2.595469429 0.2384229422 0)
(2.587744339 0.186511609 0)
(2.487224362 -0.03171987532 0)
(2.127091938 -0.4487875999 0)
(2.025381543 -0.5576838075 0)
(2.041501047 -0.5645193703 0)
(2.066919326 -0.5682531495 0)
(2.091833078 -0.5757733577 0)
(2.115050823 -0.5836176946 0)
(2.137620292 -0.5893863214 0)
(2.160140194 -0.5930581724 0)
(2.182584171 -0.5958367318 0)
(2.204946079 -0.5988248483 0)
(2.226884901 -0.6024807039 0)
(2.247961038 -0.6062358677 0)
(2.267972043 -0.6095894072 0)
(2.287215837 -0.6121683495 0)
(2.30600328 -0.6141598508 0)
(2.32466346 -0.6154396604 0)
(2.343072789 -0.6163485819 0)
(2.361223864 -0.6167086032 0)
(2.378938453 -0.6165639633 0)
(2.395964734 -0.6162736022 0)
(2.412200097 -0.6160680441 0)
(2.410249966 0.4974889637 0)
(2.426356581 0.4776418587 0)
(2.446229693 0.4487093798 0)
(2.459262206 0.4320741956 0)
(2.471077738 0.4209111529 0)
(2.490464111 0.3941643774 0)
(2.508039254 0.3602459185 0)
(2.517398685 0.3511331708 0)
(2.52665745 0.3423211945 0)
(2.546818415 0.3174058204 0)
(2.557431879 0.2909499576 0)
(2.567779485 0.2686199152 0)
(2.573176015 0.2715185235 0)
(2.590732013 0.2349655166 0)
(2.563316404 0.143946281 0)
(2.228260178 -0.306793342 0)
(2.044225396 -0.5005998358 0)
(2.033759203 -0.5490747529 0)
(2.05499474 -0.5519535974 0)
(2.080208438 -0.5541062446 0)
(2.104112692 -0.5585109872 0)
(2.127126124 -0.5645575613 0)
(2.149471049 -0.5711194146 0)
(2.171633477 -0.5768248896 0)
(2.193967955 -0.5815121178 0)
(2.216390535 -0.5854502648 0)
(2.238426351 -0.5887330421 0)
(2.259626884 -0.5912625719 0)
(2.279782605 -0.5934563994 0)
(2.299162119 -0.5955500799 0)
(2.31801601 -0.5977545142 0)
(2.336576961 -0.5996031507 0)
(2.354660508 -0.6011241341 0)
(2.372230639 -0.601974455 0)
(2.389178484 -0.6021086228 0)
(2.405342731 -0.6019075471 0)
(2.420719012 -0.6016145326 0)
(2.404187045 0.5136925195 0)
(2.422858644 0.4904585727 0)
(2.442184803 0.4624437871 0)
(2.455507502 0.4459653581 0)
(2.466574435 0.4352480973 0)
(2.48729872 0.4063739955 0)
(2.504107489 0.3751172005 0)
(2.511635172 0.3670017375 0)
(2.525532903 0.3541623348 0)
(2.540250159 0.3343394454 0)
(2.554613522 0.3017714039 0)
(2.564767224 0.2892197888 0)
(2.574588899 0.2785475195 0)
(2.56966861 0.2277746449 0)
(2.430674269 -0.04354173735 0)
(2.092075046 -0.412386226 0)
(2.02097058 -0.5130656542 0)
(2.039698725 -0.5247950761 0)
(2.066712313 -0.5303973929 0)
(2.092817294 -0.5374724414 0)
(2.117657834 -0.5457831441 0)
(2.141600514 -0.55397038 0)
(2.164266286 -0.5612238639 0)
(2.185828203 -0.5663296921 0)