/*--------------------------------*- C++ -*----------------------------------*\
  =========                 |
  \\      /  F ield         | OpenFOAM: The Open Source CFD Toolbox
   \\    /   O peration     | Website:  https://openfoam.org
    \\  /    A nd           | Version:  7
     \\/     M anipulation  |
\*---------------------------------------------------------------------------*/
FoamFile
{
    version     2.0;
    format      ascii;
    class       volScalarField;
    location    "3.1";
    object      p;
}
// * * * * * * * * * * * * * * * * * * * * * * * * * * * * * * * * * * * * * //

dimensions      [1 -1 -2 0 0 0 0];

internalField   nonuniform List<scalar> 
555
(
1
1
1
1
1
1
1
1
1
1
1
1
1
1
1
1
1
1
1
1
1
1
1
1
1
1
1
1
1
1
1
1
1
1
1
1
1
1
1
1
1
1
1
1
0.9999999998
1
1
1
1
1
1
1
1
1
1
1
1
1
1
1
1
1
1
1
1
1
1
1
1
1
1
1
1
1
1
1
1
0.9999999948
1
1
1
1
1
1
1
1
1
1
1
1
1
1
1
1
1
1
1
1
1
1
1
1
1
1
1
1
1
1.000000001
1.000000006
1.000000281
0.9999999755
1
1
1
1
1
1
1
1
1
1
1
1
1
1
1
1
1
1
1
1
1
1
1
1
1
1.000000002
1.000000012
1.000000077
1.000000439
1.00000204
1.000008302
1.00005694
1.000020884
1
1
1
1
1
1
1
1
1
1
1
1
1
1
1
1
1
1
1
1
1
1.000000003
1.00000002
1.000000124
1.000000662
1.000002953
1.000012565
1.000043591
1.000150374
1.000416839
1.001158669
1.002850524
1.004798809
1
1
1
1
1
1
1
1
1
1
1
1
1
1
1
1
1.000000001
1.000000005
1.000000035
1.000000203
1.00000104
1.000004511
1.000018
1.000061738
1.000200926
1.000551754
1.001487486
1.003370214
1.007529363
1.014432521
1.027274788
1.044775225
1.066970424
1
1
1
1
1
1
1
1
1
1
1
1
1.000000001
1.00000001
1.000000063
1.000000342
1.000001674
1.000007052
1.000026922
1.00008971
1.000278618
1.000751288
1.001921307
1.004286283
1.009286145
1.017470863
1.031470442
1.051145672
1.081088386
1.115817945
1.156829837
1.202245717
1.245390965
1
1
1
1
1
1
1
1
1.000000003
1.000000021
1.000000124
1.000000626
1.000002806
1.000011247
1.000040638
1.000130501
1.00039098
1.001030029
1.002541434
1.005635009
1.011427552
1.021403958
1.037539091
1.059196636
1.091123287
1.130960849
1.171090615
1.21433419
1.261944419
1.30895803
1.347236956
1.378613818
1.392141993
1
1
1
1.000000001
1.000000008
1.000000048
1.000000254
1.000001199
1.000005006
1.00001877
1.00006488
1.000200918
1.000558247
1.001452213
1.003392428
1.007205181
1.01451291
1.025983565
1.044542656
1.071299391
1.102728627
1.142818635
1.189421693
1.236949394
1.283138905
1.324041725
1.355724841
1.394612833
1.421659797
1.440184966
1.452173794
1.459034239
1.464262407
1.000000024
1.000000126
1.000000583
1.000002481
1.000009614
1.000033613
1.000106903
1.000315119
1.000829778
1.00203608
1.004648449
1.009489362
1.018282159
1.032699257
1.052957223
1.083040701
1.119909499
1.157449891
1.205800932
1.256290298
1.298603902
1.340332568
1.368739832
1.392118452
1.41977241
1.434055877
1.440591216
1.448562499
1.450341156
1.451599689
1.456728334
1.4643872
1.467864917
1.000019752
1.000063355
1.000184689
1.000508293
1.001304263
1.002963924
1.006425
1.012880533
1.02304207
1.040536601
1.06472093
1.094602872
1.136633477
1.181846491
1.227964623
1.276988059
1.317264416
1.357542641
1.398462208
1.420091713
1.438860635
1.458258137
1.465346457
1.470687102
1.478389856
1.479932828
1.479427171
1.477794169
1.474915609
1.470426513
1.466304525
1.464494642
1.464248612
1.002040903
1.004450893
1.008900812
1.017313098
1.030320097
1.049379931
1.079157041
1.112345708
1.152024753
1.204708183
1.250046043
1.294933985
1.337123836
1.366973324
1.400405473
1.4274653
1.434854571
1.444724405
1.453353312
1.454603867
1.458199181
1.465616412
1.470710438
1.472326864
1.475907061
1.479473602
1.479538991
1.478095225
1.475560105
1.473662832
1.471608197
1.469223606
1.466420752
1.040065123
1.062106673
1.092580247
1.133808133
1.17477985
1.223714482
1.274876789
1.317420137
1.365844395
1.399559754
1.423155006
1.449567288
1.467709661
1.473227116
1.48173908
1.487972562
1.487748218
1.486458691
1.484982371
1.482716783
1.478972781
1.474804533
1.47034274
1.466241352
1.46419631
1.463691359
1.463191236
1.462201093
1.460381862
1.458184807
1.456195125
1.454930593
1.453178927
1.199202387
1.242931511
1.292283853
1.331216096
1.364762414
1.407121303
1.424463049
1.437653257
1.453165521
1.459556839
1.464589066
1.470563781
1.474599562
1.477593071
1.481327677
1.487033528
1.488096721
1.487024059
1.485221211
1.48261537
1.479675183
1.476945297
1.47311577
1.467558651
1.460734399
1.45562129
1.452926647
1.451145725
1.449297389
1.447974254
1.448251776
1.448208052
1.447982532
1.40635102
1.431648681
1.458385432
1.469030804
1.479480297
1.489493131
1.490188384
1.490407232
1.491139821
1.490331296
1.488619238
1.486040579
1.482742025
1.477138273
1.469194561
1.465274734
1.46519288
1.464789535
1.463141458
1.460478162
1.457611516
1.456085634
1.45411707
1.451232974
1.446976176
1.445245044
1.44485318
1.444149172
1.443199553
1.443233377
1.443883317
1.444924968
1.446689741
1.446769077
1.46733776
1.485874353
1.49203941
1.493469119
1.491811689
1.49090582
1.488672637
1.483750436
1.478841474
1.476452232
1.473835032
1.469433909
1.462652873
1.456211376
1.454691671
1.453509956
1.451412825
1.449462198
1.449178968
1.449893608
1.450414448
1.449745809
1.44918364
1.449228174
1.449677799
1.449823808
1.449673643
1.449442811
1.449234764
1.449452983
1.449510966
1.449785258
1.436024847
1.436777917
1.438634418
1.440274363
1.441339647
1.442619716
1.445042645
1.448392255
1.451247071
1.453279137
1.454783237
1.45603535
1.457063905
1.457172463
1.456770265
)
;

boundaryField
{
    inlet
    {
        type            fixedValue;
        value           nonuniform 0();
    }
    outlet
    {
        type            zeroGradient;
    }
    bottom
    {
        type            slip;
    }
    top
    {
        type            slip;
    }
    obstacle
    {
        type            zeroGradient;
    }
    defaultFaces
    {
        type            empty;
    }
    procBoundary14to7
    {
        type            processor;
        value           nonuniform List<scalar> 2(1 1);
    }
    procBoundary14to8
    {
        type            processor;
        value           nonuniform List<scalar> 
35
(
1
1
1
1
1
1
1
1
1
1
1
1
1
1
1
1
1
1
1
1
1
1
1
1
1
1
1
1
1
1
1
1
1
1
1
)
;
    }
    procBoundary14to9
    {
        type            processor;
        value           nonuniform List<scalar> 
17
(
1.000000018
1.000002113
1.000123931
1.003412747
1.039394644
1.184922809
1.372975269
1.445721606
1.473713379
1.4730192
1.4617379
1.455279329
1.448700064
1.446237059
1.441807106
1.38310524
1.091030882
)
;
    }
    procBoundary14to13
    {
        type            processor;
        value           nonuniform List<scalar> 
16
(
1
1
1
1
1
1
1
1
1
1.000000004
1.000005815
1.00086851
1.022970219
1.150561671
1.370831487
1.433271439
)
;
    }
    procBoundary14to20
    {
        type            processor;
        value           nonuniform List<scalar> 
19
(
1.55159059
1.532365231
1.520434393
1.508455313
1.490527461
1.477899999
1.472154552
1.466862397
1.458991076
1.454548779
1.452807786
1.450772293
1.447029864
1.441869912
1.440586394
1.44012833
1.438164719
1.436171055
1.436171055
)
;
    }
}


// ************************************************************************* //
