/*--------------------------------*- C++ -*----------------------------------*\
  =========                 |
  \\      /  F ield         | OpenFOAM: The Open Source CFD Toolbox
   \\    /   O peration     | Website:  https://openfoam.org
    \\  /    A nd           | Version:  7
     \\/     M anipulation  |
\*---------------------------------------------------------------------------*/
FoamFile
{
    version     2.0;
    format      ascii;
    class       volScalarField;
    location    "3.1";
    object      rho;
}
// * * * * * * * * * * * * * * * * * * * * * * * * * * * * * * * * * * * * * //

dimensions      [1 -3 0 0 0 0 0];

internalField   nonuniform List<scalar> 
555
(
1.40000504
1.40000504
1.40000504
1.40000504
1.40000504
1.40000504
1.40000504
1.40000504
1.40000504
1.40000504
1.40000504
1.40000504
1.40000504
1.40000504
1.40000504
1.40000504
1.40000504
1.40000504
1.40000504
1.40000504
1.40000504
1.40000504
1.40000504
1.40000504
1.40000504
1.40000504
1.40000504
1.40000504
1.40000504
1.40000504
1.40000504
1.40000504
1.40000504
1.40000504
1.40000504
1.40000504
1.40000504
1.40000504
1.40000504
1.40000504
1.40000504
1.40000504
1.40000504
1.40000504
1.40000504
1.40000504
1.40000504
1.40000504
1.40000504
1.40000504
1.40000504
1.40000504
1.40000504
1.40000504
1.40000504
1.40000504
1.40000504
1.40000504
1.40000504
1.40000504
1.40000504
1.40000504
1.40000504
1.40000504
1.40000504
1.40000504
1.40000504
1.40000504
1.40000504
1.40000504
1.40000504
1.40000504
1.40000504
1.40000504
1.40000504
1.40000504
1.400005041
1.400005035
1.40000504
1.40000504
1.40000504
1.40000504
1.40000504
1.40000504
1.40000504
1.40000504
1.40000504
1.40000504
1.40000504
1.40000504
1.40000504
1.40000504
1.40000504
1.40000504
1.40000504
1.40000504
1.40000504
1.40000504
1.40000504
1.40000504
1.40000504
1.40000504
1.40000504
1.40000504
1.40000504
1.40000504
1.40000504
1.400005041
1.400005046
1.400005322
1.400005011
1.40000504
1.40000504
1.40000504
1.40000504
1.40000504
1.40000504
1.40000504
1.40000504
1.40000504
1.40000504
1.40000504
1.40000504
1.40000504
1.40000504
1.40000504
1.40000504
1.40000504
1.40000504
1.40000504
1.40000504
1.40000504
1.40000504
1.40000504
1.40000504
1.40000504
1.400005042
1.400005053
1.400005118
1.40000548
1.400007082
1.400013346
1.400061946
1.400026266
1.40000504
1.40000504
1.40000504
1.40000504
1.40000504
1.40000504
1.40000504
1.40000504
1.40000504
1.40000504
1.40000504
1.40000504
1.40000504
1.40000504
1.40000504
1.40000504
1.40000504
1.40000504
1.40000504
1.40000504
1.400005041
1.400005043
1.400005061
1.400005164
1.400005704
1.400007996
1.400017608
1.400048599
1.400155149
1.400420647
1.401158604
1.402839253
1.404766988
1.40000504
1.40000504
1.40000504
1.40000504
1.40000504
1.40000504
1.40000504
1.40000504
1.40000504
1.40000504
1.40000504
1.40000504
1.40000504
1.40000504
1.40000504
1.40000504
1.400005041
1.400005045
1.400005075
1.400005243
1.400006082
1.400009554
1.40002304
1.40006672
1.400205526
1.400554876
1.40148533
1.403353489
1.407469148
1.414282629
1.426898049
1.444023193
1.465534495
1.40000504
1.40000504
1.40000504
1.40000504
1.40000504
1.40000504
1.40000504
1.40000504
1.40000504
1.40000504
1.40000504
1.40000504
1.400005041
1.40000505
1.400005104
1.400005383
1.400006716
1.400012095
1.400031952
1.400094633
1.400282977
1.400753348
1.401915691
1.404260917
1.40920334
1.417263924
1.431004038
1.450232129
1.479220603
1.512647807
1.551695526
1.594610649
1.635086879
1.40000504
1.40000504
1.40000504
1.40000504
1.40000504
1.40000504
1.40000504
1.400005041
1.400005043
1.400005061
1.400005164
1.400005667
1.400007849
1.40001629
1.400045653
1.400135311
1.40039482
1.401030585
1.402531005
1.405593787
1.411316758
1.42113519
1.436923173
1.458029209
1.488879924
1.527019107
1.565208101
1.606133255
1.650493255
1.693756441
1.728751001
1.757557051
1.770082827
1.40000504
1.40000504
1.40000504
1.400005041
1.400005048
1.400005088
1.400005295
1.400006241
1.400010051
1.400023811
1.400069861
1.400205533
1.400561253
1.401449717
1.403374517
1.407144971
1.414350138
1.425631162
1.443769625
1.469696101
1.500008775
1.538388788
1.5824476
1.62715461
1.670162304
1.707835264
1.736688719
1.771932718
1.7963323
1.813011969
1.823736896
1.829861037
1.834479983
1.400005065
1.400005167
1.400005624
1.400007525
1.40001466
1.400038642
1.400111784
1.400319321
1.40083155
1.402029137
1.404617627
1.409403584
1.418057216
1.432184666
1.45194115
1.481032564
1.516410428
1.552267493
1.597913844
1.644894554
1.68406569
1.722582993
1.748610044
1.769859953
1.794716095
1.807441078
1.813323314
1.820578451
1.8222179
1.823319018
1.827830862
1.834567639
1.837608233
1.400024795
1.400068356
1.400189408
1.400511663
1.401303155
1.40294971
1.406373036
1.412744261
1.422738193
1.439820906
1.463305081
1.49219017
1.532378275
1.575216608
1.618635619
1.664235002
1.701289104
1.73809435
1.775302332
1.794806698
1.811623324
1.828890225
1.835161474
1.83990448
1.846765233
1.848159052
1.847716868
1.846285156
1.843740458
1.839741728
1.836052489
1.834389513
1.83418622
1.40203421
1.404423767
1.408821795
1.417100307
1.429857592
1.448447102
1.477243425
1.509137235
1.54698696
1.596563755
1.638891445
1.680687088
1.719506727
1.746713855
1.776892025
1.801229506
1.807944409
1.81693617
1.824741144
1.825782072
1.828898847
1.835408903
1.839941515
1.841401095
1.844613485
1.84773173
1.847762734
1.846455745
1.844201195
1.842535615
1.840719814
1.838577869
1.836066492
1.439353594
1.460772425
1.490171554
1.529547035
1.568468453
1.614555368
1.662069917
1.701183969
1.745498286
1.77605275
1.797345032
1.820982033
1.837085897
1.841958254
1.849441643
1.855105748
1.854965191
1.853876483
1.852569521
1.850516363
1.847133763
1.843406608
1.839457262
1.835904033
1.834097695
1.833596749
1.83312628
1.832229476
1.830612357
1.828677313
1.826915077
1.825772753
1.824186727
1.591275896
1.632107147
1.677968909
1.713885663
1.744633038
1.783125878
1.798740251
1.810595505
1.824514278
1.830232777
1.834722445
1.840013442
1.843532921
1.846154815
1.849399425
1.854501676
1.855458486
1.854500662
1.852883438
1.850536618
1.847904231
1.84547132
1.842058483
1.83712763
1.830999953
1.826371904
1.823914034
1.822290608
1.820625468
1.819423396
1.819650491
1.819585153
1.819349303
1.782726603
1.805253396
1.829071111
1.83864537
1.847965423
1.856794191
1.857216794
1.857316261
1.858007884
1.857321685
1.855821064
1.853520412
1.850554693
1.845500203
1.838379781
1.83489749
1.834811912
1.834439956
1.832940573
1.830532857
1.82795668
1.826592907
1.824827795
1.822246604
1.818397459
1.816778943
1.81641156
1.815768818
1.814919572
1.814926949
1.815481107
1.816400946
1.817959833
1.820717285
1.838470164
1.854292902
1.859433739
1.860267562
1.858590562
1.857513725
1.855337659
1.850876319
1.846491832
1.844362205
1.842017289
1.838058066
1.831930359
1.826127129
1.824774471
1.823730853
1.821879257
1.8200965
1.819799769
1.820419027
1.82088446
1.820285033
1.819763976
1.819825298
1.820247591
1.820387839
1.820258083
1.820069094
1.819903307
1.820100848
1.820154585
1.820401284
1.807634947
1.808304573
1.809963369
1.811450143
1.812422661
1.813570459
1.8157695
1.818797462
1.821349931
1.823174962
1.824542044
1.825702142
1.826625637
1.826746822
1.826391286
)
;

boundaryField
{
    inlet
    {
        type            calculated;
        value           nonuniform 0();
    }
    outlet
    {
        type            calculated;
        value           nonuniform 0();
    }
    bottom
    {
        type            calculated;
        value           nonuniform 0();
    }
    top
    {
        type            calculated;
        value           nonuniform 0();
    }
    obstacle
    {
        type            calculated;
        value           nonuniform List<scalar> 
15
(
1.807634947
1.808304573
1.809963369
1.811450143
1.812422661
1.813570459
1.8157695
1.818797462
1.821349931
1.823174962
1.824542044
1.825702142
1.826625637
1.826746822
1.826391286
)
;
    }
    defaultFaces
    {
        type            empty;
    }
    procBoundary14to7
    {
        type            processor;
        value           nonuniform List<scalar> 2(1.40000504 1.40000504);
    }
    procBoundary14to8
    {
        type            processor;
        value           nonuniform List<scalar> 
35
(
1.40000504
1.40000504
1.40000504
1.40000504
1.40000504
1.40000504
1.40000504
1.40000504
1.40000504
1.40000504
1.40000504
1.40000504
1.40000504
1.40000504
1.40000504
1.40000504
1.40000504
1.40000504
1.40000504
1.40000504
1.40000504
1.40000504
1.40000504
1.40000504
1.40000504
1.40000504
1.40000504
1.40000504
1.40000504
1.40000504
1.40000504
1.40000504
1.40000504
1.40000504
1.40000504
)
;
    }
    procBoundary14to9
    {
        type            processor;
        value           nonuniform List<scalar> 
17
(
1.400005059
1.400007154
1.400128897
1.403405638
1.43893225
1.57873859
1.752282805
1.818123273
1.842902205
1.842194486
1.831967653
1.826109234
1.820139711
1.817776612
1.813542431
1.757577079
1.455475417
)
;
    }
    procBoundary14to13
    {
        type            processor;
        value           nonuniform List<scalar> 
16
(
1.40000504
1.40000504
1.40000504
1.40000504
1.40000504
1.40000504
1.40000504
1.40000504
1.40000504
1.400005044
1.400010859
1.400869991
1.422659372
1.545545938
1.750864174
1.809176337
)
;
    }
    procBoundary14to20
    {
        type            processor;
        value           nonuniform List<scalar> 
19
(
1.908819207
1.892128093
1.881848235
1.871426678
1.855651391
1.844561464
1.839599644
1.834975771
1.82800818
1.824074297
1.822547348
1.820747334
1.817400842
1.812764327
1.811652641
1.811271186
1.809541189
1.807769973
1.807769973
)
;
    }
}


// ************************************************************************* //
