/*--------------------------------*- C++ -*----------------------------------*\
  =========                 |
  \\      /  F ield         | OpenFOAM: The Open Source CFD Toolbox
   \\    /   O peration     | Website:  https://openfoam.org
    \\  /    A nd           | Version:  7
     \\/     M anipulation  |
\*---------------------------------------------------------------------------*/
FoamFile
{
    version     2.0;
    format      ascii;
    class       volVectorField;
    location    "1";
    object      U;
}
// * * * * * * * * * * * * * * * * * * * * * * * * * * * * * * * * * * * * * //

dimensions      [0 1 -1 0 0 0 0];

internalField   nonuniform List<vector> 
2222
(
(3 1.364207484e-14 0)
(3 1.347376881e-14 0)
(3 1.497198592e-14 0)
(3 9.020195237e-15 0)
(3 5.735835925e-15 0)
(3 8.492069916e-16 0)
(3 1.565326799e-15 0)
(3 2.21134443e-15 0)
(3 -1.887846714e-15 0)
(3 -6.780857195e-15 0)
(3 -9.534874972e-15 0)
(3 -1.024841601e-14 0)
(3 -8.179276248e-15 0)
(3 -7.612305795e-15 0)
(3 -7.626887372e-15 0)
(3 -5.866413352e-15 0)
(3 -6.43913212e-15 0)
(3 -7.968324135e-15 0)
(3 -8.620763052e-15 0)
(3 -2.481009836e-15 0)
(3 -3.560772174e-15 0)
(3 -5.612083465e-15 0)
(3 -4.616467896e-15 0)
(3 -6.617194109e-15 0)
(3 -8.772701665e-15 0)
(3 -7.934437553e-15 0)
(3 -3.640339203e-15 0)
(3 -1.272261837e-15 0)
(3 -1.560741348e-15 0)
(3 -7.457656868e-15 0)
(3 -7.826492981e-15 0)
(3 -7.777994373e-15 0)
(3 -6.005660075e-15 0)
(3 -4.758288396e-16 0)
(3 -2.010515319e-15 0)
(3 -5.177184705e-15 0)
(3 -4.363178611e-15 0)
(3 -2.437373636e-15 0)
(3 -4.19760927e-15 0)
(3 -2.681119739e-15 0)
(3 -1.000483677e-15 0)
(3 -5.062090877e-16 0)
(3 6.895835614e-16 0)
(3 2.097325895e-15 0)
(3 2.921193993e-15 0)
(3 1.794730573e-15 0)
(3 1.977030281e-15 0)
(3 -5.810364585e-16 0)
(3 -5.246579312e-15 0)
(3 -1.049169775e-14 0)
(3 -9.698930149e-15 0)
(3 -9.443044563e-15 0)
(3 -1.06460925e-14 0)
(3 -8.562724757e-15 0)
(3 -4.563682682e-15 0)
(3 -3.101230418e-15 0)
(3 -3.99774354e-15 0)
(3 -2.254695166e-15 0)
(3 1.818233586e-15 0)
(3 5.458285385e-15 0)
(3 1.158556929e-14 0)
(3 1.340305368e-14 0)
(3 1.474818351e-14 0)
(3 1.476034482e-14 0)
(3 1.316147293e-14 0)
(3 1.085827176e-14 0)
(3 9.737633144e-15 0)
(3 6.246818668e-15 0)
(3 7.359377801e-15 0)
(3 3.722702204e-15 0)
(3 1.130710566e-15 0)
(3 7.772776201e-16 0)
(3 1.479278805e-15 0)
(3 2.295954865e-15 0)
(3 2.153281927e-16 0)
(3 -3.039208185e-15 0)
(3 -5.923717281e-15 0)
(3 -6.685563358e-15 0)
(3 -5.204380178e-15 0)
(3 -6.360963854e-15 0)
(3 -1.014032821e-14 0)
(3 -1.10602897e-14 0)
(3 -9.915929483e-15 0)
(3 -8.301568131e-15 0)
(3 -8.646322419e-15 0)
(3 -9.090610663e-15 0)
(3 -9.09511015e-15 0)
(3 -7.82971838e-15 0)
(3 -6.613540359e-15 0)
(3 -5.859596331e-15 0)
(3 -3.752671093e-15 0)
(3 -3.914600846e-15 0)
(3 1.806166044e-15 0)
(3 2.366475369e-15 0)
(3 5.158377169e-16 0)
(3 -6.576327347e-16 0)
(3 -2.311113855e-15 0)
(3 -4.051748547e-15 0)
(3 -2.377059124e-15 0)
(3 -2.96267887e-15 0)
(3 1.020004416e-16 0)
(3 2.638899581e-16 0)
(3 1.14732673e-15 0)
(3 2.681965885e-15 0)
(3 2.425806375e-15 0)
(3 3.490407301e-15 0)
(3 4.891561259e-15 0)
(3 5.890318282e-15 0)
(3 4.47572761e-15 0)
(3 4.065401908e-15 0)
(3 3.729362771e-15 0)
(3 2.590951957e-15 0)
(3 2.084310828e-15 0)
(3 1.921090732e-15 0)
(3 -5.139023111e-15 0)
(3 -4.726640879e-15 0)
(3 -6.581593227e-15 0)
(3 -4.570164332e-15 0)
(3 -4.153205651e-15 0)
(3 -6.611815685e-17 0)
(3 -2.978250316e-16 0)
(3 -2.228704263e-15 0)
(3 -2.373244102e-15 0)
(3 -2.171780566e-15 0)
(3 -1.411802295e-15 0)
(3 -2.113263824e-17 0)
(3 3.223514864e-15 0)
(3 7.945926637e-15 0)
(3 1.178659422e-14 0)
(3 1.400110501e-14 0)
(3 1.448949142e-14 0)
(3 1.346415473e-14 0)
(3 9.36273494e-15 0)
(3 2.531725654e-15 0)
(3 -4.343531036e-15 0)
(3 -5.329444365e-15 0)
(3 -5.081384424e-15 0)
(3 3.865995976e-16 0)
(3 1.928842798e-16 0)
(3 2.550670982e-15 0)
(3 2.622234733e-16 0)
(3 -8.521843041e-16 0)
(3 -2.40685788e-15 0)
(3 -4.472032874e-15 0)
(3 -3.976795848e-15 0)
(3 -4.313653202e-15 0)
(3 -9.315399543e-15 0)
(3 -9.085433355e-15 0)
(3 -6.294180832e-15 0)
(3 -7.824846553e-15 0)
(3 -1.046297766e-14 0)
(3 -1.105871147e-14 0)
(3 -8.801640534e-15 0)
(3 -9.872438008e-15 0)
(3 -4.625978011e-15 0)
(3 -1.068626622e-15 0)
(3 1.342974528e-15 0)
(3 5.867254665e-15 0)
(3 1.239538629e-14 0)
(3 1.257520593e-14 0)
(3 1.07084185e-14 0)
(3 3.568289588e-16 0)
(3 -2.980365386e-15 0)
(3 -2.987550752e-15 0)
(3 -4.937493542e-15 0)
(3 -4.686754595e-15 0)
(3 -5.96318803e-15 0)
(3 -8.43718935e-15 0)
(3 2.489188123e-16 0)
(3 8.939035975e-16 0)
(3 -3.330603046e-16 0)
(3 8.916002721e-16 0)
(3 3.949075506e-15 0)
(3 8.657426004e-15 0)
(3 8.422305779e-15 0)
(3 7.667898529e-15 0)
(3 2.765415115e-15 0)
(3 1.913797734e-15 0)
(3 -4.182483683e-16 0)
(3 -1.093286838e-15 0)
(3 -4.359000265e-15 0)
(3 -3.705122767e-15 0)
(3 -4.492428302e-15 0)
(3 1.838446516e-16 0)
(3 -1.101480293e-15 0)
(3 1.230006753e-15 0)
(3 3.462287332e-15 0)
(3 6.579698818e-15 0)
(3 7.592712317e-15 0)
(3 7.386579853e-15 0)
(3 4.201302278e-15 0)
(3 4.450623606e-15 0)
(3 6.491226404e-15 0)
(3 1.080909092e-14 0)
(3 1.050794087e-14 0)
(3 7.20340555e-15 0)
(3 8.606548273e-15 0)
(3 7.859307027e-15 0)
(3 3.680494447e-15 0)
(3 3.797007533e-15 0)
(3 1.304938038e-15 0)
(3 -5.369914932e-16 0)
(3 -3.441717064e-15 0)
(3 -8.799836959e-16 0)
(3 1.332667446e-16 0)
(3 -6.784036806e-16 0)
(3 6.968816798e-16 0)
(3 -5.43724226e-16 0)
(3 2.577472097e-15 0)
(3 6.322289889e-15 0)
(3 3.127913109e-15 0)
(3 -1.870555708e-15 0)
(3 -6.938378238e-15 0)
(3 -8.175959471e-15 0)
(3 -8.363132185e-15 0)
(3 -5.774988247e-15 0)
(3 -7.061368108e-15 0)
(3 -1.172475213e-14 0)
(3 -1.451958585e-14 0)
(3 -1.462533528e-14 0)
(3 -1.449682343e-14 0)
(3 -1.289516317e-14 0)
(3 -9.723464215e-15 0)
(3 -3.587201266e-15 0)
(3 1.668404166e-15 0)
(3 8.258272496e-15 0)
(3 8.160072886e-15 0)
(3 6.688659264e-15 0)
(3 4.541463802e-15 0)
(3 8.521250069e-16 0)
(3 1.563771648e-15 0)
(3 1.565401888e-15 0)
(3 -1.130792292e-15 0)
(3 -1.315113592e-15 0)
(3 -2.256024265e-15 0)
(3 -3.784463526e-15 0)
(3 -3.404417149e-15 0)
(3 -2.615123304e-15 0)
(3 -6.798896885e-16 0)
(3 -7.260810532e-16 0)
(3 6.064400508e-16 0)
(3 7.155209109e-16 0)
(3 2.58170621e-15 0)
(3 2.188956374e-15 0)
(3 6.146267288e-16 0)
(3 1.490705254e-15 0)
(3 5.231082886e-17 0)
(3 -7.540210609e-16 0)
(3 6.553382517e-16 0)
(3 8.121891646e-16 0)
(3 3.865681998e-16 0)
(3 2.399869697e-15 0)
(3 3.044705577e-15 0)
(3 -3.477037526e-16 0)
(3 -1.200051155e-15 0)
(3 1.901601233e-15 0)
(3 2.608228317e-15 0)
(3 3.606523071e-15 0)
(3 4.297775765e-15 0)
(3 6.517080417e-15 0)
(3 9.025681395e-15 0)
(3 7.862416435e-15 0)
(3 7.019589449e-15 0)
(3 5.64423782e-15 0)
(3 4.141119106e-15 0)
(3 2.655728797e-15 0)
(3 1.021016855e-15 0)
(3 1.052319246e-15 0)
(3 8.221414355e-16 0)
(3 9.010435886e-16 0)
(3 2.204685263e-16 0)
(3 -2.869578287e-15 0)
(3 -1.307960593e-15 0)
(3 5.761304178e-16 0)
(3 2.191589804e-15 0)
(3 2.863112619e-15 0)
(3 4.00853297e-15 0)
(3 6.34916237e-15 0)
(3 5.903620434e-15 0)
(3 4.212949586e-15 0)
(3 3.699212994e-15 0)
(3 -5.01812178e-17 0)
(3 -6.10720503e-15 0)
(3 -6.35770264e-15 0)
(3 -7.09570573e-15 0)
(3 -9.732268113e-15 0)
(3 -1.23198739e-14 0)
(3 -1.177410098e-14 0)
(3 -7.027095178e-15 0)
(3 -4.204351613e-15 0)
(3 -1.857795266e-15 0)
(3 -1.587539242e-15 0)
(3 7.907473836e-16 0)
(3 -4.205302158e-15 0)
(3 -2.387562268e-15 0)
(3 8.024448999e-15 0)
(3 7.891487248e-15 0)
(3 5.928951914e-15 0)
(3 4.910280853e-15 0)
(3 4.100686388e-15 0)
(3 2.181248551e-17 0)
(3 -1.41477261e-15 0)
(3 2.765884884e-16 0)
(3 5.11514499e-16 0)
(3 6.855345327e-16 0)
(3 2.129049235e-15 0)
(3 5.520790967e-16 0)
(3 -8.038367993e-16 0)
(3 -2.440351532e-15 0)
(3 -1.704247743e-15 0)
(3 2.273898589e-15 0)
(3 1.120372935e-15 0)
(3 3.470547523e-15 0)
(3 3.699273393e-15 0)
(3 4.325343916e-15 0)
(3 4.564286675e-15 0)
(3 5.900007288e-15 0)
(3 2.472164975e-15 0)
(3 2.313173908e-15 0)
(3 2.943680011e-15 0)
(3 3.205863837e-15 0)
(3 1.475522286e-15 0)
(3 1.987888735e-15 0)
(3 2.416490283e-15 0)
(3 5.299407381e-15 0)
(3 5.347523589e-15 0)
(3 2.621366135e-15 0)
(3 -1.297567429e-15 0)
(3 7.781524978e-16 0)
(3 6.033078394e-15 0)
(3 4.20786232e-15 0)
(3 5.024973637e-15 0)
(3 5.038151541e-15 0)
(3 2.458263828e-15 0)
(3 -4.21570062e-16 0)
(3 -3.942888435e-15 0)
(3 -3.20367562e-15 0)
(3 -3.678179646e-15 0)
(3 -3.103262947e-15 0)
(3 -2.647289019e-15 0)
(3 -1.574563051e-15 0)
(3 -5.461695205e-16 0)
(3 -2.484830425e-15 0)
(3 -1.715693956e-15 0)
(3 -1.074306454e-15 0)
(3 4.154371861e-15 0)
(3 8.592991298e-15 0)
(3 2.39433559e-15 0)
(3 -2.08191573e-15 0)
(3 -3.014286777e-15 0)
(3 -9.937938666e-15 0)
(3 -8.82316177e-15 0)
(3 -9.104004601e-15 0)
(3 -6.459635356e-15 0)
(3 1.667384254e-15 0)
(3 3.786849278e-16 0)
(3 -4.171158655e-16 0)
(3 -1.167857487e-15 0)
(3 -2.96351984e-15 0)
(3 -4.484005805e-15 0)
(3 -8.567338502e-15 0)
(3 -9.274018592e-15 0)
(3 -2.304049063e-15 0)
(3 3.214782319e-15 0)
(3 3.451048224e-16 0)
(3 -3.813349069e-15 0)
(3 -5.404825192e-15 0)
(3 -5.90892015e-15 0)
(3 -4.296984889e-15 0)
(3 1.1530924e-15 0)
(3 1.957053331e-15 0)
(3 2.342900364e-15 0)
(3 2.910768883e-15 0)
(3 -2.003566717e-15 0)
(3 -4.087030658e-15 0)
(3 4.044028987e-16 0)
(3 1.417251346e-15 0)
(3 1.966821239e-15 0)
(3 4.315202801e-15 0)
(3 4.106396381e-15 0)
(3 2.574710384e-15 0)
(3 1.389459724e-15 0)
(3 1.000300227e-16 0)
(3 -1.157075217e-15 0)
(3 1.336381151e-16 0)
(3 1.085326886e-15 0)
(3 -1.19324601e-15 0)
(3 1.284627375e-15 0)
(3 4.500779697e-15 0)
(3 1.952450796e-15 0)
(3 7.252663559e-16 0)
(3 2.473897329e-15 0)
(3 2.28489729e-15 0)
(3 7.19694108e-16 0)
(3 4.137734493e-16 0)
(3 2.385166164e-15 0)
(3 2.87537727e-15 0)
(3 3.098015129e-15 0)
(3 2.521373798e-15 0)
(3 1.689240358e-16 0)
(3 -2.116467309e-15 0)
(3 -5.361444861e-15 0)
(3 -4.473785891e-15 0)
(3 -5.928725853e-15 0)
(3 -4.749469999e-15 0)
(3 -3.450322042e-15 0)
(3 -6.178891815e-15 0)
(3 -5.299244402e-15 0)
(3 -3.392492166e-15 0)
(3 -2.963946575e-15 0)
(3 -1.262754945e-15 0)
(3 -6.592004243e-16 0)
(3 2.023571277e-15 0)
(3 4.751032739e-15 0)
(3 4.087611117e-15 0)
(3 1.37303418e-15 0)
(3 2.941547761e-15 0)
(3 2.420482082e-15 0)
(3 -2.018196127e-15 0)
(3 -3.952098008e-15 0)
(3 2.367532792e-15 0)
(3 7.303750227e-15 0)
(3 3.782601783e-15 0)
(3 -2.911300628e-15 0)
(3 -4.974509516e-15 0)
(3 -8.448160827e-15 0)
(3 -9.135597112e-15 0)
(3 -1.071958916e-14 0)
(3 -1.229962881e-14 0)
(3 -1.035087411e-14 0)
(3 -7.564522142e-16 0)
(3 8.818858526e-16 0)
(3 -7.82292532e-16 0)
(3 -1.232758257e-15 0)
(3 -4.824900215e-17 0)
(3 2.531363388e-16 0)
(3 -2.460085192e-16 0)
(3 -2.157164973e-15 0)
(3 -2.537984869e-15 0)
(3 -6.288735271e-15 0)
(3 -6.356843471e-15 0)
(3 -4.757208854e-15 0)
(3 -1.650387664e-15 0)
(3 -1.153915512e-15 0)
(3 -3.270376609e-15 0)
(3 -3.46993214e-15 0)
(3 -3.788483842e-15 0)
(3 -3.939341365e-15 0)
(3 -5.84382074e-15 0)
(3 -3.41796839e-15 0)
(3 -2.967716614e-15 0)
(3 -1.12008963e-15 0)
(3 1.20857941e-15 0)
(3 -8.734308651e-16 0)
(3 1.347866436e-15 0)
(3 3.404780186e-15 0)
(3 2.95578494e-15 0)
(3 1.430994445e-15 0)
(3 4.575324515e-16 0)
(3 8.925339157e-17 0)
(3 2.605299864e-15 0)
(3 6.83307438e-16 0)
(3 -1.701140098e-15 0)
(3 -5.87562635e-15 0)
(3 -5.42507496e-15 0)
(3 -5.323218166e-15 0)
(3 -4.710194175e-15 0)
(3 -6.722802785e-15 0)
(3 -9.047379984e-15 0)
(3 -3.90529261e-15 0)
(3 -5.918845701e-15 0)
(3 -7.296827645e-15 0)
(3 -9.406270463e-15 0)
(3 -9.554717803e-15 0)
(3 -8.752824519e-15 0)
(3 -6.445248059e-15 0)
(3 -2.181041987e-15 0)
(3 -2.064413023e-16 0)
(3 -4.479214417e-16 0)
(3 2.186279185e-15 0)
(3 3.600101659e-15 0)
(3 9.645966588e-15 0)
(3 1.256689797e-14 0)
(3 1.203313388e-14 0)
(3 1.536932326e-14 0)
(3 1.467082387e-14 0)
(3 1.37168826e-14 0)
(3 1.198408157e-14 0)
(3 1.046371304e-14 0)
(3 6.905225991e-15 0)
(3 4.609707337e-15 0)
(3 9.729493027e-16 0)
(3 -7.304178334e-15 0)
(3 -8.059771929e-15 0)
(3 -9.100544135e-15 0)
(3 -1.191745172e-14 0)
(3 -1.305350496e-14 0)
(3 -9.931856966e-15 0)
(3 6.579397133e-16 0)
(3 3.429535654e-16 0)
(3 -7.374551131e-16 0)
(3 9.505553073e-16 0)
(3 4.151108755e-15 0)
(3 -3.034832153e-16 0)
(3 -7.8684562e-16 0)
(3 -7.894057209e-15 0)
(3 -8.631419439e-15 0)
(3 -6.534173398e-15 0)
(3 -2.072196664e-15 0)
(3 -1.320497226e-15 0)
(3 2.321640929e-15 0)
(3 4.280684519e-15 0)
(3 4.182183713e-15 0)
(3 1.023482193e-15 0)
(3 -2.053813409e-15 0)
(3 -9.050289399e-16 0)
(3 1.278554582e-15 0)
(3 2.920827404e-15 0)
(3 6.487908808e-15 0)
(3 7.671758786e-15 0)
(3 1.138710758e-14 0)
(3 1.018725555e-14 0)
(3 9.435490856e-15 0)
(3 9.447976172e-15 0)
(3 6.627512113e-15 0)
(3 1.33296912e-15 0)
(3 6.682576788e-17 0)
(3 1.042330939e-16 0)
(3 -1.332019937e-15 0)
(3 -2.858556822e-15 0)
(3 -4.074778073e-15 0)
(3 -4.749574067e-15 0)
(3 -6.523699893e-15 0)
(3 -7.924239525e-15 0)
(3 -7.616120218e-15 0)
(3 -5.952349626e-15 0)
(3 -4.391127565e-15 0)
(3 -6.781551893e-15 0)
(3 -9.825235116e-15 0)
(3 -1.310970631e-14 0)
(3 -1.270041565e-14 0)
(3 -9.576220265e-15 0)
(3 -6.176185983e-15 0)
(3 -4.380788e-15 0)
(3 -3.539537344e-15 0)
(3 -4.491839967e-15 0)
(3 -3.483941052e-15 0)
(3 -4.451565621e-15 0)
(3 -3.552901288e-15 0)
(3 8.578825098e-15 0)
(3 1.258353741e-14 0)
(3 1.469015991e-14 0)
(3 1.590101631e-14 0)
(3 1.711593479e-14 0)
(3 1.489984805e-14 0)
(3 9.338486672e-15 0)
(3 3.888271677e-15 0)
(3 1.812330208e-15 0)
(3 -1.165716924e-15 0)
(3 1.03910368e-15 0)
(3 -3.443990324e-15 0)
(3 -6.380685029e-15 0)
(3 -7.494275678e-15 0)
(3 -7.653386773e-15 0)
(3 -6.204118919e-15 0)
(3 -1.02923796e-15 0)
(3 3.925559858e-15 0)
(3 3.68173185e-15 0)
(3 1.873063753e-15 0)
(3 7.652093983e-15 0)
(3 -9.570819126e-16 0)
(3 -8.578542137e-16 0)
(3 2.799613155e-16 0)
(3 2.076185796e-15 0)
(3 9.826920355e-16 0)
(3 4.757697806e-15 0)
(3 4.317640438e-15 0)
(3 4.181142807e-15 0)
(3 9.737653454e-15 0)
(3 8.015351714e-15 0)
(3 2.167091298e-15 0)
(3 2.318110961e-15 0)
(3 2.924659794e-15 0)
(3 1.350162675e-15 0)
(3 8.153149946e-16 0)
(3 3.469332784e-15 0)
(3 6.378470586e-15 0)
(3 1.061774253e-14 0)
(3 9.961399309e-15 0)
(3 6.729369833e-15 0)
(3 2.863909418e-15 0)
(3 1.941144003e-15 0)
(3 -1.92569788e-15 0)
(3 -1.619281317e-15 0)
(3 -3.818193149e-15 0)
(3 -4.737879992e-15 0)
(3 -3.74800775e-15 0)
(3 -3.118125291e-15 0)
(3 -1.250807267e-15 0)
(3 -3.752711747e-15 0)
(3 -7.630505438e-15 0)
(3 -7.868955783e-15 0)
(3 -7.796733845e-15 0)
(3 -8.361036036e-15 0)
(3 -1.026868083e-14 0)
(3 -1.442746803e-14 0)
(3 -1.323780348e-14 0)
(3 -6.835838702e-15 0)
(3 -4.310375079e-15 0)
(3 -1.956489692e-16 0)
(3 2.010963863e-15 0)
(3 1.90573936e-15 0)
(3 1.166239683e-15 0)
(3 -4.311327731e-16 0)
(3 -2.42467587e-15 0)
(3 -3.832279049e-15 0)
(3 -2.735312612e-15 0)
(3 1.087524043e-15 0)
(3 6.638800751e-15 0)
(3 1.073454439e-14 0)
(3 1.036595358e-14 0)
(3 8.911538072e-15 0)
(3 8.829048873e-15 0)
(3 1.011882524e-14 0)
(3 1.268453001e-14 0)
(3 1.265634456e-14 0)
(3 1.371571814e-14 0)
(3 9.243317396e-15 0)
(3 3.766304424e-15 0)
(3 2.14761456e-15 0)
(3 1.95078748e-15 0)
(3 9.579034771e-16 0)
(3 -9.529371497e-16 0)
(3 5.672462129e-15 0)
(3 1.102555489e-14 0)
(3 7.305216585e-15 0)
(3 5.995564575e-15 0)
(3 -1.065727381e-15 0)
(3 -7.821829311e-16 0)
(3 4.253124332e-15 0)
(3 5.646593711e-15 0)
(3 4.900183493e-15 0)
(3 8.944613104e-15 0)
(3 8.287562245e-15 0)
(3 4.489403859e-15 0)
(3 6.128394701e-15 0)
(3 3.480801221e-15 0)
(3 2.402892804e-15 0)
(3 7.740425751e-15 0)
(3 8.001491862e-15 0)
(3 6.380976402e-15 0)
(3 4.053773683e-15 0)
(3 3.076611931e-15 0)
(3 3.521463657e-15 0)
(3 2.113410849e-15 0)
(3 4.723363448e-15 0)
(3 4.762655526e-15 0)
(3 2.209442074e-15 0)
(3 1.893873515e-15 0)
(3 3.491234724e-16 0)
(3 -1.413385092e-15 0)
(3 -1.138610107e-15 0)
(3 -3.538573944e-16 0)
(3 -1.600292973e-15 0)
(3 -1.18155176e-15 0)
(3 -2.871961365e-16 0)
(3 -2.284164362e-15 0)
(3 -2.44966407e-15 0)
(3 -3.256347434e-15 0)
(3 -6.265930017e-15 0)
(3 -7.959342867e-15 0)
(3 -7.50060168e-15 0)
(3 -1.048590394e-14 0)
(3 -3.66816376e-15 0)
(3 -9.540528056e-16 0)
(3 -1.366249537e-15 0)
(3 -2.453049026e-15 0)
(3 2.410733056e-15 0)
(3 2.568788427e-15 0)
(3 2.495306915e-15 0)
(3 2.521985846e-16 0)
(3 1.095859994e-15 0)
(3 1.714930326e-15 0)
(3 1.494357228e-15 0)
(3 2.010404383e-15 0)
(3 6.783157457e-15 0)
(3 8.220744977e-15 0)
(3 6.435204257e-15 0)
(3 6.897766314e-15 0)
(3 6.801393599e-15 0)
(3 8.022119607e-15 0)
(3 9.044070035e-15 0)
(3 9.459049795e-15 0)
(3 1.03226959e-14 0)
(3 5.699683475e-15 0)
(3 5.376372914e-15 0)
(3 7.78306922e-15 0)
(3 7.92849269e-15 0)
(3 4.398853548e-15 0)
(3 -6.95356131e-16 0)
(3 1.815931738e-15 0)
(3 6.654320068e-15 0)
(3 1.122483585e-14 0)
(3 7.986461461e-15 0)
(3 1.972458867e-15 0)
(3 2.798565929e-15 0)
(3 9.196619323e-16 0)
(3 -4.154679272e-16 0)
(3 7.242764275e-15 0)
(3 4.532717808e-15 0)
(3 4.886818863e-15 0)
(3 2.179369152e-15 0)
(3 4.404300674e-16 0)
(3 2.208612906e-15 0)
(3 5.763203398e-15 0)
(3 6.254112199e-15 0)
(3 7.037724594e-15 0)
(3 5.262895376e-15 0)
(3 4.961640318e-15 0)
(3 3.172785017e-15 0)
(3 1.912539257e-15 0)
(3 -1.985316421e-16 0)
(3 1.334896121e-15 0)
(3 2.888701736e-15 0)
(3 3.991143137e-15 0)
(3 5.263610951e-15 0)
(3 1.060927528e-14 0)
(3 9.564134714e-15 0)
(3 8.73006051e-15 0)
(3 8.044465802e-15 0)
(3 6.278314123e-15 0)
(3 2.321736671e-15 0)
(3 -3.068340404e-15 0)
(3 -2.349303364e-15 0)
(3 -1.242865476e-15 0)
(3 -4.475586128e-15 0)
(3 -5.66077881e-15 0)
(3 -6.184745646e-15 0)
(3 -5.670004939e-15 0)
(3 -4.187586715e-15 0)
(3 1.692954899e-15 0)
(3 3.378592399e-15 0)
(3 3.620710846e-15 0)
(3 5.367191644e-16 0)
(3 -1.236423437e-15 0)
(3 -8.946920584e-16 0)
(3 -1.298438559e-15 0)
(3 -3.980351287e-16 0)
(3 1.185704524e-15 0)
(3 2.674606164e-15 0)
(3 4.900979313e-15 0)
(3 6.468450881e-15 0)
(3 6.054489039e-15 0)
(3 4.315904453e-15 0)
(3 3.449976312e-15 0)
(3 6.220123833e-15 0)
(3 7.538664146e-15 0)
(3 5.900797157e-15 0)
(3 4.190052912e-15 0)
(3 3.850644339e-15 0)
(3 4.888056309e-15 0)
(3 2.970405483e-15 0)
(3 5.696391614e-15 0)
(3 6.518692318e-15 0)
(3 5.086827252e-15 0)
(3 3.547767756e-15 0)
(3 3.550078793e-15 0)
(3 1.758777423e-15 0)
(3 2.101440801e-15 0)
(3 3.383299062e-15 0)
(3 3.632171818e-15 0)
(3 1.678738055e-15 0)
(3 1.582940566e-15 0)
(3 8.016418678e-16 0)
(3 4.717534093e-16 0)
(3 1.741708309e-15 0)
(3 -2.73276303e-15 0)
(3 -2.639566927e-15 0)
(3 -1.40252438e-15 0)
(3 -2.333001102e-15 0)
(3 -3.850001788e-15 0)
(3 -1.985576921e-15 0)
(3 -1.878645044e-15 0)
(3 -4.330795522e-16 0)
(3 1.457592888e-15 0)
(3 1.711122803e-15 0)
(3 4.171406407e-16 0)
(3 -2.048905221e-15 0)
(3 -2.855363514e-16 0)
(3 1.657022361e-15 0)
(3 5.915018034e-15 0)
(3 7.802558987e-15 0)
(3 1.216355067e-14 0)
(3 1.629505159e-14 0)
(3 1.853958266e-14 0)
(3 1.797665065e-14 0)
(3 1.535777548e-14 0)
(3 1.220747961e-14 0)
(3 3.857550528e-15 0)
(3 -5.435870449e-15 0)
(3 -3.849412947e-15 0)
(3 -4.302724685e-15 0)
(3 -5.499068765e-15 0)
(3 -7.764558015e-15 0)
(3 -6.288888955e-15 0)
(3 -1.289860638e-15 0)
(3 -1.027707856e-15 0)
(3 9.197884426e-16 0)
(3 2.483220741e-15 0)
(3 1.704484567e-15 0)
(3 6.612920906e-16 0)
(3 1.158362556e-15 0)
(3 1.355483254e-15 0)
(3 2.277893126e-15 0)
(3 5.532156785e-16 0)
(3 -4.55979123e-16 0)
(3 -1.092910636e-15 0)
(3 -8.143016841e-17 0)
(3 -7.593514021e-16 0)
(3 -2.599348996e-15 0)
(3 8.994875009e-17 0)
(3 -5.629707431e-16 0)
(3 3.708927489e-15 0)
(3 5.478124565e-15 0)
(3 3.390077468e-15 0)
(3 3.384318051e-15 0)
(3 4.280844718e-15 0)
(3 2.967254186e-15 0)
(3 4.739793173e-15 0)
(3 7.900877976e-15 0)
(3 8.336452309e-15 0)
(3 4.44168347e-15 0)
(3 2.648203779e-15 0)
(3 3.430947637e-15 0)
(3 1.882777729e-15 0)
(3 -1.795474772e-15 0)
(3 -4.488270953e-15 0)
(3 -7.125701579e-15 0)
(3 -1.407521189e-15 0)
(3 1.434439281e-18 0)
(3 2.028475039e-15 0)
(3 1.95123122e-15 0)
(3 -3.720480491e-15 0)
(3 -3.682967547e-15 0)
(3 -7.487615969e-15 0)
(3 -5.730222433e-15 0)
(3 -6.113502453e-15 0)
(3 -6.185847959e-15 0)
(3 -2.170132448e-15 0)
(3 8.353862727e-17 0)
(3 -7.206891964e-16 0)
(3 3.332147216e-15 0)
(3 1.927852583e-15 0)
(3 3.973918116e-15 0)
(3 3.16632159e-15 0)
(3 4.966585626e-15 0)
(3 5.818932378e-15 0)
(3 8.835064115e-15 0)
(3 1.364780147e-14 0)
(3 1.092723356e-14 0)
(3 1.332976717e-14 0)
(3 1.623187864e-14 0)
(3 1.64235588e-14 0)
(3 9.557128906e-15 0)
(3 9.185309819e-15 0)
(3 6.074708428e-15 0)
(3 3.613431493e-15 0)
(3 3.982457192e-16 0)
(3 -2.454390454e-15 0)
(3 -3.177759198e-15 0)
(3 -2.342631371e-16 0)
(3 5.484073878e-15 0)
(3 7.057575879e-15 0)
(3 4.531359707e-15 0)
(3 1.896119926e-15 0)
(3 -1.953916529e-15 0)
(3 -2.95500831e-15 0)
(3 1.539208744e-16 0)
(3 7.154849126e-16 0)
(3 3.265069585e-15 0)
(3 6.129728612e-15 0)
(3 2.01683674e-15 0)
(3 -3.589917819e-15 0)
(3 -2.313942318e-15 0)
(3 -3.386137317e-15 0)
(3 -7.473193857e-15 0)
(3 -8.574296538e-15 0)
(3 -4.914126562e-15 0)
(3 -9.370016604e-16 0)
(3 -2.164421113e-15 0)
(3 2.210495666e-16 0)
(3 -1.053731141e-16 0)
(3 4.895700465e-15 0)
(3 8.629409889e-15 0)
(3 9.638405749e-15 0)
(3 9.115157535e-15 0)
(3 9.114016374e-15 0)
(3 9.123078662e-15 0)
(3 7.236071035e-15 0)
(3 4.13208692e-15 0)
(3 3.610009141e-15 0)
(3 1.484435835e-15 0)
(3 -1.19353451e-15 0)
(3 -3.501179748e-15 0)
(3 -5.072337121e-15 0)
(3 -2.219755014e-16 0)
(3 9.208451201e-16 0)
(3 8.315155913e-16 0)
(3 2.127493497e-15 0)
(3 -9.747523148e-16 0)
(3 -2.781426716e-15 0)
(3 -4.95432633e-15 0)
(3 -5.007115537e-15 0)
(3 -4.868475423e-15 0)
(3 -3.055067874e-15 0)
(3 1.805094313e-15 0)
(3 3.745516821e-15 0)
(3 4.341626545e-15 0)
(3 5.204003929e-15 0)
(3 6.647452651e-15 0)
(3 9.184511091e-15 0)
(3 9.511338887e-15 0)
(3 8.390783579e-15 0)
(3 7.953645989e-15 0)
(3 5.355548104e-15 0)
(3 6.836557635e-15 0)
(3 6.214650823e-15 0)
(3 7.26791785e-15 0)
(3 7.200898537e-15 0)
(3 7.904865254e-15 0)
(3 7.490085445e-15 0)
(3 3.420578944e-15 0)
(3 2.8654597e-15 0)
(3 1.594386622e-15 0)
(3 -1.365959441e-15 0)
(3 -6.237904258e-15 0)
(3 -6.109347475e-15 0)
(3 -2.520712058e-15 0)
(3 5.522097714e-15 0)
(3 7.129586107e-15 0)
(3 7.159375403e-15 0)
(3 3.643611214e-15 0)
(3 1.386708684e-15 0)
(3 3.340135504e-15 0)
(3 4.701140982e-15 0)
(3 2.985655329e-16 0)
(3 -1.06893116e-16 0)
(3 3.86537233e-15 0)
(3 6.379816965e-15 0)
(3 2.65550468e-15 0)
(3 6.637699388e-16 0)
(3 -4.762241726e-15 0)
(3 -7.350243502e-15 0)
(3 -2.99937606e-15 0)
(3 -2.01942867e-15 0)
(3 -8.969091306e-16 0)
(3 2.866671446e-16 0)
(3 4.015733222e-15 0)
(3 7.348170775e-15 0)
(3 7.80098054e-15 0)
(3 8.194722998e-15 0)
(3 8.732245718e-15 0)
(3 7.459575399e-15 0)
(3 6.064509716e-15 0)
(3 4.830094249e-15 0)
(3 5.389566551e-15 0)
(3 4.418479763e-15 0)
(3 2.542583969e-15 0)
(3 3.987437239e-15 0)
(3 -1.175778159e-15 0)
(3 -3.373038301e-15 0)
(3 -9.085228107e-15 0)
(3 8.781362001e-16 0)
(3 6.314926964e-18 0)
(3 -4.792892773e-16 0)
(3 2.494749335e-15 0)
(3 4.582389879e-15 0)
(3 1.455767055e-15 0)
(3 2.374284551e-16 0)
(3 2.634274657e-15 0)
(3 5.310648171e-15 0)
(3 5.919747433e-15 0)
(3 7.849558372e-15 0)
(3 9.858359989e-15 0)
(3 1.104560061e-14 0)
(3 1.387214937e-14 0)
(3 1.844820056e-14 0)
(3 1.56160362e-14 0)
(3 1.373771871e-14 0)
(3 1.442404237e-14 0)
(3 1.125487302e-14 0)
(3 6.241385454e-15 0)
(3 5.022762829e-15 0)
(3 7.314154019e-15 0)
(3 6.932668016e-15 0)
(3 1.55628236e-15 0)
(3 8.529711722e-16 0)
(3 3.703391632e-15 0)
(3 2.839775224e-15 0)
(3 1.693695909e-15 0)
(3 8.041648645e-16 0)
(3 -2.42904291e-15 0)
(3 -5.390198988e-15 0)
(3 -3.368091752e-15 0)
(3 2.733327632e-15 0)
(3 8.299135181e-15 0)
(3 8.159168323e-15 0)
(3 9.789404459e-15 0)
(3 7.800803272e-15 0)
(3 9.75008231e-15 0)
(3 7.843979339e-15 0)
(3 7.739228096e-15 0)
(3 4.05821288e-15 0)
(3 3.088805199e-17 0)
(3 -1.206790708e-15 0)
(3 1.168359378e-15 0)
(3 3.255630354e-15 0)
(3 1.613160679e-16 0)
(3 -3.974392597e-15 0)
(3 -2.683722048e-15 0)
(3 5.894296138e-16 0)
(3 5.862870999e-15 0)
(3 5.864511921e-15 0)
(3 8.381625808e-15 0)
(3 1.062305097e-14 0)
(3 1.348607574e-14 0)
(3 1.23822262e-14 0)
(3 7.840693557e-15 0)
(3 6.335552518e-15 0)
(3 6.514488709e-15 0)
(3 4.219597222e-15 0)
(3 2.140217698e-15 0)
(3 1.922829637e-15 0)
(3 1.601739543e-16 0)
(3 -2.935428708e-15 0)
(3 -2.081208298e-15 0)
(3 -3.834793937e-15 0)
(3 -1.19154313e-14 0)
(3 -1.821986291e-14 0)
(3 2.035690593e-15 0)
(3 1.666469347e-16 0)
(3 -1.243958405e-15 0)
(3 -5.050978785e-15 0)
(3 -3.008719459e-15 0)
(3 -2.804306148e-15 0)
(3 1.92397099e-15 0)
(3 4.068126224e-15 0)
(3 8.123912257e-15 0)
(3 7.758299854e-15 0)
(3 7.351950049e-15 0)
(3 8.384260577e-15 0)
(3 9.772440043e-15 0)
(3 1.216019534e-14 0)
(3 1.361970541e-14 0)
(3 1.513676465e-14 0)
(3 1.601184081e-14 0)
(3 1.590556674e-14 0)
(3 1.594852966e-14 0)
(3 1.104994033e-14 0)
(3 9.306793047e-15 0)
(3 8.451748095e-15 0)
(3 3.35771291e-15 0)
(3 -1.691527908e-16 0)
(3 -5.252164129e-15 0)
(3 -4.357312905e-15 0)
(3 -5.899965197e-17 0)
(3 -6.154196393e-16 0)
(3 1.067316559e-15 0)
(3 -3.788000304e-15 0)
(3 -2.826359618e-15 0)
(3 6.259945274e-15 0)
(3 7.491241407e-15 0)
(3 5.431835947e-15 0)
(3 3.712018708e-15 0)
(3 6.116732361e-15 0)
(3 5.767590541e-15 0)
(3 3.892332132e-15 0)
(3 -7.804409197e-16 0)
(3 -2.624096545e-15 0)
(3 -3.202112257e-15 0)
(3 -5.313404068e-15 0)
(3 -8.595017195e-15 0)
(3 -1.197399398e-14 0)
(3 -6.12104432e-15 0)
(3 -4.29168041e-15 0)
(3 -3.248664746e-15 0)
(3 4.571035219e-15 0)
(3 7.646826689e-15 0)
(3 1.213104338e-14 0)
(3 1.271160278e-14 0)
(3 1.781750945e-14 0)
(3 1.54373733e-14 0)
(3 1.695191076e-14 0)
(3 1.875595051e-14 0)
(3 1.815043842e-14 0)
(3 1.429624105e-14 0)
(3 1.251264618e-14 0)
(3 8.893450409e-15 0)
(3 7.848183101e-15 0)
(3 5.869225605e-15 0)
(3 3.493206919e-15 0)
(3 -1.222149833e-15 0)
(3 -8.046937407e-15 0)
(3 -1.755785756e-14 0)
(3 -2.77221083e-14 0)
(3 -2.668096368e-14 0)
(3 6.230961156e-16 0)
(3 7.923455728e-16 0)
(3 -6.896693911e-16 0)
(3 -3.628761681e-15 0)
(3 -4.161396847e-15 0)
(3 -3.12983871e-15 0)
(3 4.994981581e-16 0)
(3 4.594634812e-16 0)
(3 -3.79288957e-17 0)
(3 -3.222964064e-16 0)
(3 -2.122655994e-15 0)
(3 -2.229581231e-15 0)
(3 -3.313165532e-16 0)
(3 2.238251582e-15 0)
(3 4.767773871e-15 0)
(3 9.459938889e-15 0)
(3 1.123395704e-14 0)
(3 1.04718023e-14 0)
(3 1.215852352e-14 0)
(3 1.320584778e-14 0)
(3 1.12726584e-14 0)
(3 6.339472529e-15 0)
(3 2.107856804e-15 0)
(3 2.449331718e-15 0)
(3 1.333285391e-15 0)
(3 -4.951542016e-15 0)
(3 -6.386286052e-15 0)
(3 -5.39177596e-15 0)
(3 -3.520054642e-15 0)
(3 -3.617478166e-15 0)
(3 2.341079136e-15 0)
(3 5.668279989e-15 0)
(3 8.785483139e-15 0)
(3 6.041335564e-15 0)
(3 4.597159566e-15 0)
(3 3.338802335e-15 0)
(3 3.496519425e-15 0)
(3 7.007023812e-17 0)
(3 -3.810594285e-15 0)
(3 -7.781463178e-15 0)
(3 -8.104332898e-15 0)
(3 -1.153638667e-14 0)
(3 -1.455238733e-14 0)
(3 -1.750657956e-14 0)
(3 -1.083938353e-14 0)
(3 -4.700417873e-15 0)
(3 5.547807164e-15 0)
(3 1.465121839e-14 0)
(3 1.504331025e-14 0)
(3 1.336186293e-14 0)
(3 1.558390402e-14 0)
(3 1.508956303e-14 0)
(3 1.560816276e-14 0)
(3 1.539873312e-14 0)
(3 1.531716271e-14 0)
(3 1.738487325e-14 0)
(3 1.493759919e-14 0)
(3 1.515336749e-14 0)
(3 1.687354946e-14 0)
(3 1.795505147e-14 0)
(3 1.536591302e-14 0)
(3 1.053136382e-14 0)
(3 -1.313238383e-15 0)
(3 -1.040961499e-14 0)
(3 -2.087898424e-14 0)
(3 -3.040585795e-14 0)
(3 -2.979124708e-14 0)
(3 -4.81626108e-16 0)
(3 -6.589865065e-16 0)
(3 -3.630960168e-16 0)
(3 3.966542098e-15 0)
(3 7.554203698e-15 0)
(3 5.324811958e-15 0)
(3 1.011299976e-15 0)
(3 -7.301375284e-17 0)
(3 -5.094274778e-15 0)
(3 -7.651778481e-15 0)
(3 -7.328111205e-15 0)
(3 -5.538862103e-15 0)
(3 -4.219240961e-15 0)
(3 2.003876363e-17 0)
(3 4.600796713e-15 0)
(3 4.850763755e-15 0)
(3 6.183092705e-15 0)
(3 6.682247568e-15 0)
(3 9.585385603e-15 0)
(3 9.7644207e-15 0)
(3 8.764260296e-15 0)
(3 -1.141811283e-15 0)
(3 -3.694129636e-16 0)
(3 4.633017976e-16 0)
(3 4.26759428e-16 0)
(3 -4.174695977e-15 0)
(3 -3.909869407e-15 0)
(3 2.228466701e-15 0)
(3 4.864073099e-16 0)
(3 3.487435987e-15 0)
(3 6.654194286e-15 0)
(3 4.780849824e-15 0)
(3 4.613916117e-15 0)
(3 4.90487776e-15 0)
(3 2.744685095e-15 0)
(3 4.548419416e-15 0)
(3 4.400449179e-15 0)
(3 1.968542458e-15 0)
(3 -2.69230707e-16 0)
(3 -7.220430529e-15 0)
(3 -1.050258133e-14 0)
(3 -1.133668611e-14 0)
(3 -1.341923524e-14 0)
(3 -1.459832969e-14 0)
(3 -1.249976132e-14 0)
(3 -4.222914809e-15 0)
(3 6.099463773e-16 0)
(3 5.616395508e-16 0)
(3 1.127689129e-15 0)
(3 2.961348092e-15 0)
(3 8.061242925e-15 0)
(3 5.320326196e-15 0)
(3 1.081599639e-14 0)
(3 1.2260304e-14 0)
(3 1.320644185e-14 0)
(3 1.714007362e-14 0)
(3 2.226788113e-14 0)
(3 2.810009873e-14 0)
(3 2.719022087e-14 0)
(3 2.319420521e-14 0)
(3 1.713231577e-14 0)
(3 2.138428698e-15 0)
(3 -7.952459058e-15 0)
(3 -1.172443553e-14 0)
(3 -1.488783001e-14 0)
(3 -2.678572146e-14 0)
(3 -2.565796544e-14 0)
(3 7.903751553e-16 0)
(3 1.349988824e-15 0)
(3 1.70624287e-15 0)
(3 1.664513086e-15 0)
(3 4.358467598e-16 0)
(3 3.666597405e-15 0)
(3 3.786716948e-15 0)
(3 2.526785632e-15 0)
(3 -5.800822698e-16 0)
(3 -1.557262858e-15 0)
(3 9.877566079e-16 0)
(3 8.11539677e-16 0)
(3 -4.306068039e-17 0)
(3 -2.372407728e-15 0)
(3 -4.156566222e-15 0)
(3 1.637153632e-15 0)
(3 6.325207681e-15 0)
(3 7.995233076e-15 0)
(3 1.098203739e-14 0)
(3 6.253738948e-15 0)
(3 -1.108839212e-15 0)
(3 -2.767358365e-15 0)
(3 -3.816736773e-15 0)
(3 -7.161622402e-15 0)
(3 -6.931739638e-15 0)
(3 -2.042654439e-15 0)
(3 3.792472382e-16 0)
(3 2.795553047e-15 0)
(3 4.235004463e-15 0)
(3 8.237626656e-15 0)
(3 6.029356805e-15 0)
(3 6.794892697e-15 0)
(3 6.012454306e-15 0)
(3 3.764406261e-15 0)
(3 5.612710932e-16 0)
(3 -1.072081283e-15 0)
(3 -1.022822862e-15 0)
(3 -2.643155028e-15 0)
(3 -3.008821534e-15 0)
(3 -5.292423414e-15 0)
(3 -1.100118819e-14 0)
(3 -1.140481553e-14 0)
(3 -7.65650391e-15 0)
(3 -1.147374524e-14 0)
(3 -1.236686411e-14 0)
(3 -1.267203851e-14 0)
(3 -1.079504183e-14 0)
(3 -7.565457557e-15 0)
(3 -1.935626567e-15 0)
(3 2.460663584e-15 0)
(3 -3.232010824e-16 0)
(3 2.880728282e-15 0)
(3 4.266780388e-15 0)
(3 6.174516429e-15 0)
(3 1.056642935e-14 0)
(3 1.56409066e-14 0)
(3 1.96651799e-14 0)
(3 2.652179249e-14 0)
(3 2.60754143e-14 0)
(3 2.271415665e-14 0)
(3 8.049385723e-15 0)
(3 3.427044457e-15 0)
(3 1.474491645e-15 0)
(3 -4.406471598e-15 0)
(3 -1.016015717e-14 0)
(3 -1.102670614e-14 0)
(3 -1.606014004e-14 0)
(3 1.702428732e-16 0)
(3 1.019135227e-15 0)
(3 2.494484738e-15 0)
(3 -3.930302461e-17 0)
(3 2.932513938e-16 0)
(3 1.5321925e-15 0)