/*--------------------------------*- C++ -*----------------------------------*\
  =========                 |
  \\      /  F ield         | OpenFOAM: The Open Source CFD Toolbox
   \\    /   O peration     | Website:  https://openfoam.org
    \\  /    A nd           | Version:  7
     \\/     M anipulation  |
\*---------------------------------------------------------------------------*/
FoamFile
{
    version     2.0;
    format      ascii;
    class       volScalarField;
    location    "1.7";
    object      T;
}
// * * * * * * * * * * * * * * * * * * * * * * * * * * * * * * * * * * * * * //

dimensions      [0 0 0 1 0 0 0];

internalField   nonuniform List<scalar> 5(0.9751052805 0.9716429302 0.970516731 0.9754001598 0.9675220966);

boundaryField
{
    inlet
    {
        type            fixedValue;
        value           nonuniform 0();
    }
    outlet
    {
        type            inletOutlet;
        inletValue      nonuniform 0();
        value           nonuniform 0();
    }
    bottom
    {
        type            slip;
    }
    top
    {
        type            slip;
    }
    obstacle
    {
        type            zeroGradient;
    }
    defaultFaces
    {
        type            empty;
    }
    procBoundary21to15
    {
        type            processor;
        value           uniform 0.9668685833;
    }
    procBoundary21to16
    {
        type            processor;
        value           nonuniform List<scalar> 3(1.016503993 1.029452377 1.030386889);
    }
    procBoundary21to22
    {
        type            processor;
        value           nonuniform List<scalar> 2(1.015613361 1.003571329);
    }
    procBoundary21to27
    {
        type            processor;
        value           uniform 0.9588434934;
    }
}


// ************************************************************************* //
