/*--------------------------------*- C++ -*----------------------------------*\
  =========                 |
  \\      /  F ield         | OpenFOAM: The Open Source CFD Toolbox
   \\    /   O peration     | Website:  https://openfoam.org
    \\  /    A nd           | Version:  7
     \\/     M anipulation  |
\*---------------------------------------------------------------------------*/
FoamFile
{
    version     2.0;
    format      ascii;
    class       volVectorField;
    location    "1.2";
    object      U;
}
// * * * * * * * * * * * * * * * * * * * * * * * * * * * * * * * * * * * * * //

dimensions      [0 1 -1 0 0 0 0];

internalField   nonuniform List<vector> 
2222
(
(3 5.815370107e-15 0)
(3 7.111365357e-15 0)
(3 7.469598988e-15 0)
(3 9.160192868e-15 0)
(3 1.004322225e-14 0)
(3 1.091391243e-14 0)
(3 9.892385711e-15 0)
(3 8.743300057e-15 0)
(3 1.014120516e-14 0)
(3 1.06915354e-14 0)
(3 1.04663128e-14 0)
(3 9.497572892e-15 0)
(3 9.072364785e-15 0)
(3 8.682290518e-15 0)
(3 7.258270778e-15 0)
(3 6.698667797e-15 0)
(3 4.650327235e-15 0)
(3 5.139034749e-16 0)
(3 -3.230792829e-15 0)
(3 -7.462215261e-15 0)
(3 -9.711442438e-15 0)
(3 -1.304881916e-14 0)
(3 -1.452128173e-14 0)
(3 -1.760567683e-14 0)
(3 -1.823391637e-14 0)
(3 -1.917431114e-14 0)
(3 -1.792107399e-14 0)
(3 -1.838666754e-14 0)
(3 -1.787105304e-14 0)
(3 -1.676999869e-14 0)
(3 -1.274391763e-14 0)
(3 -1.075864265e-14 0)
(3 -1.035288274e-14 0)
(3 -7.725534385e-15 0)
(3 -5.6797168e-15 0)
(3 -4.491810855e-15 0)
(3 -4.707606817e-15 0)
(3 -8.613202358e-15 0)
(3 -1.331321175e-14 0)
(3 -1.447374616e-14 0)
(3 -1.484056432e-14 0)
(3 -1.261009477e-14 0)
(3 -9.891660286e-15 0)
(3 -9.50789294e-15 0)
(3 -8.012380186e-15 0)
(3 -6.066339273e-15 0)
(3 -3.765002656e-15 0)
(3 -2.349455011e-15 0)
(3 -3.267442857e-15 0)
(3 -1.411402902e-15 0)
(3 5.661244472e-16 0)
(3 1.767280194e-15 0)
(3 2.770381333e-15 0)
(3 4.175835856e-15 0)
(3 6.759258971e-15 0)
(3 9.844238829e-15 0)
(3 9.695578393e-15 0)
(3 1.152531145e-14 0)
(3 1.292103626e-14 0)
(3 1.297046567e-14 0)
(3 1.21678687e-14 0)
(3 1.008014815e-14 0)
(3 8.69787549e-15 0)
(3 6.182547384e-15 0)
(3 4.965726947e-15 0)
(3 4.617425535e-15 0)
(3 4.648620933e-15 0)
(3 3.343493203e-15 0)
(3 1.525056021e-15 0)
(3 1.861601887e-15 0)
(3 2.772985569e-15 0)
(3 2.591484939e-15 0)
(3 1.196207901e-15 0)
(3 -2.145668366e-15 0)
(3 -5.843986128e-15 0)
(3 -1.170659341e-14 0)
(3 -1.662435974e-14 0)
(3 -2.182213735e-14 0)
(3 -2.425555394e-14 0)
(3 -2.520119296e-14 0)
(3 -2.532951767e-14 0)
(3 -2.498281917e-14 0)
(3 -2.525804272e-14 0)
(3 -2.398339263e-14 0)
(3 -2.298383321e-14 0)
(3 -1.872583844e-14 0)
(3 -1.801738138e-14 0)
(3 -1.725198715e-14 0)
(3 -1.781532701e-14 0)
(3 -2.011574101e-14 0)
(3 -2.143000934e-14 0)
(3 -2.275364269e-14 0)
(3 -2.349424899e-14 0)
(3 -2.360446125e-14 0)
(3 -2.276559196e-14 0)
(3 -2.216696284e-14 0)
(3 -1.846298081e-14 0)
(3 -1.68333196e-14 0)
(3 -1.562052631e-14 0)
(3 -1.378691556e-14 0)
(3 -1.090523179e-14 0)
(3 -6.218004897e-15 0)
(3 -5.053860812e-15 0)
(3 -3.41714421e-15 0)
(3 -9.430479367e-16 0)
(3 2.438131376e-15 0)
(3 7.208586651e-15 0)
(3 9.385124196e-15 0)
(3 1.408388146e-14 0)
(3 1.208955638e-14 0)
(3 1.547097757e-14 0)
(3 1.817829069e-14 0)
(3 1.893576585e-14 0)
(3 1.866058107e-14 0)
(3 1.733532999e-14 0)
(3 1.622181846e-14 0)
(3 1.707486945e-14 0)
(3 1.828652118e-14 0)
(3 1.897935563e-14 0)
(3 1.905015047e-14 0)
(3 1.917016533e-14 0)
(3 1.963236609e-14 0)
(3 1.507193594e-14 0)
(3 1.532704813e-14 0)
(3 1.397173925e-14 0)
(3 1.259088184e-14 0)
(3 1.235952321e-14 0)
(3 1.08065677e-14 0)
(3 1.03631803e-14 0)
(3 1.070805638e-14 0)
(3 1.043446233e-14 0)
(3 9.47466332e-15 0)
(3 7.644501797e-15 0)
(3 5.909017147e-15 0)
(3 6.412780954e-15 0)
(3 7.70971835e-15 0)
(3 3.640000204e-15 0)
(3 1.687531462e-15 0)
(3 8.680836435e-16 0)
(3 -7.763386437e-16 0)
(3 -1.973333674e-15 0)
(3 -2.683547707e-15 0)
(3 -5.991946267e-15 0)
(3 -1.153302286e-14 0)
(3 -1.928816331e-14 0)
(3 -2.035250962e-14 0)
(3 -2.365334376e-14 0)
(3 -2.573003779e-14 0)
(3 -2.648691123e-14 0)
(3 -2.80489457e-14 0)
(3 -2.899104538e-14 0)
(3 -2.90025404e-14 0)
(3 -3.047063029e-14 0)
(3 -3.031243739e-14 0)
(3 -2.945400178e-14 0)
(3 -2.93370433e-14 0)
(3 -3.061871576e-14 0)
(3 -3.312059484e-14 0)
(3 -3.360302078e-14 0)
(3 -3.288797195e-14 0)
(3 -2.938716328e-14 0)
(3 -2.926218461e-14 0)
(3 -2.836372786e-14 0)
(3 -2.583478017e-14 0)
(3 -2.225885205e-14 0)
(3 -2.13225226e-14 0)
(3 -1.881360873e-14 0)
(3 -1.629204523e-14 0)
(3 -1.522074582e-14 0)
(3 -1.265907801e-14 0)
(3 -8.560148695e-15 0)
(3 -3.809572408e-15 0)
(3 3.034187767e-15 0)
(3 4.973701682e-15 0)
(3 5.164981438e-15 0)
(3 8.122754953e-15 0)
(3 1.355527932e-14 0)
(3 1.293784051e-14 0)
(3 1.571153334e-14 0)
(3 1.59019891e-14 0)
(3 1.675965744e-14 0)
(3 1.778824251e-14 0)
(3 1.900120849e-14 0)
(3 1.968915742e-14 0)
(3 1.980479688e-14 0)
(3 1.918102898e-14 0)
(3 1.914172677e-14 0)
(3 1.929257578e-14 0)
(3 1.921559485e-14 0)
(3 1.210329059e-14 0)
(3 1.163631372e-14 0)
(3 1.065140568e-14 0)
(3 9.221371434e-15 0)
(3 8.007000101e-15 0)
(3 6.555518898e-15 0)
(3 4.893648203e-15 0)
(3 4.586205239e-15 0)
(3 4.578834162e-15 0)
(3 4.329722626e-15 0)
(3 3.728216756e-15 0)
(3 2.555670261e-15 0)
(3 4.11241841e-15 0)
(3 3.663820413e-15 0)
(3 1.892578775e-15 0)
(3 1.332752572e-15 0)
(3 -6.646042728e-16 0)
(3 -2.292044536e-15 0)
(3 -2.64790154e-15 0)
(3 -2.515575547e-15 0)
(3 -4.048382458e-15 0)
(3 -5.525775863e-15 0)
(3 -8.604106068e-15 0)
(3 -1.301974806e-14 0)
(3 -1.657708779e-14 0)
(3 -2.033040031e-14 0)
(3 -2.085973551e-14 0)
(3 -2.337180704e-14 0)
(3 -2.648357448e-14 0)
(3 -2.966650961e-14 0)
(3 -3.276026718e-14 0)
(3 -3.534478987e-14 0)
(3 -3.450937648e-14 0)
(3 -3.079051407e-14 0)
(3 -2.685172506e-14 0)
(3 -2.506611778e-14 0)
(3 -2.393409405e-14 0)
(3 -2.21236105e-14 0)
(3 -2.097928453e-14 0)
(3 -2.142949921e-14 0)
(3 -2.107684755e-14 0)
(3 -1.945701744e-14 0)
(3 -1.690898163e-14 0)
(3 -1.58575427e-14 0)
(3 -1.258395216e-14 0)
(3 -1.147621082e-14 0)
(3 -1.168966564e-14 0)
(3 -9.16532288e-15 0)
(3 -7.132137603e-15 0)
(3 -3.353512771e-15 0)
(3 7.506355188e-16 0)
(3 4.516706319e-15 0)
(3 7.422651931e-15 0)
(3 1.096102974e-14 0)
(3 1.502944861e-14 0)
(3 1.67965152e-14 0)
(3 1.728131104e-14 0)
(3 1.845421348e-14 0)
(3 1.900866444e-14 0)
(3 1.897710454e-14 0)
(3 1.856679236e-14 0)
(3 1.795166632e-14 0)
(3 1.885365312e-14 0)
(3 2.080853472e-14 0)
(3 2.188983462e-14 0)
(3 2.120583886e-14 0)
(3 1.98132852e-14 0)
(3 7.702930875e-16 0)
(3 2.218269614e-15 0)
(3 2.858511005e-15 0)
(3 4.05056997e-15 0)
(3 3.908858033e-15 0)
(3 2.79184812e-15 0)
(3 1.464124261e-15 0)
(3 -8.309293584e-16 0)
(3 -1.021206773e-15 0)
(3 7.786076234e-16 0)
(3 3.596958122e-15 0)
(3 1.842677197e-15 0)
(3 1.488793025e-15 0)
(3 3.952969113e-16 0)
(3 -1.40513098e-15 0)
(3 -1.406840216e-15 0)
(3 -1.199185676e-15 0)
(3 -1.613705531e-15 0)
(3 -2.21702433e-15 0)
(3 -1.384609534e-15 0)
(3 5.355023564e-17 0)
(3 2.421176809e-15 0)
(3 2.715575092e-15 0)
(3 5.043197915e-18 0)
(3 -5.038889655e-15 0)
(3 -7.489748981e-15 0)
(3 -8.707523777e-15 0)
(3 -1.394700196e-14 0)
(3 -1.59192734e-14 0)
(3 -1.915864468e-14 0)
(3 -2.108733707e-14 0)
(3 -2.159315937e-14 0)
(3 -2.246210124e-14 0)
(3 -2.317769371e-14 0)
(3 -2.253552089e-14 0)
(3 -2.281968219e-14 0)
(3 -2.178264071e-14 0)
(3 -1.818508234e-14 0)
(3 -1.584012011e-14 0)
(3 -1.515360882e-14 0)
(3 -1.293106238e-14 0)
(3 -1.163713637e-14 0)
(3 -9.307275509e-15 0)
(3 -6.908714891e-15 0)
(3 -3.478017565e-15 0)
(3 -8.989691501e-16 0)
(3 -5.795386348e-17 0)
(3 1.926058226e-15 0)
(3 2.967394392e-15 0)
(3 4.101230936e-15 0)
(3 5.819067202e-15 0)
(3 7.89740366e-15 0)
(3 9.887120121e-15 0)
(3 1.049254605e-14 0)
(3 1.179427201e-14 0)
(3 1.444041249e-14 0)
(3 1.684797636e-14 0)
(3 1.859162951e-14 0)
(3 2.047199818e-14 0)
(3 2.090505432e-14 0)
(3 2.035433824e-14 0)
(3 2.006543782e-14 0)
(3 2.026807856e-14 0)
(3 2.031542153e-14 0)
(3 2.018987779e-14 0)
(3 1.935782002e-14 0)
(3 1.880053313e-14 0)
(3 -8.809960913e-15 0)
(3 -8.553487616e-15 0)
(3 -6.812640553e-15 0)
(3 -4.638497031e-15 0)
(3 -3.542664983e-15 0)
(3 -2.527879181e-15 0)
(3 -7.818527552e-16 0)
(3 -1.562131178e-15 0)
(3 -2.116558083e-15 0)
(3 -1.667705389e-15 0)
(3 2.314618876e-15 0)
(3 3.309921155e-15 0)
(3 3.069496964e-15 0)
(3 2.631164669e-15 0)
(3 1.75379478e-15 0)
(3 1.769728497e-15 0)
(3 -2.638178138e-16 0)
(3 -3.068485268e-16 0)
(3 6.738379587e-16 0)
(3 1.600111578e-15 0)
(3 2.069917915e-15 0)
(3 3.228182713e-15 0)
(3 4.473672705e-15 0)
(3 4.763285677e-15 0)
(3 3.007056615e-15 0)
(3 1.574198489e-15 0)
(3 -1.669775676e-15 0)
(3 -6.779466767e-15 0)
(3 -7.952172387e-15 0)
(3 -9.907052931e-15 0)
(3 -1.250730467e-14 0)
(3 -1.471165393e-14 0)
(3 -1.774434416e-14 0)
(3 -2.135089199e-14 0)
(3 -2.216884844e-14 0)
(3 -2.001894672e-14 0)
(3 -1.943332083e-14 0)
(3 -1.767945542e-14 0)
(3 -1.690742376e-14 0)
(3 -1.544076156e-14 0)
(3 -1.177475072e-14 0)
(3 -8.129616163e-15 0)
(3 -6.649661647e-15 0)
(3 -3.825394534e-15 0)
(3 -2.373757713e-15 0)
(3 1.088641658e-15 0)
(3 4.358619127e-15 0)
(3 4.846192374e-15 0)
(3 5.315181262e-15 0)
(3 5.619672332e-15 0)
(3 7.900008419e-15 0)
(3 9.719407625e-15 0)
(3 1.243426666e-14 0)
(3 1.306238476e-14 0)
(3 1.365438951e-14 0)
(3 1.432180008e-14 0)
(3 1.500773839e-14 0)
(3 1.653654235e-14 0)
(3 1.713966416e-14 0)
(3 1.802488278e-14 0)
(3 1.982151824e-14 0)
(3 1.982475476e-14 0)
(3 1.84551581e-14 0)
(3 1.715859316e-14 0)
(3 1.502668621e-14 0)
(3 1.446435143e-14 0)
(3 1.429655029e-14 0)
(3 -1.117376298e-14 0)
(3 -1.069655933e-14 0)
(3 -7.968026103e-15 0)
(3 -8.472924107e-15 0)
(3 -9.91874319e-15 0)
(3 -9.673394718e-15 0)
(3 -8.032706152e-15 0)
(3 -5.092362652e-15 0)
(3 -3.145594954e-16 0)
(3 2.298557033e-15 0)
(3 3.973773244e-15 0)
(3 5.017401043e-15 0)
(3 4.874140895e-15 0)
(3 5.118578038e-15 0)
(3 5.505713819e-15 0)
(3 6.515539233e-15 0)
(3 5.247796285e-15 0)
(3 3.491143991e-15 0)
(3 4.484683614e-15 0)
(3 5.432660206e-15 0)
(3 6.053952558e-15 0)
(3 5.139835581e-15 0)
(3 3.950202504e-15 0)
(3 4.406566868e-15 0)
(3 4.334968157e-15 0)
(3 6.478679123e-15 0)
(3 3.378586176e-15 0)
(3 1.088750125e-15 0)
(3 2.267343848e-17 0)
(3 -2.075377082e-15 0)
(3 -3.39377027e-15 0)
(3 -6.936378962e-15 0)
(3 -1.097646741e-14 0)
(3 -1.429436878e-14 0)
(3 -1.494768127e-14 0)
(3 -1.288685897e-14 0)
(3 -1.024863645e-14 0)
(3 -9.6298171e-15 0)
(3 -8.872679122e-15 0)
(3 -8.902049495e-15 0)
(3 -9.199548782e-15 0)
(3 -8.868159029e-15 0)
(3 -8.681168195e-15 0)
(3 -6.939745458e-15 0)
(3 -6.354430712e-15 0)
(3 -4.134988044e-15 0)
(3 -9.138811128e-16 0)
(3 1.655956559e-15 0)
(3 6.610397313e-15 0)
(3 6.728045255e-15 0)
(3 6.423355721e-15 0)
(3 7.095423891e-15 0)
(3 1.018153875e-14 0)
(3 1.23193604e-14 0)
(3 1.594129811e-14 0)
(3 1.530184966e-14 0)
(3 1.388456804e-14 0)
(3 1.251281413e-14 0)
(3 1.269134204e-14 0)
(3 1.333454354e-14 0)
(3 1.379922404e-14 0)
(3 1.249099015e-14 0)
(3 1.152967827e-14 0)
(3 1.239191554e-14 0)
(3 1.258575549e-14 0)
(3 1.316608673e-14 0)
(3 1.366044051e-14 0)
(3 -6.57410113e-15 0)
(3 -3.42650798e-16 0)
(3 -2.409804265e-16 0)
(3 -3.490980721e-15 0)
(3 -2.034496507e-15 0)
(3 -1.554249173e-15 0)
(3 -1.579074711e-15 0)
(3 4.296551376e-16 0)
(3 1.417476747e-15 0)
(3 2.917380465e-15 0)
(3 3.62058977e-15 0)
(3 5.348481471e-15 0)
(3 5.52907867e-15 0)
(3 7.247113067e-15 0)
(3 7.179833671e-15 0)
(3 8.060623231e-15 0)
(3 8.438182299e-15 0)
(3 7.576610199e-15 0)
(3 8.009715693e-15 0)
(3 1.091170866e-14 0)
(3 1.103512465e-14 0)
(3 1.134587786e-14 0)
(3 1.128604201e-14 0)
(3 1.135285395e-14 0)
(3 1.143137228e-14 0)
(3 1.196423281e-14 0)
(3 1.090562313e-14 0)
(3 1.088425836e-14 0)
(3 8.432293086e-15 0)
(3 7.133377679e-15 0)
(3 5.312083105e-15 0)
(3 2.18983242e-15 0)
(3 -3.188057598e-15 0)
(3 -5.819213819e-15 0)
(3 -6.912807394e-15 0)
(3 -6.655967489e-15 0)
(3 -5.894750445e-15 0)
(3 -4.496015707e-15 0)
(3 -3.289624613e-15 0)
(3 -3.29104211e-15 0)
(3 -3.353528118e-15 0)
(3 -2.591213343e-15 0)
(3 -2.456638851e-15 0)
(3 -2.123278247e-15 0)
(3 -1.910026383e-15 0)
(3 -1.116254866e-15 0)
(3 1.491493219e-15 0)
(3 2.989538825e-15 0)
(3 1.045462712e-14 0)
(3 1.259390473e-14 0)
(3 1.164514825e-14 0)
(3 1.144835142e-14 0)
(3 1.031158719e-14 0)
(3 9.419107406e-15 0)
(3 8.586148625e-15 0)
(3 8.862168018e-15 0)
(3 7.530915513e-15 0)
(3 6.036920479e-15 0)
(3 5.723235293e-15 0)
(3 6.122843227e-15 0)
(3 6.154085669e-15 0)
(3 7.187977454e-15 0)
(3 6.908655861e-15 0)
(3 6.831944821e-15 0)
(3 8.000000467e-15 0)
(3 8.346387492e-15 0)
(3 1.047040391e-14 0)
(3 -3.282716181e-15 0)
(3 -1.235622016e-15 0)
(3 -1.624291049e-15 0)
(3 -1.859953613e-15 0)
(3 -1.937901805e-15 0)
(3 -2.344341392e-15 0)
(3 -1.961730078e-15 0)
(3 -2.334542256e-15 0)
(3 -3.513582478e-15 0)
(3 -4.430922561e-15 0)
(3 -3.286755682e-15 0)
(3 -9.541944941e-16 0)
(3 2.101662633e-15 0)
(3 4.868269946e-15 0)
(3 5.621243017e-15 0)
(3 6.234111755e-15 0)
(3 8.956410568e-15 0)
(3 1.040446127e-14 0)
(3 1.009267654e-14 0)
(3 1.010498539e-14 0)
(3 1.069566756e-14 0)
(3 1.363793612e-14 0)
(3 1.887268319e-14 0)
(3 2.065608709e-14 0)
(3 2.149951491e-14 0)
(3 2.076346212e-14 0)
(3 2.152887162e-14 0)
(3 2.282674902e-14 0)
(3 2.137879413e-14 0)
(3 1.795364479e-14 0)
(3 1.553027984e-14 0)
(3 1.087532564e-14 0)
(3 5.150210112e-15 0)
(3 2.839534076e-15 0)
(3 5.885664818e-16 0)
(3 -6.148539011e-16 0)
(3 -1.015485282e-15 0)
(3 1.487181469e-16 0)
(3 1.538328547e-15 0)
(3 3.305727013e-15 0)
(3 5.141348115e-15 0)
(3 6.060033372e-15 0)
(3 7.252831789e-15 0)
(3 6.977315539e-15 0)
(3 6.374305911e-15 0)
(3 5.757385528e-15 0)
(3 5.940425289e-15 0)
(3 6.778458364e-15 0)
(3 8.008088862e-15 0)
(3 1.281366465e-14 0)
(3 1.50476291e-14 0)
(3 1.400076655e-14 0)
(3 1.262695101e-14 0)
(3 1.167494508e-14 0)
(3 1.198995929e-14 0)
(3 1.227315971e-14 0)
(3 1.294474991e-14 0)
(3 1.333562437e-14 0)
(3 1.199520013e-14 0)
(3 1.041548134e-14 0)
(3 9.416617258e-15 0)
(3 1.01491136e-14 0)
(3 9.838385343e-15 0)
(3 6.928595667e-15 0)
(3 3.634914136e-15 0)
(3 3.477978799e-15 0)
(3 4.757487165e-15 0)
(3 -6.329888883e-15 0)
(3 -6.851444657e-15 0)
(3 -5.805399058e-15 0)
(3 -2.515501658e-15 0)
(3 3.366017197e-16 0)
(3 1.516322708e-15 0)
(3 2.738587538e-15 0)
(3 2.985088401e-15 0)
(3 2.418559737e-15 0)
(3 1.144250156e-15 0)
(3 -1.650523822e-15 0)
(3 -2.070463963e-15 0)
(3 -1.964345162e-15 0)
(3 -1.829702728e-15 0)
(3 -7.516411907e-16 0)
(3 1.41685996e-15 0)
(3 5.202207613e-15 0)
(3 7.905324728e-15 0)
(3 9.547029853e-15 0)
(3 9.742870369e-15 0)
(3 1.071381199e-14 0)
(3 1.175890812e-14 0)
(3 1.394553838e-14 0)
(3 1.728514515e-14 0)
(3 2.049768439e-14 0)
(3 2.093756169e-14 0)
(3 1.951469072e-14 0)
(3 1.77747064e-14 0)
(3 1.694661916e-14 0)
(3 1.396445679e-14 0)
(3 1.228891885e-14 0)
(3 1.067185161e-14 0)
(3 1.031238636e-14 0)
(3 1.043935041e-14 0)
(3 8.794474977e-15 0)
(3 7.749461075e-15 0)
(3 4.351031115e-15 0)
(3 5.648814583e-15 0)
(3 8.485974221e-15 0)
(3 1.217620231e-14 0)
(3 1.273595314e-14 0)
(3 1.127378301e-14 0)
(3 9.996253741e-15 0)
(3 8.094332445e-15 0)
(3 6.488315001e-15 0)
(3 6.938971934e-15 0)
(3 5.95919666e-15 0)
(3 5.560219853e-15 0)
(3 5.433333143e-15 0)
(3 8.36391552e-15 0)
(3 1.238479612e-14 0)
(3 1.188743777e-14 0)
(3 1.004985978e-14 0)
(3 1.02084077e-14 0)
(3 1.055945878e-14 0)
(3 1.184081861e-14 0)
(3 1.447511361e-14 0)
(3 1.670234703e-14 0)
(3 1.66673428e-14 0)
(3 1.621703633e-14 0)
(3 1.510319408e-14 0)
(3 1.269201114e-14 0)
(3 1.108005706e-14 0)
(3 8.736181917e-15 0)
(3 6.36009376e-15 0)
(3 5.673447351e-15 0)
(3 4.723146004e-15 0)
(3 -4.282963882e-15 0)
(3 -4.717484504e-15 0)
(3 -3.706295034e-15 0)
(3 -3.856196291e-15 0)
(3 -3.027306868e-15 0)
(3 -6.950469502e-16 0)
(3 8.3331284e-16 0)
(3 3.404065888e-15 0)
(3 3.86128816e-15 0)
(3 3.479679651e-15 0)
(3 1.930484105e-15 0)
(3 -7.474538583e-16 0)
(3 -3.650188003e-15 0)
(3 -6.160056917e-15 0)
(3 -7.238389537e-15 0)
(3 -6.709483728e-15 0)
(3 -5.705156992e-15 0)
(3 -2.156040987e-15 0)
(3 1.490154216e-15 0)
(3 5.943655098e-15 0)
(3 8.715732259e-15 0)
(3 8.979453131e-15 0)
(3 9.782771979e-15 0)
(3 1.18801376e-14 0)
(3 1.189259951e-14 0)
(3 1.46937236e-14 0)
(3 1.603194451e-14 0)
(3 1.78543093e-14 0)
(3 1.920872071e-14 0)
(3 1.95242909e-14 0)
(3 1.88421276e-14 0)
(3 1.834860553e-14 0)
(3 1.731380695e-14 0)
(3 1.557903676e-14 0)
(3 1.351202079e-14 0)
(3 1.396441698e-14 0)
(3 1.716089146e-14 0)
(3 1.449071158e-14 0)
(3 1.191915032e-14 0)
(3 1.092232503e-14 0)
(3 9.277480245e-15 0)
(3 9.274895632e-15 0)
(3 9.170616788e-15 0)
(3 9.080239466e-15 0)
(3 8.304906951e-15 0)
(3 8.910429855e-15 0)
(3 9.127593787e-15 0)
(3 9.454196871e-15 0)
(3 9.370609481e-15 0)
(3 9.447699993e-15 0)
(3 9.815189536e-15 0)
(3 1.018140399e-14 0)
(3 9.469534538e-15 0)
(3 1.002194736e-14 0)
(3 9.660534135e-15 0)
(3 1.044975409e-14 0)
(3 1.068748656e-14 0)
(3 1.116542923e-14 0)
(3 1.257098932e-14 0)
(3 1.272954952e-14 0)
(3 1.290278159e-14 0)
(3 1.243804411e-14 0)
(3 9.692823005e-15 0)
(3 6.714277187e-15 0)
(3 6.130092557e-15 0)
(3 4.758898272e-15 0)
(3 3.246703348e-15 0)
(3 4.812315911e-16 0)
(3 -1.280895035e-16 0)
(3 -2.666382138e-16 0)
(3 -7.708867318e-16 0)
(3 -1.398801328e-15 0)
(3 9.541701674e-16 0)
(3 2.636312619e-15 0)
(3 4.083764537e-15 0)
(3 4.263405173e-15 0)
(3 3.820327758e-15 0)
(3 3.101357569e-15 0)
(3 1.332145367e-15 0)
(3 -1.059503809e-15 0)
(3 -3.329551842e-15 0)
(3 -3.320756556e-15 0)
(3 -3.716332425e-15 0)
(3 -3.888467446e-15 0)
(3 -3.646261354e-15 0)
(3 -3.927209834e-15 0)
(3 -1.466613023e-15 0)
(3 1.104089266e-15 0)
(3 1.783065257e-15 0)
(3 4.909341258e-15 0)
(3 5.031667457e-15 0)
(3 5.467324043e-15 0)
(3 8.100721436e-15 0)
(3 1.239853758e-14 0)
(3 1.505848907e-14 0)
(3 1.768183847e-14 0)
(3 2.014408426e-14 0)
(3 2.207662303e-14 0)
(3 2.606974131e-14 0)
(3 2.607182502e-14 0)
(3 2.556903401e-14 0)
(3 2.537528215e-14 0)
(3 2.475283414e-14 0)
(3 2.205089229e-14 0)
(3 1.78375895e-14 0)
(3 1.464522579e-14 0)
(3 1.258476909e-14 0)
(3 1.328347092e-14 0)
(3 1.382133698e-14 0)
(3 1.391089618e-14 0)
(3 1.649757585e-14 0)
(3 1.737668495e-14 0)
(3 1.675278403e-14 0)
(3 1.679925816e-14 0)
(3 1.739511643e-14 0)
(3 1.664543092e-14 0)
(3 1.219084616e-14 0)
(3 7.173353929e-15 0)
(3 5.511283165e-15 0)
(3 5.896792186e-15 0)
(3 5.616948243e-15 0)
(3 4.926484206e-15 0)
(3 5.640441851e-15 0)
(3 6.740200684e-15 0)
(3 6.612859113e-15 0)
(3 6.693271056e-15 0)
(3 7.211601521e-15 0)
(3 7.266351994e-15 0)
(3 7.364935148e-15 0)
(3 6.968160531e-15 0)
(3 6.142548546e-15 0)
(3 5.458755374e-15 0)
(3 3.233241504e-15 0)
(3 1.71045402e-15 0)
(3 4.664776299e-15 0)
(3 4.052217862e-15 0)
(3 2.342904198e-15 0)
(3 8.959291993e-16 0)
(3 -9.110821267e-16 0)
(3 -2.592898535e-15 0)
(3 -2.195416406e-15 0)
(3 -1.407353843e-15 0)
(3 8.727929437e-16 0)
(3 2.056084881e-15 0)
(3 2.980360333e-15 0)
(3 1.977818131e-15 0)
(3 1.401317926e-15 0)
(3 1.621804418e-15 0)
(3 1.54928619e-15 0)
(3 1.021841703e-15 0)
(3 3.725595748e-16 0)
(3 -5.188688013e-16 0)
(3 -1.220730795e-15 0)
(3 -3.219194365e-15 0)
(3 -3.686997924e-15 0)
(3 -2.954504878e-15 0)
(3 -2.068623183e-15 0)
(3 -3.581163796e-15 0)
(3 -2.072395142e-15 0)
(3 2.752203713e-15 0)
(3 5.830462972e-15 0)
(3 9.03505131e-15 0)
(3 1.206831324e-14 0)
(3 1.254774158e-14 0)
(3 1.349106476e-14 0)
(3 1.898518661e-14 0)
(3 2.335132986e-14 0)
(3 2.4450909e-14 0)
(3 2.433565006e-14 0)
(3 2.310934628e-14 0)
(3 2.199335566e-14 0)
(3 1.965678516e-14 0)
(3 1.821495833e-14 0)
(3 1.896204941e-14 0)
(3 1.803032302e-14 0)
(3 1.735289285e-14 0)
(3 1.874077474e-14 0)
(3 1.921065415e-14 0)
(3 1.954383204e-14 0)
(3 1.803433056e-14 0)
(3 1.3919304e-14 0)
(3 1.050709706e-14 0)
(3 7.090704041e-15 0)
(3 5.280793883e-15 0)
(3 4.661740269e-15 0)
(3 3.924983344e-15 0)
(3 2.167517833e-15 0)
(3 5.751347653e-16 0)
(3 -1.206464015e-15 0)
(3 -2.036341135e-15 0)
(3 -1.681204746e-15 0)
(3 -8.670292947e-16 0)
(3 -7.927398112e-16 0)
(3 -1.991481787e-16 0)
(3 -2.328010846e-16 0)
(3 -6.015292003e-16 0)
(3 2.306464706e-15 0)
(3 4.653889887e-15 0)
(3 4.990002887e-15 0)
(3 3.519725819e-15 0)
(3 3.715179575e-15 0)
(3 7.616902964e-15 0)
(3 5.961198728e-15 0)
(3 4.565302868e-15 0)
(3 1.85414183e-15 0)
(3 -3.194462389e-16 0)
(3 -1.733503758e-15 0)
(3 -4.959118076e-15 0)
(3 -5.273040566e-15 0)
(3 -5.531248132e-15 0)
(3 -3.078203614e-15 0)
(3 -2.088142573e-15 0)
(3 -1.793635419e-15 0)
(3 -4.04059973e-16 0)
(3 -1.460830842e-15 0)
(3 -2.439656603e-15 0)
(3 -3.854395018e-15 0)
(3 -4.516729418e-15 0)
(3 -4.676707375e-15 0)
(3 -5.97911368e-15 0)
(3 -6.619977629e-15 0)
(3 -8.334118166e-15 0)
(3 -1.078634172e-14 0)
(3 -1.271631376e-14 0)
(3 -1.139321118e-14 0)
(3 -1.021441907e-14 0)
(3 -5.532446623e-15 0)
(3 -2.02022054e-15 0)
(3 1.769839954e-15 0)
(3 4.268099132e-15 0)
(3 4.628957849e-15 0)
(3 6.322213908e-15 0)
(3 9.352727417e-15 0)
(3 1.476368664e-14 0)
(3 1.797688484e-14 0)
(3 1.700022966e-14 0)
(3 1.638743297e-14 0)
(3 1.664911202e-14 0)
(3 1.828422814e-14 0)
(3 2.081289116e-14 0)
(3 1.947641786e-14 0)
(3 2.037914256e-14 0)
(3 2.089628887e-14 0)
(3 2.078196428e-14 0)
(3 1.947865533e-14 0)
(3 1.753105287e-14 0)
(3 1.483728593e-14 0)
(3 1.17982354e-14 0)
(3 8.001945008e-15 0)
(3 6.46390438e-15 0)
(3 5.291083351e-15 0)
(3 3.903195716e-15 0)
(3 1.505065482e-15 0)
(3 1.379934972e-15 0)
(3 -8.564542232e-16 0)
(3 -6.72330806e-15 0)
(3 -9.363234757e-15 0)
(3 -8.63343179e-15 0)
(3 -6.155710849e-15 0)
(3 -5.143225031e-15 0)
(3 -4.593149824e-15 0)
(3 -3.653638617e-15 0)
(3 -3.852374739e-15 0)
(3 -1.198262604e-15 0)
(3 3.374620166e-16 0)
(3 3.118770159e-15 0)
(3 5.02432842e-15 0)
(3 5.173332657e-15 0)
(3 5.55172113e-15 0)
(3 4.820350219e-15 0)
(3 3.08352097e-15 0)
(3 2.55199875e-15 0)
(3 3.387122453e-15 0)
(3 3.584407686e-15 0)
(3 1.084861054e-15 0)
(3 -1.612986692e-15 0)
(3 -3.683226488e-15 0)
(3 -5.707107397e-15 0)
(3 -5.233576966e-15 0)
(3 -2.906995263e-15 0)
(3 -1.271568593e-15 0)
(3 -1.082726885e-15 0)
(3 -2.598296484e-15 0)
(3 -4.366074808e-15 0)
(3 -5.836333797e-15 0)
(3 -7.946253107e-15 0)
(3 -1.221653686e-14 0)
(3 -1.49128701e-14 0)
(3 -1.714344981e-14 0)
(3 -1.982088991e-14 0)
(3 -2.045755389e-14 0)
(3 -2.045182812e-14 0)
(3 -1.825498788e-14 0)
(3 -1.738916934e-14 0)
(3 -1.437155276e-14 0)
(3 -9.408519447e-15 0)
(3 -7.02950939e-15 0)
(3 -3.691214265e-15 0)
(3 -6.590991011e-16 0)
(3 1.425518167e-15 0)
(3 7.114676914e-15 0)
(3 9.294799925e-15 0)
(3 7.27663551e-15 0)
(3 6.700443944e-15 0)
(3 7.001426671e-15 0)
(3 8.729995969e-15 0)
(3 1.01488311e-14 0)
(3 9.195437006e-15 0)
(3 9.675438065e-15 0)
(3 1.243229459e-14 0)
(3 1.309418615e-14 0)
(3 1.215920883e-14 0)
(3 1.071750704e-14 0)
(3 9.516043761e-15 0)
(3 8.870578914e-15 0)
(3 7.676672985e-15 0)
(3 7.348202138e-15 0)
(3 6.656176894e-15 0)
(3 4.66563229e-15 0)
(3 2.312720091e-15 0)
(3 1.56826211e-15 0)
(3 -2.322185168e-15 0)
(3 -5.758019556e-15 0)
(3 -7.640902688e-15 0)
(3 -8.065445714e-15 0)
(3 -7.786912702e-15 0)
(3 -7.709518802e-15 0)
(3 -7.299366812e-15 0)
(3 -6.396081396e-15 0)
(3 -3.667585749e-15 0)
(3 -1.900020867e-15 0)
(3 -6.032126977e-16 0)
(3 3.718415679e-15 0)
(3 5.13132418e-15 0)
(3 3.80229735e-15 0)
(3 1.078276561e-14 0)
(3 8.048503868e-15 0)
(3 7.939870969e-15 0)
(3 8.656823144e-15 0)
(3 9.164585765e-15 0)
(3 9.605242183e-15 0)
(3 9.194622924e-15 0)
(3 7.241035658e-15 0)
(3 5.651731337e-15 0)
(3 2.616527169e-15 0)
(3 8.648857978e-16 0)
(3 2.296158792e-15 0)
(3 2.875519243e-15 0)
(3 1.67447514e-15 0)
(3 7.814866386e-16 0)
(3 -9.072979167e-16 0)
(3 -3.234845841e-15 0)
(3 -5.731754752e-15 0)
(3 -1.01892757e-14 0)
(3 -1.510389434e-14 0)
(3 -2.050627696e-14 0)
(3 -2.005460242e-14 0)
(3 -2.100614836e-14 0)
(3 -2.0311365e-14 0)
(3 -1.998256257e-14 0)
(3 -1.985824294e-14 0)
(3 -1.89036121e-14 0)
(3 -1.663191998e-14 0)
(3 -1.508015269e-14 0)
(3 -1.255329107e-14 0)
(3 -1.102665038e-14 0)
(3 -7.305916636e-15 0)
(3 -6.236544964e-15 0)
(3 -3.945539725e-15 0)
(3 -2.584289449e-15 0)
(3 1.794841063e-15 0)
(3 3.734250221e-15 0)
(3 3.365223979e-15 0)
(3 3.028007161e-15 0)
(3 4.474090468e-15 0)
(3 4.206019572e-15 0)
(3 3.635721979e-15 0)
(3 2.874615472e-15 0)
(3 3.176734521e-15 0)
(3 3.583208895e-15 0)
(3 4.182045516e-15 0)
(3 3.277569055e-15 0)
(3 2.485514413e-15 0)
(3 2.152391297e-15 0)
(3 1.586531232e-15 0)
(3 2.564991162e-16 0)
(3 -1.134922033e-15 0)
(3 -4.473336032e-15 0)
(3 -4.456083669e-15 0)
(3 -3.472341918e-15 0)
(3 -4.435924071e-15 0)
(3 -7.188888476e-15 0)
(3 -9.358084628e-15 0)
(3 -9.606394098e-15 0)
(3 -9.706185818e-15 0)
(3 -9.095701781e-15 0)
(3 -6.100260247e-15 0)
(3 -2.382059923e-15 0)
(3 -7.37069854e-16 0)
(3 1.06604165e-16 0)
(3 2.480606934e-15 0)
(3 6.274819108e-15 0)
(3 2.335787844e-14 0)
(3 2.230804523e-14 0)
(3 2.220512005e-14 0)
(3 2.043975106e-14 0)
(3 1.930524746e-14 0)
(3 1.790214791e-14 0)
(3 1.773665072e-14 0)
(3 1.718336568e-14 0)
(3 1.713953155e-14 0)
(3 1.396591066e-14 0)
(3 1.091542054e-14 0)
(3 7.551317339e-15 0)
(3 6.856675042e-15 0)
(3 4.147548137e-15 0)
(3 5.750048087e-16 0)
(3 -5.309296112e-16 0)
(3 -8.628637091e-16 0)
(3 -2.374323395e-15 0)
(3 -6.940629876e-15 0)
(3 -9.364945825e-15 0)
(3 -1.356728557e-14 0)
(3 -1.471058495e-14 0)
(3 -1.553412101e-14 0)
(3 -1.697943304e-14 0)
(3 -1.768521336e-14 0)
(3 -1.782238879e-14 0)
(3 -1.567205853e-14 0)
(3 -1.628798642e-14 0)
(3 -1.37107832e-14 0)
(3 -1.2791825e-14 0)
(3 -1.470389601e-14 0)
(3 -1.527121956e-14 0)
(3 -1.625332682e-14 0)
(3 -1.629791736e-14 0)
(3 -1.369970634e-14 0)
(3 -9.697354733e-15 0)
(3 -7.367700819e-15 0)
(3 -6.01242916e-15 0)
(3 -3.938218788e-15 0)
(3 -2.02846253e-15 0)
(3 3.883480355e-16 0)
(3 -1.302970464e-15 0)
(3 -1.729023137e-15 0)
(3 -2.053459792e-15 0)
(3 -3.073836847e-16 0)
(3 8.294227656e-16 0)
(3 8.580668665e-18 0)
(3 -7.55993739e-16 0)
(3 -8.628380133e-16 0)
(3 -2.140786652e-15 0)
(3 -3.01843292e-15 0)
(3 -2.681968558e-15 0)
(3 -3.327799464e-15 0)
(3 -2.947321966e-15 0)
(3 -2.451801741e-15 0)
(3 -3.41758024e-15 0)
(3 -3.495545219e-15 0)
(3 -3.872099211e-15 0)
(3 -5.08921949e-15 0)
(3 -5.17250244e-15 0)
(3 -5.235700595e-15 0)
(3 -6.27821994e-15 0)
(3 -3.72501935e-15 0)
(3 -2.481091143e-15 0)
(3 -2.26952469e-15 0)
(3 2.028314046e-15 0)
(3 7.548663457e-15 0)
(3 2.509361809e-14 0)
(3 2.472267832e-14 0)
(3 2.370649352e-14 0)
(3 2.116358619e-14 0)
(3 1.630261047e-14 0)
(3 1.583405745e-14 0)
(3 1.688329831e-14 0)
(3 1.529457736e-14 0)
(3 1.239148719e-14 0)
(3 9.319811765e-15 0)
(3 8.806845649e-15 0)
(3 6.174048343e-15 0)
(3 2.980957173e-15 0)
(3 2.044386745e-15 0)
(3 8.566462727e-16 0)
(3 -5.824745182e-16 0)
(3 -1.152633816e-15 0)
(3 -1.844167522e-15 0)
(3 -5.053087468e-15 0)
(3 -7.641765307e-15 0)
(3 -7.872032157e-15 0)
(3 -7.689230431e-15 0)
(3 -1.178983322e-14 0)
(3 -1.408289495e-14 0)
(3 -1.545160875e-14 0)
(3 -1.540353811e-14 0)
(3 -1.492301487e-14 0)
(3 -1.475395062e-14 0)
(3 -1.32894842e-14 0)
(3 -1.189973864e-14 0)
(3 -1.161322751e-14 0)
(3 -1.290809029e-14 0)
(3 -1.157482109e-14 0)
(3 -1.138809215e-14 0)
(3 -9.51304131e-15 0)
(3 -6.876145534e-15 0)
(3 -5.545549428e-15 0)
(3 -4.208367465e-15 0)
(3 -2.530951041e-15 0)
(3 -3.05421728e-15 0)
(3 -4.768118843e-15 0)
(3 -4.371135432e-15 0)
(3 -4.513019346e-15 0)
(3 -3.693156693e-15 0)
(3 -4.686419444e-15 0)
(3 -5.77824754e-15 0)
(3 -2.771116574e-15 0)
(3 -1.104162899e-15 0)
(3 -3.884505066e-15 0)
(3 -5.471264133e-15 0)
(3 -5.458141397e-15 0)
(3 -3.540849747e-15 0)
(3 -1.734027e-15 0)
(3 -1.77801544e-15 0)
(3 -1.688071792e-15 0)
(3 -7.767718174e-16 0)
(3 -6.801977283e-16 0)
(3 -7.274507443e-17 0)
(3 -3.992986452e-16 0)
(3 -4.469785703e-16 0)
(3 -1.074655046e-15 0)
(3 -1.577383184e-15 0)
(3 -1.118974946e-15 0)
(3 -1.610838715e-16 0)
(3 1.240043261e-15 0)
(3 3.67024881e-15 0)
(3 4.880191504e-15 0)
(3 2.245911258e-14 0)
(3 2.160821698e-14 0)
(3 2.063821706e-14 0)
(3 1.920327301e-14 0)
(3 1.476631446e-14 0)
(3 9.696015477e-15 0)
(3 9.389779483e-15 0)
(3 1.323892229e-14 0)
(3 1.280469392e-14 0)
(3 8.604547551e-15 0)
(3 3.216598278e-15 0)
(3 1.171699421e-15 0)
(3 -2.704452556e-15 0)
(3 -6.625481641e-15 0)
(3 -8.275201438e-15 0)
(3 -7.837148686e-15 0)
(3 -7.51405857e-15 0)
(3 -7.372958161e-15 0)
(3 -5.567708066e-15 0)
(3 -2.751238458e-15 0)
(3 -1.160387861e-17 0)
(3 -1.637181184e-15 0)
(3 -4.728296628e-15 0)
(3 -5.79364445e-15 0)
(3 -8.752106947e-15 0)
(3 -1.013840945e-14 0)
(3 -1.081327114e-14 0)
(3 -1.201351745e-14 0)
(3 -1.198508201e-14 0)
(3 -1.059077338e-14 0)
(3 -1.090359311e-14 0)
(3 -1.027821452e-14 0)
(3 -8.897284212e-15 0)
(3 -5.73506432e-15 0)
(3 -3.713228607e-15 0)
(3 -3.104605212e-15 0)
(3 -4.485224603e-15 0)
(3 -5.501471472e-15 0)
(3 -7.257201346e-15 0)
(3 -1.022288528e-14 0)
(3 -1.049497061e-14 0)
(3 -1.029942796e-14 0)
(3 -1.054787212e-14 0)
(3 -1.077501603e-14 0)
(3 -1.025049534e-14 0)
(3 -7.863944627e-15 0)
(3 -6.83837932e-15 0)
(3 -6.579763335e-15 0)
(3 -6.103443443e-15 0)
(3 -4.991075168e-15 0)
(3 -5.152929674e-15 0)
(3 -4.010140973e-15 0)
(3 -2.003585937e-15 0)
(3 6.370453447e-18 0)
(3 1.329035428e-15 0)
(3 1.00163605e-15 0)
(3 2.580024804e-16 0)
(3 5.246284359e-16 0)
(3 1.75739923e-15 0)
(3 1.827740889e-15 0)
(3 2.184448357e-15 0)
(3 3.85916803e-15 0)
(3 4.396148232e-15 0)
(3 4.89691077e-15 0)
(3 5.858779111e-15 0)
(3 6.824580685e-15 0)
(3 6.768968166e-15 0)
(3 1.371136181e-14 0)
(3 1.323224279e-14 0)
(3 1.254981292e-14 0)
(3 1.019947638e-14 0)
(3 8.44369013e-15 0)
(3 7.263152061e-15 0)
(3 6.201643069e-15 0)
(3 3.812654312e-15 0)
(3 4.116032277e-15 0)
(3 2.15438648e-15 0)
(3 -1.761402658e-15 0)
(3 -4.051108574e-15 0)
(3 -9.400282133e-15 0)
(3 -1.158355483e-14 0)
(3 -1.21207891e-14 0)
(3 -1.010119663e-14 0)
(3 -7.330216122e-15 0)
(3 -6.916283506e-15 0)
(3 -3.996271928e-15 0)
(3 -1.940426247e-15 0)
(3 -1.925165871e-15 0)
(3 -3.451301508e-16 0)
(3 3.685265423e-16 0)
(3 9.517895522e-16 0)
(3 5.18888669e-16 0)
(3 1.695431653e-16 0)
(3 -1.09531044e-15 0)
(3 -1.621760313e-15 0)
(3 -2.769939948e-15 0)
(3 -3.710747313e-15 0)
(3 -5.084062458e-15 0)
(3 -5.644960894e-15 0)
(3 -6.030548762e-15 0)
(3 -6.249181905e-15 0)
(3 -5.085620153e-15 0)
(3 -4.556996205e-15 0)
(3 -7.010203048e-15 0)
(3 -7.717572218e-15 0)
(3 -6.716441987e-15 0)
(3 -6.54394541e-15 0)
(3 -6.25691718e-15 0)
(3 -7.856818231e-15 0)
(3 -8.94042938e-15 0)
(3 -8.500574876e-15 0)
(3 -8.4035307e-15 0)
(3 -8.562742976e-15 0)
(3 -1.049929639e-14 0)
(3 -1.193209845e-14 0)
(3 -1.112625837e-14 0)
(3 -1.008532609e-14 0)
(3 -8.788234154e-15 0)