/*--------------------------------*- C++ -*----------------------------------*\
  =========                 |
  \\      /  F ield         | OpenFOAM: The Open Source CFD Toolbox
   \\    /   O peration     | Website:  https://openfoam.org
    \\  /    A nd           | Version:  7
     \\/     M anipulation  |
\*---------------------------------------------------------------------------*/
FoamFile
{
    version     2.0;
    format      ascii;
    class       volScalarField;
    location    "2.2";
    object      rho;
}
// * * * * * * * * * * * * * * * * * * * * * * * * * * * * * * * * * * * * * //

dimensions      [1 -3 0 0 0 0 0];

internalField   nonuniform List<scalar> 8(1.353026781 1.349945367 1.431856089 1.395463123 1.450119149 1.444408667 1.453493012 1.471233189);

boundaryField
{
    inlet
    {
        type            calculated;
        value           nonuniform 0();
    }
    outlet
    {
        type            calculated;
        value           nonuniform 0();
    }
    bottom
    {
        type            calculated;
        value           nonuniform 0();
    }
    top
    {
        type            calculated;
        value           nonuniform List<scalar> 2(1.453493012 1.471233189);
    }
    obstacle
    {
        type            calculated;
        value           nonuniform 0();
    }
    defaultFaces
    {
        type            empty;
    }
    procBoundary34to28
    {
        type            processor;
        value           nonuniform List<scalar> 2(1.331103749 1.354249168);
    }
    procBoundary34to33
    {
        type            processor;
        value           nonuniform List<scalar> 4(1.44090523 1.457094218 1.441477215 1.42071235);
    }
    procBoundary34to35
    {
        type            processor;
        value           nonuniform List<scalar> 4(1.369957306 1.395647515 1.422608411 1.457277193);
    }
}


// ************************************************************************* //
