/*--------------------------------*- C++ -*----------------------------------*\
  =========                 |
  \\      /  F ield         | OpenFOAM: The Open Source CFD Toolbox
   \\    /   O peration     | Website:  https://openfoam.org
    \\  /    A nd           | Version:  7
     \\/     M anipulation  |
\*---------------------------------------------------------------------------*/
FoamFile
{
    version     2.0;
    format      ascii;
    class       volScalarField;
    location    "5";
    object      p;
}
// * * * * * * * * * * * * * * * * * * * * * * * * * * * * * * * * * * * * * //

dimensions      [1 -1 -2 0 0 0 0];

internalField   nonuniform List<scalar> 
2222
(
0.6325762932
0.6271460024
0.6207684822
0.6085765346
0.601667467
0.598299838
0.9670377326
0.9349708455
0.9178727775
0.895745133
0.8655389156
0.851576817
0.8381264022
0.8139165457
0.799379509
0.7903494801
0.7728779815
0.754891589
0.7452241711
0.7326101639
0.7134218681
0.7050468821
0.6985859128
0.6851035165
0.6738450708
0.6688231759
0.6612198843
0.6484929622
0.6411570603
0.6350991859
0.6229366124
0.6147226129
0.6109964722
0.605313671
0.5955853883
0.5917693597
0.5882003442
0.9291153142
0.9012257975
0.8880245021
0.8660983705
0.8397627586
0.8279681877
0.8133845784
0.7895943933
0.7761226992
0.7653341341
0.7449718995
0.729736056
0.7230455671
0.7116161378
0.6958370013
0.688713898
0.6819687682
0.6679626524
0.6574523642
0.6512380103
0.6406664497
0.6285223915
0.6247270856
0.6200119492
0.6104023318
0.6031360138
0.5996369022
0.5911874624
0.583318371
0.580635319
0.579170873
0.8954259694
0.8737494893
0.8612521043
0.836646522
0.8131635364
0.8024339664
0.7858377238
0.7632037732
0.7533558533
0.7430897014
0.7234611893
0.7107992908
0.704016666
0.6910579353
0.6762373715
0.6691049936
0.6606313194
0.6452751494
0.6388954072
0.635209005
0.6263659318
0.6168788096
0.6125871407
0.6069218142
0.5958301744
0.588796612
0.5833207495
0.57451143
0.5743434561
0.5758926296
0.5809947348
0.8635324042
0.8465658702
0.8329752283
0.8047640247
0.7859411086
0.7765672359
0.7583556458
0.738293471
0.730612781
0.7205612911
0.7019221607
0.6914533916
0.6837846527
0.6684720169
0.6564637587
0.652172454
0.6445535976
0.6317219846
0.6255207974
0.6209593869
0.6108649247
0.6015699638
0.5960613743
0.5878201822
0.5757370785
0.5748860346
0.5733054482
0.5727141631
0.5741413387
0.5908584248
0.6393549955
0.8282284143
0.817466316
0.8035940554
0.7757807966
0.76343359
0.7553161937
0.7357794828
0.7178230251
0.7091709898
0.6957515324
0.6768431725
0.6702648733
0.6640665422
0.6501611511
0.6402120923
0.6356903176
0.6268357617
0.6145763351
0.6080625635
0.6016928147
0.5889886027
0.5838793744
0.5816593517
0.574662393
0.5711524815
0.5725560247
0.5728700971
0.5783163752
0.609562337
0.6948291893
0.8092526244
0.8011333136
0.7928415159
0.7755795024
0.7489043714
0.7384839841
0.7284915066
0.7059524921
0.6933436297
0.6877573732
0.6750926206
0.6596447417
0.6531291488
0.6454827836
0.6301742944
0.6216037009
0.6162357997
0.604939895
0.5958175075
0.5931598783
0.5882547104
0.5791619217
0.5762560123
0.5734525947
0.5680676625
0.5681239943
0.5709726713
0.5915899255
0.6477698107
0.7494539735
0.8733027948
0.9643843722
0.7755123315
0.7671250175
0.7458362091
0.7233264477
0.7158264491
0.7040184864
0.6821705784
0.6724743007
0.6664295544
0.6513646069
0.6380107131
0.6323575884
0.622859537
0.6082717195
0.6050363164
0.6018180125
0.5930599463
0.5862750215
0.5834448944
0.5754409216
0.568357665
0.566654621
0.5652893617
0.5654436016
0.5753130404
0.6135278074
0.7151739192
0.8190647071
0.914651252
0.9441574661
0.9836930166
0.7474615735
0.7373401981
0.7130638273
0.6974296748
0.6921108973
0.6791705834
0.6598132776
0.6526277655
0.6449879363
0.6277760937
0.6201064793
0.6170866554
0.6084829043
0.597065977
0.5931757583
0.5882102893
0.5778896159
0.5726595626
0.5683077261
0.5610588843
0.5607670428
0.5618799936
0.5662341146
0.5896226316
0.6623840624
0.7699958514
0.8638752489
0.9437392681
0.9922750677
0.9824483281
0.9865434475
0.7246132089
0.7128801889
0.6881583187
0.6760018693
0.6688117285
0.6513191632
0.6358082217
0.6327439593
0.6260687722
0.6118594052
0.6054738723
0.6013368025
0.5903581575
0.5804161518
0.5758202888
0.5683482786
0.5600942891
0.560418886
0.5600927407
0.5594925623
0.5603674176
0.5737826615
0.6193220192
0.7158951122
0.850374482
0.9492362475
0.9687732083
0.9866485905
0.9997183262
0.9998856514
0.996748212
0.6973784917
0.682848884
0.6599868612
0.654451061
0.6486140223
0.6327177532
0.6205837107
0.6155442942
0.6047799842
0.5909016666
0.5860931778
0.5811900844
0.5690357063
0.5655583845
0.5646178648
0.5599976158
0.557763695
0.559271915
0.5601358937
0.5657384076
0.5916061186
0.6726434455
0.7790318904
0.8921073982
0.9333134076
0.9786676737
0.9837033324
0.9893722238
0.9958707581
1.000583534
0.9995326069
0.6728989793
0.6555801578
0.6377332306
0.6322962038
0.6244676822
0.6071400204
0.5989523329
0.5938369073
0.5812482749
0.5730277294
0.5730114457
0.5700122673
0.5630554787
0.5618637539
0.5603443486
0.5568923718
0.5566343893
0.5594798362
0.5770983999
0.6373231983
0.7345018883
0.8498762703
0.9455618693
0.9897034803
0.9813263288
0.9869419729
0.9867482831
0.986016027
0.9884378629
0.9954462626
0.9976209822
0.6473937507
0.6285970111
0.6159072422
0.6105189348
0.5998469676
0.5856268093
0.5845996882
0.5818310907
0.5722865779
0.5676107492
0.5661962614
0.5606725808
0.5565337592
0.5563817976
0.5549861368
0.5546806987
0.5629812167
0.6001976942
0.6969039903
0.8119021112
0.9159603743
0.9387414064
0.9693817469
0.9976090425
0.9977375779
0.9973351776
0.9957002102
0.9926562592
0.9923748326
0.995073498
0.996581445
0.6205794807
0.6011674558
0.5959879702
0.5933805097
0.584480687
0.5765269385
0.5748910213
0.5697923089
0.5607697864
0.5579763262
0.5551797582
0.5504312907
0.5506178988
0.5517986998
0.5564443398
0.5767050787
0.6452463316
0.7528817919
0.8601984526
0.9263937108
0.9887033377
0.9917795168
0.9890069261
0.9931410337
0.9972461654
0.9982483217
0.9985666922
0.9986368631
0.9983701746
0.9980170088
0.997726019
0.6029761388
0.5892924522
0.5840097071
0.5786411626
0.5662839095
0.5621380201
0.5598781203
0.5540622377
0.5497315795
0.5501665693
0.5502603128
0.5495026718
0.5505982513
0.5635340329
0.6120824785
0.7005120402
0.8281228355
0.9419090985
0.9726346094
0.9802923109
0.995898878
1.0029183
1.001397291
0.9981439044
0.9966444627
0.9969302745
0.9980062082
0.9987817579
0.9989934853
0.9988068069
0.9982979538
0.579571594
0.5694468545
0.5656510366
0.5597922576
0.5517518082
0.5516451757
0.5512844316
0.5491449482
0.5485095956
0.5496062053
0.5503489576
0.5561173124
0.5845132317
0.671166302
0.778326576
0.8895134951
0.9277453051
0.9720093586
0.9902298844
0.9873033792
0.9921253717
1.000402702
1.0017538
1.000292264
0.9975786824
0.9966461408
0.9962260434
0.9963700133
0.9966962655
0.9970556096
0.9973200992
0.5590534527
0.5562144738
0.5568357987
0.5543186193
0.550647947
0.5507471521
0.5507647278
0.5496597582
0.5495906845
0.5523105621
0.5673137344
0.6251935315
0.7265707259
0.8438039327
0.9301729599
0.9910410197
0.9895933468
0.9882115722
0.989747195
0.9876715868
0.9883743181
0.9933431038
0.9983974913
0.9989297493
0.9985373221
0.9974062789
0.9961847476
0.9951561065
0.9951164308
0.9954783573
0.9962441709
0.5548036124
0.5541740189
0.5542010075
0.5514387236
0.5490690711
0.5492633259
0.548877687
0.5492168206
0.5569927364
0.5933225029
0.6742343543
0.8062197605
0.9255823128
0.9667027775
0.981039222
1.000544532
1.001464107
0.999037983
0.9968196078
0.9943417572
0.9932730069
0.9942743259
0.9967009807
0.9976645937
0.9978038922
0.997829403
0.9970177751
0.9960776118
0.9959598093
0.996239237
0.9968837678
0.5494724051
0.5496270472
0.5492051635
0.5468945461
0.5463246291
0.5467106264
0.5507311518
0.5698381425
0.637465532
0.7399977086
0.8648728293
0.9132655652
0.9635473244
0.9808658867
0.981234756
0.9903018043
0.9981647763
0.9994745223
0.9989160869
0.9985972815
0.9984851447
0.9980878817
0.9978279086
0.9977074529
0.9976661895
0.9978756905
0.9978105933
0.9977452422
0.9977389682
0.9979426852
0.998176415
0.5446285279
0.5448558466
0.5453129689
0.5452826168
0.5468610459
0.5577195723
0.604818705
0.6914107457
0.8171443897
0.9215984089
0.984747907
0.9845616738
0.9867288535
0.9869471223
0.9837631525
0.9884556195
0.997037777
0.998417369
0.9985336503
0.9986284784
0.9990412162
0.9991439522
0.9987152461
0.9979581832
0.9977890262
0.9977402243
0.9979953968
0.9982132481
0.9983970698
0.9985383612
0.9985882601
0.5442380538
0.5444894298
0.5452777461
0.5514081289
0.5804878068
0.656772136
0.768577682
0.8823585022
0.9244689
0.9576378954
0.9949089253
0.9980503682
0.9967819993
0.9965382662
0.99500355
0.9958827424
0.9988843478
0.9987865183
0.9980674059
0.9969252767
0.9968882165
0.9973864256
0.9975934822
0.9975394602
0.9977571441
0.9978028014
0.997881122
0.9981451958
0.9984664293
0.9986243112
0.9986133712
0.5449945835
0.5478024127
0.5618963196
0.6187521958
0.7177030041
0.8430668181
0.9277495317
0.9845857481
0.9896005292
0.9830956636
0.9900348894
0.9955663614
0.9975467569
0.997747624
0.9986062621
1.000190878
1.000329662
0.9999631515
0.9980972273
0.9962893725
0.9955643298
0.9957546905
0.9963884156
0.9971982372
0.9977210126
0.9979104156
0.9978622051
0.9979388875
0.99810179
0.998218687
0.9982415322
0.5541708984
0.5903006974
0.6681540766
0.7987322487
0.9153230756
0.9705718857
0.9725130689
0.9936044199
0.999964459
0.9980484967
0.9964028705
0.9972857285
0.9964105361
0.9963517405
0.9976503784
0.999341993
0.9996067897
0.9990107648
0.9977753741
0.9962076108
0.9956439004
0.9958238107
0.9964508564
0.9972530389
0.997729296
0.9978919679
0.9979153756
0.9980779868
0.9982413517
0.9983055887
0.9983142478
0.6370391268
0.7418373657
0.868616813
0.9124899646
0.9559692882
0.979858802
0.9790072944
0.9856837357
0.9939127697
0.9992381637
0.9992193746
0.9985686962
0.9969907185
0.9952207146
0.995035501
0.9955323564
0.9965523264
0.9969466932
0.9967773537
0.9964128878
0.9963333363
0.9965114569
0.996848828
0.99737766
0.9977085465
0.9977585811
0.997884882
0.998222966
0.9984658053
0.9984782964
0.998450141
0.8090330149
0.9147293739
0.9817274617
0.9819188168
0.984658412
0.9889474168
0.9916402786
0.9927670981
0.9962281619
0.9991580373
0.9995489085
0.9993613418
0.9983341339
0.9963553099
0.9948636695
0.9949520175
0.995568801
0.9958178872
0.995825715
0.9960197518
0.9964256027
0.9970244864
0.9975041577
0.9979022799
0.9980771379
0.9980366762
0.998069059
0.9983400617
0.9984953118
0.998471582
0.9983731354
0.9579048286
0.9705874665
0.9899092957
0.9965214611
0.9963417929
0.9976082145
0.9993873884
0.9997010221
0.9995230524
0.9992883914
0.9992583294
0.9991697274
0.9987348999
0.997333832
0.9960661774
0.9955881437
0.9957991946
0.9957976091
0.9959193471
0.9962565361
0.9968030914
0.9975007998
0.9980394781
0.9983468714
0.9984288752
0.9983877693
0.9983493289
0.9984372174
0.9984822747
0.9984110533
0.9982697887
0.97942533
0.98153271
0.9894654865
0.9956080489
0.9965211944
0.9975246922
0.9991503444
0.9996162323
0.9995209614
0.9990228633
0.998806261
0.9984191271
0.997589394
0.9968763175
0.9966473153
0.9966275639
0.9968282982
0.9968454118
0.9967138981
0.9967780203
0.9971843486
0.9977577454
0.9982608267
0.9985227905
0.9985506261
0.9985250884
0.9985474859
0.9985726342
0.998562049
0.9985155163
0.9984016236
0.9904408444
0.9946149374
0.9957729282
0.9971231406
0.9973042799
0.996993801
0.997787063
0.9986919714
0.9988740494
0.998676763
0.9977174407
0.9966118496
0.9956500755
0.9955619032
0.9958715
0.9964788034
0.9968128234
0.9970058235
0.997044405
0.9971734783
0.9976388064
0.9982089133
0.9986180086
0.9988317126
0.9988292714
0.9986890011
0.9985063972
0.9984153804
0.9984374939
0.9986185735
0.9986856602
0.9962260271
0.9979512357
0.9987217993
0.9981192828
0.9975073709
0.9965732426
0.9966232518
0.9972232642
0.9974409234
0.9971792805
0.9966369837
0.9961856989
0.9955180677
0.9955031739
0.9958026776
0.9962949482
0.9966725424
0.9970922493
0.9974013581
0.9977234012
0.9979669585
0.9981735967
0.9982747162
0.9982524656
0.9981699094
0.9981431372
0.9981737996
0.9981813433
0.9983000372
0.9984785885
0.9985403992
0.9972336738
0.9975994826
0.9982554048
0.9984058191
0.9977309699
0.9973777304
0.9974165767
0.9975566241
0.9974547754
0.9971940157
0.9969911551
0.9969014984
0.9967326478
0.996336099
0.9961443149
0.9962960648
0.9965633809
0.9968915226
0.997163936
0.9976496473
0.9981720686
0.9985344146
0.9987066348
0.9986523311
0.9984925376
0.9984202611
0.9983375396
0.9982820739
0.99834851
0.9984926653
0.998551208
0.9965878667
0.9975007431
0.9984508968
0.9987663213
0.9984930304
0.9982830263
0.9983092059
0.9982552202
0.997951678
0.9974731426
0.9971723874
0.9969888506
0.9969530872
0.9969098251
0.996571025
0.9966922705
0.9973154368
0.9978479721
0.9981874754
0.998341121
0.998494894
0.998684138
0.9987975434
0.9987375053
0.9985548287
0.9984273531
0.9982225335
0.9980657551
0.9980472967
0.9980236437
0.9979735478
0.9955645442
0.996876998
0.9973775664
0.9983956716
0.9989925794
0.9990300538
0.9988200957
0.9987175618
0.9984862479
0.9980970207
0.9975616575
0.9972504518
0.9970849268
0.9972442212
0.9976569717
0.9973942769
0.9968507722
0.9964291948
0.9962443389
0.996321977
0.9960246186
0.9960563515
0.9963277005
0.9970853274
0.9981922049
0.9991003757
0.9998155362
1.000126464
1.000159751
1.000232761
1.000250279
0.9997281884
0.9955291675
0.9967502228
0.9970032784
0.9978968918
0.9985595378
0.998944129
0.9989400388
0.9987343941
0.9982748138
0.9977045306
0.9970598932
0.9967075837
0.9965357779
0.9967173934
0.9974561321
0.9982487035
0.9984307316
0.9973898042
0.9965122697
0.996178476
0.9958587722
0.995416991
0.9951334037
0.9952645264
0.9960309678
0.9965816638
0.9972993771
0.9981353832
0.9990675981
0.9999747719
1.000438664
1.000566626
0.995014118
0.9960251048
0.9964279574
0.9972554602
0.9977297681
0.9980084426
0.998157966
0.9983621328
0.9979598686
0.9973891655
0.9967743779
0.9964721385
0.9963736523
0.9966490657
0.9973548362
0.9985839482
1.000473168
1.000669287
0.9995190013
0.9979393539
0.9963354249
0.9953780612
0.9950870605
0.9951990775
0.9953164655
0.9956982288
0.9961406359
0.9965540984
0.9971148005
0.9980321311
0.999556097
1.000652691
0.9953266554
0.9956277018
0.9963538671
0.9971523433
0.9968351592
0.9968142249
0.997045187
0.9975028878
0.9975334207
0.9971614593
0.9966273301
0.9963093747
0.9962645869
0.9965764242
0.9972420197
0.9985113147
1.000983192
1.002622545
1.00263421
1.001893927
1.000311705
0.9981421141
0.9961145665
0.9953640599
0.9951762672
0.9955524487
0.9960194586
0.9961368269
0.9964411142
0.996809874
0.9977454862
0.9993859832
0.9961968938
0.9965690692
0.9968768077
0.9973302813
0.9970376492
0.9966848949
0.9967084842
0.9970420725
0.9972578188
0.9972816092
0.9970717889
0.9968826623
0.9969007181
0.9971696032
0.997620673
0.9983956151
1.000778432
1.002384228
1.003028285
1.003323715
1.002958374
1.002103566
1.000311555
0.9978374104
0.9960347673
0.9957132204
0.9958628486
0.9958919079
0.9959896239
0.9962536435
0.996677616
0.9976678466
0.9961403395
0.9970672993
0.9977029035
0.9980687517
0.9979227579
0.9974592035
0.9974482107
0.9978746105
0.9979204113
0.9976621949
0.997579171
0.997716832
0.997884632
0.998078763
0.9979041025
0.9982968368
1.000151817
1.001823035
1.003204421
1.003711352
1.002997142
1.003344117
1.002885244
1.001483524
0.9996383341
0.9975567808
0.9962399236
0.9957582159
0.995696555
0.995920286
0.9964056616
0.9967065108
0.995802928
0.9971415906
0.9981175079
0.9988290897
0.9990392666
0.99872374
0.9985512332
0.9986703934
0.9985275076
0.9983102954
0.9982579362
0.9983890973
0.9984588334
0.9984600697
0.9978099837
0.9980515882
0.9991235354
1.001341312
1.002383082
1.002921871
1.003023991
1.002905447
1.002749893
1.00344178
1.002081705
1.000483622
0.9987210594
0.9972592825
0.9961595916
0.9959870562
0.9961340886
0.9962445693
0.9955783305
0.9969109839
0.9980956914
0.9990382657
0.9995891831
0.9995112514
0.9993660966
0.9991483437
0.9987766848
0.9985256194
0.9984840834
0.9985327521
0.9985464498
0.9983364948
0.9974420936
0.9976340881
0.9981435602
0.9989080854
0.9996528517
1.000398656
1.002023743
1.00226933
1.002802006
1.002486366
1.002038439
1.001657696
1.000563229
0.9996677722
0.9984231869
0.99721739
0.9962345193
0.9961080895
0.9952609998
0.9966100241
0.9980383104
0.9990457704
0.9992520354
0.9992281476
0.9992839578
0.9992283881
0.998720756
0.9983684926
0.9982599271
0.998236905
0.998244474
0.9981155868
0.9972664173
0.997252896
0.997252696
0.9974509791
0.9980385114
0.9986643201
0.9985526956
0.9997009017
1.001860976
1.001386001
1.001925698
1.001476169
1.001373126
1.000539611
1.000033733
0.9991896486
0.9979235987
0.9965726198
0.9934172229
0.9953406742
0.9966432093
0.9979945235
0.9988688496
0.9986730311
0.9986438988
0.9986656598
0.9984156922
0.9980822758
0.9978416986
0.9978106435
0.9978493405
0.9979742187
0.998173885
0.9975109492
0.9971221548
0.9968435384
0.9972957288
0.9976940222
0.9978007789
0.9973581186
0.9976839791
0.9979808014
1.000504338
1.001422077
1.000921043
1.000642814
1.000191801
1.00021695
1.000032705
0.9996374925
0.9981838448
0.9942544229
0.9964445834
0.9972333907
0.9980985641
0.9984205513
0.9978413407
0.9976904485
0.9977769797
0.9976037469
0.9974853168
0.9973336241
0.997337049
0.9975295022
0.9979815557
0.9984781078
0.998326742
0.9980852784
0.9978170215
0.9976124105
0.9974579955
0.9970289867
0.9967764454
0.9965613499
0.9966840912
0.9971021054
0.9983578025
1.000047196
0.9997246543
1.000082272
1.000490552
1.000650607
1.000345145
0.9995922346
0.9952373446
0.9977299578
0.9981116676
0.9981450199
0.9981262287
0.9971773207
0.99677409
0.9970022626
0.9973590825
0.9975975146
0.9975303781
0.9975056591
0.997648242
0.9981781316
0.9989650451
0.9998265429
1.000489471
1.000260255
0.9992437788
0.9984879254
0.9976008273
0.9969115707
0.9961544447
0.996210672
0.9961877601
0.9964108166
0.997289854
0.9990939076
0.9998645034
1.00023628
1.00030559
1.000250164
1.000030901
0.9958271136
0.9979255441
0.998597828
0.9984825886
0.9979193502
0.9970243224
0.9966472988
0.9970620139
0.9972779928
0.9972440561
0.9972136762
0.9974085593
0.9977123276
0.9982599926
0.9993791622
1.000908465
1.001992753
1.002067331
1.001623499
1.001015629
1.000237923
0.9990977077
0.9976722012
0.9965522686
0.9959302799
0.9962163396
0.9964376593
0.9966688783
0.9972986347
0.9986857204
1.000063815
1.000399401
1.000334109
0.9955181631
0.9978325421
0.9985569276
0.9987668459
0.998651529
0.9978625272
0.9972415164
0.9974977737
0.9975827833
0.9973968464
0.9973820438
0.9976854721
0.9979338357
0.9984119569
0.9993547756
1.000902746
1.002079585
1.002597657
1.002777029
1.002565802
1.002200316
1.001708602
1.000981621
0.9992762673
0.9972382439
0.996337304
0.9962581814
0.9961058146
0.9960439362
0.9964512181
0.9985592216
1.000244705
1.000175812
0.9950658537
0.9968573092
0.9982490807
0.9989139795
0.9992001565
0.9988601287
0.9986595601
0.9985644328
0.9982388847
0.9978704918
0.9977575027
0.9978252533
0.9979302116
0.9983263304
0.9991932047
1.000781018
1.001995398
1.002424675
1.002651755
1.002588204
1.002362591
1.002633588
1.00250282
1.001802412
1.000346182
0.9978449901
0.9967938763
0.996081359
0.9957499465
0.996116099
0.9964753131
0.9983029878
1.000015169
0.9950567168
0.9965905744
0.9976241571
0.9990922318
0.9996074127
0.9993184229
0.9991771166
0.999009163
0.9986366822
0.9982017055
0.9979952702
0.9979156003
0.9979046811
0.997937298
0.9983080593
0.9999551511
1.00127574
1.002226003
1.002692759
1.002926941
1.002810911
1.002676358
1.0026078
1.00255372
1.0017329
1.000412212
0.9989048871
0.9975606136
0.9961070815
0.9956969531
0.9955229981
0.9960742039
0.9984890581
0.9961065702
0.9969794148
0.9977773087
0.9985129086
0.9992293171
0.9993497809
0.9993065637
0.9990754405
0.9986991026
0.9983014548
0.9980353911
0.9977954952
0.9974728053
0.9968365901
0.9961824164
0.9968343224
0.9981336776
0.9999621264
1.001331027
1.002084115
1.002545537
1.002506403
1.002623167
1.002714793
1.002225649
1.001681939
1.000387787
0.9995832467
0.9982871536
0.9964626667
0.9957321162
0.995741839
0.9954444299
0.9973887752
0.9984459169
0.9984301329
0.9986364432
0.9983238774
0.9980942795
0.9985056805
0.9988584611
0.9988254791
0.9985104615
0.9982514639
0.997836376
0.9970831288
0.9963298503
0.9952299661
0.9950009757
0.9953575793
0.9958908712
0.9966302229
0.9973266969
0.9983452048
0.9995688757
1.001594413
1.002340599
1.002492825
1.002033206
1.001112951
1.000025687
0.9994749959
0.998722323
0.9969788616
0.9957722128
0.9957954096
0.9982015381
0.9994717923
0.9995144621
0.9987832383
0.9981268856
0.9972440499
0.9974745513
0.998167248
0.998551282
0.9985106553
0.9982680388
0.9978457169
0.9973645433
0.9966226726
0.9956381238
0.9952085448
0.9946330641
0.9946737735
0.9942794082
0.99415642
0.9941335834
0.9949079726
0.9967345329
0.9991428698
1.001409664
1.00181517
1.001449419
1.000515124
0.9999992867
0.9997332404
0.9987800949
0.9967811145
0.9951293852
0.9982846704
0.9998420963
0.9998830111
0.9994781233
0.9984267356
0.9972823537
0.9972288614
0.9976168872
0.9980568551
0.9983554957
0.998246525
0.9981729637
0.9979777022
0.9977098036
0.9968679753
0.995744751
0.9952691769
0.9946767628
0.9940298546
0.9932545421
0.9928464599
0.9929715125
0.9940755856
0.9948047025
0.9971749695
1.00000185
1.001028935
1.000891628
1.000506196
1.000239288
0.9998425034
0.9988008075
0.9941866116
0.9967774284
0.9994680056
1.000135073
0.9998459431
0.9992353334
0.9982451361
0.9978241229
0.9978667769
0.9980311519
0.9982843282
0.9983919422
0.9987908561
0.9990452873
0.9991310368
0.9990368787
0.997742338
0.9961296859
0.9944600605
0.9937125616
0.9932741296
0.9926585225
0.9935531445
0.993130533
0.9935199345
0.9943901629
0.9959966754
0.9983281686
0.9999356495
1.00067847
1.000658472
1.000515398
0.9997888812
0.9941683181
0.9960267714
0.9978162584
0.9996938563
1.000100129
0.999811196
0.9989369174
0.9986862445
0.9983755047
0.998252029
0.9985238854
0.998992155
0.9995804843
1.000151687
1.000513102
1.000439921
0.9996835916
0.9982583513
0.9972228142
0.9965186845
0.9962157289
0.995246292
0.9955354256
0.9940299018
0.9937340349
0.9943082662
0.9945626084
0.9953738241
0.9966620875
0.9988008666
1.000520986
1.000837462
1.00048484
0.9951243183
0.9964853194
0.9973270133
0.9982785791
0.9992740779
0.999557399
0.9993444577
0.9991189798
0.9988970122
0.9986697826
0.9989035064
0.9995907758
1.000128681
1.000889798
1.001388463
1.000963929
1.000238464
0.9993510598
0.998928768
0.9991923108
0.9991380983
0.9988353341
0.999122847
0.9984107158
0.9962375881
0.9945426606
0.9943494089
0.9950728602
0.9948847134
0.9959454602
0.9980750097
1.000298284
1.000880532
0.9964955476
0.9978863938
0.9976926772
0.9978024764
0.9980613713
0.9979929432
0.9982578971
0.9985728578
0.9988530326
0.9987622438
0.9988591527
0.9991670716
1.000048308
1.001227018
1.00178534
1.001284935
1.000701163
1.000028869
1.000273203
1.000562782
1.001011967
1.00130239
1.001401605
1.000930358
1.000380502
0.9980884872
0.9960819481
0.994949841
0.9954901227
0.9954905963
0.9959457797
0.9977912717
1.000098603
0.9975375186
0.9990599247
0.9989895467
0.9988450105
0.9983408832
0.9974514249
0.9968352794
0.9972126506
0.9974786478
0.9974928334
0.9974702623
0.9975326254
0.9981035558
0.9991670474
1.000926144
1.001122733
1.000919478
1.000929193
1.001691661
1.002073232
1.00261267
1.00234782
1.002396086
1.002340547
1.001651529
1.001315212
0.9998911883
0.9972569688
0.9958832311
0.9956036592
0.9958016779
0.9961616391
0.997645309
0.9954354987
0.9978541425
1.000060947
1.000217583
1.000041923
0.9990640783
0.9977085068
0.9963584435
0.9966335599
0.9966278586
0.9966316697
0.996450786
0.9962116138
0.9961506206
0.9964807024
0.9981476729
1.000062189
1.00092382
1.001883642
1.002326712
1.002885997
1.003225349
1.002796627
1.002920348
1.003257656
1.002717145
1.002236677
1.001070771
0.9999742497
0.997993641
0.9966629937
0.9961794043
0.9961166028
0.9963987931
0.9941430169
0.996310825
1.000001062
1.001085293
1.000593088
0.9993386439
0.9979449003
0.9967947145
0.9970519186
0.9968817993
0.996629617
0.9962853203
0.9957325256
0.9953423989
0.995614132
0.9960321592
0.9973890438
0.9988053643
1.000170875
1.000744099
1.001659922
1.002280328
1.002638267
1.003169239
1.003450173
1.003454718
1.002727849
1.00196678
1.000954077
0.9996203645
0.9987967463
0.9976340391
0.9966691393
0.9963235504
0.994374394
0.9953563983
0.9980591639
1.000481048
1.000259267
0.999667299
0.9987324155
0.998049021
0.9981817444
0.9979533023
0.9971724314
0.9967326844
0.9962561803
0.9962106969
0.9961677926
0.9964043252
0.9964390154
0.996587523
0.9971681699
0.9970697371
0.9973857999
0.9976754388
0.9991983482
1.001222298
1.002508304
1.003046722
1.003223897
1.00269107
1.001375613
1.000561118
0.9996991697
0.9991776886
0.9982036667
0.9968378046
0.9952039955
0.9958778603
0.9967043894
0.998036243
0.9994715986
0.9996222436
0.9993158503
0.9988631836
0.9988595133
0.9987343062
0.9983040345
0.9980064959
0.9977386006
0.9976249385
0.9974025149
0.9970534588
0.9964999479
0.9968826003
0.9959257848
0.9960365312
0.9953010483
0.9949853091
0.9954823523
0.9966229966
0.998402119
0.9998380383
1.001691125
1.002197004
1.001673612
1.000828806
1.000376134
1.000051693
0.9993277643
0.9983849984
0.9959313973
0.9967433887
0.9973119318
0.9969812712
0.9970776546
0.9975174519
0.9982168965
0.9985534278
0.9990886143
0.9992110586
0.9991962081
0.9990514555
0.9988772558
0.9987934072
0.9985979803
0.9982828003
0.9977886121
0.9973249186
0.9962778358
0.9952465639
0.9946485199
0.9936820778
0.9940617234
0.9947132981
0.9952251505
0.9959447725
0.9972333509
0.9986325466
0.9999787268
1.000293944
1.000703974
1.000490163
1.000206347
0.999406767
0.9973501101
0.9980617033
0.9983201296
0.997108489
0.9957136956
0.9949791586
0.9950837266
0.9958699265
0.9971903644
0.9982393125
0.9989167689
0.9992960492
0.999356679
0.9994522994
0.9994974651
0.9990565823
0.9987332647
0.9973462582
0.9967224771
0.9953320672
0.9948259612
0.9945614968
0.9950101912
0.9941459272
0.9939149798
0.9951233093
0.9949026565
0.9956593923
0.9964422223
0.9975240856
0.999309288
1.000476904
1.000732295
1.000267524
0.9982264843
0.9989518722
0.9988999631
0.9977684287
0.9963163455
0.9945746553
0.9934514743
0.9938000815
0.9947745559
0.995944896
0.9971682402
0.9982253042
0.9987232057
0.9992062443
0.9993169883
0.9987230713
0.997734962
0.9972530504
0.9966090781
0.9966290763
0.996266718
0.9964732999
0.9959310286
0.9953233566
0.9949092969
0.9946526015
0.9957542816
0.9954955915
0.9952154155
0.9955808661
0.9963181496
0.9985298078
1.000296783
1.000652046
0.9976911472
0.999481938
0.999503368
0.9986972281
0.996540153
0.9942128366
0.992752736
0.9930869754
0.9943670046
0.9953580253
0.9962474102
0.9974433004
0.9981449927
0.9984704697
0.9982118929
0.9972156243
0.9962194347
0.996374434
0.9965974334
0.9977293089
0.9976880012
0.9977917602
0.9980943657
0.9984189849
0.9974385633
0.9957749059
0.996932408
0.9961230912
0.9956067208
0.9948814835
0.9950559043
0.9961430715
0.9980763246
0.99527213
0.9964748551
0.9988687603
0.9999522783
0.9991676795
0.997438695
0.9957356524
0.9940330593
0.9935657304
0.9941903305
0.9952728043
0.9965264345
0.9974056549
0.9981368903
0.9980038526
0.9975642646
0.9965043635
0.9955796566
0.9954609685
0.9965711034
0.9979796508
0.999267577
0.9992247473
0.9999350744
0.9998896128
0.9994850355
0.9987803346
0.9967667488
0.9965519868
0.9963281657
0.9960481202
0.9960303379
0.9954420622
0.9961977623
0.9958073195
0.9964490553
0.9982131089
0.9997848133
0.9994383612
0.9985099405
0.9974637868
0.9963947963
0.9953313792
0.9954253594
0.995628458
0.997022091
0.9977793516
0.9983757953
0.997948695
0.9975861201
0.9970428749
0.9960804036
0.9954673255
0.9965081049
0.9982429645
1.000389479
1.000773404
1.001378479
1.001139298
1.000921858
1.000329964
0.9985753395
0.9982093027
0.9977996582
0.9974088313
0.9973115884
0.9963111595
0.9961872787
0.9970315263
0.9971623024
0.99836287
0.9998092152
0.9997572718
0.9995111847
0.9986426597
0.9975186943
0.9966120742
0.9969193475
0.9971307759
0.9971584542
0.9981463444
0.9990004931
0.9992136625
0.9989640448
0.9982980278
0.9970700945
0.9964528898
0.9964369917
0.9979277353
1.000723201
1.00168031
1.002227552
1.002283314
1.00219875
1.001299386
1.000182621
0.9995526197
0.9987344648
0.9980432695
0.9972433521
0.997700632
0.996601723
0.9979956524
0.9981820036
0.9992559559
1.000287565
0.9999721316
0.9999228838
0.9992229168
0.9985149282
0.9977731801
0.9980283524
0.9981496621
0.9977638127
0.9982529213
0.99935904
1.00022737
1.000167512
0.9997466471
0.9991415603
0.9980678329
0.9971019198
0.997115962
0.9983507864
1.000587079
1.002015405
1.002731535
1.002854536
1.002079252
1.001119971
1.000449825
0.9994205029
0.9988488147
0.9985352544
0.9980359871
0.9971719364
0.9984314516
0.998812849
0.9998928722
1.000192397
0.9995524424
0.9991916043
0.9991232928
0.9989208768
0.9984094096
0.9977504744
0.997891889
0.9980427267
0.9978076775
0.9986077817
1.000066294
1.000929205
1.001007007
1.000390126
0.9991459471
0.9979292278
0.9962565466
0.9961150626
0.997171102
0.9993720572
1.000974492
1.001997804
1.002394367
1.000985621
1.000858226
1.000129679
0.999852231
0.9996878079
0.9991523107
0.9987747481
0.9972186179
0.9976845168
0.9983074934
0.9980540286
0.9967595752
0.9963321917
0.9967486128
0.9974354735
0.9978850301
0.9974172146
0.9971770879
0.997495793
0.9969192499
0.9969427651
0.9980240879
0.9999899556
1.001200783
1.001301854
1.000267093
0.9986847973
0.9965688189
0.9956508576
0.9958700718
0.9961053694
0.9968305119
0.9982299691
0.9996578986
0.999814672
0.995795392
0.9961110969
)
;

boundaryField
{
    inlet
    {
        type            fixedValue;
        value           nonuniform 0();
    }
    outlet
    {
        type            zeroGradient;
    }
    bottom
    {
        type            slip;
    }
    top
    {
        type            slip;
    }
    obstacle
    {
        type            zeroGradient;
    }
    defaultFaces
    {
        type            empty;
    }
    procBoundary10to4
    {
        type            processor;
        value           nonuniform List<scalar> 
32
(
0.646250686
0.642178835
0.6381187161
0.6285165901
0.619605744
0.6138938967
0.9997517521
0.9651058598
0.9469885902
0.9276689527
0.8968539369
0.8789579471
0.8649612902
0.8395872097
0.8211170564
0.8114059138
0.7944815991
0.7748152611
0.7658007219
0.7559064183
0.7377820641
0.7260364581
0.7180268077
0.7031495655
0.689476734
0.6847398083
0.6777750787
0.6649339731
0.6573823188
0.6527341682
0.6430262429
0.6430262429
)
;
    }