/*--------------------------------*- C++ -*----------------------------------*\
  =========                 |
  \\      /  F ield         | OpenFOAM: The Open Source CFD Toolbox
   \\    /   O peration     | Website:  https://openfoam.org
    \\  /    A nd           | Version:  7
     \\/     M anipulation  |
\*---------------------------------------------------------------------------*/
FoamFile
{
    version     2.0;
    format      ascii;
    class       volVectorField;
    location    "4.4";
    object      U;
}
// * * * * * * * * * * * * * * * * * * * * * * * * * * * * * * * * * * * * * //

dimensions      [0 1 -1 0 0 0 0];

internalField   nonuniform List<vector> 5((2.928659604 0.05355933969 0) (2.989086583 0.02030738139 0) (2.982778454 0.0345005442 0) (2.966723249 0.07474736578 0) (2.999724553 0.0005309293848 0));

boundaryField
{
    inlet
    {
        type            fixedValue;
        value           nonuniform 0();
    }
    outlet
    {
        type            inletOutlet;
        inletValue      nonuniform 0();
        value           nonuniform 0();
    }
    bottom
    {
        type            slip;
    }
    top
    {
        type            slip;
    }
    obstacle
    {
        type            slip;
    }
    defaultFaces
    {
        type            empty;
    }
    procBoundary26to20
    {
        type            processor;
        value           nonuniform List<vector> 3((2.958831089 0.02051558171 0) (2.947687098 0.02624078596 0) (2.947687098 0.02624078596 0));
    }
    procBoundary26to25
    {
        type            processor;
        value           uniform (2.995417029 0.007831934608 0);
    }
    procBoundary26to27
    {
        type            processor;
        value           uniform (2.960563241 0.0129602428 0);
    }
    procBoundary26to31
    {
        type            processor;
        value           uniform (2.999949043 8.604487698e-05 0);
    }
    procBoundary26to32
    {
        type            processor;
        value           nonuniform List<vector> 4((2.999339809 0.001322705902 0) (2.998204388 0.003813753665 0) (2.999339809 0.001322705902 0) (2.999999228 1.840984553e-06 0));
    }
    procBoundary26to33
    {
        type            processor;
        value           uniform (2.965753184 0.07857366185 0);
    }
}


// ************************************************************************* //
