/*--------------------------------*- C++ -*----------------------------------*\
  =========                 |
  \\      /  F ield         | OpenFOAM: The Open Source CFD Toolbox
   \\    /   O peration     | Website:  https://openfoam.org
    \\  /    A nd           | Version:  7
     \\/     M anipulation  |
\*---------------------------------------------------------------------------*/
FoamFile
{
    version     2.0;
    format      ascii;
    class       volScalarField;
    location    "3";
    object      p;
}
// * * * * * * * * * * * * * * * * * * * * * * * * * * * * * * * * * * * * * //

dimensions      [1 -1 -2 0 0 0 0];

internalField   nonuniform List<scalar> 
2222
(
1.036613592
1.039947867
1.041581764
1.045347266
1.047224887
1.046816373
1.040843532
0.5564745411
0.547111414
0.536919603
0.5269714257
0.5281717281
0.5299930246
0.5336700211
0.5366893511
0.5371507995
0.5368131275
0.5360482666
0.5327683047
0.5266131506
0.5200635475
0.5196493918
0.5211878575
0.5277556605
0.5423455832
0.5927935941
0.752761618
0.9549924661
1.017768377
1.018572625
1.020622481
1.029794632
1.037135125
1.040884137
1.04165481
1.04534632
1.046929436
1.046775291
1.04083052
0.541276404
0.5512939896
0.5570260924
0.5486806285
0.5382578551
0.5276880881
0.5280829214
0.5298422305
0.5336223706
0.5370878375
0.5377415853
0.537429703
0.5365455024
0.533637719
0.5279007837
0.520985982
0.5195085899
0.5205968127
0.5263786354
0.5377278652
0.575505637
0.6963325081
0.9127404514
1.01230174
1.017575218
1.021366299
1.030615922
1.036409742
1.040270976
1.040373078
1.043901626
1.046134979
1.047099832
1.041312883
0.5401690503
0.549883431
0.5571462619
0.5502289432
0.5397128252
0.5285295428
0.5280999322
0.5298311102
0.5336862082
0.5371613915
0.5381361482
0.5379669585
0.5370629069
0.5344365325
0.5290749015
0.5218487636
0.5193767199
0.5201034841
0.5253168122
0.5344379512
0.5625297893
0.6575974662
0.8508365031
1.000043199
1.017885203
1.023397075
1.030697881
1.035883546
1.039548449
1.038715543
1.042128794
1.045936237
1.047864002
1.042220689
0.5391166119
0.5483652117
0.5569958026
0.5516179917
0.5413168915
0.5295034484
0.5278564579
0.5294873652
0.5334523658
0.5370988573
0.5383577999
0.5384228415
0.5376315818
0.5351467212
0.5301987183
0.522833621
0.5194122018
0.5196908913
0.5244444908
0.5317432078
0.5514765995
0.6293087208
0.8033094917
0.9685578312
1.02023275
1.025215002
1.03052728
1.035936589
1.038304301
1.037164355
1.041770956
1.04659028
1.048537265
1.043245863
0.5380418899
0.5467501126
0.5563491549
0.5529036516
0.5430244957
0.5306481223
0.5278520408
0.5292556497
0.5332924489
0.5372302604
0.5386694569
0.5389560207
0.5382167325
0.5357952843
0.5312969788
0.5241089857
0.5195120442
0.5193389216
0.523739503
0.5299449301
0.5445591305
0.5992114235
0.7619163033
0.9391087904
1.018040635
1.026268486
1.029079856
1.035557145
1.037395577
1.037482352
1.042542274
1.047844943
1.048998786
1.043958987
1.039499018
0.5368847753
0.5450845933
0.5553943153
0.5539776317
0.5448362351
0.5319125457
0.5278856448
0.5291815933
0.5332347161
0.5371880005
0.5388662494
0.5393603633
0.5387541073
0.5364279459
0.5322864041
0.5254182651
0.5197322454
0.51910883
0.5232076624
0.5286813038
0.5395684817
0.5786162741
0.7103459107
0.9171438019
1.004790514
1.02196924
1.026930429
1.034954735
1.037484492
1.038738844
1.043991498
1.048718107
1.04922839
1.043761796
1.038990669
0.5355616292
0.5434171447
0.5539628724
0.5547025947
0.5467161595
0.5332248736
0.5278722307
0.5287622992
0.5326509314
0.5370557492
0.5391997619
0.5398956795
0.5391951286
0.5371159612
0.5331836884
0.5267205137
0.5201754195
0.5189232201
0.5227289858
0.5276413074
0.5360211356
0.5656860846
0.6684899388
0.8741202983
0.9878445683
1.01405005
1.026145002
1.034665952
1.037647724
1.038643664
1.044384835
1.048902803
1.049046935
1.043176194
1.037950288
0.5342350447
0.5418652959
0.5524489503
0.5551049046
0.5486067086
0.5345257713
0.5282488447
0.5286535249
0.5322732181
0.5370566204
0.5394740368
0.5403843158
0.5398129889
0.5378958751
0.5340262674
0.5280852831
0.521097336
0.5187949476
0.5222633764
0.5270226837
0.5336364681
0.5539557982
0.6376195037
0.8188157777
0.9724593788
1.012212003
1.02687221
1.033641998
1.037546252
1.03769234
1.04367923
1.047698948
1.048427619
1.042802253
1.038031443
0.5331418066
0.5404140139
0.5506458298
0.555758604
0.5504699565
0.5356732456
0.52850613
0.528532826
0.5318933079
0.5366439974
0.5394192957
0.5405750531
0.5403786289
0.5387093015
0.5348455828
0.5292908565
0.5219814209
0.5187885272
0.5218419482
0.5265901807
0.5318249339
0.5462242776
0.6067005885
0.7777854444
0.9491873507
1.01179225
1.027882215
1.033130882
1.037898818
1.037085146
1.04243441
1.045559917
1.047864079
1.043029206
1.03892898
0.5323165675
0.5390918953
0.5488309985
0.5557897458
0.552362991
0.536714785
0.5288706244
0.5284101049
0.5315691075
0.5363265771
0.5396427281
0.5410420238
0.5406399283
0.5394124464
0.5356842671
0.5304446766
0.5230887186
0.5189081657
0.5213108141
0.5264403146
0.5306876614
0.5415361468
0.5838566219
0.7302388116
0.9190341292
1.011036013
1.028559734
1.033237515
1.038050097
1.035912621
1.040210889
1.044478527
1.04832796
1.043713053
1.040015548
0.5317490397
0.537893348
0.5469726753
0.5553255584
0.5543611786
0.5378209433
0.5292904558
0.5284697094
0.5310169488
0.5359989739
0.5396368309
0.5413258589
0.5411810187
0.5399450578
0.5365483432
0.5315228382
0.5244115222
0.5191703738
0.5208365075
0.5264958693
0.5298238828
0.5376164813
0.5689299511
0.677730238
0.8809821411
1.001951129
1.026045115
1.033400815
1.037384157
1.03479423
1.038754263
1.044723031
1.049287534
1.044166718
1.040605848
0.5313920741
0.5368395698
0.5451571792
0.554412317
0.5561429451
0.539200215
0.5296934354
0.528438425
0.5306909386
0.5357771961
0.5394663074
0.5414030033
0.541672664
0.5404765427
0.5373762396
0.5325114717
0.5256503687
0.5197241293
0.5202447344
0.5262950199
0.5292544585
0.5351009409
0.5571134088
0.6445606624
0.8258535082
0.969446285
1.01921251
1.033153318
1.036885935
1.034238644
1.038474657
1.046248769
1.050271285
1.044359701
1.040722419
0.5308576014
0.5358677567
0.5433688773
0.5530437572
0.5575061979
0.5409225789
0.5303171663
0.5284552426
0.5299210529
0.5356929613
0.5395553102
0.5417203082
0.5420002711
0.5410706634
0.5381741465
0.5334751966
0.5269086917
0.520335222
0.5198071634
0.5262734974
0.5288680669
0.5335098215
0.5489684412
0.616316299
0.7789484034
0.9451544928
1.014591724
1.032194569
1.037000295
1.033522764
1.038146317
1.04780927
1.050830369
1.044393496
1.039991516
1.035721012
0.5303880904
0.5348964571
0.5416548178
0.5512713055
0.5584453775
0.5428263956
0.5311884608
0.5284446293
0.5295122381
0.5347755485
0.5396738733
0.542122812
0.5427369171
0.5416036537
0.538941231
0.5344408922
0.5281015436
0.5213406773
0.519498634
0.5259234812
0.5285785893
0.5322220682
0.5433978811
0.5901716348
0.7453681463
0.9275183505
1.012067771
1.03035889
1.0380467
1.033580803
1.038527348
1.048583447
1.050132172
1.04382959
1.038336863
1.033839003
0.5299343261
0.534014222
0.5400018135
0.5493210382
0.559097649
0.5446277364
0.5322170303
0.5285212526
0.5291879532
0.5342246519
0.539240331
0.54199817
0.542734198
0.5422023737
0.5397280816
0.5353977629
0.5291967517
0.5224474214
0.5193654744
0.5257115375
0.5285084895
0.5313445318
0.5393272921
0.5735034978
0.6960415349
0.8974201047
1.00531319
1.028961923
1.038514937
1.033810677
1.038678776
1.047805498
1.048521485
1.042901246
1.03753511
1.033914523
0.5294673755
0.5332499437
0.5384456621
0.5470169331
0.5595042041
0.5462264405
0.5333550902
0.5286301427
0.5289513289
0.5336247348
0.5389885754
0.5419994346
0.5429767957
0.5427022361
0.5405059284
0.5363657711
0.5301635339
0.5235349065
0.519363845
0.5255412547
0.52865452
0.5308536225
0.5367564288
0.5607993979
0.6517748404
0.845526129
0.9864188961
1.026933413
1.038783811
1.034107997
1.03746696
1.045213293
1.047430184
1.042194877
1.037862478
1.034831626
0.528198296
0.5327774451
0.5370219518
0.5447203094
0.5598404539
0.5474996854
0.5347006112
0.5288491619
0.5288536381
0.5329235442
0.5388414829
0.5421634445
0.5434074828
0.5430567077
0.5412285477
0.5373500941
0.5311679223
0.5247753827
0.5195270091
0.5254122846
0.5284442293
0.5306091206
0.5349734381
0.5515525067
0.6255284527
0.7922060692
0.9629969227
1.024937161
1.039661999
1.033710444
1.03507363
1.04345607
1.047675449
1.042433641
1.03864127
1.035739544
0.5269093218
0.5323668064
0.5357659661
0.5420284709
0.5597460461
0.5485776051
0.5359590389
0.529036253
0.5287299869
0.5321963922
0.5384550882
0.5421039886
0.5433638167
0.5434121619
0.5418258764
0.5382758565
0.5321010613
0.5258661248
0.5197748021
0.525355483
0.5284092936
0.5304036699
0.5338176146
0.5457388112
0.597802664
0.7532876772
0.9421951153
1.019778631
1.039223613
1.031372487
1.032561696
1.043177069
1.048826077
1.043365015
1.039671626
1.036500293
0.5264622005
0.5317093292
0.5348045769
0.5397155712
0.5600703375
0.5492769191
0.5374010302
0.5293133069
0.5287987718
0.5315256017
0.538103699
0.5421925533
0.5435237002
0.543878517
0.5424394047
0.5392617857
0.5331174522
0.5271023951
0.5201002687
0.5253608005
0.528445837
0.5304444119
0.5330035161
0.541206207
0.5766662782
0.7161751787
0.9132363244
1.009859464
1.036575317
1.030592435
1.031094604
1.042819578
1.050349763
1.044844724
1.040991423
1.037630005
0.527669695
0.5312189729
0.5342257769
0.536820819
0.5589525982
0.5491560347
0.5383619106
0.5295518121
0.5288489321
0.5309060234
0.5379530353
0.5425221499
0.5437464791
0.5439113409
0.5428732069
0.5401093835
0.5340752001
0.5281020699
0.5204436819
0.5254579469
0.5285595485
0.5305521567
0.5325932506
0.5386558411
0.5652908399
0.6729741966
0.8703558523
0.9945332017
1.035247028
1.031567893
1.031959861
1.044640749
1.051117124
1.045078955
1.04040592
1.036293561
0.5094411444
0.5200430265
0.5317054316
0.5377293206
0.5611455225
0.5511669938
0.5394024311
0.529672143
0.5292366606
0.5305121657
0.537216927
0.5423668236
0.5440120738
0.5442001225
0.5433961525
0.5410836235
0.5352555394
0.5293089509
0.5212003551
0.5257492435
0.5287764815
0.5307549221
0.5321541675
0.5363343101
0.5513615247
0.6255755888
0.8036824412
0.9697210872
1.033240403
1.030948891
1.031147284
1.043672073
1.049574332
1.043308946
1.039433731
1.034976949
0.2894973035
0.3377128347
0.3920661538
0.4450080723
0.4585580724
0.4633296916
0.4785991091
0.496060063
0.5146227431
0.5280913531
0.5392217577
0.5457738352
0.5484238187
0.5491443336
0.5485642592
0.546989876
0.5426174315
0.5359967571
0.5317886995
0.5322711254
0.5357264602
0.5370496515
0.5367519503
0.5354870731
0.536074642
0.551540434
0.6242485551
0.7793173355
0.938816322
0.9768902398
1.020409932
1.038461273
1.042007965
1.041541479
1.038228681
1.031596619
1.03244745
0.2555170592
0.255001526
0.256440822
0.2638834294
0.2758532612
0.2965305949
0.326643403
0.3613706573
0.400269896
0.4390477789
0.470550042
0.4954450324
0.5108103187
0.5187096747
0.5258808192
0.5301626234
0.5294039783
0.5309007763
0.5365320337
0.546159377
0.5509358138
0.5501347269
0.5477008847
0.542549035
0.530743581
0.5258260736
0.5301431174
0.5645733447
0.6603269674
0.8077737724
0.9522010283
0.9979218893
1.019497319
1.030151682
1.027321839
1.022240659
1.029936882
0.2562627744
0.2562024176
0.2564012416
0.2559422513
0.2558022899
0.2558216074
0.2559825893
0.2571291465
0.260989872
0.2706389689
0.2868541018
0.3104637032
0.3414156606
0.3740375906
0.4083711695
0.4416077929
0.4738094927
0.5037719959
0.525086974
0.5376187137
0.5412684161
0.5402290012
0.5354041715
0.5266805928
0.5225690743
0.5253375108
0.53241274
0.5402065415
0.5536131234
0.6088913016
0.7063818639
0.8288581394
0.9261259147
0.994257055
0.9951984466
1.010224301
1.04081735
0.2575524142
0.2573338314
0.2572644553
0.257432774
0.2576324327
0.257731033
0.2577870893
0.2577460863
0.2575882058
0.2575445773
0.2575890774
0.2576536122
0.2581355584
0.2602593385
0.2662011494
0.2772295617
0.2954639552
0.320274456
0.3506273073
0.3797041079
0.4080113845
0.4343530952
0.4588264179
0.4822743189
0.5030381954
0.5255142666
0.5342312318
0.5395134439
0.539769108
0.5419014326
0.5541717162
0.6173276412
0.715973045
0.8476851177
0.9295081946
0.9998726496
1.037412517
0.2571757402
0.2570082471
0.2570207254
0.2572350209
0.2573617186
0.2573874027
0.2573434434
0.257136767
0.256960584
0.2569711395
0.2570500007
0.2572641662
0.2574425142
0.2574662275
0.2572443521
0.2567510611
0.2562823971
0.2564124797
0.2574070124
0.2604469958
0.2675751647
0.2805933195
0.3014115517
0.3293292376
0.3655951412
0.3981069452
0.4282133336
0.4511107359
0.468417646
0.4796097958
0.4941633599
0.5187305658
0.5661810215
0.6463052241
0.7762968477
0.8899982891
0.9803226474
0.2562698407
0.2561993162
0.2564670884
0.2567481602
0.2567602044
0.25665307
0.2565150537
0.256369756
0.2564092813
0.256566046
0.2567642644
0.2571551686
0.2571735126
0.2567065902
0.2560370985
0.2554136341
0.2555563788
0.2559321343
0.2561312595
0.256027355
0.2558640634
0.2558769549
0.2559248398
0.2561718544
0.2575037743
0.2614173426
0.2709837978
0.2854608332
0.3067261137
0.3338943055
0.3634183686
0.3879228561
0.4173772412
0.4488856705
0.5175957903
0.6166676754
0.7471538428
0.2556693528
0.2562256109
0.2567009403
0.2567086338
0.2565856158
0.2562493858
0.255840897
0.2558907927
0.2562941886
0.2566241409
0.2568798086
0.2563413321
0.25541746
0.2542927835
0.2541084331
0.2545397167
0.2553738464
0.2553289236
0.2551818914
0.2549450928
0.2548025834
0.254831542
0.254810952
0.254591729
0.2541080478
0.2534039771
0.2526662942
0.2521897573
0.251826407
0.251668475
0.2523911778
0.2549331159
0.2588970768
0.2658830304
0.2779846153
0.3071240902
0.3775704155
0.2537451261
0.253547049
0.2530764427
0.2522298245
0.2514121321
0.2508846308
0.2506719058
0.2507691699
0.2508048535
0.2506482749
0.2500424658
0.2494446216
0.2488916308
0.2489831342
0.2489364157
0.2486534827
0.2481118019
0.2475603611
0.2471517009
0.2468138533
0.246540214
0.2463314681
0.2461746066
0.2459765394
0.2457371941
0.2454556387
0.2452474497
0.2450508573
0.2448867329
0.2447457187
0.2445934661
0.2444056029
0.244277521
0.2440738504
0.2438816694
0.2435937389
0.2437939537
0.2462506086
0.2460719132
0.2457693281
0.2453985066
0.2451671427
0.2452984988
0.245309283
0.245229846
0.2450145313
0.2446295764
0.2441028607
0.2437509526
0.2434015959
0.2431367638
0.2428901353
0.2426664252
0.2425631471
0.2425025705
0.2424447969
0.2424001813
0.2423474968
0.2423029545
0.2422519647
0.2421528719
0.2419810486
0.2417294854
0.2416001549
0.2415274728
0.2415814326
0.2416624586
0.2417068736
0.2417209757
0.2417129639
0.2417065068
0.2417169453
0.2417437304
0.2417554594
0.2410763572
0.2412887351
0.2410832855
0.2408152508
0.2408697548
0.2410438168
0.2413834996
0.2416588297
0.2415560846
0.2411544357
0.2407573141
0.2407572616
0.240737187
0.2407722901
0.2409326195
0.2409993184
0.2409686056
0.240960258
0.2409818888
0.2410417626
0.2410980875
0.2411598757
0.2411886265
0.2411345359
0.2410068828
0.2409249615
0.2409887701
0.2411315913
0.2413405062
0.2415134919
0.2415994983
0.241632735
0.2417263488
0.241864004
0.2420239539
0.2422097241
0.2422222945
0.2422905546
0.2415732197
0.2409547949
0.2410322633
0.2414165137
0.2418786506
0.242391126
0.2421729369
0.2415464337
0.2410514538
0.240644826
0.2408719054
0.2413563296
0.2418395051
0.2424200706
0.2423626293
0.2422007109
0.2418451193
0.2418527141
0.2423086257
0.2429643437
0.2431051741
0.2430075341
0.2427538407
0.2427891087
0.2431685132
0.2438268107
0.2445089331
0.2449152951
0.2451049537
0.2452782605
0.2454529963
0.2457179712
0.2461172199
0.246184098
0.2462497912
0.2464643278
0.2420815553
0.2407971834
0.2412515268
0.242355698
0.2440050985
0.2436290227
0.2429546121
0.2421585578
0.2425787405
0.2437607255
0.2451954478
0.2467552768
0.2465865227
0.2462471068
0.2457954762
0.2454725404
0.2462005103
0.2474908737
0.2486307411
0.2490162905
0.249263572
0.2493969744
0.2496347065
0.2502100019
0.2509595729
0.251430537
0.2514364567
0.2514330715
0.2514101173
0.2515653171
0.2519695728
0.2524543118
0.2527457342
0.2529900108
0.2533151795
0.2535844487
0.2538496713
0.2500669546
0.2534325933
0.255719578
0.2573881095
0.256882058
0.2563359004
0.2565501247
0.2571756555
0.257774254
0.2583226398
0.2581522156
0.2575690329
0.2563004621
0.2564717902
0.2571794911
0.2585428205
0.2597693263
0.2602451627
0.2600478177
0.2595703628
0.2588546964
0.2585950845
0.2588675909
0.2591182006
0.2594297652
0.259452174
0.2595759827
0.2598143036
0.2602466589
0.2607214745
0.2611407592
0.2611285172
0.2610769318
0.2610331946
0.2611500978
0.2613502828
0.2615962609
0.270406553
0.2695053717
0.2680473903
0.2664365201
0.2637916639
0.2639456815
0.2645688035
0.2651989968
0.2647550198
0.2638756196
0.2637846514
0.2643414402
0.2657641885
0.2670980553
0.2675293307
0.2672761773
0.2662712483
0.265153708
0.2647287193
0.2651755509
0.2660108148
0.2671163489
0.2682790161
0.2683124432
0.268123189
0.268253923
0.2686064513
0.2688623644
0.2687713596
0.2686113724
0.2683997703
0.2680726376
0.2680982282
0.2683163756
0.2685365801
0.2685794012
0.2686556971
0.2893296542
0.2875674187
0.2881044458
0.2892177613
0.2909634592
0.2914856739
0.2910196468
0.2903293025
0.2894581624
0.2886347696
0.2887355371
0.2888197552
0.2883974477
0.287006188
0.2855230631
0.2849258742
0.2852032515
0.2855317704
0.2860475686
0.2859626421
0.2854174733
0.2845775664
0.2836872689
0.283158991
0.2829307418
0.2826554099
0.2824048525
0.2820406185
0.281453665
0.2814782292
0.2817307102
0.2820410291
0.281993307
0.2818142989
0.2815892465
0.2812499064
0.2807593712
0.319249064
0.3182489868
0.3160474588
0.3138755807
0.3120350004
0.3094298346
0.3064435908
0.3047547498
0.3044118793
0.3030120041
0.3013501067
0.3013927665
0.3012673602
0.300203953
0.3003574796
0.3007972921
0.3006390245
0.2998443352
0.2986143853
0.2977176541
0.2966815943
0.295619746
0.2956806975
0.296100936
0.2962222636
0.2959440328
0.2956925929
0.2955194056
0.2948521098
0.2940896983
0.2938527905
0.2935780433
0.2929552367
0.2921215272
0.2918866921
0.2919020147
0.2915559456
0.3429680743
0.339810213
0.3350050474
0.3314945542
0.3321463362
0.3320573362
0.3301955181
0.329077919
0.3289280058
0.3279464101
0.3249645613
0.3231290739
0.3229039906
0.3220517398
0.3198170017
0.3175324917
0.3161558272
0.3144435672
0.3134880558
0.3137832918
0.3138998737
0.3130397168
0.3115775098
0.3107589171
0.3098246346
0.3083881541
0.3069106316
0.3066663058
0.3064609613
0.3052141282
0.3044481409
0.3045506288
0.304316063
0.3035818575
0.3032484786
0.3031830071
0.3028024127
0.3728690478
0.3710200811
0.3687220671
0.3633532543
0.3593531551
0.3574677366
0.3544125217
0.3495538026
0.345696762
0.3443087954
0.3416106727
0.3373241427
0.3371681558
0.3371410149
0.3348880021
0.3326006181
0.3327828244
0.3325858622
0.3308175393
0.3287759616
0.3278013092
0.3265365919
0.3238503732
0.3226158576
0.3228878814
0.3225230383
0.3211722195
0.3207207665
0.3206254041
0.3197633184
0.3179937908
0.3172692528
0.3169400446
0.3160007148
0.3144300884
0.3135342332
0.3132909571
0.4023481887
0.396235816
0.3927421194
0.3873715617
0.3783156457
0.3772407401
0.3768926364
0.3729062373
0.3681228778
0.3683100435
0.367635449
0.3634896954
0.3596684408
0.3588932896
0.3574240399
0.3535973068
0.3506825975
0.3494937487
0.3473416902
0.3435225644
0.3429493559
0.3428669479
0.3413241194
0.3387134939
0.3380508246
0.3373812005
0.3354091769
0.3329134374
0.3318200032
0.3312763453
0.3292590851
0.3274165723
0.3275594893
0.3273029936
0.3257802501
0.324769061
0.324868156
0.4340687282
0.4257220899
0.422106165
0.4194145308
0.4119591175
0.4049481536
0.4030525372
0.3997168942
0.3926058969
0.3877148544
0.38601667
0.3825160719
0.3753198702
0.3736241414
0.3735622082
0.3708243615
0.3656535336
0.3652794195
0.3649483289
0.3621872092
0.359292505
0.3586457155
0.3574070847
0.3538631253
0.3507554297
0.350507777
0.3496147639
0.3468261278
0.3459605818
0.3460533536
0.3451568436
0.3424949203
0.3412150321
0.3408092777
0.3395355813
0.3371990041
0.3359421414
0.4669012945
0.4575549131
0.4492714377
0.4454769651
0.4395415413
0.4276197672
0.4225535565
0.4218515162
0.4172680097
0.4089082149
0.407969154
0.4070911869
0.4018464185
0.3961795343
0.3953826812
0.3937180889
0.3884693723
0.3843860383
0.3830735923
0.3805842018
0.375233074
0.3728775142
0.3726427367
0.3707498261
0.366670655
0.3658934934
0.3654697121
0.3630647765
0.359550711
0.3580744682
0.3572208679
0.3547222292
0.3516317421
0.3515394701
0.3512460315
0.3490682781
0.3471060084
0.5006463883
0.4916074986
0.4793004167
0.4734679136
0.4701973237
0.461483365
0.4511504848
0.4487896119
0.4455143653
0.436622559
0.4298067472
0.427683364
0.4235979518
0.4149644576
0.4105262477
0.4097561998
0.4064940226
0.3997566761
0.3984511753
0.3978431967
0.3941059877
0.3894938969
0.3890474011
0.3879975618
0.3838554734
0.3794419054
0.3785603934
0.3774024654
0.3733981033
0.3713376358
0.3714360478
0.3704834426
0.3670426912
0.3652525368
0.3648953512
0.3634381655
0.3602320459
0.535317238
0.5263081791
0.513619419
0.5015109131
0.4975397782
0.4916247061
0.4782284272
0.4694141223
0.4672073947
0.4616640821
0.4509883445
0.4484837639
0.4471973132
0.4409864823
0.4327297527
0.4317541146
0.4302623208
0.4241411475
0.4184092758
0.4168468379
0.414103021
0.4078336999
0.4038658668
0.4030326752
0.4006797928
0.3951729322
0.3936222779
0.3933213453
0.3908590839
0.3862645285
0.3845810664
0.3836399243
0.3808113094
0.376593569
0.3757327254
0.3752476038
0.3725805665
0.5714169386
0.5608754694
0.5504408242
0.5337625078
0.5246700121
0.5210613593
0.511920338
0.4982388376
0.4944156919
0.4909750402
0.4809933664
0.4719382744
0.4694024231
0.4649575917
0.4549814314
0.4485255668
0.4468457683
0.4427898278
0.434258531
0.4316483691
0.4308981622
0.426821073
0.4202308834
0.4193511299
0.418487821
0.4141892409
0.4087339538
0.4072501506
0.4057930981
0.4011164293
0.3972343194
0.3970780466
0.3960300815
0.3919683972
0.3895557109
0.3892603905
0.3877199821
0.6099246393
0.5953863345
0.5860188743
0.5717197847
0.5540760959
0.5484310708
0.5429119201
0.5290671139
0.5173013566
0.5135129352
0.506920657
0.4938526745
0.4889069168
0.4873141671
0.4810320245
0.4702353924
0.4679462391
0.4663519862
0.4598912058
0.4527390673
0.450882856
0.4479966414
0.4408033901
0.435329296
0.4339117835
0.4311880203
0.4244820236
0.4214485909
0.4211015733
0.4187646745
0.4132590002
0.4110839887
0.410159327
0.4070868975
0.4019837065
0.4002400979
0.3994390041
0.6506972265
0.6317765971
0.6198263042
0.6094669212
0.5906888135
0.576132563
0.5714056148
0.5624804294
0.5464546185
0.5398284373
0.5359587711
0.5255255117
0.5139414985
0.5106501321
0.5062518871
0.4954646911
0.4869781815
0.4845562815
0.4799415952
0.4699919144
0.4651133192
0.4639958681
0.4598489992
0.451611865
0.4495930361
0.4487333755
0.4444692935
0.4379825436
0.436081449
0.4344414404
0.4294068599
0.4237445165
0.4229862499
0.4218493262
0.4172698706
0.4138859096
0.4135696829
0.6922665192
0.6722537359
0.6538382245
0.6438896388
0.6304020977
0.6091789198
0.5990414088
0.5930770641
0.5794421431
0.564923923
0.5597992873
0.5527674741
0.5381679508
0.5296650169
0.5272622337
0.5210615603
0.5088213175
0.5044296755
0.502469946
0.4956867211
0.486530065
0.4845001385
0.4820259862
0.4744820045
0.4671759365
0.4651222213
0.4621971979
0.4548959658
0.4499123875
0.4491759425
0.446819198
0.4404808474
0.4375779072
0.4367595207
0.4336534916
0.4278706033
0.4255585362
0.7339311194
0.7150740533
0.6921021835
0.6766745177
0.6665095705
0.6487137133
0.629053251
0.6214898007
0.6125437133
0.5952434442
0.5850447664
0.580584085
0.5702555874
0.5558528335
0.5512682321
0.5471302602
0.5363406957
0.5255872629
0.5222505954
0.5174831765
0.5067787128
0.4993723796
0.4974000894
0.4930982434
0.4836022032
0.4798000672
0.478846502
0.4747193259
0.4668999927
0.4646046315
0.4631673972
0.4581749728
0.4512607283
0.4494173446
0.4479036846
0.4427220302
0.4384921382
0.7761396965
0.7569285916
0.7354783698
0.7120426934
0.6992922291
0.6869549876
0.665717893
0.6501706582
0.6427229813
0.6294792981
0.6118891936
0.6050224641
0.5983962218
0.5835888977
0.5712892709
0.5674417722
0.5610793185
0.5480941034
0.5411382647
0.5386690802
0.5320945975
0.5205370457
0.5172511916
0.5153079084
0.5083771417
0.4994064359
0.4965611771
0.4935883463
0.4860369114
0.4790778073
0.4774803204
0.4749252275
0.4677864851
0.463770687
0.4630616561
0.460082472
0.4537965714
0.8198034174
0.7973313852
0.7783000072
0.7540660004
0.7326793326
0.7208177492
0.7049955637
0.6830716698
0.6713821461
0.6621354205
0.6446111231
0.6299964658
0.6245745552
0.6152048723
0.5986767026
0.5912207037
0.5870976194
0.5769901373
0.5642113481
0.5595333686
0.5549131896
0.5441339827
0.5342071401
0.5312867588
0.52690282
0.5167253294
0.5102046127
0.5088862611
0.5051113221
0.4962385941
0.492761303
0.4915963704
0.4870070139
0.4793160886
0.4766809845
0.4747051489
0.4689993983
0.8642695343
0.8384718776
0.817773662
0.7975311673
0.7719828679
0.7535496497
0.7406611406
0.7211360977
0.701462477
0.6917395412
0.6793738114
0.6595542912
0.6490145873
0.6427178491
0.6291842851
0.6136689844
0.6078694932
0.6013356914
0.5878772529
0.5778215786
0.5746210436
0.5686716041
0.5560931689
0.5498250506
0.5478037535
0.5417070834
0.5313416393
0.5276720719
0.5249966037
0.5175907043
0.5088523747
0.5062056408
0.5033968666
0.4957911334
0.4901580617
0.4891119067
0.4860332159
0.9067422954
0.8815293385
0.85660025
0.8368631615
0.8148321363
0.790029064
0.7737644359
0.758541782
0.7365799898
0.7205018642
0.7107188142
0.6945827279
0.6756410498
0.6677443675
0.6593269046
0.6426659345
0.631049686
0.6263308026
0.6171250049
0.602597787
0.596063449
0.5917850852
0.5818145752
0.5695248381
0.5652127254
0.5610020674
0.5509118634
0.5416330189
0.5392052545
0.5354754023
0.5261407412
0.5207747195
0.5195575563
0.5154106449
0.5071394681
0.5039709269
0.5017441329
0.9445159245
0.922365683
0.8974977889
0.8742276684
0.8543480616
0.8308577403
0.8081782014
0.7927377737
0.7746180465
0.7524147601
0.739333898
0.7279597111
0.7086525629
0.6929085016
0.6856577218
0.6738767493
0.6562245254
0.6477922339
0.6415401158
0.6285145063
0.6149982544
0.6102972052
0.6047355158
0.5925575517
0.5830743078
0.5802438312
0.5747603153
0.5631231732
0.5578053074
0.5556716003
0.5492139064
0.539235224
0.5353712936
0.5323190751
0.5246716924
0.5176213537
0.5155907258
0.974376306
0.9565824977
0.9361422516
0.9126640933
0.890923846
0.8703343576
0.8463075779
0.8260039613
0.8101775316
0.7894498028
0.7689753428
0.7573223983
0.7433443139
0.7227765671
0.7105226306
0.7022891106
0.6869485705
0.6710692756
0.6649170929
0.6569242848
0.6415187797
0.6318153522
0.6275976114
0.6189842783
0.6053365999
0.5988919735
0.5948233503
0.5854121201
0.573958432
0.5700826835
0.5661898878
0.5567855046
0.5490671381
0.5472147913
0.5433389963
0.5348294279
0.5306588253
0.9921483021
0.9816106578
0.9669278916
0.9484230583
0.9268714406
0.9063862693
0.8851180623
0.8615694467
0.8430515093
0.8260199997
0.8037900554
0.7858845744
0.7741040848
0.7571612719
0.7376192156
0.7277151565
0.717384916
0.6993285368
0.6867755934
0.6806405719
0.6693069228
0.6532498986
0.6460211718
0.6404990334
0.6289980426
0.6168224198
0.612683051
0.6077131
0.5961695128
0.5876692756
0.5853048878
0.5799483907
0.569591159
0.5645131157
0.5613837545
0.5541967541
0.5460685771
0.998641121
0.9949379539
0.9873546553
0.9754813589
0.9592264831
0.9398858025
0.9204902739
0.8989998441
0.8766414987
0.8590462193
0.8404707401
0.8181845447
0.8025370825
0.7894923317
0.7700954289
0.7531607944
0.7440310436
0.7308710071
0.7121553703
0.702778462
0.6956847903
0.6813343623
0.6676146061
0.6624602803
0.6550980457
0.6411786803
0.6321674712
0.6279972316
0.6197670632
0.6069707537
0.6010882924
0.5971518822
0.5882456349
0.5784099719
0.5749106839
0.5708990523
0.5631421152
0.9998860786
0.9991909772
0.9968845414
0.9915534769
0.9822700968
0.9685077309
0.9514977051
0.933227324
0.9121618633
0.8912919747
0.8738909671
0.8539168154
0.8327747326
0.8184687304
0.8034814457
0.7829327982
0.7689040964
0.759204183
0.7430371169
0.7259605578
0.7183517012
0.7089303185
0.6922947083
0.6816037208
0.6759746027
0.6655268143
0.6512635747
0.6449272249
0.6401005792
0.6297916016
0.6185786686
0.6147134491
0.6099276239
0.5997692578
0.5927929548
0.5894969285
0.5834429367
0.9999959187
0.9999312958
0.999546917
0.9981289637
0.9944963502
0.9874898921
0.9762539058
0.9616004007
0.9446397307
0.9246206692
0.9052343389
0.8876132486
0.8667949474
0.8473804901
0.833422766
0.8162824344
0.7962088118
0.7843215466
0.7730222409
0.7546261799
0.740537337
0.7331789923
0.7209414897
0.7042908388
0.6967060955
0.690230874
0.6771231184
0.6651184652
0.6602169293
0.6532800881
0.6406138408
0.6319612591
0.6276858836
0.6199512087
0.6090736687
0.6031545873
0.5984991164
0.999999942
0.9999970534
0.9999635244
0.9997533681
0.9989038034
0.996503405
0.9913911329
0.982526416
0.970181094
0.9547827182
0.9362757205
0.9182441478
0.9003188841
0.8794140661
0.8616978083
0.8472731601
0.8283216703
0.8099853712
0.7990360153
0.7854591584
0.7664393283
0.7552756563
0.7468892671
0.7316902194
0.717044752
0.7105537289
0.7016722029
0.6867690982
0.6772164011
0.6719867922
0.6630021413
0.6505345673
0.6441269729
0.6394031709
0.6306094465
0.6212688321
0.6163255146
0.9999999997
0.9999999366
0.9999984473
0.9999816636
0.999869779
0.9993752118
0.9978370041
0.9942280826
0.9874556316
0.9773049829
0.9636893853
0.9469914281
0.9301908959
0.9121498947
0.8918740186
0.8754401677
0.8600259532
0.8401013255
0.8239608369
0.8128000709
0.7967909347
0.7789484323
0.7695889306
0.7593457886
0.7423289478
0.7306324956
0.7242343224
0.7130782005
0.6985763057
0.6915029763
0.6854303198
0.6742228681
0.6630202885
0.6573927098
)
;

boundaryField
{
    inlet
    {
        type            fixedValue;
        value           nonuniform 0();
    }
    outlet
    {
        type            zeroGradient;
    }
    bottom
    {
        type            slip;
    }
    top
    {
        type            slip;
    }
    obstacle
    {
        type            zeroGradient;
    }
    defaultFaces
    {
        type            empty;
    }
    procBoundary27to14
    {
        type            processor;
        value           nonuniform List<scalar> 2(0.2561781803 0.2558104192);
    }
    procBoundary27to20
    {
        type            processor;
        value           nonuniform List<scalar> 
34
(
0.2558246297
0.2577701612
0.2574756844
0.2564993138
0.2554845645
0.2538238798
0.2463706498
0.2402709406
0.2419663622
0.2436248304
0.2487174667
0.2709012184
0.2906146624
0.3193228335
0.346126565
0.375880043
0.4061713098