/*--------------------------------*- C++ -*----------------------------------*\
  =========                 |
  \\      /  F ield         | OpenFOAM: The Open Source CFD Toolbox
   \\    /   O peration     | Website:  https://openfoam.org
    \\  /    A nd           | Version:  7
     \\/     M anipulation  |
\*---------------------------------------------------------------------------*/
FoamFile
{
    version     2.0;
    format      ascii;
    class       volScalarField;
    location    "3";
    object      T;
}
// * * * * * * * * * * * * * * * * * * * * * * * * * * * * * * * * * * * * * //

dimensions      [0 0 0 1 0 0 0];

internalField   nonuniform List<scalar> 
2222
(
1.035720119
1.036669623
1.037128236
1.038187327
1.038711166
1.038568489
1.036857114
0.8949464567
0.8817401387
0.8622783972
0.843313692
0.8336952256
0.8295374534
0.8315991859
0.8370643334
0.8431154323
0.8475795608
0.8492799139
0.8485512281
0.8461713611
0.8435037355
0.8435539167
0.8444142105
0.8476081246
0.8542246108
0.8759595487
0.9391760973
1.010511465
1.030678927
1.030828017
1.031318234
1.033846692
1.035890326
1.036959819
1.037180397
1.038228318
1.038678554
1.038611178
1.03690314
0.8949933347
0.8972167479
0.8951321043
0.8822740455
0.8626019604
0.8433061656
0.8333001118
0.8291529963
0.831369589
0.8372591651
0.843542219
0.8479945949
0.8495546229
0.8489491275
0.8467543647
0.8439286136
0.8434955192
0.8441620453
0.8469978692
0.8521588716
0.8685867321
0.9177437076
0.9964777506
1.02894688
1.030535371
1.031531284
1.034061776
1.035670587
1.036785067
1.036832064
1.037860193
1.038498874
1.03874999
1.037083006
0.8945839724
0.8966856102
0.8951602266
0.8827054819
0.8629677536
0.8433790906
0.8329428469
0.8288417261
0.8311949001
0.8373157027
0.8439176012
0.8483772351
0.8498336544
0.8493147404
0.8472896664
0.8443210527
0.8434360455
0.8439612372
0.8465246782
0.8506768076
0.862958208
0.9023206295
0.9752697685
1.025055694
1.030575303
1.032076236
1.034047973
1.035478016
1.036560951
1.036357118
1.037366931
1.03847161
1.038995068
1.037370557
0.8941637243
0.8961331577
0.8950595112
0.8830346516
0.8634395438
0.8435399329
0.8324550066
0.8283653441
0.830882948
0.837323232
0.8442222927
0.84872769
0.8501347937
0.8496396983
0.8478021932
0.8447715647
0.8434690279
0.8438004007
0.846126748
0.8494549423
0.8580982793
0.8907414999
0.9578685666
1.015220054
1.031195544
1.032489747
1.033937927
1.035420453
1.036160759
1.035896661
1.037258624
1.038671965
1.039202718
1.037683429
0.8936970254
0.8955426498
0.8947850008
0.883333979
0.8639902247
0.8437897933
0.8320539588
0.827930992
0.8306258675
0.8374556469
0.8445726401
0.8491159264
0.8504444959
0.8499379694
0.8483055319
0.8453563828
0.8435489061
0.84366602
0.8457956616
0.8486367798
0.8550154381
0.8782621715
0.9422333856
1.005571158
1.030421686
1.032695434
1.033421443
1.035236541
1.035854254
1.03595814
1.037458058
1.039010039
1.039340498
1.037897092
1.036594814
0.893160931
0.894923316
0.894421783
0.8835622738
0.8646012408
0.8440921125
0.8316458227
0.8275556223
0.8304004907
0.8375032889
0.8448801377
0.8494428478
0.8507321674
0.8502307994
0.8487642375
0.8459642693
0.8436648486
0.8435702091
0.8455508377
0.8480620381
0.8527598581
0.8694897559
0.922740511
0.9979286858
1.026217324
1.031340252
1.03268342
1.034991448
1.035825735
1.036257145
1.037822936
1.039237222
1.039403789
1.037843204
1.036455985
0.8925215489
0.8942936522
0.8938693089
0.8836568001
0.8652491918
0.8444149542
0.8312110559
0.8270007386
0.8299247786
0.8374889056
0.8452559076
0.8498222359
0.8509731782
0.8505512229
0.8491844303
0.8465743755
0.8438644673
0.8434785876
0.8453420976
0.8475880505
0.851133235
0.8638758076
0.9063040226
0.9831861877
1.020720366
1.028827198
1.032359443
1.034841392
1.035808071
1.036185809
1.037899016
1.039262204
1.03934297
1.037669858
1.036159759
0.8918638989
0.8936986385
0.8932930015
0.8836248051
0.865889777
0.8447443763
0.8309315865
0.8265556768
0.8295619302
0.8375434016
0.8455988725
0.8501884366
0.851293477
0.8509125284
0.8495800009
0.8472088928
0.8442836135
0.843413106
0.8451418454
0.8473036457
0.8500212172
0.8587130917
0.893753559
0.9635010307
1.015648551
1.028116721
1.032494339
1.034494294
1.035751588
1.035890996
1.037670735
1.038887519
1.039149735
1.037551708
1.036175522
0.8913051502
0.8931328696
0.8925867305
0.8837679991
0.8665079771
0.845020047
0.8305885146
0.8260861398
0.8292306841
0.8375162322
0.8458205145
0.8504144093
0.851587971
0.8512872139
0.849966517
0.8477653763
0.8446837294
0.8434073408
0.8449620503
0.8471013749
0.8491594568
0.8552608945
0.8809807789
0.9480624715
1.00817021
1.027938096
1.0327348
1.034318901
1.035847052
1.035698999
1.037295844
1.038268002
1.038974515
1.037604501
1.036421082
0.8908656872
0.8925994082
0.891887887
0.8836077226
0.8671131791
0.8452785035
0.8303027711
0.8256012889
0.8289306818
0.8375541788
0.8461865592
0.8507406215
0.851736356
0.8516175999
0.850365246
0.8482949184
0.8451832479
0.843456212
0.844730026
0.847029062
0.8486010843
0.8531421849
0.8713170394
0.930142457
0.9984459973
1.027722486
1.032947228
1.03437858
1.035920102
1.035392348
1.0366866
1.037963814
1.039100595
1.037791742
1.036724892
0.8905401873
0.8920954505
0.8911795018
0.8831870936
0.8677445808
0.8455961243
0.8300516749
0.8251661965
0.8285053722
0.8376013455
0.8464469133
0.8509769499
0.8520100866
0.8518738492
0.8507730052
0.848787402
0.8457785886
0.8435732441
0.8445222107
0.8470484769
0.8481678492
0.8513555765
0.8648781361
0.9099228797
0.9858966581
1.02513337
1.032299228
1.03453121
1.03581099
1.035141108
1.036323199
1.038064293
1.039381875
1.037927023
1.036893651
0.8903120731
0.8916314986
0.8904952675
0.8826134145
0.8682663398
0.846062184
0.8298302543
0.8246542325
0.8281536691
0.8377116338
0.8466312115
0.8511152539
0.8522621667
0.8521312688
0.8511600427
0.8492372392
0.8463333316
0.8438321762
0.8442555173
0.8469172978
0.8478726939
0.8501975713
0.8597038302
0.8965500927
0.9668715751
1.01550354
1.030493966
1.03460038
1.035775169
1.035097243
1.03634595
1.038576194
1.039696683
1.038003013
1.036941592
0.8900070318
0.8911823032
0.8898120784
0.8818911556
0.8685889954
0.8466970713
0.8297485336
0.8241235356
0.827611798
0.837875557
0.8469357954
0.8513303639
0.8524350371
0.852424701
0.8515305845
0.8496746337
0.8468992965
0.8441219875
0.8440559555
0.846860508
0.8476675927
0.8494555357
0.8560901464
0.8848407008
0.9495145884
1.008014548
1.029440356
1.034496927
1.035969273
1.035041742
1.036392011
1.039150686
1.039908143
1.0380689
1.036781431
1.035532685
0.8897448056
0.8907108604
0.8891412217
0.8810255142
0.8687192762
0.8474103263
0.8297682139
0.8235310482
0.8272527951
0.8377828988
0.8472093636
0.851546797
0.8527851528
0.8526971747
0.8518809421
0.8501122604
0.8474487494
0.8445815306
0.8438963467
0.8466848549
0.8475149822
0.848847425
0.8535961017
0.873827338
0.9364369717
1.002270699
1.029059313
1.03421918
1.036507076
1.035271343
1.0367081
1.039528505
1.03982534
1.038019938
1.036407192
1.035068414
0.8895049816
0.8902517001
0.8884663112
0.880119328
0.8687446824
0.8480438788
0.8298696451
0.8229272926
0.8269487611
0.8379212476
0.847290718
0.8515408334
0.8528006559
0.8530072947
0.852237427
0.8505448139
0.8479510373
0.8450860959
0.8438195493
0.8465748923
0.8474718485
0.8484225895
0.851757194
0.8666433449
0.9175832533
0.9925020994
1.027479197
1.034143299
1.036939013
1.03569578
1.03709138
1.039584732
1.039621784
1.037960569
1.036359913
1.035266531
0.8892728877
0.889803423
0.8877876139
0.8791039816
0.8686206599
0.8485217295
0.8300584777
0.8222829459
0.8266997461
0.8380621318
0.8474683871
0.8516207625
0.8529258746
0.8532653571
0.8525914621
0.8509826508
0.848390864
0.8455836791
0.8438109755
0.84648028
0.8475261709
0.8481725756
0.8505878451
0.8610783615
0.8999791957
0.9751302921
1.02227527
1.033955217
1.037427798
1.036217345
1.037174273
1.039301165
1.039766627
1.038211008
1.036901627
1.036009386
0.8886845471
0.889457555
0.8870938657
0.8781473895
0.8684219623
0.8487835864
0.8304450512
0.8216055267
0.8265469669
0.838221524
0.8476907284
0.8517278694
0.8531155169
0.85345335
0.8529266702
0.8514292745
0.8488455218
0.8461537206
0.8438784538
0.8464032405
0.8474065438
0.8480363716
0.8497747608
0.8569652751
0.8890974546
0.9560762066
1.015382967
1.033846103
1.038348793
1.036724385
1.037106306
1.039457569
1.040667359
1.039146605
1.037974329
1.037064719
0.8882010957
0.8890944884
0.8863739837
0.8770622236
0.8679436897
0.8489159268
0.8309648403
0.8207857728
0.8264220277
0.8384414769
0.8478395856
0.8517117822
0.8530844498
0.8536477092
0.8532084763
0.8518503601
0.8492647289
0.8466565689
0.8439855341
0.8463626927
0.8473802231
0.8479204196
0.8492448219
0.8543380802
0.8774441895
0.9413197376
1.0089352
1.032918408
1.039309702
1.037162709
1.037411694
1.040508014
1.0422446
1.040682421
1.039478328
1.038390424
0.8881437631
0.8884693224
0.8856469042
0.8761710097
0.867605763
0.8489348876
0.8318392604
0.8198316134
0.8264116128
0.838728414
0.8479769263
0.8517721808
0.8531033671
0.8539032244
0.8535091199
0.8522997028
0.8497184746
0.8472291243
0.8441338541
0.8463510304
0.8473795125
0.8479076741
0.8488719856
0.8522624435
0.8683717259
0.9269655281
0.9996419617
1.030948484
1.040262502
1.038399865
1.038421881
1.041964218
1.044027228
1.042420984
1.041139474
1.039851432
0.8889177403
0.8876412779
0.8848889846
0.8749572264
0.8666936147
0.8484524969
0.8327122612
0.8187256812
0.8264997396
0.8390465419
0.8481400139
0.8519210654
0.8531303289
0.8539600389
0.8537328418
0.8526862601
0.8501425064
0.8476940592
0.8442930184
0.8463543577
0.8474344747
0.8479092044
0.8486860115
0.8510656485
0.8633921826
0.9100720172
0.9855460119
1.02802899
1.042089416
1.039765589
1.040178275
1.043818274
1.045226044
1.04343094
1.041961991
1.040339769
0.8796303687
0.8817350373
0.88264773
0.8753929145
0.8671016786
0.8487833973
0.8336395991
0.8178182398
0.8269889398
0.8394040742
0.8479414414
0.8518436234
0.8531819531
0.8541264746
0.8539841625
0.853127167
0.8506688483
0.8482524565
0.8446413643
0.8464506195
0.8475513187
0.8479539204
0.8484907784
0.8499753024
0.8572335438
0.8909517563
0.9627854483
1.021989429
1.043201755
1.039950473
1.041035603
1.044276708
1.045263372
1.043358768
1.042154572
1.040457281
0.7313954846
0.7651770357
0.795158889
0.8170733726
0.8112994283
0.8051774976
0.8101824727
0.820132964
0.8322084716
0.8418033124
0.8490057785
0.8533635699
0.8551208429
0.8564001662
0.8563258043
0.8557797174
0.8539839364
0.8513063111
0.8490723154
0.8491137987
0.8504538165
0.8506300509
0.8503877645
0.8495382295
0.8498007472
0.8569902878
0.8906041892
0.9534700297
1.006488392
1.018409716
1.032034721
1.038336952
1.040298724
1.040745779
1.039996482
1.037877295
1.037701092
0.6913879073
0.6863576008
0.6837317532
0.6880627729
0.6986606766
0.7168061641
0.7401051781
0.765045982
0.7889564793
0.8092613036
0.824094161
0.835507072
0.8421890345
0.8450493442
0.8479763068
0.8483853397
0.8475265026
0.8480794008
0.8505220532
0.8547981094
0.8566521257
0.8561806977
0.8548711429
0.852154391
0.8464928546
0.8425483648
0.8444179961
0.8604733175
0.9035883847
0.9605168905
1.00715172
1.021223095
1.028118594
1.032517433
1.03203056
1.030979818
1.033105816
0.6839017371
0.6807681582
0.6788445643
0.6777889606
0.677259637
0.6771345889
0.6772962985
0.6785175919
0.6822639188
0.6910633248
0.7046477755
0.7226832403
0.74399751
0.7636980614
0.7828980997
0.8003936657
0.816693294
0.8315070853
0.8418109456
0.8482057215
0.8489940259
0.8482005364
0.8455562877
0.841272276
0.83917907
0.8404825484
0.8438627235
0.8475623046
0.8539354976
0.8798277981
0.9212025461
0.9660530518
0.9974598159
1.018186896
1.01879383
1.023761035
1.033399349
0.6794481914
0.6783338934
0.6778990443
0.6780217649
0.6782739164
0.6785650527
0.6788298019
0.6789652244
0.6791182952
0.6792714023
0.6793152868
0.6793107194
0.6796173686
0.6812813165
0.6861297639
0.6950598712
0.709321569
0.7273325159
0.7473171344
0.7643730237
0.7797089872
0.7933477452
0.8060663348
0.8182466166
0.8290994269
0.840536432
0.8449428663
0.8477911228
0.8479702994
0.8488304158
0.8544965943
0.8833524018
0.9238657177
0.9700644968
0.9960632879
1.01751321
1.029408141
0.6773259926
0.677389682
0.6776472741
0.6780976091
0.6785162711
0.6787970189
0.6789986996
0.6790240362
0.6789877345
0.6789140731
0.6788446275
0.6788822835
0.6788776997
0.6787774491
0.6784936678
0.6780347488
0.6776458106
0.6777676717
0.6786238388
0.681171222
0.6870768604
0.6974922085
0.7134195013
0.7331043344
0.7569021772
0.776194454
0.7927708952
0.8045494544
0.8132271478
0.818523881
0.8252383221
0.8360001459
0.8567950342
0.8903654261
0.9414076427
0.9811516568
1.010337962
0.6769590285
0.677338769
0.6778926283
0.6784485671
0.6786220958
0.678600811
0.6785420675
0.6784227695
0.6783238122
0.6783246675
0.6783559695
0.6784893084
0.6784157431
0.6779765113
0.6774477534
0.6770122049
0.677151146
0.6774569666
0.6776443156
0.6775779394
0.677468165
0.6774798429
0.6775162131
0.6777132007
0.6788373824
0.6821428596
0.6901849668
0.7016833759
0.7175237522
0.7359879813
0.7542033178
0.7677282674
0.783373761
0.7999683197
0.8362607081
0.8831343701
0.9377456517
0.6774355632
0.6781323409
0.6786455412
0.6787985998
0.6787215631
0.6784200051
0.6779574751
0.6777562953
0.6778925554
0.6780483078
0.6781589422
0.677736165
0.6770474861
0.6761312615
0.6761353629
0.6764853198
0.6771529005
0.6771221241
0.6770023058
0.6768142441
0.6766842517
0.6766962739
0.6766747634
0.6764983354
0.6761067108
0.6755329164
0.6749435134
0.6745867956
0.6743130949
0.6742543936
0.674905736
0.67710141
0.6804207314
0.6861165341
0.6960448492
0.719876609
0.7725766076
0.6767713252
0.6766232772
0.67615175
0.6753048197
0.6744580669
0.6739138312
0.6735821625
0.6736302599
0.6736343833
0.6735097397
0.6730347048
0.6725639714
0.6721246563
0.6721965272
0.6721513813
0.6719224333
0.671500505
0.6710764792
0.670764185
0.6705059596
0.6702972691
0.670138379
0.6700189888
0.6698670512
0.6696826782
0.6694653901
0.6693052921
0.669153524
0.6690265203
0.6689155514
0.6687941207
0.6686429182
0.6685396075
0.6683791712
0.6682294192
0.6680058458
0.6682080279
0.6707002935
0.670359128
0.6699794014
0.6695850384
0.6693442763
0.6694289508
0.6694229491
0.6693296152
0.6691391595
0.6688193023
0.6683918905
0.6681076323
0.6678300062
0.6676224777
0.6674327444
0.6672640167
0.6671921313
0.6671496758
0.667106794
0.6670728906
0.6670319885
0.6669969075
0.6669565966
0.666878667
0.666743583
0.666545845
0.666444076
0.6663874502
0.6664303818
0.6664946542
0.6665299479
0.6665406201
0.666534447
0.6665287525
0.6665365824
0.6665572583
0.6665651216
0.6664271297
0.666390444
0.6661668965
0.6659302738
0.6659665816
0.6660839684
0.6663180776
0.6664869308
0.6663909531
0.6660604693
0.6657489863
0.6657488825
0.6657350452
0.6657663425
0.6659007397
0.6659636842
0.6659427379
0.6659378376
0.6659556884
0.6660034334
0.6660481448
0.6660967806
0.6661188702
0.6660761437
0.6659753457
0.6659114088
0.6659622531
0.6660756324
0.6662409306
0.6663774104
0.6664449668
0.6664706241
0.6665428721
0.6666491301
0.6667726517
0.6669154254
0.6669242627
0.6670824665
0.666495856
0.6660010456
0.6660448559
0.6663086472
0.6666404521
0.6670217337
0.666853113
0.6663600392
0.6659722458
0.6656638392
0.6658508599
0.6662433738
0.6666332364
0.6670982671
0.6670527897
0.6669230551
0.6666377852
0.6666414984
0.6669976136
0.6675113044
0.6676219353
0.6675456353
0.667346852
0.6673747512
0.6676732349
0.6681898051
0.6687231609
0.6690395775
0.6691863514
0.6693201432
0.6694546648
0.6696590565
0.6699674668
0.6700193939
0.6700711111
0.670238622
0.666751073
0.6658212916
0.6661658882
0.6670070163
0.6682658926
0.6679759611
0.6674595228
0.6668568054
0.6671960746
0.6681314194
0.6692502791
0.6704581445
0.6703283353
0.6700646768
0.6697106005
0.6694494344
0.6700162171
0.6710226449
0.6719076967
0.6722076113
0.672400742
0.6725063228
0.6726910634
0.6731345967
0.6737103332
0.6740708566
0.6740762451
0.6740736741
0.6740551659
0.6741732804
0.6744817766
0.6748515464
0.6750734633
0.6752595076
0.6755075615
0.6757131111
0.6759153328
0.6731024494
0.6756116173
0.6773056201
0.6785485261
0.6781746883
0.6777749818
0.6779388913
0.6784104447
0.6788607161
0.6792725373
0.6791478053
0.6787132636
0.6777626322
0.6778929023
0.6784287038
0.6794560373
0.680376385
0.6807361548
0.6805891074
0.6802332424
0.6796979794
0.6795048074
0.6797089716
0.6798967344
0.6801309376
0.6801475054
0.6802397611
0.6804169316
0.6807387735
0.6810922353
0.681404943
0.6813967884
0.6813591448
0.6813263671
0.6814134456
0.6815626872
0.6817457755
0.6880061266
0.687415448
0.686412827
0.6852705348
0.6833617107
0.6834750002
0.6839300928
0.6843881261
0.68406308
0.6834116542
0.6833604479
0.683776149
0.6848273791
0.6858043567
0.6861214831
0.6859385859
0.6852047717
0.6843809977
0.6840640802
0.6843958916
0.6850129886
0.6858248749
0.6866744857
0.6866989754
0.686561897
0.6866573715
0.6869139002
0.6870984678
0.6870320796
0.6869154054
0.6867613989
0.6865235895
0.6865424696
0.6867019273
0.6868626834
0.6868945806
0.6869509744
0.7016413918
0.7003868187
0.7007590714
0.7015317459
0.7027355753
0.7030934043
0.7027769005
0.7023083871
0.7017161879
0.7011574023
0.7012284045
0.70128657
0.7009950452
0.700032371
0.6989991994
0.6985803305
0.6987743382
0.6990036296
0.6993646491
0.6993061072
0.6989275078
0.6983414472
0.6977178172
0.6973465622
0.6971846315
0.6969891238
0.6968115207
0.6965547303
0.6961418822
0.6961596491
0.6963380143
0.6965566947
0.6965233564
0.6963981075
0.6962398436
0.6960006001
0.6956543469
0.7215725836
0.7209237973
0.7194982854
0.7180905773
0.7169001721
0.7152068271
0.7132478771
0.7121305792
0.711906006
0.7109732979
0.7098557686
0.7098854003
0.7098042005
0.7090939369
0.7091980527
0.7094922763
0.7093844964
0.7088496005
0.7080200979
0.7074124087
0.7067088517
0.7059837725
0.7060252147
0.7063122424
0.7063927128
0.7062032498
0.7060325583
0.7059149477
0.7054605897
0.704939839
0.70477693
0.704588257
0.7041612755
0.7035890544
0.7034265889
0.7034365132
0.7031976007
0.736579406
0.7346343861
0.7316375828
0.7294322079
0.729858708
0.7298105097
0.7286432039
0.7279336626
0.7278414149
0.7272209526
0.7253287547
0.7241607696
0.7240169937
0.7234716406
0.7220369332
0.7205595532
0.7196641839
0.7185496255
0.7179257387
0.7181181888
0.7181897833
0.7176238155
0.7166648058
0.7161278734
0.715513827
0.714566649
0.7135876691
0.7134245573
0.7132878655
0.7124578978
0.711946393
0.7120146704
0.7118576938
0.7113664767
0.7111431012
0.7110987109
0.7108428848
0.7543921457
0.753315471
0.751966937
0.7488118536
0.7464391702
0.7453106112
0.743486606
0.7405761633
0.7382489113
0.7374052565
0.7357580238
0.7331138806
0.733017467
0.7330008782
0.7316011205
0.7301697666
0.7302829091
0.730156901
0.7290454277
0.7277600461
0.7271416249
0.7263382421
0.7246258651
0.7238361912
0.7240117234
0.7237776765
0.7229091496
0.7226183144
0.7225563412
0.7220005075
0.7208585571
0.7203883017
0.7201734124
0.7195625194
0.7185396662
0.717953392
0.7177932341
0.770991292
0.7676266012
0.7656886212
0.7626838558
0.7575261843
0.7569157462
0.7567233886
0.7544321677
0.7516558856
0.7517675941
0.7513693633
0.748934357
0.7466779676
0.7462168935
0.7453424762
0.7430559809
0.7412985884
0.740575062
0.7392700268
0.7369449138
0.7365922949
0.7365383069
0.7355862859
0.7339757331
0.7335650602
0.7331480464
0.7319211568
0.7303633475
0.7296773912
0.7293359646
0.7280657236
0.7268982077
0.7269883479
0.7268246986
0.7258562701
0.7252109399
0.7252731861
0.787905307
0.7835374454
0.7816310274
0.7801907162
0.7761927466
0.7723893856
0.7713363646
0.7694933954
0.7655632663
0.7628425072
0.7618856176
0.7599092991
0.7558098641
0.7548376092
0.7548037196
0.7532257061
0.7502111131
0.7499889454
0.7497924836
0.748167318
0.7464572905
0.7460707113
0.7453308121
0.7432128057
0.7413437276
0.7411937455
0.7406535172
0.7389607181
0.7384330821
0.7384880333
0.7379386679
0.7363080538
0.7355203284
0.7352681004
0.7344807266
0.7330338022
0.7322508752
0.8045050521
0.7998556187
0.795689412
0.7937611833
0.7907287675
0.7845363483
0.7818638646
0.7814949685
0.7790634441
0.7745707222
0.7740662314
0.7735867022
0.7707221667
0.7675984838
0.7671545306
0.7662274841
0.7632964369
0.7609951533
0.7602451888
0.7588277121
0.7557714966
0.7544151496
0.754275563
0.7531760995
0.7508019026
0.7503450561
0.7500923893
0.7486765828
0.7466023254
0.7457248523
0.7452145494
0.7437218123
0.74186565
0.7418089071
0.7416307018
0.7403133936
0.7391206302
0.8207161937
0.8164428327
0.8105367382
0.8077076086
0.8061014652
0.8018023175
0.7966355498
0.7954167106
0.7937281164
0.7891661278
0.7856461163
0.7845309722
0.7823768078
0.7777976771
0.7754238533
0.7750106158
0.7732504056
0.7695732617
0.7688519394
0.7685132387
0.7664452884
0.7638760943
0.7636220077
0.7630273328
0.7606903409
0.7581844814
0.7576782288
0.757014109
0.7547113437
0.7535192122
0.7535739937
0.753018046
0.7510123665
0.7499637223
0.7497504561
0.7488906771
0.7469973323
0.8365727535
0.8325193789
0.8267202881
0.8210974057
0.8192273305
0.8164329982
0.8100271323
0.8057313716
0.804637919
0.8018973952
0.7965545928
0.7952968186
0.7946430996
0.7914726729
0.7872064674
0.7866933093
0.7859106674
0.7827024552
0.7796674965
0.778823885
0.7773485192
0.7739727005
0.7718189482
0.771359193
0.770067602
0.7670343534
0.7661707483
0.765996524
0.7646187158
0.7620436295
0.7610916754
0.7605545891
0.7589472288
0.7565400278
0.7560436565
0.7557622491
0.7542223721
0.8523130767
0.8477907028
0.843246162
0.8358549749
0.8317558588
0.8301076047
0.8259255059
0.8195759551
0.8177518098
0.8160933664
0.8113078187
0.8069281856
0.8056784511
0.8034794731
0.7985223863
0.7952809124
0.7944286511
0.7923687321
0.7879892415
0.786634343
0.78623976
0.7841079098
0.7806337815
0.7801621895
0.7796969415
0.7773986508
0.774462556
0.7736537062
0.7728585144
0.7703041019
0.7681677664
0.7680781577
0.7674949989
0.7652376336
0.7638882231
0.7637177755
0.7628480941
0.8683403438
0.8623748316
0.8584708188
0.8524322985
0.8448252097
0.8423425219
0.839905251
0.8337466738
0.8284157485
0.8266625097
0.8236115717
0.817486342
0.815146699
0.8143880369
0.8113779414
0.8061285726
0.8049984072
0.8042087663
0.8010127222
0.7974362109
0.7964874035
0.7950165087
0.7913498286
0.7885339642
0.7877937746
0.7863746736
0.7828667667
0.7812644696
0.781073677
0.7798272361
0.7768871282
0.7757144511
0.7752091477
0.7735424483
0.7707639553
0.7698072168
0.7693641517
0.8845484274
0.8771099234
0.8723358163
0.8681416609
0.8604192824
0.8542987826
0.8522721
0.848447543
0.841492183
0.8385566776
0.8368104966
0.8321107916
0.8268366847
0.8253082999
0.8232547335
0.8182055293
0.8141877683
0.8130234461
0.8108042307
0.8059810273
0.803587617
0.8030323923
0.800977844
0.7968562569
0.7958326435
0.7953918659
0.7932236213
0.7899010451
0.7889140315
0.7880595943
0.7854400989
0.7824691074
0.7820655568
0.7814617327
0.7790286012
0.7772193991
0.7770452759
0.9003432048
0.8928143651
0.8857501371
0.8818706648
0.8765576673
0.8680314885
0.8638627303
0.8613808592
0.8556858706
0.8495197807
0.8472970745
0.8442355004
0.8378062175
0.8340037935
0.8329196354
0.8301150244
0.8244956317
0.8224490665
0.8215294287
0.8183487213
0.8140034344
0.8130176664
0.8118172957
0.8081657625
0.8045929611
0.8035723514
0.8021194417
0.7984839251
0.7959787857
0.7956007243
0.7944019566
0.7911698083
0.7896750891
0.7892453825
0.7876322871
0.7846211783
0.7834093807
0.9155038179
0.9087121587
0.9002617615
0.8944730174
0.890605576
0.8837601123
0.8760271789
0.8729818973
0.8693643132
0.8622923088
0.8580477583
0.8561562258
0.8517690913
0.845573239
0.8435598607
0.8417273196
0.836947396
0.8321275091
0.8306046326
0.828422972
0.8235012219
0.8200535893
0.8191235302
0.8170970161
0.8125775098
0.8107456789
0.810280461
0.8082791507
0.8044553341
0.8033174569
0.8025999425
0.8001179047
0.7966532519
0.7957194873
0.7949504087
0.7923118725
0.7901458251
0.9302395403
0.923597835
0.9160383823
0.9075926677
0.9029045387
0.8983227254
0.8903173466
0.8843201187
0.8813926684
0.8761659177
0.8691113101
0.8663028983
0.8635729895
0.85742141
0.8522181222
0.8505659201
0.8478329572
0.8421843252
0.839112194
0.8380106493
0.8350787457
0.8298577638
0.8283469811
0.8274470003
0.8242511777
0.8200715894
0.818722888
0.8173104754
0.8137210174
0.8103817207
0.8096049021
0.8083625873
0.8048775896
0.8028995024
0.8025417159
0.8010572615
0.7979193614
0.9448897029
0.9374127696
0.9309606719
0.9225874163
0.9150228629
0.9107490589
0.9049986365
0.8968808642
0.8924528865
0.888909665
0.8821311129
0.8763726234
0.8741966338
0.8704262129
0.8636903042
0.860592477
0.8588552488
0.8545976121
0.8491537599
0.8471250913
0.8451074873
0.8403881419
0.8359884047
0.8346759078
0.8327034454
0.828088181
0.8250924366
0.8244798785
0.8227297404
0.818579332
0.816933063
0.8163744299
0.814188024
0.8104981868
0.8092203338
0.8082568091
0.8054695698
0.9592494759
0.9509734927
0.944200187
0.9374643553
0.9287884255
0.9223818328
0.9178340554
0.9108666908
0.903700544
0.900085758
0.8954554853
0.8879214845
0.8838354765
0.881365842
0.8760319128
0.8698097253
0.8674416708
0.8647653456
0.8591986881
0.854971495
0.85361073
0.8510803594
0.8456619628
0.8429200887
0.8420272126
0.8393412715
0.8347259905
0.8330636125
0.8318438851
0.8284733444
0.8244588776
0.8232277665
0.8219170719
0.8183548109
0.8156941613
0.8151916865
0.8137178967
0.9724759621
0.9646681389
0.956787982
0.9504297162
0.9432194171
0.9349269027
0.9293703185
0.9241044828
0.9163905088
0.9106240628
0.9070606739
0.9011351758
0.8940481918
0.8910361261
0.8878075206
0.8813508883
0.8767677301
0.8748748201
0.8711759997
0.8652734448
0.8625725176
0.8607849484
0.8566141504
0.8514143177
0.8495624795
0.847744891
0.8433709806
0.8392968529
0.8382183052
0.8365602224
0.8323749196
0.829941874
0.8293825351
0.8274848748
0.8236742104
0.8221976061
0.8211520794
0.98386224
0.9772141812
0.9696142381
0.9623578362
0.9560499505
0.9484727112
0.9409991364
0.9358140292
0.9296553832
0.9219676657
0.9173472275
0.9132872898
0.9063119623
0.9005088683
0.8977928798
0.8933621242
0.8866218367
0.8833429413
0.8808931629
0.8757559154
0.8703333404
0.8684208585
0.866154964
0.8611436772
0.8571785386
0.8559817166
0.8536658265
0.8486985436
0.8463933118
0.8454569549
0.842635407
0.8382379419
0.8365116098
0.8351394683
0.831696308
0.8284964213
0.8275635727
0.9926289748
0.9874193426
0.9813494593
0.9742562646
0.9675638863
0.9611219379
0.9534708476
0.9468716045
0.941645228
0.934706184
0.9277126496
0.923661337
0.9187611544
0.9114347714
0.9069829848
0.9039591399
0.8982824894
0.8923028605
0.8899464776
0.886873628
0.8808899908
0.8770569904
0.8753664597
0.871911412
0.866382863
0.8637327979
0.8620432532
0.8581277896
0.8533076818
0.8516556429
0.8499904816
0.8459428248
0.8425811617
0.8417653241
0.8400580471
0.8362834789
0.8344127558
0.9977548454
0.994719897
0.9904510986
0.9850039218
0.9785586094
0.9723278781
0.965757191
0.958346774
0.9524077707
0.9468697347
0.9395257294
0.9334900872
0.9294613172
0.9236120208
0.9167407446
0.9131947143
0.9094706463
0.9028812482
0.8982153857
0.8959068314
0.8916269133
0.8854686099
0.8826502788
0.8804860898
0.8759498531
0.8710707441
0.8693907237
0.8673716137
0.8626396555
0.8591036101
0.8581066559
0.8558542733
0.8514656901
0.849282921
0.8479248702
0.8448079954
0.8412568739
0.9996119908
0.9985530478
0.9963758581
0.9929425366
0.9881922808
0.9824602982
0.9766251952
0.9700601829
0.9631032928
0.9575333325
0.951575573
0.9443008879
0.9390954149
0.934705081
0.9280953426
0.9222140865
0.9189959471
0.9143277754
0.9075823654
0.904142323
0.9015203344
0.8961771515
0.8909849697
0.889002058
0.8861618454
0.8807471192
0.8771894069
0.8755210991
0.8722242499
0.8670503076
0.8646393016
0.863013651
0.8593248448
0.8552043459
0.8537209044
0.8520150561
0.8486987557
0.9999674588
0.9997689487
0.9991098242
0.9975824512
0.9949088287
0.9909107089
0.9859094849
0.9804659179
0.9740951708
0.9676715847
0.9622319232
0.9559023354
0.9490788371
0.9443822887
0.9394110595
0.9324897186
0.9276767068
0.9243120676
0.9186552673
0.9125727348
0.9098188504
0.9063949643
0.9002768973
0.8962773948
0.8941501297
0.8901876479
0.8846986372
0.8822246706
0.8803322474
0.8762671102
0.8717797872
0.8702126688
0.8682714542
0.8641227373
0.8612349428
0.8598533133
0.8573175109
0.9999988338
0.9999803729
0.9998705876
0.9994654818
0.9984260822
0.996413973
0.9931651194
0.9888859688
0.9838748239
0.9778750845
0.9719698861
0.9665256256
0.9599991835
0.9538016427
0.9492796788
0.9436665152
0.9369783996
0.9329502234
0.929089904
0.9227281633
0.9177674813
0.9151442136
0.9107600018
0.9047057623
0.9019021635
0.8994935441
0.8945858935
0.8900256678
0.8881351926
0.8854526679
0.8805202766
0.8771049359
0.8753976638
0.8723041156
0.8679144826
0.8654951818
0.8635795673
0.9999999834
0.9999991581
0.9999895789
0.9999295469
0.9996868512
0.9990005567
0.9975352919
0.9949813894
0.991396474
0.9868791507
0.9813777487
0.9759386317
0.9704591251
0.9639699439
0.9583752678
0.9537612091
0.9476240644
0.941579122
0.9379161402
0.9333397958
0.9268318072
0.9229456312
0.9200018369
0.9146234466
0.9093541396
0.9069857353
0.9037354064
0.8982183324
0.8946254887
0.892641716
0.8892231816
0.8844169543
0.8819123464
0.8800577816
0.8765905375
0.8728620654
0.8708631509
0.9999999999
0.9999999819
0.9999995563
0.999994761
0.9999627977
0.9998215157
0.9993819184
0.9983488877
0.9964030853
0.9934686679
0.9894980506
0.9845706779
0.979548207
0.974085647
0.9678500913
0.9627152688
0.9578424853
0.9514546851
0.9461892671
0.9425041486
0.9371705047
0.9311263731
0.9279066467
0.9243622343
0.918404634
0.9142408465
0.911939162
0.9079087075
0.9025995965
0.8999691767
0.8976969531
0.893482455
0.889216903
0.8870448221
)
;

boundaryField
{
    inlet
    {
        type            fixedValue;
        value           nonuniform 0();
    }
    outlet
    {
        type            inletOutlet;
        inletValue      nonuniform 0();
        value           nonuniform 0();
    }
    bottom
    {
        type            slip;
    }
    top
    {
        type            slip;
    }
    obstacle
    {
        type            zeroGradient;
    }
    defaultFaces
    {
        type            empty;
    }
    procBoundary27to14
    {
        type            processor;
        value           nonuniform List<scalar> 2(0.6988508848 0.6946570475);
    }
    procBoundary27to20
    {
        type            processor;
        value           nonuniform List<scalar> 
34
(
0.6861993157
0.6807747566
0.677763792
0.6768579023
0.6770862379
0.6766597767
0.6708901631
0.6658061251
0.6669602288
0.6679251962
0.6721156359
0.6883211336
0.702539915
0.7216230059