/*--------------------------------*- C++ -*----------------------------------*\
  =========                 |
  \\      /  F ield         | OpenFOAM: The Open Source CFD Toolbox
   \\    /   O peration     | Website:  https://openfoam.org
    \\  /    A nd           | Version:  7
     \\/     M anipulation  |
\*---------------------------------------------------------------------------*/
FoamFile
{
    version     2.0;
    format      ascii;
    class       volScalarField;
    location    "4";
    object      T;
}
// * * * * * * * * * * * * * * * * * * * * * * * * * * * * * * * * * * * * * //

dimensions      [0 0 0 1 0 0 0];

internalField   nonuniform List<scalar> 
23
(
0.9743905524
0.9769745982
1.00677504
0.9793335093
0.9709044192
1.034932194
1.011471333
0.9874975011
1.040364812
1.033857921
1.01556643
1.039200953
1.038243942
1.032597492
1.025905069
1.032758294
1.035190708
1.00984759
1.023663708
1.034036233
1.002455272
1.012212208
1.029602901
)
;

boundaryField
{
    inlet
    {
        type            fixedValue;
        value           nonuniform 0();
    }
    outlet
    {
        type            inletOutlet;
        inletValue      nonuniform 0();
        value           nonuniform 0();
    }
    bottom
    {
        type            slip;
    }
    top
    {
        type            slip;
    }
    obstacle
    {
        type            zeroGradient;
    }
    defaultFaces
    {
        type            empty;
    }
    procBoundary34to27
    {
        type            processor;
        value           uniform 1.038797862;
    }
    procBoundary34to28
    {
        type            processor;
        value           nonuniform List<scalar> 4(0.979388532 1.002170125 0.9774889852 0.9774889852);
    }
    procBoundary34to33
    {
        type            processor;
        value           nonuniform List<scalar> 6(1.047420039 1.040392256 1.025268123 1.009741305 1.002161509 1.000272871);
    }
    procBoundary34to35
    {
        type            processor;
        value           nonuniform List<scalar> 8(0.9875130199 0.9741449284 0.9802147247 0.994519905 1.018170896 1.032354915 1.043074413 1.048065486);
    }
}


// ************************************************************************* //
