/*--------------------------------*- C++ -*----------------------------------*\
  =========                 |
  \\      /  F ield         | OpenFOAM: The Open Source CFD Toolbox
   \\    /   O peration     | Website:  https://openfoam.org
    \\  /    A nd           | Version:  7
     \\/     M anipulation  |
\*---------------------------------------------------------------------------*/
FoamFile
{
    version     2.0;
    format      ascii;
    class       volScalarField;
    location    "4.2";
    object      rho;
}
// * * * * * * * * * * * * * * * * * * * * * * * * * * * * * * * * * * * * * //

dimensions      [1 -3 0 0 0 0 0];

internalField   nonuniform List<scalar> 
22
(
1.317084485
1.31749515
1.296449499
1.311941897
1.318900459
1.319919944
1.297311278
1.309813153
1.316136754
1.320735607
1.298459965
1.307266289
1.312954706
1.320513552
1.306571896
1.312512887
1.317458811
1.324435589
1.315165343
1.320105618
1.325166762
1.330167023
)
;

boundaryField
{
    inlet
    {
        type            calculated;
        value           nonuniform 0();
    }
    outlet
    {
        type            calculated;
        value           nonuniform List<scalar> 6(1.319902623 1.320572568 1.320427133 1.324559625 1.330197443 1.317558554);
    }
    bottom
    {
        type            calculated;
        value           nonuniform 0();
    }
    top
    {
        type            calculated;
        value           nonuniform 0();
    }
    obstacle
    {
        type            calculated;
        value           nonuniform 0();
    }
    defaultFaces
    {
        type            empty;
    }
    procBoundary23to17
    {
        type            processor;
        value           nonuniform List<scalar> 5(1.316429283 1.317171345 1.296348097 1.308460374 1.308460374);
    }
    procBoundary23to22
    {
        type            processor;
        value           nonuniform List<scalar> 5(1.335228816 1.33483873 1.332496234 1.341096146 1.349339321);
    }
    procBoundary23to29
    {
        type            processor;
        value           nonuniform List<scalar> 4(1.324921865 1.328223028 1.333003294 1.335171646);
    }
}


// ************************************************************************* //
