/*--------------------------------*- C++ -*----------------------------------*\
  =========                 |
  \\      /  F ield         | OpenFOAM: The Open Source CFD Toolbox
   \\    /   O peration     | Website:  https://openfoam.org
    \\  /    A nd           | Version:  7
     \\/     M anipulation  |
\*---------------------------------------------------------------------------*/
FoamFile
{
    version     2.0;
    format      ascii;
    class       volVectorField;
    location    "1.6";
    object      U;
}
// * * * * * * * * * * * * * * * * * * * * * * * * * * * * * * * * * * * * * //

dimensions      [0 1 -1 0 0 0 0];

internalField   nonuniform List<vector> 
555
(
(2.858295651 0.001756814598 0)
(2.858906324 0.002337869132 0)
(2.859818243 0.002486903605 0)
(2.860315831 0.002225272902 0)
(2.860554162 0.001938580706 0)
(2.852829102 -0.001204122625 0)
(2.852470047 -0.000628300437 0)
(2.853087488 -0.0002256856921 0)
(2.853699214 -0.0003645473359 0)
(2.854986448 -0.0008872334285 0)
(2.856345199 -0.001684262042 0)
(2.857189146 -0.002293622159 0)
(2.857551574 -0.00218751892 0)
(2.857559289 -0.001633657863 0)
(2.858011679 -0.0007885592166 0)
(2.85809654 0.0005582960199 0)
(2.858501289 0.00182533225 0)
(2.858993772 0.002692830775 0)
(2.859558917 0.003146782451 0)
(2.860486788 0.002949592083 0)
(2.861068384 0.002304904292 0)
(2.861562156 0.001204931386 0)
(2.856603608 -0.0001648482683 0)
(2.856475723 0.0006876086872 0)
(2.856566448 0.001130653332 0)
(2.857288009 0.0008680629921 0)
(2.858357397 0.0001874876433 0)
(2.859417283 -0.001001356989 0)
(2.860290927 -0.001828965035 0)
(2.860732038 -0.00157503673 0)
(2.860695786 -0.000709731524 0)
(2.860814699 0.0001547101469 0)
(2.861036167 0.0008071318731 0)
(2.861477413 0.001808403983 0)
(2.861673139 0.002079734236 0)
(2.862176068 0.001732846989 0)
(2.862647289 0.00149360356 0)
(2.862874437 0.000907548229 0)
(2.863634847 -0.000962848187 0)
(2.862127044 0.000672100293 0)
(2.861333719 0.00261929334 0)
(2.861135903 0.002689929192 0)
(2.861927269 0.002397947091 0)
(2.862874472 0.001557324858 0)
(2.863799052 8.343823667e-05 0)
(2.864772363 -0.001062655228 0)
(2.865083635 -0.0009297686957 0)
(2.865184152 -4.562853963e-05 0)
(2.865438217 0.0003444242089 0)
(2.865852036 0.0002294125615 0)
(2.866466429 0.001023211087 0)
(2.866536975 0.0007888119678 0)
(2.866614874 -0.0004038351035 0)
(2.866636692 -0.001140332059 0)
(2.866323204 -0.001684437029 0)
(2.866639036 -0.002476427989 0)
(2.868094646 0.002254987593 0)
(2.867314864 0.004429856041 0)
(2.866821904 0.005344809907 0)
(2.867719435 0.005120114352 0)
(2.868775359 0.003951723581 0)
(2.869362838 0.001775238708 0)
(2.86983716 0.0002794800599 0)
(2.87000618 -0.0001673662697 0)
(2.870573852 -0.0004863732749 0)
(2.871062229 -0.0008074165239 0)
(2.870870818 -0.0009741112812 0)
(2.870862712 -0.0004043575655 0)
(2.871099681 -0.0006659946971 0)
(2.871118451 -0.001479060567 0)
(2.870947029 -0.00192830446 0)
(2.870485506 -0.001676121273 0)
(2.870225094 -0.001564703839 0)
(2.873745182 0.003865089574 0)
(2.873313472 0.006124672466 0)
(2.873520159 0.006983670813 0)
(2.873970381 0.006469737181 0)
(2.874787593 0.005119089371 0)
(2.875463459 0.003329821873 0)
(2.875614608 0.001560936772 0)
(2.875868891 3.86517796e-05 0)
(2.876385454 -0.001482824549 0)
(2.876381048 -0.002140204513 0)
(2.876050848 -0.001946472636 0)
(2.875718297 -0.001621214958 0)
(2.875641261 -0.001560395329 0)
(2.875450764 -0.001770542104 0)
(2.87508038 -0.001717408234 0)
(2.874713977 -0.0009600465138 0)
(2.874244554 -0.0003177417774 0)
(2.879694842 0.004346184525 0)
(2.879476757 0.006017425213 0)
(2.879518283 0.006657181533 0)
(2.879705864 0.005468797112 0)
(2.880132519 0.004025752195 0)
(2.880590386 0.002965374506 0)
(2.880783116 0.001628939926 0)
(2.881349492 -0.000294245535 0)
(2.881605142 -0.002009878031 0)
(2.881609341 -0.002868649152 0)
(2.881546847 -0.002262207067 0)
(2.8818929 -0.001779083626 0)
(2.881369981 -0.001482841643 0)
(2.880837787 -0.001431380945 0)
(2.880251867 -0.001345570397 0)
(2.879622838 -0.000684726363 0)
(2.879260447 0.0002411428546 0)
(2.884508897 0.004255852298 0)
(2.884321032 0.003609227936 0)
(2.884290822 0.002172293198 0)
(2.884696709 0.001561938927 0)
(2.885300532 0.001381823034 0)
(2.885473151 0.0005383209207 0)
(2.886020971 -0.0008296537442 0)
(2.886196758 -0.001944245235 0)
(2.886265843 -0.002559367249 0)
(2.885972668 -0.001594727174 0)
(2.886010692 -0.001328332849 0)
(2.885746079 -0.000992595034 0)
(2.885598219 -0.0008749263613 0)
(2.885364878 -0.0007168434785 0)
(2.88501858 -0.0002083758347 0)
(2.884994462 0.001122903161 0)
(2.887571877 -0.0001699596028 0)
(2.886986637 -0.001428922294 0)
(2.886873225 -0.001648225493 0)
(2.88736605 -0.0008602636444 0)
(2.888349088 3.012361077e-05 0)
(2.889479929 0.0002016010495 0)
(2.890157131 -0.0004346989104 0)
(2.890196924 -0.0009976903286 0)
(2.889551414 -0.000900310376 0)
(2.88957447 -0.0001758529889 0)
(2.889886909 -0.0003776915565 0)
(2.89022206 -0.0005134278218 0)
(2.890271979 -0.0005736447714 0)
(2.88990325 -0.0004392940046 0)
(2.889625417 0.0001086325887 0)
(2.890034185 0.001472540349 0)
(2.890398722 -0.003199692396 0)
(2.890066067 -0.003581040197 0)
(2.890145857 -0.003259474196 0)
(2.890300948 -0.00231538413 0)
(2.89112804 -0.001021500885 0)
(2.892235769 -0.0001251808347 0)
(2.89271093 0.0002033398501 0)
(2.893173485 0.0003472113162 0)
(2.893214019 0.001307919047 0)
(2.894339245 0.001082686127 0)
(2.895150464 0.0004617042112 0)
(2.89556771 -0.0001879258844 0)
(2.89538702 -0.0006100524047 0)
(2.89482033 -0.0005705406007 0)
(2.894232989 0.0001168324429 0)
(2.894652424 0.0009345679841 0)
(2.894523835 -0.003643057957 0)
(2.894768617 -0.004114172094 0)
(2.894782828 -0.004645452906 0)
(2.894871705 -0.004450202339 0)
(2.895552286 -0.003739808435 0)
(2.89589831 -0.002265192942 0)
(2.895952472 0.0002339377966 0)
(2.896717116 0.001872722767 0)
(2.898179021 0.002659437452 0)
(2.899301434 0.002123560833 0)
(2.899758805 -3.958614837e-05 0)
(2.899792271 -0.0009971274434 0)
(2.899530985 -0.001089496348 0)
(2.89929971 -0.0006312691996 0)
(2.899025684 -7.674496495e-05 0)
(2.899242181 8.451094599e-05 0)
(2.898381756 -0.002580949512 0)
(2.898399774 -0.00234478105 0)
(2.898640648 -0.002015221699 0)
(2.899548091 -0.001820650347 0)
(2.900182709 -0.001938398254 0)
(2.900783181 -0.001099378284 0)
(2.901137539 0.0007397215888 0)
(2.901313675 0.00279556084 0)
(2.902532222 0.003011978906 0)
(2.903205361 0.001448677037 0)
(2.903300994 -0.0005572159059 0)
(2.903170606 -0.001301622087 0)
(2.903035486 -0.0009625220648 0)
(2.903052908 -0.0006535177707 0)
(2.903002149 -0.0005993608912 0)
(2.903303773 -0.0008812150243 0)
(2.902313111 -0.0008851704894 0)
(2.902141956 8.213949362e-05 0)
(2.902082936 0.00151180813 0)
(2.90198357 0.002219640656 0)
(2.902614727 0.001267339496 0)
(2.9035291 0.001056911224 0)
(2.904744754 0.001607660403 0)
(2.905630708 0.002471584863 0)
(2.906489787 0.001958660648 0)
(2.906684563 0.0001963078937 0)
(2.906893298 -0.0004721400021 0)
(2.906795577 -0.0002116221803 0)
(2.906941286 0.0003277100617 0)
(2.90703869 0.0002967552605 0)
(2.906979742 -3.047223938e-05 0)
(2.907405815 -0.0008277257115 0)
(2.906027115 0.002149290994 0)
(2.904565917 0.005133092816 0)
(2.903911378 0.005935942121 0)
(2.904163392 0.005609215665 0)
(2.904647931 0.00445457921 0)
(2.906119256 0.002739193575 0)
(2.907484615 0.001235307615 0)
(2.908870249 0.0001558075606 0)
(2.908920901 -0.0007459084046 0)
(2.909007559 -0.0007152430943 0)
(2.909680854 0.000151811476 0)
(2.910484345 0.001252927053 0)
(2.911293438 0.001909478986 0)
(2.91183719 0.001817801241 0)
(2.911854654 0.001274895049 0)
(2.912224473 0.0002555346465 0)
(2.910344088 0.006107564604 0)
(2.910152028 0.007169614965 0)
(2.90986806 0.007750714154 0)
(2.909983487 0.00742708378 0)
(2.910281633 0.007050073794 0)
(2.911127433 0.004852306206 0)
(2.911804559 0.001131209546 0)
(2.912390215 -0.002371145742 0)
(2.912267308 -0.002843299306 0)
(2.91306297 -0.0008706547782 0)
(2.914708712 0.0006265614805 0)
(2.916225042 0.002332638281 0)
(2.917230336 0.003090874006 0)
(2.91784638 0.003036294191 0)
(2.918188783 0.00262486333 0)
(2.918935068 0.001982429299 0)
(2.917166998 0.007480713093 0)
(2.917587389 0.008237681906 0)
(2.917848486 0.008142882352 0)
(2.917764228 0.007666723142 0)
(2.917995681 0.00617840257 0)
(2.917759737 0.003870579935 0)
(2.917700227 0.0002083237991 0)
(2.918059559 -0.003019796535 0)
(2.918610028 -0.004324226163 0)
(2.920773165 -0.002301052874 0)
(2.922633142 0.0001493803702 0)
(2.923985249 0.002468824705 0)
(2.924778198 0.003282785535 0)
(2.925346384 0.003222775022 0)
(2.925957958 0.002822033689 0)
(2.927239087 0.0028513325 0)
(2.92487533 0.006313921192 0)
(2.925817998 0.007056914195 0)
(2.926353136 0.006511631498 0)
(2.926052445 0.00561880591 0)
(2.92536322 0.003884009319 0)
(2.92491961 0.001092405466 0)
(2.9245754 -0.001520713985 0)
(2.924117803 -0.003196751635 0)
(2.925598907 -0.003140982236 0)
(2.928077975 -0.0004761482788 0)
(2.929309707 0.001586515382 0)
(2.930430218 0.001892042831 0)
(2.931678216 0.00194397116 0)
(2.93296154 0.001951951177 0)
(2.934052874 0.001470243549 0)
(2.935265549 0.001813962 0)
(2.930926929 0.002933789874 0)
(2.931272663 0.002751974158 0)
(2.931240978 0.001672479732 0)
(2.93079443 0.0001138749714 0)
(2.930058939 -0.001285595211 0)
(2.929582264 -0.001836102006 0)
(2.929415835 -0.001978823648 0)
(2.929433501 -0.002725783198 0)
(2.931533477 -0.0009329210079 0)
(2.932194478 0.0009926103633 0)
(2.933592122 0.001072471753 0)
(2.935429724 0.0008702491418 0)
(2.937604973 0.0006120696409 0)
(2.939756217 0.0005632330088 0)
(2.941969566 0.000640992929 0)
(2.942424434 0.0005892150196 0)
(2.935015673 -0.0007915002178 0)
(2.935094137 -0.002064959261 0)
(2.934590583 -0.003460779111 0)
(2.934033894 -0.004580176136 0)
(2.933992952 -0.005003515672 0)
(2.934263448 -0.003958239901 0)
(2.934792391 -0.002262133266 0)
(2.935303644 -0.0005026990716 0)
(2.9354572 0.001878835795 0)
(2.935372868 0.001189795352 0)
(2.936988474 -0.0001239782624 0)
(2.939516716 -0.0008467749679 0)
(2.942469447 -0.001146535442 0)
(2.944979591 -0.001308715509 0)
(2.947608009 -0.001680874233 0)
(2.948349284 -0.00143242128 0)
(2.938903344 -0.003857705169 0)
(2.938909738 -0.00445571158 0)
(2.938527321 -0.005117244654 0)
(2.937981021 -0.00560672629 0)
(2.937857611 -0.005563963709 0)
(2.93834679 -0.004434660108 0)
(2.938901038 -0.001561524193 0)
(2.939542703 0.003073804488 0)
(2.938506378 0.003239103385 0)
(2.938897688 0.0005956105193 0)
(2.939741468 -0.001541467264 0)
(2.942081435 -0.00241824462 0)
(2.945085853 -0.002770599622 0)
(2.947790216 -0.002779053216 0)
(2.950320521 -0.002648322243 0)
(2.951235517 -0.001819859951 0)
(2.955510591 0.0005600631317 0)
(2.955502855 0.000803229708 0)
(2.955235292 0.000490402592 0)
(2.954606755 -1.541809403e-05 0)
(2.954045577 -0.0005943797143 0)
(2.953570333 -0.0009241421886 0)
(2.953203895 -0.0009088222944 0)
(2.952791344 -0.0006585826129 0)
(2.952520182 -0.0005165322663 0)
(2.952579901 -0.0004827228284 0)
(2.953331434 -0.0008109993529 0)
(2.954812316 -0.0009997596011 0)
(2.956508897 -0.0009604542239 0)
(2.957986608 -0.000857261704 0)
(2.959273083 -0.0004458400054 0)
(2.960167695 0.0001035173635 0)
(2.98112663 0.0005229754423 0)
(2.980798183 0.001247780907 0)
(2.980444101 0.00111464737 0)
(2.980155309 0.0006765320072 0)
(2.979732058 0.0001408421657 0)
(2.979411358 -0.0002368298612 0)
(2.97902984 -0.0002029747903 0)
(2.978355 0.0001143147384 0)
(2.97738182 0.0004870347795 0)
(2.976501237 0.000359947781 0)
(2.97629435 -7.672292398e-05 0)
(2.976040797 -0.0008179873135 0)
(2.975647059 -0.001353768603 0)
(2.975605132 -0.001375009961 0)
(2.975640651 -0.001272211309 0)
(2.976481331 -0.0004336767908 0)
(2.995651103 0.0002034856207 0)
(2.995297256 0.001216590655 0)
(2.995109086 0.001202267451 0)
(2.995233897 0.0009183340863 0)
(2.995479993 0.0004783216867 0)
(2.995743666 9.681920458e-05 0)
(2.995497905 0.0001620857971 0)
(2.994777502 0.0004418300669 0)
(2.993867851 0.0003892149082 0)
(2.992961603 -9.526540488e-05 0)
(2.992575759 -0.0007886886306 0)
(2.991796656 -0.001210686952 0)
(2.991088201 -0.001347138299 0)
(2.990659109 -0.001336764727 0)
(2.990577855 -0.001321929308 0)
(2.9908934 -0.0008837445302 0)
(2.999155541 0.0002795982138 0)
(2.998755882 0.00149130252 0)
(2.998688526 0.001546605433 0)
(2.998992138 0.001377631043 0)
(2.999645229 0.0009701197761 0)
(3.000309253 0.0006116131942 0)
(3.000411541 0.0007917874947 0)
(2.999902404 0.0007880636739 0)
(2.999625716 0.0005499726418 0)
(2.999302287 -0.000192308129 0)
(2.998843591 -0.0008665114269 0)
(2.998376834 -0.001321602149 0)
(2.997846335 -0.001410559568 0)
(2.997480992 -0.001255466749 0)
(2.997258026 -0.001198988749 0)
(2.997258392 -0.0006936845251 0)
(2.997774154 0.0007254596793 0)
(2.997567429 0.001441951183 0)
(2.997307708 0.001304814219 0)
(2.997433261 0.0006821698741 0)
(2.998203374 0.0002590197472 0)
(2.99876318 0.0002859393319 0)
(2.998905197 0.000847157107 0)
(2.998832765 0.001167174455 0)
(2.998733101 0.001057234633 0)
(2.998420043 0.0006497110609 0)
(2.998138945 6.148568485e-05 0)
(2.998145119 -0.0004706794317 0)
(2.997800298 -0.0009045680755 0)
(2.997448689 -0.0009548310124 0)
(2.997116789 -0.0009187732184 0)
(2.997186661 -0.0006811168645 0)
(2.995328078 -0.0004782039505 0)
(2.994642846 -0.0005827077829 0)
(2.994248028 -0.0009743291687 0)
(2.994482638 -0.001075747086 0)
(2.995236065 -0.000686790553 0)
(2.99594949 2.909943655e-06 0)
(2.996395787 0.0009123702551 0)
(2.996561663 0.001374575307 0)
(2.996560991 0.001411142088 0)
(2.9963314 0.001132203936 0)
(2.996086336 0.0006478080138 0)
(2.995950401 -2.793632139e-05 0)
(2.995388907 -0.0004661077857 0)
(2.995096226 -0.0004309196376 0)
(2.994920022 -0.0004852824779 0)
(2.994927548 -0.000568241427 0)
(2.992649724 -0.002088342478 0)
(2.992074026 -0.002566261749 0)
(2.992017957 -0.002681356643 0)
(2.992177495 -0.002503356812 0)
(2.992935417 -0.001456772279 0)
(2.993829235 -3.27788945e-05 0)
(2.994274677 0.0008349766485 0)
(2.994662579 0.001182080084 0)
(2.99483206 0.0009682357121 0)
(2.994873432 0.0005488929292 0)
(2.99464727 1.838710785e-05 0)
(2.99429087 -0.0002410168385 0)
(2.993827314 -0.0001606206275 0)
(2.993461607 -1.171310221e-05 0)
(2.993303394 -9.565852644e-05 0)
(2.993099269 -0.0003766413726 0)
(2.991675624 -0.003265239828 0)
(2.991466562 -0.00335121623 0)
(2.991325772 -0.003500593945 0)
(2.991505231 -0.003107270163 0)
(2.992087274 -0.001366729532 0)
(2.992408557 -3.0463364e-05 0)
(2.992878219 0.0004702947267 0)
(2.993228612 0.0003254803177 0)
(2.993749617 -5.419531105e-05 0)
(2.993999873 -0.0008138760013 0)
(2.993921423 -0.0006837453397 0)
(2.993554447 -0.0004864537192 0)
(2.993212342 -9.449903966e-05 0)
(2.992746652 0.0001531775933 0)
(2.992571154 9.557983482e-05 0)
(2.992111852 -0.0002196945688 0)
(2.99287958 -0.002095097234 0)
(2.993019264 3.941744833e-05 0)
(2.992424973 -0.0003735007627 0)
(2.991582449 -0.001557978614 0)
(2.991499166 -0.001217836207 0)
(2.991875393 -0.0004837119068 0)
(2.992270921 -0.000123458223 0)
(2.992714253 -0.0003334893453 0)
(2.993547048 -0.001118091194 0)
(2.994113578 -0.001437111579 0)
(2.993988573 -0.0009922317837 0)
(2.993714013 -0.000527569004 0)
(2.993142493 8.30617131e-05 0)
(2.992468497 0.0002194081546 0)
(2.992249422 0.0001141042719 0)
(2.991542807 -0.0001780554168 0)
(2.994850739 -0.0001816755096 0)
(2.994842368 0.001586782797 0)
(2.99293462 0.0005817456594 0)
(2.991025357 -0.001006003771 0)
(2.991168056 -0.001402257442 0)
(2.991594382 -0.0006966893214 0)
(2.991849442 -0.0007637981364 0)
(2.992676484 -0.0008606195326 0)
(2.993776106 -0.001072366622 0)
(2.994648616 -0.0009674155838 0)
(2.994513122 -0.0006072963829 0)
(2.994114501 -0.000161333864 0)
(2.993401698 8.208952334e-05 0)
(2.99286405 2.810644469e-05 0)
(2.992381688 -0.0001810227797 0)
(2.991621184 -0.000337326299 0)
(2.996287073 -0.003180301548 0)
(2.997191329 0.0001397121311 0)
(2.992356195 -0.00248501068 0)
(2.99089878 -0.002828802366 0)
(2.991025186 -0.002025377552 0)
(2.991309719 -0.0009375086981 0)
(2.991738813 -0.00044915155 0)
(2.993336948 -0.0003156804433 0)
(2.994053314 -0.0003828916079 0)
(2.994663768 -0.000354639886 0)
(2.994639235 -0.0002469310688 0)
(2.994219821 4.298192498e-05 0)
(2.993849927 0.0001663804171 0)
(2.993446868 -7.507970765e-05 0)
(2.993000866 -0.0001912479222 0)
(2.992367407 -0.0002918206665 0)
(3.010191918 -0.02364507403 0)
(3.003226591 -0.01067750308 0)
(2.992815571 -0.006266029202 0)
(2.992248021 -0.005187165488 0)
(2.992135486 -0.002299206159 0)
(2.991846757 0.0005864520584 0)
(2.992636827 0.0003771147017 0)
(2.993412566 -0.0008918942563 0)
(2.994150199 -0.001653249252 0)
(2.994263608 -0.001583119884 0)
(2.994184428 -0.001043382247 0)
(2.993964208 -0.0003048285856 0)
(2.994079547 7.480001865e-05 0)
(2.994074916 0.0004564868473 0)
(2.9938062 0.0006335633368 0)
(2.993295302 0.0003985961908 0)
(3.014994656 -0.02648665364 0)
(3.011238294 -0.03515822587 0)
(3.007061464 -0.01534315725 0)
(2.996156212 -0.004724981938 0)
(2.992560143 -2.023546159e-05 0)
(2.991650969 0.0001742607474 0)
(2.991668193 -0.002096491095 0)
(2.992750027 -0.005532043961 0)
(2.993509009 -0.005905189209 0)
(2.993376307 -0.004284810316 0)
(2.993324798 -0.00194975363 0)
(2.993453266 -0.0008928567107 0)
(2.994114979 0.0001644709082 0)
(2.994698662 0.001264090123 0)
(2.994665968 0.001339782009 0)
(2.993991253 0.0009063559269 0)
(3.037295975 -0.1594860941 0)
(3.038463077 -0.1053678422 0)
(3.017669971 0.004939640503 0)
(3.001690902 0.005142125736 0)
(2.990267369 -0.005146523218 0)
(2.990478408 -0.003657118877 0)
(2.991621629 -0.006990050026 0)
(2.993833004 -0.008554606885 0)
(2.99383385 -0.005963304481 0)
(2.993382472 -0.003218930165 0)
(2.992735029 -0.001862181713 0)
(2.99249221 -0.001037739695 0)
(2.994065268 0.0002408529401 0)
(2.994626144 0.0004923408622 0)
(2.995120405 0.0007056244788 0)
(2.994711261 0.0006903711058 0)
(3.074756602 -0.2884468121 0)
(3.060604731 -0.2152840687 0)
(3.037513212 -0.1159068554 0)
(3.046270565 -0.09861130735 0)
(3.024813148 -0.04469528756 0)
(3.007543635 -0.01404582715 0)
(2.997668209 -0.01392040211 0)
(2.995266956 -0.008789745066 0)
(2.994638213 -0.00241584852 0)
(2.993699009 -5.223873455e-05 0)
(2.991859291 8.521752979e-05 0)
(2.991778216 -0.0008110484981 0)
(2.992707505 -0.001925015985 0)
(2.994507075 -0.002143937215 0)
(2.995619789 -0.001093601544 0)
(2.99544177 -0.0001045988295 0)
)
;

boundaryField
{
    inlet
    {
        type            fixedValue;
        value           nonuniform 0();
    }
    outlet
    {
        type            inletOutlet;
        inletValue      uniform (3 0 0);
        value           nonuniform List<vector> 
35
(
(2.960167695 0.0001035173635 0)
(2.976481331 -0.0004336767908 0)
(2.9908934 -0.0008837445302 0)
(2.997258392 -0.0006936845251 0)
(2.997186661 -0.0006811168645 0)
(2.994927548 -0.000568241427 0)
(2.993099269 -0.0003766413726 0)
(2.992111852 -0.0002196945688 0)
(2.991542807 -0.0001780554168 0)
(2.991621184 -0.000337326299 0)
(2.992367407 -0.0002918206665 0)
(2.993295302 0.0003985961908 0)
(2.993991253 0.0009063559269 0)
(2.994711261 0.0006903711058 0)
(2.99544177 -0.0001045988295 0)
(2.860554162 0.001938580706 0)
(2.861562156 0.001204931386 0)
(2.863634847 -0.000962848187 0)
(2.866639036 -0.002476427989 0)
(2.870225094 -0.001564703839 0)
(2.874244554 -0.0003177417774 0)
(2.879260447 0.0002411428546 0)
(2.884994462 0.001122903161 0)
(2.890034185 0.001472540349 0)
(2.894652424 0.0009345679841 0)
(2.899242181 8.451094599e-05 0)
(2.903303773 -0.0008812150243 0)
(2.907405815 -0.0008277257115 0)
(2.912224473 0.0002555346465 0)
(2.918935068 0.001982429299 0)
(2.927239087 0.0028513325 0)
(2.935265549 0.001813962 0)
(2.942424434 0.0005892150196 0)
(2.948349284 -0.00143242128 0)
(2.951235517 -0.001819859951 0)
)
;
    }
    bottom
    {
        type            slip;
    }
    top
    {
        type            slip;
    }
    obstacle
    {
        type            slip;
    }
    defaultFaces
    {
        type            empty;
    }
    procBoundary29to23
    {
        type            processor;
        value           nonuniform List<vector> 
18
(
(2.858403171 -0.0007059823647 0)
(2.859288366 8.096819743e-06 0)
(2.85970932 0.0003547279435 0)
(2.860255465 0.0006735420205 0)
(2.860560822 0.001120316988 0)
(2.850479356 -0.001940955735 0)
(2.850173057 -0.001689558769 0)
(2.850612196 -0.001096782582 0)
(2.85157223 -0.0009996281322 0)
(2.852848349 -0.001323612435 0)
(2.854108177 -0.001545166011 0)
(2.855069907 -0.002142569915 0)
(2.855686542 -0.002708329047 0)
(2.855986195 -0.002722272912 0)
(2.855961092 -0.002229483496 0)
(2.856447639 -0.0008335389776 0)
(2.857553963 0.0009096345842 0)
(2.857553963 0.0009096345842 0)
)
;
    }
    procBoundary29to28
    {
        type            processor;
        value           nonuniform List<vector> 
34
(
(2.853469688 -0.001850125879 0)
(2.856964626 -0.00109322973 0)
(2.862352884 -0.0006502536465 0)
(2.868948869 0.0004435908109 0)
(2.874949347 0.001671709015 0)
(2.880372584 0.002696698322 0)
(2.884926709 0.0040928064 0)
(2.884926709 0.0040928064 0)
(2.888659833 0.001494765689 0)
(2.891631147 -0.002062643566 0)
(2.894582357 -0.003470508223 0)
(2.89831586 -0.003378888864 0)
(2.902245292 -0.001838229714 0)
(2.906124889 0.0005612706187 0)
(2.910709553 0.003523455796 0)
(2.916545363 0.005495881774 0)
(2.923528352 0.004979047542 0)
(2.929562131 0.002302062007 0)
(2.933765003 -0.0008940089922 0)
(2.937422972 -0.003683654812 0)
(2.954410083 -0.000383389057 0)
(2.98096068 -0.0009037229341 0)
(2.996452766 -0.001270477828 0)
(3.000190873 -0.001564635547 0)
(2.998284859 -0.001363329118 0)
(2.995702784 -0.001035443408 0)
(2.993023987 -0.001945208773 0)
(2.991348343 -0.002776724009 0)
(2.992476301 -0.004211058623 0)
(2.992816724 -0.004161601721 0)
(2.990005052 -0.00872121748 0)
(3.034493995 -0.07064115928 0)
(3.040258123 -0.09318561754 0)
(3.072357642 -0.2778575195 0)
)
;
    }
    procBoundary29to34
    {
        type            processor;
        value           uniform (3.082098245 -0.319967671 0);
    }
    procBoundary29to35
    {
        type            processor;
        value           nonuniform List<vector> 
16
(
(3.08749169 -0.3193379347 0)
(3.08272501 -0.3067335965 0)
(3.065207656 -0.2572990946 0)
(3.055755098 -0.1721312478 0)
(3.040892848 -0.07741005654 0)
(3.017529325 0.01108065002 0)
(2.998568506 -0.008962440416 0)
(2.999877942 0.00655726943 0)
(2.997584406 0.004536305851 0)
(2.992604038 0.002330552489 0)
(2.990052356 -0.0007972274333 0)
(2.989871258 -0.002774604937 0)
(2.99225898 -0.00526485354 0)
(2.994978606 -0.004156905843 0)
(2.995667568 -0.002974295818 0)
(2.996034316 -0.0005505537919 0)
)
;
    }
}


// ************************************************************************* //
