/*--------------------------------*- C++ -*----------------------------------*\
  =========                 |
  \\      /  F ield         | OpenFOAM: The Open Source CFD Toolbox
   \\    /   O peration     | Website:  https://openfoam.org
    \\  /    A nd           | Version:  7
     \\/     M anipulation  |
\*---------------------------------------------------------------------------*/
FoamFile
{
    version     2.0;
    format      ascii;
    class       volScalarField;
    location    "0.7";
    object      rho;
}
// * * * * * * * * * * * * * * * * * * * * * * * * * * * * * * * * * * * * * //

dimensions      [1 -3 0 0 0 0 0];

internalField   nonuniform List<scalar> 
2222
(
1.384753618
1.383668951
1.383685544
1.385414752
1.387196844
1.388588292
1.388989794
1.38937501
1.390139966
1.390223688
1.390091599
1.389552511
1.388465884
1.387100676
1.386631886
1.386003559
1.385063856
1.382523583
0.9515864373
0.9508363756
0.9539124899
0.9769751571
1.054154698
1.163473573
1.264288502
1.318662119
1.371419359
1.37689842
1.378435694
1.382319439
1.385359413
1.386724996
1.387853207
1.38875404
1.388709422
1.388420173
1.388271017
1.388155606
1.388467359
1.388929715
1.389824249
1.390087114
1.389963241
1.389451058
1.388301886
1.386754706
1.385990176
1.385310285
1.384379083
1.381905477
0.9500209709
0.9630058385
1.012070144
1.104674145
1.229451864
1.336624291
1.3648814
1.371615059
1.383317316
1.389793449
1.389038595
1.386553207
1.385263278
1.385949282
1.387781473
1.389070501
1.389873578
1.389769906
1.389206943
1.388258312
1.3879952
1.388141476
1.388627036
1.388976456
1.388987115
1.388732794
1.387857952
1.386599667
1.385633861
1.384656534
1.383593277
1.381159665
0.978190328
1.068483892
1.174670062
1.28607283
1.321718607
1.363378493
1.380941503
1.381354989
1.386195089
1.390385199
1.390133614
1.388425299
1.385704552
1.385134703
1.385870987
1.386866363
1.38782752
1.388478582
1.388534108
1.388239523
1.387983432
1.388076172
1.388291568
1.388418922
1.388421123
1.388224433
1.387509976
1.386430334
1.385502589
1.384431955
1.383312251
1.380824503
1.121085431
1.237849104
1.322214652
1.381277822
1.380104482
1.378735573
1.38012806
1.379996793
1.380885898
1.383514429
1.386383424
1.386281936
1.385901596
1.385470419
1.385322907
1.385349314
1.385611686
1.386371554
1.387177578
1.387767469
1.387810775
1.388121884
1.388348965
1.38836953
1.388379713
1.38815203
1.387420422
1.386297889
1.385333402
1.384233918
1.383105295
1.380535051
1.315401512
1.355597491
1.371678325
1.390345485
1.390631323
1.387648484
1.384985193
1.383097149
1.382076091
1.382348358
1.384091882
1.385160932
1.385465372
1.385684109
1.38570969
1.385726179
1.385858097
1.386455516
1.387180813
1.387479347
1.387662016
1.387974884
1.388242027
1.38832369
1.388328599
1.388097683
1.387358223
1.386152894
1.385065791
1.383915313
1.382770216
1.380131488
1.354656234
1.368900972
1.371280794
1.381273069
1.387391626
1.387476368
1.386687977
1.386161888
1.385028456
1.384546849
1.384833922
1.385188515
1.385394289
1.385792815
1.386176824
1.386563172
1.386923182
1.387361943
1.387651268
1.387548336
1.387538746
1.387641993
1.387802172
1.387941181
1.387943771
1.387739826
1.387100674
1.385984358
1.384948613
1.383812153
1.382645328
1.379899897
1.377061862
1.378762082
1.376497909
1.380944697
1.386540302
1.386469906
1.386079934
1.385975216
1.386211605
1.386468998
1.386315296
1.385902133
1.385581389
1.385719699
1.386152176
1.386694479
1.387338333
1.387840846
1.387868021
1.387650385
1.38740138
1.387268426
1.387264497
1.387347639
1.387376386
1.387236805
1.386757961
1.385934202
1.384989574
1.383809512
1.382587054
1.379770992
1.386459132
1.38690193
1.386756945
1.387284669
1.387606195
1.386529221
1.385432351
1.385092675
1.385448711
1.386004146
1.386146619
1.38592268
1.385639194
1.385694986
1.385981751
1.386539404
1.387185739
1.387742231
1.387757457
1.387551477
1.387281234
1.387195429
1.387211357
1.387241768
1.387207724
1.387030886
1.386691447
1.386011994
1.385119286
1.383926398
1.382679271
1.379716691
1.386725327
1.387372072
1.388229328
1.388623974
1.388354058
1.387473285
1.385735661
1.384966862
1.384450683
1.384645029
1.385156856
1.385511239
1.385714374
1.385979839
1.386210031
1.38648745
1.386892439
1.387256038
1.387447955
1.387376876
1.387284647
1.387279451
1.387284318
1.387282277
1.38719978
1.387012439
1.386732498
1.386192055
1.385353235
1.384125051
1.382818353
1.379665543
1.385414116
1.385287566
1.386381269
1.387337321
1.387890956
1.387428327
1.386440437
1.385315665
1.384648844
1.3846286
1.385073018
1.385663581
1.386065264
1.386388773
1.386532233
1.386744281
1.387145047
1.387436355
1.387644012
1.387590286
1.387420856
1.387381039
1.387362938
1.387343795
1.387229986
1.387005604
1.386751833
1.386303316
1.385506461
1.384261607
1.382889722
1.379562501
1.385946934
1.383926885
1.383919206
1.384403644
1.385487334
1.386414044
1.38638838
1.38617245
1.385697887
1.385483677
1.385681861
1.386087205
1.386489806
1.386696092
1.386822686
1.387083368
1.387565925
1.387854241
1.387978518
1.387903452
1.387646766
1.387420012
1.387332468
1.387287719
1.387166165
1.386946494
1.386710226
1.386332929
1.385583273
1.384321715
1.382893005
1.379463937
1.386780387
1.385029134
1.384490804
1.384720555
1.385550308
1.386314235
1.386498867
1.38653699
1.386387992
1.386387481
1.386486428
1.386557934
1.386680477
1.386763546
1.386830703
1.387088153
1.387652472
1.388079996
1.388118365
1.388018986
1.387740712
1.387375912
1.387166407
1.387080632
1.386954097
1.386800358
1.386647618
1.386333586
1.385649038
1.384398317
1.382921223
1.379399049
1.38665889
1.386293472
1.386251239
1.386530324
1.386882497
1.387086283
1.386967019
1.386745081
1.38655679
1.386555944
1.386628943
1.386600899
1.38662666
1.386736771
1.386809808
1.387044525
1.387586987
1.388020747
1.388061465
1.387989798
1.387703689
1.38724287
1.386995113
1.386887825
1.386746071
1.38661198
1.386544049
1.386307269
1.385649066
1.38443895
1.382959873
1.379372004
1.386502631
1.386470745
1.38671492
1.387433657
1.387667925
1.387648115
1.387382361
1.386824754
1.386447823
1.386442596
1.386497991
1.386493382
1.386548577
1.386778025
1.386851215
1.387046767
1.387550397
1.387865919
1.387893474
1.387835677
1.387576613
1.387132723
1.386888515
1.38676279
1.386601829
1.386449903
1.386386712
1.386176699
1.385555837
1.384357165
1.382875489
1.37926175
1.38633807
1.386379112
1.386577862
1.387127234
1.387556991
1.387633219
1.387487502
1.387023728
1.386607536
1.386500508
1.386484224
1.386456592
1.386548437
1.386763303
1.386856176
1.387095097
1.387610236
1.387782632
1.3878025
1.387743684
1.387493131
1.387045765
1.386776561
1.386644984
1.386489194
1.386327333
1.386256739
1.386058383
1.385468862
1.38427864
1.382778383
1.379126423
1.386582142
1.386386217
1.386223613
1.386354359
1.386762897
1.387123326
1.387208078
1.387114957
1.3869387
1.386753315
1.386646082
1.386539013
1.386537722
1.386621874
1.386731241
1.387121602
1.387519371
1.387652502
1.387696125
1.387663092
1.387419932
1.386942987
1.386628669
1.386502433
1.386376985
1.386223429
1.386150623
1.385979138
1.385425522
1.38424912
1.382732144
1.379021854
1.3868787
1.386730167
1.386351608
1.386341564
1.386582104
1.386911502
1.387016559
1.386990759
1.386883745
1.386757489
1.386624054
1.38648767
1.386439178
1.386431182
1.386533009
1.386973769
1.387370884
1.387518279
1.38758673
1.387561725
1.387282886
1.386771597
1.386455129
1.38636331
1.386280644
1.386160872
1.386119999
1.385992048
1.385470221
1.384309427
1.382774631
1.378991313
1.386880553
1.386745871
1.38658327
1.38661682
1.386681524
1.386804462
1.386823967
1.386775288
1.386685157
1.386607092
1.386519699
1.386404567
1.386361025
1.386359297
1.386474751
1.386893149
1.387214565
1.387368526
1.387452106
1.387424885
1.387101053
1.386565238
1.386308287
1.386257749
1.386203949
1.386123894
1.386118021
1.386039603
1.385552841
1.384407663
1.382861167
1.379006301
1.386928443
1.386664149
1.386502859
1.3865561
1.386661797
1.386674799
1.386619384
1.386555795
1.386544935
1.386540388
1.386514432
1.386450941
1.386424663
1.386425641
1.38653022
1.386881059
1.387138209
1.387285546
1.387362641
1.38731823
1.386978917
1.386447006
1.386239196
1.386193075
1.386147733
1.386100155
1.386157204
1.386090105
1.385609531
1.384465125
1.382916868
1.379012182
1.386745566
1.38650008
1.38633063
1.386327822
1.386384176
1.386408207
1.386433094
1.386516175
1.38657411
1.386583
1.386581263
1.386574415
1.386557775
1.386569296
1.386649255
1.386916612
1.387124162
1.387241331
1.387311406
1.38726246
1.386950244
1.386454722
1.386234037
1.386170199
1.386115026
1.386084692
1.386186185
1.386110137
1.385623042
1.384467089
1.382909882
1.378947849
1.386995539
1.386710671
1.386226117
1.386083171
1.386099325
1.386187672
1.386380373
1.386602133
1.38672394
1.38675661
1.386781586
1.386773912
1.38669043
1.386673443
1.386726341
1.386929318
1.387092078
1.38716431
1.38722073
1.387189884
1.386933134
1.386467186
1.386227709
1.386157434
1.386105375
1.386077606
1.386162522
1.386035441
1.385494937
1.384296778
1.382730936
1.378731973
1.387155378
1.386859068
1.386351914
1.386194393
1.386218289
1.386352332
1.386604326
1.386830491
1.386906003
1.38692551
1.386911778
1.386854003
1.386726304
1.386658524
1.386705366
1.386857954
1.386955986
1.387003986
1.387033614
1.387016171
1.386831788
1.386455127
1.386227394
1.386154364
1.386092078
1.386062285
1.386118866
1.385913688
1.385294253
1.384063935
1.382496178
1.378441669
1.387011388
1.386725272
1.386396783
1.386327732
1.386389032
1.386578513
1.38686494
1.387023183
1.387022091
1.387006882
1.38695142
1.386834449
1.386683488
1.386563562
1.386590019
1.386671323
1.386693893
1.38676724
1.386769841
1.386724518
1.386595582
1.386349635
1.386171923
1.386106113
1.386049096
1.386049914
1.386086808
1.385808934
1.38513812
1.38389879
1.382319445
1.378182768
1.386637043
1.386438874
1.386305894
1.386344783
1.386480553
1.386705872
1.386926804
1.387011316
1.387007743
1.386980256
1.386881531
1.386701353
1.386519722
1.386398897
1.386371202
1.386369257
1.386351112
1.386471941
1.386492101
1.386421832
1.386302897
1.386194135
1.386121788
1.386057722
1.386016214
1.386092707
1.386034884
1.385671399
1.384974707
1.383719931
1.382117549
1.377910123
1.386253854
1.386166425
1.386167932
1.386244197
1.386396605
1.386589491
1.386790688
1.386838842
1.386833231
1.386793858
1.386649606
1.386423796
1.386229735
1.386117498
1.386069714
1.386012366
1.385962191
1.386101197
1.3861823
1.386144242
1.386037667
1.385930306
1.385890664
1.385901853
1.385994663
1.386043977
1.385874774
1.385448349
1.384732202
1.383441252
1.381797333
1.377522705
1.385834687
1.385743335
1.385701185
1.385772132
1.385993901
1.386237511
1.386389989
1.386419909
1.386443662
1.386391821
1.386193638
1.385931653
1.385736945
1.385616836
1.385559904
1.385492663
1.385430234
1.38556842
1.38572139
1.385733666
1.385680031
1.385620442
1.385593271
1.385581503
1.385677937
1.38568553
1.385410937
1.384883926
1.384077752
1.382723662
1.381074735
1.376790229
1.385170489
1.385129979
1.385015202
1.385076646
1.385295601
1.385504054
1.385581198
1.385585668
1.385589458
1.385495168
1.385247029
1.384993291
1.384850056
1.384771441
1.384713537
1.38463732
1.384585707
1.384711803
1.3849103
1.384996206
1.385000728
1.385007073
1.385025589
1.385059379
1.385094606
1.384972744
1.384624562
1.38405442
1.383192003
1.381795866
1.38014558
1.375863235
1.383775181
1.383720245
1.383690283
1.383831128
1.384135279
1.384374428
1.384462215
1.384482598
1.384462238
1.384337324
1.384067012
1.383785001
1.383678918
1.383639496
1.383604896
1.383538379
1.383554687
1.383693876
1.383887651
1.38399949
1.384027528
1.384058178
1.384118423
1.384241122
1.384269265
1.384108851
1.383744287
1.383167846
1.382269749
1.380847479
1.379190724
1.374896699
1.382654256
1.382611898
1.382607646
1.382741435
1.383029548
1.383193739
1.383259724
1.383286674
1.383281083
1.383187736
1.382949592
1.382737807
1.38269984
1.382701946
1.382692864
1.382680747
1.38272827
1.382859362
1.383024203
1.383149257
1.383233276
1.383337482
1.383473834
1.383601699
1.383564615
1.3833755
1.382981653
1.3823647
1.381382723
1.379885421
1.378200565
1.373906756
1.381727214
1.381764279
1.38179042
1.381913417
1.382047826
1.382021733
1.381963744
1.381919477
1.381855352
1.381804222
1.38175268
1.381794901
1.382108172
1.382068681
1.381969067
1.381800114
1.38175199
1.38185699
1.382037732
1.382181853
1.382325167
1.382527387
1.382796293
1.383010781
1.38302043
1.382840096
1.382459244
1.381811111
1.380744643
1.379199507
1.377490805
1.373114915
1.379762309
1.380941732
1.382877883
1.384220959
1.384293318
1.384013364
1.383531
1.382888496
1.382099853
1.380902189
1.380475547
1.380721451
1.381219436
1.382724378
1.383169868
1.38308426
1.382714026
1.382386039
1.382269252
1.382173679
1.381976097
1.381693528
1.381658028
1.381859608
1.382084154
1.382428943
1.382731732
1.382253562
1.380558105
1.378679179
1.376862744
1.372624266
1.378736695
1.378835279
1.379763569
1.382197482
1.38391834
1.384065367
1.383709432
1.383324266
1.382937063
1.38220893
1.380824287
1.380693397
1.380445565
1.381762189
1.383043501
1.383176963
1.383030966
1.382987746
1.382941761
1.382988858
1.383028525
1.382844956
1.382265338
1.381853176
1.381769081
1.381512925
1.381635381
1.381768658
1.380536692
1.378568252
1.376597241
1.372225987
1.3782909
1.378182279
1.378499245
1.37962426
1.381322543
1.383065703
1.38357043
1.383236409
1.38288962
1.382645842
1.381823778
1.380663205
1.380112235
1.380602358
1.381926408
1.382894376
1.382907739
1.382892159
1.382841798
1.382947365
1.383135591
1.383296971
1.383216172
1.382657747
1.38178136
1.381222132
1.380845247
1.380782575
1.380134601
1.378469975
1.376508911
1.372115382
1.378172711
1.37798678
1.378153841
1.378576193
1.379255067
1.38062168
1.382349798
1.382909351
1.382801734
1.382538361
1.382217715
1.381223063
1.379930264
1.380154142
1.380758399
1.381635927
1.382192358
1.382462272
1.382631885
1.382811559
1.383009364
1.383138864
1.383343214
1.38328687
1.382519144
1.381210181
1.380554448
1.380198288
1.379708248
1.378423336
1.376726474
1.372046506
1.379267508
1.37797398
1.377811638
1.378151462
1.378341223
1.378988458
1.380266096
1.381898087
1.382399653
1.382334563
1.38219189
1.381779295
1.379898908
1.379750501
1.380037092
1.380584035
1.381175585
1.381549064
1.381713246
1.381956094
1.382413397
1.382983784
1.383302041
1.383391899
1.383095927
1.381925786
1.380478573
1.379885778
1.379291776
1.378333321
1.37687986
1.37232037
1.381018002
1.379091527
1.377727663
1.377886145
1.378126079
1.378593131
1.379182466
1.380313206
1.381692214
1.382022643
1.381977179
1.381807551
1.380272771
1.379565904
1.379658425
1.380129679
1.380601253
1.380848439
1.380897971
1.380984425
1.381275627
1.382073913
1.383070597
1.38322808
1.383201316
1.382681775
1.381135807
1.379703816
1.378919641
1.378048267
1.376724013
1.372458659
1.381423376
1.380959757
1.379150286
1.377961769
1.37794837
1.378254564
1.37869548
1.379370733
1.380322423
1.381248711
1.381493106
1.381553496
1.380758981
1.379869148
1.379542678
1.37988518
1.380305446
1.380593636
1.380646977
1.380610087
1.380638733
1.380887046
1.381824359
1.382913368
1.383003093
1.382744052
1.381992211
1.380029953
1.378672586
1.377441951
1.376423792
1.372318354
1.381787755
1.381964921
1.381352637
1.379962082
1.378873831
1.378259217
1.378418743
1.378856744
1.379391665
1.379934833
1.380688923
1.381106489
1.380871066
1.380716632
1.380116774
1.380004223
1.380158477
1.380420578
1.380439908
1.380324937
1.380277711
1.380338763
1.38065418
1.381815268
1.382861318
1.382796533
1.382271099
1.380843628
1.378570772
1.376959461
1.375603213
1.372094285
1.381414376
1.381856294
1.382156471
1.381858913
1.381437403
1.38011917
1.378802955
1.378668686
1.379085451
1.37937103
1.379642021
1.380370776
1.380887057
1.381034172
1.380866448
1.380794528
1.380660334
1.380655276
1.380551273
1.380317086
1.380153719
1.380186352
1.380457355
1.380739505
1.381914765
1.382696456
1.382102848
1.3811815
1.379202121
1.376758613
1.374961915
1.371394227
1.380978314
1.382056998
1.382314674
1.382850389
1.383109737
1.382320281
1.381022279
1.379404337
1.378987398
1.379048324
1.379277926
1.379672875
1.380766672
1.381072005
1.381073747
1.381201904
1.381303537
1.381335386
1.381318031
1.381127624
1.380766935
1.380373356
1.380309941
1.380407356
1.380729808
1.381891052
1.381994442
1.381314121
1.379775821
1.377103078
1.374907129
1.370790013
1.380867166
1.382060813
1.382654184
1.382628468
1.382819533
1.383351155
1.382733816
1.381436124
1.379696057
1.379042291
1.379079721
1.379441312
1.380113313
1.381033696
1.381185944
1.381374024
1.381513468
1.381712967
1.381765647
1.381801799
1.381683029
1.381201597
1.380510158
1.380346729
1.380356877
1.380520859
1.381500165
1.381251002
1.379978208
1.377863716
1.375210778
1.370606343
1.380634784
1.381501542
1.382410503
1.382404409
1.382970745
1.383089933
1.382845879
1.38240142
1.381296592
1.379901671
1.379294496
1.379340725
1.379832003
1.380397991
1.381016462
1.38126422
1.381436599
1.381645771
1.381938686
1.381991517
1.381982184
1.381924994
1.38160857
1.380835445
1.38033163
1.380025208
1.380084618
1.380839893
1.380013657
1.378169725
1.375904788
1.370715711
1.379499391
1.379877623
1.381295711
1.382754971
1.383268936
1.383041677
1.383183111
1.382915601
1.382209777
1.381232528
1.38021259
1.379655015
1.379785108
1.379975134
1.380158948
1.380535989
1.381118742
1.381582458
1.381893832
1.382004751
1.382116753
1.382230549
1.382272297
1.381795899
1.380793004
1.379998411
1.379358337
1.379516708
1.379714331
1.378366537
1.376342633
1.371238583
1.378909763
1.378816097
1.379504168
1.381082153
1.382397577
1.383128418
1.383202447
1.382877073
1.382278972
1.381704204
1.381134022
1.380418337
1.379898819
1.379857914
1.37986833
1.379887469
1.380186987
1.380671921
1.381141328
1.381714093
1.382127786
1.382292906
1.382339186
1.382347779
1.381794779
1.380276404
1.379133845
1.378565742
1.378417469
1.378193707
1.376421808
1.371343188
1.378722178
1.378828259
1.379237015
1.379386329
1.38016638
1.381252967
1.382060212
1.382548867
1.382414717
1.38203835
1.381535004
1.380993568
1.380419413
1.380104988
1.380010486
1.379932937
1.379900598
1.379973838
1.380131806
1.380561324
1.381338176
1.382171039
1.382512201
1.382615503
1.382271413
1.381216323
1.379446905
1.378574615
1.377528406
1.376877346
1.37615581
1.37142181
1.378669622
1.378692719
1.37894264
1.379386285
1.37952894
1.379601422
1.379919481
1.380971662
1.382100663
1.38208697
1.38162626
1.381275343
1.380973072
1.3807693
1.380520796
1.379995907
1.3798043
1.380042842
1.380063121
1.380033726
1.380296025
1.381192554
1.382473955
1.382770077
1.382543137
1.381806916
1.380509427
1.378526871
1.377105608
1.375745198
1.375101526
1.371411029
1.378567761
1.378927631
1.378954105
1.37912492
1.379288565
1.379233195
1.37920477
1.379295054
1.379491876
1.380232505
1.381261485
1.381632343
1.381429644
1.381175115
1.380988408
1.380914611
1.380680912
1.380319693
1.380148973
1.380046209
1.379997596
1.380134565
1.380459043
1.381460758
1.382638258
1.382717717
1.382078454
1.381067321
1.379465636
1.377418441
1.375840197
1.374398955
1.370841975
1.379388976
1.379597542
1.37992565
1.380290082
1.380009699
1.379662273
1.379496596
1.379368772
1.379267073
1.379007195
1.379345305
1.38057476
1.38133692
1.381268046
1.381174095
1.381235523
1.381245537
1.38118474
1.380871171
1.380569128
1.380299501
1.380313204
1.380483325
1.38065453
1.381395464
1.382435978
1.382148026
1.381500858
1.380401314
1.378473404
1.375899981
1.37411934
1.370449073
1.380210537
1.380368884
1.380771802
1.38122262
1.381349318
1.38121583
1.380766336
1.379835442
1.379145047
1.378609923
1.378657054
1.379034522
1.379997896
1.380791061
1.381243601
1.381494245
1.381624107
1.381643806
1.381547605
1.381237927
1.381164129
1.380915147
1.3806787
1.380500064
1.380545017
1.38121413
1.382160967
1.381847684
1.380816819
1.379020228
1.37651052
1.37449893
1.370792972
1.380841688
1.380884112
1.38126059
1.381726811
1.381984284
1.381906321
1.381638081
1.381241552
1.380378835
1.37911451
1.378807861
1.378860087
1.378920195
1.379640894
1.380483476
1.381327585
1.381833306
1.381990722
1.382034971
1.38183155
1.381677063
1.381487493
1.381420803
1.380945877
1.380337208
1.38025387
1.381254391
1.381860728
1.381082083
1.379469754
1.377188406
1.375145516
1.371238161
1.381226066
1.381252642
1.381631049
1.382133168
1.382352472
1.38230234
1.382226339
1.382030498
1.381650982
1.380761619
1.379193154
1.378792975
1.379141219
1.379170933
1.379583951
1.380343516
1.381496733
1.382133027
1.382286917
1.382151204
1.38201092
1.381940468
1.381934624
1.381601869
1.380798331
1.38043084
1.380053031
1.380922633
1.381202532
1.379881429
1.377741212
1.375594337
1.371484303
1.380814377
1.381043493
1.381582702
1.382348874
1.382616525
1.382653316
1.382656321
1.382504378
1.382134415
1.381509878
1.380552225
1.379441377
1.379528227
1.379429852
1.379386975
1.379529369
1.380266542
1.381412679
1.381978363
1.382221118
1.382241498
1.382173835
1.382287401
1.381981538
1.381538417
1.380644584
1.379507013
1.379439301
1.380354078
1.379954251
1.37804997
1.375628652
1.371440961
1.379041672
1.37936385
1.379957075
1.381120215
1.382213622
1.382545922
1.382628326
1.382609525
1.382394492
1.382050916
1.381331765
1.3803268
1.379746946
1.37994007
1.379801203
1.379673337
1.379474554
1.379850263
1.380430166
1.381129988
1.381770674
1.381968021
1.382086629
1.382068278
1.382065098
1.381043689
1.380106123
1.379216749
1.378775423
1.378737554
1.37762927
1.375540258
1.371150082
1.378018209
1.378426519
1.378591922
1.379087438
1.380139296
1.380839849
1.381355066
1.382071105
1.382520873
1.382461209
1.381915516
1.381178417
1.38027582
1.380302033
1.380347683
1.379852626
1.378981401
1.378975529
1.379215728
1.379530324
1.380196572
1.381157309
1.381727992
1.382157334
1.382264359
1.381623059
1.38081376
1.379068615
1.378166433
1.37748568
1.376620109
1.375090552
1.370494154
1.378414139
1.378080652
1.378171674
1.378438132
1.378662532
1.379123337
1.379518178
1.380109894
1.381213931
1.382145737
1.382255818
1.381634216
1.380947498
1.380380639
1.380245214
1.379831208
1.379507003
1.379488074
1.37937758
1.378946678
1.37912463
1.380002132
1.381274577
1.382054584
1.382231266
1.382054433
1.380934914
1.379514256
1.378151451
1.37691397
1.376169759
1.37460796
1.369964597
1.378973204
1.378657071
1.378910857
1.378982223
1.379159893
1.379280219
1.379288951
1.379100311
1.379140432
1.380068577
1.38162515
1.381869864
1.381468227
1.380376999
1.379944353
1.38002082
1.380098925
1.380129998
1.379702
1.379420612
1.379588829
1.379785747
1.380545429
1.381428326
1.381909844
1.382043944
1.38119175
1.380422149
1.378592889
1.377315669
1.375878034
1.374664343
1.370453297
1.378979441
1.379478435
1.379736843
1.379637989
1.379441833
1.379299661
1.379110785
1.378670441
1.378184173
1.378351508
1.379365696
1.381034952
1.381219048
1.380602479
1.380076235
1.380091123
1.38010166
1.380082402
1.379916213
1.380126954
1.380238298
1.379836574
1.379821738
1.380680562
1.38133318
1.381673566
1.38174889
1.381103188
1.379463189
1.377874232
1.376227998
1.375078634
1.371184765
1.379981753
1.380361012
1.380223233
1.380320134
1.38031295
1.380219073
1.379969338
1.379449885
1.378919774
1.378566161
1.377998877
1.378936824
1.380242859
1.380790683
1.380446683
1.380255177
1.380125806
1.380326688
1.380500527
1.380588078
1.380115055
1.379992242
1.380161887
1.380325352
1.380583453
1.381350529
1.382128201
1.381449326
1.380095174
1.377780725
1.376690696
1.375617116
1.371759609
1.38098086
1.380951661
1.381023917
1.381177275
1.381174224
1.38111857
1.380962567
1.380749421
1.380081908
1.378565102
1.37835978
1.378196568
1.378960881
1.380431104
1.380576227
1.38062652
1.380841251
1.381055256
1.381178938
1.381008696
1.380793559
1.380814283
1.380693836
1.380274035
1.380041821
1.380398841
1.381253367
1.381272369
1.380052829
1.378073626
1.376595579
1.375716164
1.371781601
1.381588785
1.381489031
1.38179161
1.382042573
1.381921368
1.381742947
1.381570163
1.381382588
1.380531819
1.379574774
1.378498549
1.377989811
1.378107985
1.379325293
1.380590999
1.381025885
1.381410079
1.381639407
1.381695357
1.381554662
1.381626711
1.381595629
1.380866621
1.38047033
1.379718117
1.379406497
1.379595917
1.380589827
1.380245032
1.378708392
1.376409702
1.375013298
1.3716832
1.380791295
1.381448985
1.382247063
1.382582783
1.382317859
1.381713836
1.381301785
1.381314668
1.381044904
1.380623231
1.379586384
1.378858195
1.378588901
1.37889683
1.380083416
1.380880595
1.381079258
1.381116984
1.381203813
1.381808548
1.382230328
1.382108193
1.381670876
1.380850322
1.380249996
1.379673911
1.379162823
1.379295615
1.38011952
1.379138452
1.376602711
1.374488362
1.370859945
1.378654485
1.379357821
1.380701822
1.38196505
1.382000196
1.381469167
1.381157087
1.381312098
1.381516388
1.38140565
1.380637359
1.380214337
1.379501611
1.37903146
1.379515681
1.380205637
1.380202942
1.380101319
1.380176779
1.380916933
1.381734361
1.382160725
1.382398088
1.381878702
1.381252231
1.380403533
1.379391335
1.378687069
1.378671987
1.37883585
1.377091109
1.374743173
1.37016422
1.377332505
1.378148057
1.377477698
1.378364744
1.38022835
1.381196125
1.381233208
1.381168845
1.381124928
1.381563714
1.381719822
1.381494331
1.381024398
1.379911656
1.37950126
1.379265132
1.37967209
1.380171398
1.380124201
1.379862647
1.379605675
1.380346592
1.382043603
1.382658128
1.382632016
1.382044553
1.380966125
1.379768992
1.378370273
1.377276146
1.377783637
1.377393868
1.375330907
1.370279956
1.37851439
1.378052137
1.378204554
1.378452364
1.379196476
1.38041709
1.38076825
1.380673277
1.380433437
1.380765495
1.381360692
1.381847165
1.381401952
1.381111777
1.380366527
1.379777243
1.379970435
1.380232825
1.380045378
1.379567083
1.379374542
1.379538134
1.380450607
1.382122422
1.38273313
1.382539602
1.382062345
1.381117281
1.379377539
1.378036914
1.376866789
1.377056952
1.375735053
1.370909115
1.379651606
1.378338301
1.379111961
1.37873378
1.378399997
1.37939722
1.379999089
1.379927257
1.379726873
1.379496627
1.379933821
1.381147249
1.38178298
1.381948714
1.381261833
1.380673544
1.380203457
1.380198371
1.380149061
1.379925154
1.379512948
1.378961521
1.379197409
1.380338024
1.382014287
1.382947515
1.382830218
1.382015851
1.380782701
1.37897294
1.37639363
1.375963296
1.375738958
1.371778728
1.379518722
1.379537563
1.3788235
1.378791593
1.379146824
1.379515931
1.380000202
1.380140256
1.37994329
1.379293948
1.378842965
1.379280799
1.381101826
1.382122839
1.381934139
1.381175305
1.380228354
1.380260075
1.380531515
1.380604217
1.379944212
1.379595904
1.379451844
1.379468889
1.380172173
1.381837717
1.382807255
1.382594923
1.381455172
1.378912393
1.376599713
1.375125327
1.375252946
1.372150929
1.380159853
1.380634863
1.379814919
1.379959773
1.380047859
1.379773019
1.38001714
1.380299569
1.380014186
1.379195239
1.378250501
1.378435911
1.378983156
1.380574395
1.381645963
1.381246488
1.380478564
1.380235693
1.380387664
1.380754752
1.380799925
1.3805779
1.380091016
1.379157297
1.379431575
1.379908651
1.381033057
1.382055101
1.38131982
1.37956509
1.377514606
1.375264936
1.374180975
1.371718463
1.381194363
1.38127354
1.381113066
1.380996428
1.380283386
1.379758169
1.379750979
1.379939336
1.380040345
1.379595435
1.378896636
1.378032185
1.377968303
1.378691418
1.380333286
1.381097686
1.380853457
1.380358897
1.380098189
1.380422877
1.381388091
1.381330997
1.380512101
1.380083045
1.379381836
1.378937725
1.37921894
1.380137744
1.380955381
1.380334904
1.381789298
1.381353285
1.382052136
1.381739704
)
;

boundaryField
{
    inlet
    {
        type            calculated;
        value           nonuniform 0();
    }
    outlet
    {
        type            calculated;
        value           nonuniform List<scalar> 
68
(
1.372609917
1.372199118
1.372120951
1.37207048
1.372385548
1.37251138
1.372342373
1.372091177
1.37130995
1.37076073
1.370619559
1.370756666
1.371331684
1.371397438
1.371454036
1.371398142
1.370806326
1.370449839
1.370824994
1.371274119
1.371567421
1.371458284
1.371069964
1.370463527
1.370012765
1.370474205
1.371220858
1.371870355
1.371834434
1.371620716
1.370762708
1.370175639
1.370354274
1.37098882
1.37184085
1.372208281
1.371687922
1.382533485
1.381917487
1.381170058
1.380833342
1.38054414
1.380140355
1.379908073
1.379778966
1.379724892
1.379674711
1.379572402
1.379473929
1.379409012
1.379382145
1.379271887
1.379137077
1.379033071
1.37900303
1.379018537
1.379024794
1.378960411
1.378744302
1.378454484
1.37819649
1.377924734
1.377537599
1.376804766
1.375878387
1.374912233
1.373921918
1.373133045
)
;
    }
    bottom
    {
        type            calculated;
        value           nonuniform 0();
    }
    top
    {
        type            calculated;
        value           nonuniform 0();
    }
    obstacle
    {
        type            calculated;
        value           nonuniform 0();
    }
    defaultFaces
    {
        type            empty;
    }
    procBoundary11to5
    {
        type            processor;
        value           nonuniform List<scalar> 
33
(
1.37926234
1.379798441
1.381752849
1.386006057
1.388584005
1.389128646
1.389126166
1.389198016
1.388989492
1.388949997
1.389278232
1.389254797
1.388608996
1.387769991
1.387091561
1.386264797
1.385272171
1.382711751
0.9596482743
0.9531120059
0.9513553776
0.9530292202
0.9653550513
1.007579763
1.108551058
1.227053295
1.326208411
1.341503368
1.366196205
1.386037556
1.385320464
1.38473204
1.38473204
)
;
    }
    procBoundary11to10
    {
        type            processor;
        value           nonuniform List<scalar> 
70
(
0.9511713016
0.9471531893
0.9469289657
1.015232158
1.194980073
1.304911223
1.375022612
1.3880171
1.384850222
1.38686912
1.387963046
1.387716845
1.387122542
1.386577371
1.386783589
1.386957456
1.386762326
1.386879134
1.386998633
1.38683637
1.387071847
1.38726031
1.387250377
1.386953628
1.386518223
1.386026433
1.385247291
1.383874267
1.382732167
1.381720812
1.379482011
1.379043313
1.378863012
1.379864332
1.381096606
1.381568233
1.381264621
1.380916386
1.38088702
1.380516003
1.380134001
1.379943637
1.379745875
1.379287891
1.378622082
1.378406067
1.378406067
1.378194622
1.37943052
1.380403784
1.380837665
1.381144872
1.380559637
1.378830167
1.378118943
1.378089917
1.378457967
1.379524991
1.38016877
1.380881531
1.381263472
1.380657856
1.37858659
1.37858659
1.377288209
1.378394801
1.37964299
1.379879254