/*--------------------------------*- C++ -*----------------------------------*\
  =========                 |
  \\      /  F ield         | OpenFOAM: The Open Source CFD Toolbox
   \\    /   O peration     | Website:  https://openfoam.org
    \\  /    A nd           | Version:  7
     \\/     M anipulation  |
\*---------------------------------------------------------------------------*/
FoamFile
{
    version     2.0;
    format      ascii;
    class       volVectorField;
    location    "3.9";
    object      U;
}
// * * * * * * * * * * * * * * * * * * * * * * * * * * * * * * * * * * * * * //

dimensions      [0 1 -1 0 0 0 0];

internalField   nonuniform List<vector> 5((3 -2.574697406e-15 0) (3 -3.600787228e-16 0) (3 -1.161660713e-16 0) (3 9.852890981e-16 0) (3 1.588552422e-15 0));

boundaryField
{
    inlet
    {
        type            fixedValue;
        value           uniform (3 0 0);
    }
    outlet
    {
        type            inletOutlet;
        inletValue      nonuniform 0();
        value           nonuniform 0();
    }
    bottom
    {
        type            slip;
    }
    top
    {
        type            slip;
    }
    obstacle
    {
        type            slip;
    }
    defaultFaces
    {
        type            empty;
    }
    procBoundary24to18
    {
        type            processor;
        value           nonuniform List<vector> 4((3 4.90929335e-16 0) (3 -3.011176826e-16 0) (3 -2.521049381e-15 0) (3 -2.521049381e-15 0));
    }
    procBoundary24to25
    {
        type            processor;
        value           nonuniform List<vector> 3((3 -3.035749803e-15 0) (3 -3.035749803e-15 0) (3 3.36691352e-15 0));
    }
    procBoundary24to30
    {
        type            processor;
        value           nonuniform List<vector> 4((3 1.047211084e-15 0) (3 4.905638073e-15 0) (3 4.375474694e-15 0) (3 4.723637415e-15 0));
    }
}


// ************************************************************************* //
