/*--------------------------------*- C++ -*----------------------------------*\
  =========                 |
  \\      /  F ield         | OpenFOAM: The Open Source CFD Toolbox
   \\    /   O peration     | Website:  https://openfoam.org
    \\  /    A nd           | Version:  7
     \\/     M anipulation  |
\*---------------------------------------------------------------------------*/
FoamFile
{
    version     2.0;
    format      ascii;
    class       volVectorField;
    location    "3.7";
    object      U;
}
// * * * * * * * * * * * * * * * * * * * * * * * * * * * * * * * * * * * * * //

dimensions      [0 1 -1 0 0 0 0];

internalField   nonuniform List<vector> 
555
(
(3 9.70190333e-15 0)
(3 7.407000829e-15 0)
(3 3.595388405e-15 0)
(3 8.659391705e-16 0)
(3 1.026839655e-15 0)
(3 3.134314091e-15 0)
(3 9.447296787e-15 0)
(3 8.539343265e-15 0)
(3 8.051639815e-15 0)
(3 4.379936223e-15 0)
(3 1.79695947e-15 0)
(3 -2.783752953e-15 0)
(3 -4.721067189e-15 0)
(3 -4.866036609e-15 0)
(3 -3.121338749e-15 0)
(3 -1.11681335e-15 0)
(3 1.319419888e-15 0)
(3 3.193449501e-15 0)
(3 3.456195682e-15 0)
(3 1.574681783e-15 0)
(3 -2.018462424e-15 0)
(3 2.02000398e-15 0)
(3 8.258529261e-15 0)
(3 4.31354662e-15 0)
(3 3.966822214e-15 0)
(3 1.38337089e-15 0)
(3 9.020638303e-16 0)
(3 3.688384066e-16 0)
(3 -1.431740996e-15 0)
(3 -1.058654746e-16 0)
(3 -1.160430311e-15 0)
(3 -3.427933403e-15 0)
(3 -4.548614423e-15 0)
(3 -5.353114215e-15 0)
(3 -4.321306376e-15 0)
(3 -2.293032882e-15 0)
(3 -1.392703132e-16 0)
(3 2.763078928e-15 0)
(3 3.447477773e-15 0)
(3 2.310674987e-15 0)
(3 4.328070064e-15 0)
(3 3.984673419e-15 0)
(3 8.694765708e-16 0)
(3 -7.60202439e-16 0)
(3 9.593338138e-16 0)
(3 2.762663455e-15 0)
(3 7.221300242e-15 0)
(3 6.704705226e-15 0)
(3 7.384346031e-15 0)
(3 4.606106779e-15 0)
(3 -5.738635817e-16 0)
(3 -2.545792641e-15 0)
(3 2.075558471e-17 0)
(3 4.215047007e-15 0)
(3 5.656564042e-15 0)
(3 2.179287213e-15 0)
(3 -2.906706896e-15 0)
(3 -5.68222958e-15 0)
(3 -2.475167893e-15 0)
(3 2.372521873e-15 0)
(3 6.082084185e-15 0)
(3 8.993494087e-15 0)
(3 1.237830185e-14 0)
(3 1.35862239e-14 0)
(3 1.271345045e-14 0)
(3 1.167603526e-14 0)
(3 9.288751863e-15 0)
(3 6.595560433e-15 0)
(3 4.706446958e-15 0)
(3 4.627261211e-15 0)
(3 5.750912892e-15 0)
(3 6.144013242e-15 0)
(3 -1.353127542e-15 0)
(3 -5.934013353e-15 0)
(3 -1.217703539e-14 0)
(3 -9.693425504e-15 0)
(3 -2.54528192e-15 0)
(3 2.780372917e-15 0)
(3 4.000761293e-15 0)
(3 1.060861389e-14 0)
(3 9.476306627e-15 0)
(3 9.023323821e-15 0)
(3 7.827291444e-15 0)
(3 7.651677235e-15 0)
(3 9.029817313e-15 0)
(3 8.776254765e-15 0)
(3 7.162533837e-15 0)
(3 2.529000405e-15 0)
(3 -6.64473966e-16 0)
(3 -4.515645721e-15 0)
(3 -4.608519262e-15 0)
(3 -7.360078306e-15 0)
(3 -1.149831078e-14 0)
(3 -1.215147381e-14 0)
(3 -1.273131226e-14 0)
(3 -1.244178765e-14 0)
(3 -7.408082869e-15 0)
(3 -5.915895648e-15 0)
(3 -5.668444201e-15 0)
(3 -4.236042291e-15 0)
(3 -2.347082638e-15 0)
(3 2.449100564e-15 0)
(3 6.116600729e-15 0)
(3 5.088930329e-15 0)
(3 2.867547857e-15 0)
(3 6.810822052e-16 0)
(3 7.509345294e-16 0)
(3 2.838261564e-15 0)
(3 -1.766556164e-15 0)
(3 -2.928094484e-15 0)
(3 -6.575549393e-15 0)
(3 -7.826028796e-15 0)
(3 -1.135873746e-14 0)
(3 -1.262104039e-14 0)
(3 -9.998823138e-15 0)
(3 -5.93856782e-15 0)
(3 -5.722719952e-15 0)
(3 -6.622104386e-15 0)
(3 -5.111516008e-15 0)
(3 -2.709081903e-15 0)
(3 -2.494458947e-15 0)
(3 2.985534887e-15 0)
(3 8.224983464e-15 0)
(3 1.116685293e-14 0)
(3 1.727113508e-14 0)
(3 5.137414305e-15 0)
(3 8.066255181e-15 0)
(3 5.255516391e-15 0)
(3 3.712809908e-15 0)
(3 -5.495348183e-16 0)
(3 -1.122348759e-15 0)
(3 -1.449571445e-15 0)
(3 2.886224603e-15 0)
(3 3.834102282e-15 0)
(3 8.192275151e-16 0)
(3 -2.3920128e-15 0)
(3 -5.398386566e-15 0)
(3 1.300784333e-15 0)
(3 5.081929446e-15 0)
(3 1.030113683e-14 0)
(3 1.405166686e-14 0)
(3 1.461351355e-14 0)
(3 -2.294639367e-16 0)
(3 -1.810900056e-15 0)
(3 -1.837274661e-15 0)
(3 -1.494583503e-15 0)
(3 -3.430865241e-17 0)
(3 -2.104609487e-15 0)
(3 -3.875213256e-15 0)
(3 -5.561299897e-15 0)
(3 -5.643648809e-15 0)
(3 -5.44310479e-15 0)
(3 -5.622089397e-15 0)
(3 -5.361689114e-15 0)
(3 9.277933927e-16 0)
(3 7.992378266e-15 0)
(3 1.212513219e-14 0)
(3 1.678218281e-14 0)
(3 1.817295911e-14 0)
(3 1.190374397e-15 0)
(3 2.623907393e-15 0)
(3 3.971626994e-15 0)
(3 3.571895e-15 0)
(3 3.121837253e-15 0)
(3 -1.482019603e-15 0)
(3 -7.77928715e-15 0)
(3 -1.200952749e-14 0)
(3 -1.116172376e-14 0)
(3 -7.670809252e-15 0)
(3 -3.179061959e-15 0)
(3 -4.101298838e-15 0)
(3 -2.413854398e-15 0)
(3 5.353849031e-15 0)
(3 1.132958175e-14 0)
(3 1.231858688e-14 0)
(3 1.38259312e-14 0)
(3 5.544180514e-15 0)
(3 1.148464133e-14 0)
(3 1.5360982e-14 0)
(3 1.438971853e-14 0)
(3 1.12061886e-14 0)
(3 4.936131407e-15 0)
(3 -1.302691939e-15 0)
(3 -5.929473607e-15 0)
(3 -5.400810799e-15 0)
(3 -9.226369873e-15 0)
(3 -1.281193628e-14 0)
(3 -1.295792794e-14 0)
(3 -1.162547232e-14 0)
(3 -7.42675032e-15 0)
(3 1.253929125e-15 0)
(3 4.126827125e-15 0)
(3 3.864711466e-15 0)
(3 5.418876974e-15 0)
(3 4.624529598e-15 0)
(3 5.628781345e-15 0)
(3 6.132367384e-15 0)
(3 5.543198947e-15 0)
(3 4.343964003e-15 0)
(3 2.296694267e-15 0)
(3 -3.016018075e-15 0)
(3 -1.075522953e-14 0)
(3 -1.489408401e-14 0)
(3 -1.907207853e-14 0)
(3 -2.015946816e-14 0)
(3 -1.845621797e-14 0)
(3 -1.62489239e-14 0)
(3 -1.199114321e-14 0)
(3 -6.19203052e-15 0)
(3 -5.160070788e-15 0)
(3 1.007785202e-14 0)
(3 8.887651769e-15 0)
(3 7.575608233e-15 0)
(3 5.102884605e-15 0)
(3 4.397927952e-15 0)
(3 3.856402723e-15 0)
(3 -5.363579244e-16 0)
(3 -1.756232565e-15 0)
(3 -6.93934793e-15 0)
(3 -7.317836317e-15 0)
(3 -7.898144249e-15 0)
(3 -1.040117112e-14 0)
(3 -1.112747791e-14 0)
(3 -1.50359337e-14 0)
(3 -1.654297388e-14 0)
(3 -1.57795798e-14 0)
(3 -1.329424555e-14 0)
(3 6.352586313e-15 0)
(3 5.341711146e-15 0)
(3 -9.7149896e-16 0)
(3 -2.585042248e-15 0)
(3 -3.559271519e-15 0)
(3 -3.350740178e-15 0)
(3 -1.809900694e-15 0)
(3 -1.882174369e-16 0)
(3 3.574525393e-15 0)
(3 4.497560881e-15 0)
(3 1.597585346e-15 0)
(3 -1.433748327e-15 0)
(3 -5.548482025e-15 0)
(3 -1.067440434e-14 0)
(3 -1.286608846e-14 0)
(3 -1.563307282e-14 0)
(3 -1.686403174e-14 0)
(3 1.687892998e-15 0)
(3 -5.509633677e-16 0)
(3 -1.527367909e-15 0)
(3 -1.119303755e-15 0)
(3 -1.66139612e-15 0)
(3 -1.265547192e-15 0)
(3 5.161054161e-16 0)
(3 1.524814268e-15 0)
(3 4.842169379e-15 0)
(3 5.998964959e-15 0)
(3 7.098346418e-15 0)
(3 4.496029285e-15 0)
(3 1.398507306e-15 0)
(3 -2.036438899e-15 0)
(3 -6.234408753e-15 0)
(3 -9.27006441e-15 0)
(3 -1.071763563e-14 0)
(3 -1.8528887e-15 0)
(3 -2.729451996e-15 0)
(3 4.677842496e-16 0)
(3 2.577206351e-15 0)
(3 2.583512455e-15 0)
(3 3.006335184e-15 0)
(3 3.158334772e-15 0)
(3 4.999307167e-15 0)
(3 4.70176322e-15 0)
(3 4.392218912e-15 0)
(3 3.777437457e-15 0)
(3 2.927632544e-15 0)
(3 3.372178405e-15 0)
(3 4.130425731e-15 0)
(3 1.74362762e-15 0)
(3 5.117819594e-16 0)
(3 -2.07585124e-16 0)
(3 -1.753593937e-14 0)
(3 -1.659276358e-14 0)
(3 -1.336835717e-14 0)
(3 -1.152267656e-14 0)
(3 -7.962248187e-15 0)
(3 9.438599011e-15 0)
(3 8.935873634e-15 0)
(3 8.485266272e-15 0)
(3 8.827343066e-15 0)
(3 1.056285463e-14 0)
(3 1.071071525e-14 0)
(3 1.009972567e-14 0)
(3 8.88023272e-15 0)
(3 1.00975021e-14 0)
(3 1.192459451e-14 0)
(3 1.235365064e-14 0)
(3 1.28907886e-14 0)
(3 1.253666757e-14 0)
(3 9.866204397e-15 0)
(3 7.470689902e-15 0)
(3 4.424008905e-15 0)
(3 2.384968761e-15 0)
(3 1.831844225e-15 0)
(3 7.845419221e-16 0)
(3 1.682132385e-15 0)
(3 2.206409432e-15 0)
(3 2.991902668e-15 0)
(3 2.890506911e-15 0)
(3 1.951439189e-15 0)
(3 2.993340041e-15 0)
(3 4.499870014e-15 0)
(3 5.585839563e-15 0)
(3 7.116893532e-15 0)
(3 9.574858163e-15 0)
(3 9.488479352e-15 0)
(3 9.515639236e-15 0)
(3 7.130522234e-15 0)
(3 -5.998899865e-15 0)
(3 -8.05861608e-15 0)
(3 -9.104458281e-15 0)
(3 -1.088140052e-14 0)
(3 -1.137074059e-14 0)
(3 -1.142890121e-14 0)
(3 -9.874221819e-15 0)
(3 -7.063640268e-15 0)
(3 -3.849110684e-15 0)
(3 -2.574291759e-15 0)
(3 -1.317383143e-15 0)
(3 -3.811722105e-16 0)
(3 1.899610209e-15 0)
(3 5.288690319e-15 0)
(3 8.354538143e-15 0)
(3 7.330278694e-15 0)
(3 -5.655872512e-15 0)
(3 -6.967051851e-15 0)
(3 -7.460100196e-15 0)
(3 -9.150945019e-15 0)
(3 -9.906412533e-15 0)
(3 -9.604395249e-15 0)
(3 -8.590969894e-15 0)
(3 -4.85062093e-15 0)
(3 -3.355576664e-15 0)
(3 -3.280701328e-15 0)
(3 -3.658286478e-15 0)
(3 -1.724440288e-15 0)
(3 5.1454047e-16 0)
(3 4.251751525e-15 0)
(3 7.118540616e-15 0)
(3 7.248871763e-15 0)
(3 -4.257212206e-15 0)
(3 -2.635161206e-15 0)
(3 -1.147398006e-15 0)
(3 4.439586943e-16 0)
(3 -1.688625981e-15 0)
(3 -1.813445001e-15 0)
(3 -1.303289568e-15 0)
(3 -9.366259448e-16 0)
(3 -7.480214131e-16 0)
(3 -3.621126974e-16 0)
(3 2.369394754e-16 0)
(3 1.459467823e-15 0)
(3 4.041811574e-15 0)
(3 6.85821787e-15 0)
(3 9.068209625e-15 0)
(3 9.889152302e-15 0)
(3 4.50807339e-15 0)
(3 5.405673955e-15 0)
(3 6.348742571e-15 0)
(3 7.886940088e-15 0)
(3 7.820802338e-15 0)
(3 8.113814396e-15 0)
(3 6.708826019e-15 0)
(3 5.728631269e-15 0)
(3 4.585502807e-15 0)
(3 4.654877902e-15 0)
(3 5.24459599e-15 0)
(3 6.297621729e-15 0)
(3 1.047786318e-14 0)
(3 1.345807718e-14 0)
(3 1.468774523e-14 0)
(3 1.460094807e-14 0)
(3 1.90647087e-14 0)
(3 1.931061819e-14 0)
(3 1.866936587e-14 0)
(3 1.783343124e-14 0)
(3 1.81576123e-14 0)
(3 1.714892407e-14 0)
(3 1.572167052e-14 0)
(3 1.536700119e-14 0)
(3 1.363813703e-14 0)
(3 1.319403203e-14 0)
(3 1.275285026e-14 0)
(3 1.26008479e-14 0)
(3 1.502207397e-14 0)
(3 1.599132323e-14 0)
(3 1.52917414e-14 0)
(3 1.361665054e-14 0)
(3 1.482920537e-14 0)
(3 1.583247501e-14 0)
(3 1.733009069e-14 0)
(3 1.678331377e-14 0)
(3 1.634175782e-14 0)
(3 1.623164967e-14 0)
(3 1.724979351e-14 0)
(3 1.808237083e-14 0)
(3 1.823971777e-14 0)
(3 1.660699325e-14 0)
(3 1.394918e-14 0)
(3 1.217560516e-14 0)
(3 1.222076606e-14 0)
(3 1.137903564e-14 0)
(3 1.125242759e-14 0)
(3 1.158098127e-14 0)
(3 1.7951958e-14 0)
(3 1.758334577e-14 0)
(3 1.711498937e-14 0)
(3 1.660802605e-14 0)
(3 1.378138689e-14 0)
(3 1.123076185e-14 0)
(3 1.065309931e-14 0)
(3 1.016535461e-14 0)
(3 9.657628936e-15 0)
(3 8.976653487e-15 0)
(3 9.001149385e-15 0)
(3 7.736691299e-15 0)
(3 5.816483886e-15 0)
(3 4.840754978e-15 0)
(3 6.47351078e-15 0)
(3 8.074198166e-15 0)
(3 1.412714353e-14 0)
(3 1.35140519e-14 0)
(3 1.16987789e-14 0)
(3 1.035373551e-14 0)
(3 7.760452102e-15 0)
(3 5.05422334e-15 0)
(3 1.551115834e-15 0)
(3 -1.035227348e-15 0)
(3 -1.761719474e-15 0)
(3 -6.961782319e-16 0)
(3 2.15676821e-15 0)
(3 1.107109651e-15 0)
(3 2.022503499e-16 0)
(3 6.516517423e-16 0)
(3 2.055201423e-15 0)
(3 3.541687419e-15 0)
(3 3.842301823e-15 0)
(3 2.377462253e-15 0)
(3 1.246103832e-15 0)
(3 -3.718561106e-16 0)
(3 -1.182342126e-15 0)
(3 -8.661051487e-16 0)
(3 -1.357900455e-15 0)
(3 -1.537684295e-15 0)
(3 -1.743871712e-15 0)
(3 -2.860235946e-15 0)
(3 -4.575512846e-15 0)
(3 -4.898432568e-15 0)
(3 -4.448031282e-15 0)
(3 -4.175445265e-15 0)
(3 -3.187610326e-15 0)
(3 4.685534518e-16 0)
(3 -3.197489097e-15 0)
(3 -2.00310974e-15 0)
(3 -2.21463571e-15 0)
(3 -2.091326204e-15 0)
(3 -1.573173934e-15 0)
(3 -8.465820079e-16 0)
(3 5.919113581e-16 0)
(3 1.041333498e-15 0)
(3 1.133405549e-15 0)
(3 1.07564661e-15 0)
(3 1.628013802e-16 0)
(3 9.363422916e-16 0)
(3 1.065400147e-15 0)
(3 1.164040532e-15 0)
(3 2.423830764e-15 0)
(3 2.976314918e-15 0)
(3 -1.05455138e-14 0)
(3 -8.255499164e-15 0)
(3 -7.344168081e-15 0)
(3 -6.286612872e-15 0)
(3 -5.812974773e-15 0)
(3 -6.01110378e-15 0)
(3 -5.987658385e-15 0)
(3 -6.129747356e-15 0)
(3 -4.900877528e-15 0)
(3 -3.712701543e-15 0)
(3 -2.627209491e-15 0)
(3 -3.609334096e-15 0)
(3 -5.902242871e-15 0)
(3 -6.202188795e-15 0)
(3 -6.839680486e-15 0)
(3 -6.574636758e-15 0)
(3 -1.816270244e-14 0)
(3 -1.903564512e-14 0)
(3 -1.836907012e-14 0)
(3 -1.752900554e-14 0)
(3 -1.537047404e-14 0)
(3 -1.232434255e-14 0)
(3 -1.105168514e-14 0)
(3 -7.350412619e-15 0)
(3 -7.240286762e-15 0)
(3 -7.694131226e-15 0)
(3 -7.305012976e-15 0)
(3 -8.722958609e-15 0)
(3 -9.78119129e-15 0)
(3 -1.243477052e-14 0)
(3 -1.470976179e-14 0)
(3 -1.552521293e-14 0)
(3 -1.181248673e-14 0)
(3 -1.184719214e-14 0)
(3 -1.151116002e-14 0)
(3 -1.051501036e-14 0)
(3 -9.478356698e-15 0)
(3 -5.952788252e-15 0)
(3 -4.212387161e-15 0)
(3 -5.254860174e-15 0)
(3 -7.692636985e-15 0)
(3 -1.049390792e-14 0)
(3 -1.435104e-14 0)
(3 -1.581472966e-14 0)
(3 -1.597388704e-14 0)
(3 -1.523119024e-14 0)
(3 -1.450158511e-14 0)
(3 -1.592223874e-14 0)
(3 -6.824125785e-17 0)
(3 -6.198143769e-16 0)
(3 -4.953608365e-16 0)
(3 -4.49675469e-16 0)
(3 6.254912205e-16 0)
(3 1.729821902e-15 0)
(3 2.175384552e-15 0)
(3 -2.197141447e-16 0)
(3 -4.915207405e-15 0)
(3 -7.603056824e-15 0)
(3 -9.117973969e-15 0)
(3 -1.065717626e-14 0)
(3 -1.017155438e-14 0)
(3 -8.481065051e-15 0)
(3 -7.895330217e-15 0)
(3 -7.94023023e-15 0)
(3 8.263381818e-15 0)
(3 8.150351033e-15 0)
(3 8.080647868e-15 0)
(3 6.991777185e-15 0)
(3 6.224001772e-15 0)
(3 5.773957426e-15 0)
(3 5.686149324e-15 0)
(3 5.392137864e-15 0)
(3 3.028693519e-15 0)
(3 -1.998855063e-16 0)
(3 -6.186843082e-16 0)
(3 -1.222858686e-15 0)
(3 -2.71761429e-16 0)
(3 -1.952838645e-16 0)
(3 -3.760295247e-16 0)
(3 -2.786365871e-16 0)
)
;

boundaryField
{
    inlet
    {
        type            fixedValue;
        value           nonuniform 0();
    }
    outlet
    {
        type            inletOutlet;
        inletValue      nonuniform 0();
        value           nonuniform 0();
    }
    bottom
    {
        type            slip;
    }
    top
    {
        type            slip;
    }
    obstacle
    {
        type            slip;
    }
    defaultFaces
    {
        type            empty;
    }
    procBoundary7to1
    {
        type            processor;
        value           nonuniform List<vector> 
35
(
(3 4.567895814e-15 0)
(3 3.591211539e-15 0)
(3 6.791212565e-16 0)
(3 1.574420015e-16 0)
(3 -1.861073159e-15 0)
(3 -2.647341043e-15 0)
(3 6.602557868e-15 0)
(3 9.061122805e-15 0)
(3 7.477012652e-15 0)
(3 4.82569056e-15 0)
(3 7.295053402e-16 0)
(3 2.962903567e-16 0)
(3 1.668392798e-15 0)
(3 3.483093157e-15 0)
(3 7.420367018e-15 0)
(3 1.046899214e-14 0)
(3 1.054346593e-14 0)
(3 1.054346593e-14 0)
(3 6.831696844e-15 0)
(3 6.831696844e-15 0)
(3 9.389227502e-15 0)
(3 9.868598121e-15 0)
(3 1.24187788e-14 0)
(3 1.386982921e-14 0)
(3 1.501453225e-14 0)
(3 1.511776233e-14 0)
(3 1.421034485e-14 0)
(3 1.375505119e-14 0)
(3 1.448871212e-14 0)
(3 1.41658359e-14 0)
(3 1.315693367e-14 0)
(3 1.222152322e-14 0)
(3 1.059932386e-14 0)
(3 9.443111905e-15 0)
(3 8.880227839e-15 0)
)
;
    }
    procBoundary7to6
    {
        type            processor;
        value           nonuniform List<vector> 
16
(
(3 1.085241089e-14 0)
(3 3.64323532e-15 0)
(3 -1.095138249e-15 0)
(3 -8.032415152e-15 0)
(3 -1.288976843e-14 0)
(3 -2.866666888e-15 0)
(3 9.936509029e-16 0)
(3 2.122124706e-15 0)
(3 4.089845853e-16 0)
(3 -1.382016607e-16 0)
(3 1.684869913e-15 0)
(3 1.839443984e-15 0)
(3 1.270232452e-14 0)
(3 5.414464345e-15 0)
(3 -8.499479881e-16 0)
(3 -4.920005259e-16 0)
)
;
    }
    procBoundary7to8
    {
        type            processor;
        value           nonuniform List<vector> 
15
(
(3 2.673449436e-15 0)
(3 5.245941889e-15 0)
(3 6.077240699e-15 0)
(3 6.408738903e-15 0)
(3 1.167170626e-14 0)
(3 1.272838358e-14 0)
(3 1.301740195e-14 0)
(3 1.310387892e-14 0)
(3 1.126758213e-14 0)
(3 5.460363699e-15 0)
(3 2.657124862e-15 0)
(3 2.789319222e-15 0)
(3 -1.060003784e-14 0)
(3 -1.510230547e-14 0)
(3 -1.751145257e-14 0)
)
;
    }
    procBoundary7to12
    {
        type            processor;
        value           uniform (3 -1.097612317e-14 0);
    }
    procBoundary7to13
    {
        type            processor;
        value           nonuniform List<vector> 
35
(
(3 -3.752565812e-15 0)
(3 1.438283291e-15 0)
(3 4.963855496e-15 0)
(3 4.476749471e-15 0)
(3 3.661828326e-15 0)
(3 -2.192608409e-15 0)
(3 -2.58429365e-15 0)
(3 -1.333109504e-15 0)
(3 2.621847341e-15 0)
(3 1.206569094e-14 0)
(3 1.479016957e-14 0)
(3 1.261728651e-14 0)
(3 -1.803595138e-14 0)
(3 -1.913461078e-14 0)
(3 -2.09661897e-14 0)
(3 -1.933581234e-14 0)
(3 -3.752565812e-15 0)
(3 -1.393784574e-14 0)
(3 1.261728651e-14 0)
(3 1.455474796e-14 0)
(3 1.489692133e-14 0)
(3 1.397972581e-14 0)
(3 1.352882614e-14 0)
(3 1.075027933e-14 0)
(3 1.000461238e-14 0)
(3 8.94819267e-15 0)
(3 9.8607519e-15 0)
(3 1.01306984e-14 0)
(3 1.035944336e-14 0)
(3 9.997559247e-15 0)
(3 9.965416942e-15 0)
(3 1.007247143e-14 0)
(3 1.014011028e-14 0)
(3 1.083941219e-14 0)
(3 1.255288186e-14 0)
)
;
    }
    procBoundary7to14
    {
        type            processor;
        value           nonuniform List<vector> 2((3 -9.122378033e-15 0) (3 5.978329594e-16 0));
    }
}


// ************************************************************************* //
