/*--------------------------------*- C++ -*----------------------------------*\
  =========                 |
  \\      /  F ield         | OpenFOAM: The Open Source CFD Toolbox
   \\    /   O peration     | Website:  https://openfoam.org
    \\  /    A nd           | Version:  7
     \\/     M anipulation  |
\*---------------------------------------------------------------------------*/
FoamFile
{
    version     2.0;
    format      ascii;
    class       volScalarField;
    location    "4";
    object      p;
}
// * * * * * * * * * * * * * * * * * * * * * * * * * * * * * * * * * * * * * //

dimensions      [1 -1 -2 0 0 0 0];

internalField   nonuniform List<scalar> 
2222
(
0.9920254659
0.994952853
0.9973541771
0.9986470132
0.9987590157
0.9999275554
1.00175066
1.004564899
1.007761605
1.010841947
1.010669383
1.008711028
1.006056569
1.000469139
0.9504474021
0.9589223267
0.9643358181
0.9667714314
0.969308995
0.9731575511
0.9757698319
0.9754613598
0.9769500409
0.9774436724
0.9761704831
0.9788615647
0.9855127702
0.991436984
0.9917623403
0.990572537
0.9911907958
0.9936357881
0.9926751874
0.9886187112
0.9875076254
0.9901745743
0.9917267554
0.9907113133
0.9938038287
0.9973982768
0.9999770277
1.001109558
1.000813098
1.000153076
1.00166116
1.004394529
1.007988916
1.012539047
1.01350303
1.010263096
1.004353389
0.9997610601
0.9503916206
0.953047821
0.9541086329
0.955829623
0.9607356822
0.9674858535
0.9751288537
0.9781209899
0.9758173783
0.9728911975
0.972726597
0.9754426752
0.9837821681
0.9893593027
0.9906162794
0.9923095413
0.9935048282
0.9954515855
0.9954435845
0.9908511704
0.9885727569
0.9891862069
0.9900171087
0.9899892403
0.9938786019
0.9985035745
1.00105922
1.003132501
1.004370025
1.003806217
1.002836917
1.004240846
1.007490933
1.012245534
1.015244668
1.012921805
1.006472805
1.000872502
0.9994971552
0.9652641107
0.9586215237
0.950498111
0.9519738214
0.959517496
0.9683737099
0.973479899
0.9741287157
0.9694367412
0.9675716134
0.9714519839
0.9768758756
0.9839819409
0.9880999002
0.989106457
0.9913631715
0.9927616657
0.9937628483
0.9957452586
0.9930084166
0.9917198238
0.9891535752
0.9881244482
0.988792865
0.9937204418
0.9985201007
1.00075921
1.002843558
1.006268583
1.008339512
1.007166058
1.006304296
1.007881104
1.010961766
1.014245113
1.013430097
1.008493287
1.004293544
1.00278097
0.9684181156
0.9577235574
0.9465643412
0.9476984942
0.9576143934
0.9662463285
0.9687181029
0.9679108516
0.9658728621
0.9644636001
0.9692834193
0.9782963981
0.9849392817
0.9889950262
0.9915991738
0.9928620242
0.9914866242
0.9890513901
0.9926627695
0.9926118066
0.9937486783
0.99101319
0.987736272
0.9866145592
0.9910852844
0.9956509461
0.9971554935
0.9985992882
1.003174442
1.008423669
1.009270344
1.00732504
1.007195311
1.008146147
1.010013256
1.011004149
1.008957104
1.006830018
1.005799044
0.9688014133
0.9576169303
0.9473076554
0.9478160401
0.9574159016
0.9631839223
0.9674826181
0.9692959429
0.969338201
0.9701240408
0.9745497185
0.9818078874
0.9857368149
0.9863905404
0.9876159387
0.993531401
0.996223526
0.9941384014
0.9925410055
0.9912308983
0.9926667611
0.9932780957
0.9910169638
0.9895815022
0.9906704054
0.9931616551
0.994721372
0.996015578
0.9998434219
1.006035955
1.008426787
1.007930597
1.007221895
1.006858519
1.006097333
1.005609554
1.005482891
1.004613844
1.004956614
0.9662453537
0.9600871909
0.9555213508
0.9555130748
0.9606630833
0.9635449014
0.9648106633
0.9662097175
0.96921787
0.9736470589
0.9798267113
0.9861488574
0.987676442
0.9847067834
0.9845892873
0.9892066581
0.9938324952
0.9956274916
0.9953893641
0.9945703805
0.9923526675
0.9923133706
0.9919310395
0.9925749272
0.9931928588
0.9946368942
0.9959272267
0.9979343841
1.001659924
1.006367556
1.009550734
1.009645012
1.008395486
1.0073367
1.005436807
1.002816756
1.001815226
1.000051856
0.9997364756
0.9561586178
0.9597757159
0.9629127528
0.9656436965
0.9673442789
0.9667387899
0.9675376028
0.9729840139
0.9785735023
0.9834541644
0.9871458583
0.9866308316
0.983360033
0.9850808242
0.9888078284
0.9913581106
0.9939116498
0.9945732113
0.9947048791
0.9926505373
0.9914345703
0.9919199242
0.9924737667
0.9933620071
0.9939551133
0.9952113049
0.997091818
1.000962876
1.005012864
1.008716003
1.010026175
1.008924061
1.007632605
1.005938516
1.003574337
1.001337615
0.9990590615
0.9973031068
0.948494323
0.9565144959
0.9641824613
0.9687929724
0.971466375
0.9690059632
0.9699993627
0.9760292886
0.9824527602
0.9849655111
0.9843797251
0.9813348769
0.9809337467
0.9841417968
0.988271534
0.9920528776
0.9950425002
0.9958021762
0.9942726313
0.9901157133
0.9911367384
0.9924277109
0.9923505893
0.9923704997
0.9928329834
0.995051262
0.9979733794
1.000491435
1.003013157
1.005832985
1.007601671
1.007046574
1.006205666
1.004602236
1.002018495
0.9989591273
0.9966818797
0.9951627348
0.9450902285
0.9551847438
0.9665991283
0.9706247054
0.9701056119
0.968319757
0.970946966
0.977376044
0.9842930677
0.9848834202
0.9803420944
0.977979002
0.9806566042
0.9844111444
0.9881269775
0.9918130203
0.9957495724
0.9985446515
0.9978924083
0.9900575703
0.990549696
0.9918351464
0.9923732891
0.992151448
0.9924940096
0.9962881756
0.9999100695
1.001551031
1.00246249
1.003686281
1.005390962
1.006257902
1.006500352
1.005461588
1.002408927
0.9978826046
0.9947069917
0.9935753086
0.9507469464
0.9629804858
0.9707470571
0.9689625262
0.9645421134
0.9656764358
0.9685071244
0.974336155
0.9789146942
0.9786398577
0.97352561
0.973076112
0.9774844301
0.9844606117
0.9891852765
0.9919927718
0.9950217184
0.9986200843
0.9987796351
0.9905960118
0.9907060188
0.9912827544
0.9916798938
0.9909892007
0.9914295557
0.9969559008
1.000298171
1.001646971
1.002045274
1.002620252
1.003722094
1.004782101
1.005847287
1.005491851
1.002416929
0.9977900092
0.9948630471
0.9942864424
0.9594864078
0.961969631
0.9647872934
0.963908516
0.9609348052
0.9636426836
0.9667309274
0.9703833198
0.9729385843
0.9721939676
0.9682874958
0.9697553221
0.9775343941
0.9892924604
0.9931477719
0.9926802757
0.9937331703
0.9976714272
0.9985364981
0.9909492896
0.9914247433
0.9920738823
0.9916924802
0.9892620518
0.9899110693
0.9967872407
0.9999309826
1.001675557
1.002847501
1.0027821
1.002171081
1.002839667
1.004280628
1.004639995
1.001927465
0.9980781324
0.9965372482
0.9967304735
0.9655735524
0.9616708666
0.9610084818
0.9592412339
0.9585369639
0.9633484807
0.9682431481
0.9696250435
0.9698966339
0.9690469275
0.9683320871
0.9709938853
0.9823240179
0.9933476941
0.9947939691
0.9932968584
0.9936090674
0.9971856996
0.9989718892
0.9939029272
0.9937356586
0.9931605046
0.9913141889
0.9885354191
0.9903660304
0.9964598292
0.9992168073
1.001163584
1.002593148
1.001942134
1.000472577
0.9998956311
1.00130332
1.002367937
1.000720564
0.9982147327
0.9976392269
0.998762326
0.9639696573
0.9568455415
0.9561034507
0.9571874409
0.9654636996
0.9723372331
0.9726115206
0.9701811939
0.9706600453
0.9742708825
0.9796429235
0.9874155747
0.9914554946
0.9927471434
0.9916724118
0.9914069789
0.9935239221
0.9974112647
0.9963060135
0.9952870611
0.9935165535
0.9911816987
0.9893477368
0.9911087869
0.9951141574
0.9970701138
0.9991872985
1.001215712
1.001927745
1.000348232
0.9981440372
0.9990628445
0.9999246732
0.9994258575
0.9978832283
0.9985784966
1.000696204
0.9641076113
0.9562810856
0.9559155073
0.9586518536
0.9661056861
0.9752069617
0.9754770071
0.9743420023
0.9770499499
0.9832295268
0.9865059076
0.9870262034
0.9874014333
0.9891328306
0.9901222138
0.9900462885
0.9912999604
0.9953972196
0.9965268118
0.9959139375
0.9942748318
0.9919921339
0.9907625834
0.99177659
0.993474105
0.9946382935
0.996679314
1.000162018
1.002343659
1.000897097
0.9974065025
0.9972009297
0.9981234794
0.9970623791
0.9968051594
0.9990800166
1.001553928
1.00378631
0.9647728697
0.9597104391
0.9594120015
0.9637173794
0.9691999534
0.9746471884
0.9778771689
0.9777595877
0.9794034038
0.9856157051
0.9893412431
0.9873904512
0.9834066543
0.9828925708
0.9866689974
0.9890005154
0.9914795876
0.99487822
0.9975413007
0.9972790049
0.9947978339
0.9928228495
0.992408605
0.9925563694
0.9920755451
0.9921604498
0.9938281489
0.9987950174
1.001228463
0.9996949842
0.9969202963
0.9960330094
0.9958654964
0.9955355317
0.9988442906
1.001382705
1.002596489
1.003804018
0.9602014355
0.9600691773
0.9624166587
0.9686714303
0.9722251359
0.9742732209
0.9774414104
0.9786595772
0.9802292581
0.984472851
0.9876036659
0.9850332715
0.9785543634
0.9772960628
0.9825734063
0.9903542171
0.9937612207
0.9946958727
0.9962819172
0.9965610232
0.994558206
0.9945851129
0.9945867802
0.9936732655
0.9921794886
0.991358509
0.9923295878
0.9957399508
0.9992519877
0.9988297518
0.99752029
0.9969090273
0.995368068
0.9961375692
0.9976345829
0.999173182
0.9997638653
1.000398923
0.9517366291
0.9599404591
0.9670095436
0.9740866543
0.9746755741
0.9736472203
0.9749958256
0.9773187515
0.9789115016
0.9800373597
0.981591782
0.9796903393
0.9748624218
0.974270035
0.9814701082
0.9918838486
0.9969176479
0.996980495
0.9967274167
0.9960549056
0.9939185627
0.9934660169
0.9944216061
0.9946733017
0.9933555221
0.9922035994
0.9923033141
0.9935530618
0.9958676274
0.9983639745
0.9992887299
0.9992365577
0.9983439925
0.9986763255
0.9988956895
0.9989730841
0.9997458752
1.00030258
0.9445841886
0.9584703077
0.9692111202
0.9759203871
0.9752864143
0.9705625815
0.9699189859
0.9743091098
0.9767338407
0.9760335816
0.9753957487
0.9755867699
0.9745507032
0.9761646089
0.983759984
0.9933316222
0.9987556988
0.9991665294
0.9979717756
0.9957412972
0.9940850897
0.9935690843
0.9935896567
0.9941921306
0.9943341447
0.9938410387
0.9934640906
0.9932997303
0.9941288375
0.9974211229
1.001461073
1.002100365
1.002746297
1.001731828
0.9999342481
0.999667911
1.000646994
1.001303801
0.9447022287
0.9596949987
0.9703442065
0.9740877688
0.9729772993
0.966806939
0.9652905515
0.9728011118
0.9768931576
0.9752951118
0.9735958209
0.9751869388
0.9785951523
0.9826690618
0.9882641051
0.9938906536
0.998886474
0.9998894008
0.9983321996
0.995713658
0.9950874057
0.9940890135
0.9929068726
0.9933166115
0.9946097309
0.9952161371
0.9951246719
0.9944580926
0.9943125322
0.9966626977
1.001335121
1.004017921
1.005696237
1.004762446
1.001699915
1.00103681
1.002424842
1.004037435
0.9611477546
0.9675349704
0.9672445166
0.9656829936
0.9629961745
0.9646583298
0.9729145928
0.9783537931
0.9769327283
0.9743549949
0.9764621215
0.9840522589
0.9899170071
0.9924565914
0.9937444182
0.99630113
0.9980946397
0.9973407916
0.9964063178
0.9965388872
0.9954266007
0.9932680925
0.9924935047
0.9941712253
0.9959484365
0.9967739986
0.9960548568
0.9951961237
0.9960893241
0.9999496911
1.00418993
1.006164369
1.005364355
1.002701378
1.002343875
1.004675497
1.007873838
0.9593112602
0.9614855116
0.9583533299
0.9599186851
0.9646567695
0.9693334332
0.9738689125
0.9794889338
0.9798382095
0.9770223417
0.97823986
0.9872442157
0.9938723835
0.9937176168
0.9920398056
0.9918947829
0.9931332934
0.995305302
0.9977639886
0.99839543
0.997513032
0.9947075586
0.9924886978
0.9935091917
0.9958580297
0.9976444749
0.9974322325
0.9960334285
0.9958191508
0.9986549644
1.003204557
1.004669505
1.0039033
1.002464623
1.003248606
1.006810921
1.011193531
0.9635098267
0.9592318952
0.957204559
0.960577929
0.9690753948
0.9745899127
0.9765447162
0.9799736816
0.9825922835
0.9802910471
0.9807892517
0.986595806
0.9926364616
0.9918694962
0.9869802866
0.9856327049
0.988399728
0.9946037674
0.9995278745
1.000491143
0.9996418736
0.9968165988
0.9937609285
0.9933292081
0.9946390563
0.9969180915
0.9977148288
0.9968435701
0.9965361617
0.9985341355
1.001130975
1.001093658
1.000407897
1.00106676
1.003512062
1.008699301
1.013660979
0.9625796877
0.9601810798
0.959128097
0.9626388613
0.9738114403
0.9813428626
0.979303539
0.9799126125
0.9833058294
0.9841900411
0.9821614453
0.9841969405
0.9868240645
0.9862411076
0.9823268343
0.9822944163
0.9879924677
0.9953742687
1.000311984
1.001188227
1.000935285
0.9990465112
0.9962443543
0.9939862327
0.9934137138
0.9944259031
0.9968915423
0.997950173
0.9984595899
0.9999814453
0.9999009804
0.9979958503
0.9970881766
0.9991168871
1.003356046
1.00909529
1.013545383
0.9571255957
0.9591979555
0.9615111288
0.9656239783
0.9779089492
0.9849604358
0.9823638185
0.9780760077
0.9802335899
0.9851235003
0.9834356957
0.9796669078
0.978971007
0.9813833978
0.9824466674
0.9848203936
0.9912083489
0.998305152
1.001079952
1.001151886
1.000724032
1.000469071
0.9989890419
0.9962047116
0.9933896517
0.9930301498
0.995192636
0.9992723356
1.001523194
1.001951855
1.00041531
0.9972282408
0.9958369919
0.9980817572
1.002544994
1.007252701
1.010236619
0.9525613468
0.9574224425
0.9649882664
0.9713222372
0.9787233697
0.9838498748
0.9816455186
0.9746953786
0.975987965
0.983841444
0.9855258572
0.977325857
0.9751983127
0.9790713362
0.9854178594
0.9891768256
0.9952456258
1.001026948
1.001649706
1.00018909
0.9991518962
1.000363821
1.000878391
0.9980820098
0.9937695642
0.9927508504
0.994518997
0.9995813184
1.003513934
1.003663098
1.001292446
0.9988607755
0.9977659179
0.9992617419
1.00232448
1.005262492
1.006636014
0.9562225039
0.9677712052
0.973344526
0.975022755
0.9772659788
0.9760747503
0.9717463576
0.9732503252
0.9804659896
0.9852248195
0.9811407829
0.9752781434
0.9784710535
0.9864004695
0.9948360993
1.000661615
1.002394816
1.001213007
0.9982753998
0.9978318526
0.9990776057
1.001422659
1.0005412
0.9971734399
0.9943193982
0.9951876045
0.9988582319
1.003198074
1.004440574
1.003749167
1.00161954
0.9998860546
1.000765699
1.002393647
1.004470214
1.004330003
1.003954049
0.9578098024
0.9670881022
0.9719482082
0.9673889581
0.9688673703
0.9723095222
0.9730673366
0.972008725
0.9768974642
0.9834087311
0.9844721019
0.979118767
0.9787456261
0.9877999922
0.9984778691
1.002174762
1.001917275
0.9980444298
0.996709079
0.9975643223
0.9984003492
0.9997774595
1.001297721
0.9994511065
0.9973698245
0.9958605171
0.997862966
1.000986427
1.003696538
1.004971192
1.004357489
1.002559916
1.00296991
1.002966804
1.003355409
1.003549459
1.004359299
0.9600227004
0.9643159227
0.9697306211
0.9663477251
0.9631840569
0.9695147948
0.9766297568
0.9747718261
0.974341364
0.9802763847
0.9852780255
0.9848919927
0.9831187427
0.989523329
0.9971037956
0.9996728131
0.9981903503
0.9965586457
0.9978387309
0.9982834924
0.997815538
0.9983546317
0.9994155552
1.000163906
0.9997057857
0.9976404368
0.9966758878
0.998202571
1.001575208
1.005235956
1.005829709
1.00470117
1.004145044
1.005459934
1.007503846
1.008074564
1.008035123
0.962499512
0.9618869259
0.967283661
0.9674826271
0.9620553243
0.9688456157
0.9805231894
0.9818706133
0.9751985715
0.9772588802
0.9847051835
0.9887870708
0.9880459435
0.9882113292
0.9920642043
0.9928573621
0.9919935898
0.994686833
0.9995564273
1.001238053
0.9985818747
0.9968963204
0.9966442339
0.998872926
1.000237187
0.9992572128
0.9966534018
0.9972364798
1.000552141
1.003775065
1.00508655
1.004430133
1.003492713
1.005679837
1.009201878
1.011600245
1.012524336
0.9640543708
0.960637507
0.9651264287
0.9702551857
0.9683727876
0.9715899322
0.9831591558
0.9879976402
0.9802698544
0.9753004565
0.9822624815
0.9900844436
0.9910343607
0.9865917596
0.9853764908
0.9864229173
0.9886864073
0.9938895824
1.002422549
1.004557248
1.0017776
0.9962296606
0.994369169
0.9965639748
0.9993012376
0.9999438093
0.998320204
0.9972891348
0.9996087455
1.001885761
1.002146068
1.002089084
1.001485552
1.004182252
1.0088808
1.012188492
1.013667105
0.9633423404
0.9596810673
0.963073163
0.9732005699
0.9768474749
0.9770257731
0.9833781928
0.9893658507
0.9861525367
0.9762401852
0.9790377002
0.9878909766
0.9915278636
0.9880145046
0.9832875888
0.9841850737
0.9878243571
0.9959465052
1.003981577
1.00637027
1.004531668
0.9984541658
0.9939760706
0.9948116644
0.9976693402
0.9999099845
1.000590529
1.000081454
1.000256358
0.9993468005
0.9985916975
0.9976796113
0.9983460093
1.001530056
1.006794672
1.010584514
1.012222662
0.9617032043
0.9605835806
0.9610674117
0.9732235734
0.9827245357
0.9798776504
0.9798964892
0.9856365222
0.987759684
0.9804786303
0.977172044
0.983594658
0.9888233396
0.9879362793
0.9835324712
0.9847632911
0.9906475046
0.9994536617
1.003298197
1.005116547
1.004702788
1.001939767
0.9975040057
0.9947628605
0.9962761722
0.9994632624
1.001835619
1.002780068
1.001807604
0.9983656673
0.9949701454
0.9938021156
0.9949774484
0.9987368117
1.003555259
1.006408818
1.008180774
0.963297868
0.9609022685
0.9700416137
0.9816926295
0.9794846833
0.9736705586
0.9778261234
0.9849824687
0.9845819731
0.9776278405
0.9793131804
0.9845089471
0.986191151
0.9859885674
0.9884444581
0.995951707
1.001119588
1.001444839
1.001394994
1.002638125
1.003599421
1.002344882
0.9982573327
0.9963326067
0.9984467705
1.001835323
1.00366773
1.002778487
0.9983022889
0.9933329362
0.9923613619
0.9939939778
0.9979350775
1.001584106
1.002838564
1.004040784
0.9638215223
0.9622825288
0.9653191873
0.9759360901
0.9782533907
0.9704303926
0.9711989187
0.9795174012
0.985620221
0.9815272085
0.9769934021
0.980420093
0.9845339233
0.9878339519
0.9924082296
0.9987076424
0.99977159
0.9978356044
0.9965925112
0.9990342548
1.002861604
1.004268868
1.002168344
0.9980221198
0.9975195312
1.000051943
1.002726546
1.002636195
0.9989709981
0.9937199555
0.9935946648
0.9963599877
1.001221568
1.002771674
1.001764072
1.001337988
0.9630732868
0.9653392991
0.9610450847
0.9693107995
0.9777900656
0.9719349517
0.9657393624
0.9732497854
0.984111283
0.9854346006
0.9787449748
0.9779126095
0.9833641153
0.9895534426
0.9946979129
0.9974130407
0.9970302794
0.9943476809
0.9931401813
0.9956655313
1.001015909
1.004451498
1.004176218
1.00025894
0.9972882807
0.9979171662
1.000231143
1.000567399
0.9987820416
0.9962914472
0.9970248707
1.000292628
1.005391345
1.005644446
1.003510622
1.001355144
0.9611271694
0.969631792
0.9617810501
0.964846755
0.9762385671
0.9775815395
0.9681697804
0.9705880481
0.9815373813
0.9874736939
0.9828239843
0.9785471624
0.9829734683
0.9898071229
0.9927933759
0.9935484584
0.9936372102
0.9929638007
0.9924167645
0.994446546
0.9989691512
1.00282603
1.003713045
1.001431835
0.9977411411
0.9965428903
0.9975969337
0.9980882032
0.9974452366
0.9971264108
0.9986469219
1.001731966
1.006353689
1.007155023
1.005994823
1.004911656
0.960195873
0.9716125272
0.9684329902
0.9644756502
0.9738217614
0.9832088947
0.9773824891
0.9732107916
0.9802062166
0.9877692295
0.98707418
0.9825042237
0.9839777172
0.9884654837
0.9894649261
0.9892496285
0.9903840261
0.992407833
0.9944520669
0.9966186147
0.9979666593
1.000353878
1.00186447
1.001415803
0.9987103928
0.9961070929
0.9960419226
0.9965680981
0.9963957357
0.9968510722
0.9981807646
1.000568013
1.004686618
1.006358131
1.006294563
1.007309616
0.9572958925
0.9695991813
0.9763466382
0.9677681729
0.9729185895
0.9863978323
0.9900827087
0.9791199628
0.9805022974
0.98619871
0.9893402927
0.9871139873
0.9854470861
0.986420594
0.9865580278
0.985921408
0.9878456095
0.992666923
0.9993578877
1.001251587
0.9986555415
0.9977291643
0.9993030996
1.000463662
0.9998035714
0.9972182736
0.995772782
0.9955121087
0.9949983619
0.9955137757
0.9961681557
0.9981494426
1.001465872
1.002990799
1.004483041
1.008223883
0.9635462102
0.9774924723
0.9713310809
0.9722653297
0.9854169717
0.9954320539
0.9867403409
0.9771316772
0.9818473454
0.9884218932
0.9892270436
0.9864959265
0.9849633104
0.9848558462
0.9847128015
0.9870795647
0.9949511208
1.004126871
1.004910191
1.000336089
0.9960298112
0.9968000193
0.9994155257
1.000489212
0.9994851369
0.9975537356
0.9958581332
0.9940143516
0.9934641916
0.9932080961
0.9949540457
0.9974331662
0.9992072334
1.002833078
1.009878966
0.9566582374
0.972201858
0.9738323234
0.9686647471
0.9767023233
0.9904715255
0.9907805304
0.9769760109
0.9762060826
0.9835586496
0.9878659967
0.9860449516
0.9841944098
0.9848946013
0.9856920862
0.9888070038
0.9972602569
1.003609819
1.004849866
1.001744173
0.9969040656
0.9957698669
0.9983453489
1.000800882
1.001282531
1.00003351
0.9974824277
0.9939018974
0.9916883434
0.9907644382
0.9927248765
0.9948216758
0.9976452168
1.003025905
1.010316604
1.014620304
0.9521329874
0.9623719874
0.9770264968
0.96653592
0.9693591791
0.9816766538
0.989387121
0.9803646909
0.9724804372
0.9782892148
0.985029007
0.9850005169
0.984157153
0.9856146569
0.9879590715
0.9921934554
0.9974266876
0.9999720785
1.002030755
1.001765596
0.9994683445
0.9973639473
0.9981171118
1.00070274
1.002536187
1.00231314
0.9999088207
0.9949996237
0.9916357858
0.9913215857
0.9944514784
0.9960490339
0.9987765522
1.004483794
1.009177067
1.011980826
0.9502390039
0.9559295991
0.9775501378
0.9736088411
0.9644125093
0.9718534466
0.9841838271
0.9831757816
0.9752557373
0.9761492613
0.9824998612
0.9844971772
0.9847484202
0.986359894
0.9901492052
0.9938418487
0.9941890522
0.9944086619
0.9963609397
0.999361632
1.001286906
1.000864364
0.9997967838
1.000854114
1.002830901
1.003088131
1.001261637
0.9961630258
0.9931372393
0.9941975362
0.9987302708
1.001383421
1.004558089
1.006482552
1.00770689
1.009999307
0.9549531722
0.9516775543
0.9753873029
0.9850452632
0.9674824269
0.9668850566
0.9775757878
0.9861594861
0.9825362683
0.9790311315
0.9823081756
0.9856130254
0.9861114958
0.9875570489
0.9919258319
0.9942045038
0.9919256402
0.989703689
0.9911543349
0.9965716343
1.002998225
1.005041731
1.003180267
1.001396438
1.002231898
1.002701661
1.00111058
0.996146457
0.9949087509
0.9971054775
1.002815042
1.008089181
1.010976165
1.008716585
1.007384697
1.008888759
0.9679843257
0.9497786686
0.9679383482
0.9894302288
0.9811427934
0.9659069689
0.9748584335
0.9890212186
0.991284804
0.9855549594
0.9848577571
0.9876281668
0.9879246519
0.9887897301
0.9920206627
0.9941781593
0.9923047981
0.9886944859
0.9891650274
0.9957526976
1.004548869
1.007438407
1.005768543
1.002244718
1.001131462
1.001043994
0.9992309794
0.9950633668
0.9953639617
0.9983603548
1.005048187
1.011969867
1.013260754
1.010743088
1.009376643
1.010648216
0.9764153175
0.9582946856
0.9590907615
0.9875315146
0.993524734
0.9734453064
0.9750045678
0.9899185905
0.996197489
0.9915511489
0.9870943503
0.9883166895
0.9887147442
0.9889256157
0.9908959011
0.9934195263
0.9932307994
0.9906265242
0.9906824342
0.9971424596
1.004656989
1.007740041
1.006614787
1.002896914
1.000654011
0.9991167764
0.9968119323
0.9936981567
0.9947205111
0.9985223521
1.00630737
1.012008859
1.012019757
1.011111256
1.011500306
1.014082235
0.9677433641
0.9527601346
0.9714211067
0.9944766649
0.9866392214
0.9730122126
0.9831339034
0.9919827867
0.9917532412
0.9870818217
0.9863028695
0.9872412625
0.9873867992
0.9884457824
0.9910814323
0.9935863221
0.9944621966
0.9958136998
0.9987627885
1.001546015
1.004285437
1.004620439
1.002612155
1.000656802
0.9982649892
0.9953934198
0.9928325232
0.9942661838
0.9987020046
1.006163049
1.008660124
1.008655085
1.010018743
1.013416652
1.017746016
0.9705747881
0.9479357266
0.9550175763
0.9899113145
0.9974735324
0.9751427771
0.9771719175
0.9851555129
0.9885072245
0.9854165732
0.9836766116
0.9857773718
0.9865832696
0.9863570197
0.9880905591
0.992120613
0.9969944341
1.00028876
0.9992089519
0.9977468888
0.999516767
1.001751397
1.00182939
1.000942378
0.9989280685
0.9959143061
0.9934262043
0.9947095291
0.9987012174
1.003596152
1.004114043
1.004759505
1.008238622
1.014924874
1.019013304
0.9703019234
0.9545724754
0.9485969059
0.9726011886
0.9967380927
0.9857387591
0.9728482526
0.9786146685
0.9842191837
0.9833213949
0.9826557954
0.9856633738
0.9873667709
0.9861143926
0.9858908882
0.9900490021
0.9973871292
1.000740475
0.9991753881
0.9963233836
0.9962841097
0.9993986023
1.002203217
1.003087272
1.002159178
0.9992853153
0.9960262769
0.9958479239
0.9983206025
1.000246775
1.000413604
1.001839512
1.006772637
1.013839925
1.016425317
0.9639016014
0.9734741459
0.9455219353
0.9587835402
0.9926507591
0.9956463867
0.9750378467
0.9742773349
0.9803743361
0.9828248426
0.9838504592
0.9865562433
0.9882547079
0.9868305326
0.9853672222
0.9886431719
0.9953332491
0.9990504025
0.998793035
0.9962877742
0.9953828597
0.998667181
1.003739532
1.006567322
1.006406132
1.003458162
0.9994237107
0.9978705849
0.9993686706
0.9989684083
0.9983621383
1.000105405
1.004959522
1.010137148
1.01206003
0.9492535597
0.9811438283
0.9579740631
0.95254865
0.9752456221
0.9964413201
0.9816280674
0.9758960634
0.9797601109
0.9864259851
0.9881169539
0.9882583315
0.989057829
0.9892451172
0.9886450227
0.9901970807
0.9936956988
0.9968134619
0.9985759301
0.9986847563
0.9990294405
1.002688125
1.007135904
1.010241708
1.009426652
1.005424217
1.001399184
1.000045728
1.002014101
1.001224526
0.9994717776
1.000089746
1.003167251
1.005379756
1.007075515
0.9172221237
0.9771779297
0.9784346807
0.9501968196
0.9604407959
0.9946658434
0.9911198677
0.9823701661
0.9831934728
0.9908553082
0.9916928386
0.9894538968
0.9902627631
0.9927340964
0.9935311042
0.9927059672
0.9926364833
0.9947391209
0.9979337219
1.00150243
1.005052615
1.006997794
1.00853198
1.010186598
1.008649528
1.004096392
1.000505239
1.000496027
1.004072783
1.005576787
1.00392798
1.0018326
1.001241256
1.001188696
1.002926024
0.8468918596
0.9662255231
0.9856064392
0.9635781298
0.9544446687
0.9805170869
0.9952221353
0.9879969616
0.9856307283
0.9904055186
0.9904199063
0.9865194884
0.9874217668
0.9927691273
0.9958954371
0.9943596454
0.990982546
0.9914577001
0.9965225842
1.003864321
1.008112069
1.007528525
1.006442356
1.005992001
1.004196551
1.000158378
0.9980571263
0.999200282
1.004531809
1.008809484
1.008261618
1.004095634
0.9997695521
0.9991897125
1.000929218
0.9262471488
0.9884405761
0.9840068228
0.9540875371
0.9662196685
0.9941239038
0.9893653193
0.9865893743
0.9867179444
0.9863636877
0.9828328748
0.9833325538
0.9891922496
0.9943982668
0.9941216374
0.9906070724
0.9888711675
0.9931641113
1.000949076
1.005584836
1.005310929
1.0035474
1.002005929
1.000372459
0.9966849329
0.9961218854
0.9982167768
1.005883754
1.011081973
1.009792988
1.004202585
0.9995110453
0.9992007068
1.000730144
0.8433795235
0.9786387445
0.9910430609
0.971945232
0.9611082569
0.9889152663
0.9877577058
0.9860804897
0.9815704591
0.9812695784
0.9818127667
0.9815265366
0.9851541954
0.9899831268
0.991659646
0.9905693737
0.988815689
0.9902454194
0.9963845933
1.000545662
1.001661427
1.000995256
1.000402241
0.999518807
0.9960942453
0.9964173805
0.9998519515
1.008041936
1.009454989
1.005924108
1.001070382
0.9988900401
1.000229519
1.002046323
1.003961709
0.7432104763
0.9287288767
0.9939663534
0.9936859909
0.9595186226
0.9779892146
0.9864528391
0.984626983
0.9771973004
0.9777101166
0.9828767199
0.9822216332
0.9826218339
0.9860188718
0.9890577229
0.9903047514
0.9901809299
0.9907232799
0.9928872782
0.9965633512
0.9989950789
1.000092947
1.001563362
1.003567957
1.000132075
0.9997547973
1.002591602
1.006591975
1.005394947
1.000988315
0.9970692842
0.9979619557
1.001016354
1.003736874
1.00495972
0.5467738703
0.8487151322
0.9879472603
0.996900659
0.9702470973
0.970376319
0.9855336578
0.9827405684
0.9768583896
0.978661326
0.9860307525
0.9861487636
0.9838602651
0.9844876171
0.9879261015
0.9915680639
0.9944828888
0.9943756391
0.9937142281
0.995006724
0.998437766
1.002964239
1.007580445
1.008759475
1.004043322
1.001514534
1.002630941
1.003186401
1.000304742
0.9949658396
0.9939052851
0.9967648442
1.001476386
1.004523833
1.004713483
0.2478547216
0.7581777393
0.9398127667
0.9964076387
0.9895791837
0.9663873831
0.9845748668
0.9813936682
0.9821554905
0.9837656395
0.9897867997
0.9918560654
0.9883421281
0.9870264395
0.9895498803
0.9949630476
0.9987391474
0.9987914509
0.9965574512
0.9962436043
1.000286179
1.007383204
1.010942607
1.009571339
1.004632376
1.002872187
1.00407582
1.00209932
0.9963505175
0.9913239926
0.9917409303
0.9958694009
1.00181418
1.003975872
1.003526557
0.1871071366
0.5554730853
0.8496952019
0.9847041325
0.9985405106
0.9645622315
0.9830413903
0.9810234459
0.9899476001
0.9891902123
0.9909755381
0.9946968363
0.9926587894
0.989570815
0.9904094639
0.9941439607
0.9987747434
0.999813376
0.9984448824
0.9971181068
0.9997615349
1.006564111
1.008887422
1.007019257
1.00256379
1.002085118
1.004811226
1.003441406
0.9978259659
0.9912899224
0.9920680429
0.9963263663
1.00159329
1.002255229
1.001712557
0.1886760606
0.2586979297
0.7464995688
0.9325996939
0.9992233229
0.9721070054
0.9804352024
0.9829351467
0.9931701351
0.9900105272
0.9866603074
0.9916580236
0.9938117667
0.9915578803
0.9897830996
0.9905379477
0.9945609677
0.9970336184
0.9975095715
0.997186013
0.9987552249
1.003180424
1.004989831
1.002685962
0.9991124927
0.9992928265
1.003938114
1.00418659
1.000228996
0.9947158793
0.9951994134
0.9981930244
1.000635115
1.000327805
0.9997994052
0.1895123967
0.1911528743
0.5606268665
0.8550439791
0.9927526675
0.9899737345
0.9774387836
0.9876121949
0.9899437189
0.9863249427
0.9809738525
0.9870320949
0.9920619727
0.9918588507
0.990154365
0.9889318999
0.9894580553
0.9919027854
0.9945477162
0.9958748922
0.9972171913
0.9992499774
1.000596072
0.9984912219
0.9958973618
0.9967880572
1.003087096
1.005311412
1.003362566
1.000016767
0.9989488341
1.000153696
0.9998160306
0.9987149972
0.9983614624
0.1913353497
0.2667352506
0.7655643352
0.9549930855
0.9998757821
0.9681543229
0.9901240491
0.9827601556
0.9830117005
0.9783614517
)
;

boundaryField
{
    inlet
    {
        type            fixedValue;
        value           nonuniform 0();
    }
    outlet
    {
        type            zeroGradient;
    }
    bottom
    {
        type            slip;
    }
    top
    {
        type            slip;
    }
    obstacle
    {
        type            zeroGradient;
    }
    defaultFaces
    {
        type            empty;
    }
    procBoundary22to15
    {
        type            processor;
        value           uniform 0.9486866705;
    }
    procBoundary22to16
    {
        type            processor;
        value           nonuniform List<scalar> 
39
(
0.991334594
0.9935782066
0.9957810644
0.9980928941
0.9989487406
1.000515512
1.003132295
1.005897103
1.008417867
1.008964964
1.008570678
1.007759238
1.007480067
1.004457717
0.9493133782
0.9618894986
0.9708689918
0.9711322292
0.9710447884
0.9736512791
0.9744035207
0.9746727907
0.9781186155
0.9797566413
0.9774473896
0.9788312608
0.9835689734
0.9908192303
0.9917111838
0.9887520017
0.9889067907
0.9927169685
0.9922620852
0.9877924263
0.9867662994
0.9904702595
0.9930095935
0.9898877452
0.9898877452
)
;
    }
    procBoundary22to17
    {
        type            processor;