/*--------------------------------*- C++ -*----------------------------------*\
  =========                 |
  \\      /  F ield         | OpenFOAM: The Open Source CFD Toolbox
   \\    /   O peration     | Website:  https://openfoam.org
    \\  /    A nd           | Version:  7
     \\/     M anipulation  |
\*---------------------------------------------------------------------------*/
FoamFile
{
    version     2.0;
    format      ascii;
    class       volScalarField;
    location    "2.5";
    object      p;
}
// * * * * * * * * * * * * * * * * * * * * * * * * * * * * * * * * * * * * * //

dimensions      [1 -1 -2 0 0 0 0];

internalField   nonuniform List<scalar> 
555
(
0.9932904385
0.9936717885
0.9966496455
1.002956216
0.9946460811
0.98683031
0.9883421253
0.9984069086
1.00366809
0.6780426757
0.9561562423
0.9817809724
0.9904404039
0.9928001295
1.001329419
1.001787418
0.9930986304
0.9863286614
0.9872475993
0.9964322186
1.002011771
0.6765093323
0.9237835657
0.9641243162
0.9911239886
1.00040196
1.000818007
0.996949956
0.9900927306
0.986383352
0.9880143623
0.9941154652
0.9987325825
0.6576081712
0.8918500231
0.9362562721
0.9895929755
1.003576653
0.9991704749
0.9935226601
0.9877732281
0.9868660978
0.9894513809
0.9914948259
0.9962286728
0.6428235648
0.8539341767
0.9263984235
0.9817698372
0.9992012453
0.9976481887
0.9921936371
0.9918316126
0.9895374083
0.988967463
0.989492343
0.9957937773
0.6302370005
0.7901955139
0.9090771449
0.968659491
0.9916960548
0.9925805808
0.9958224195
0.9986918097
0.9906970462
0.987449196
0.9878494717
0.9986209124
0.6109511982
0.7097795724
0.8423541954
0.9406433526
0.9868161559
0.9916664114
1.000769115
1.001457016
0.9907111264
0.9863420681
0.989270059
0.9993283512
1.001481053
0.5979226379
0.6684976698
0.7787413853
0.9058003117
0.9802764982
0.9966260312
1.003080863
1.000133606
0.9892842409
0.9859037662
0.9918778691
0.9977761425
1.000910179
0.5959659886
0.6487661863
0.7577912354
0.8917042318
0.978675127
0.9996681605
1.003339211
0.9958138371
0.9884191987
0.9870834478
0.9923629739
0.9940299721
0.9993057513
0.5857432821
0.6279937625
0.7327046895
0.8838725187
0.9741656312
0.9980033781
0.9971745361
0.9942308241
0.9901179525
0.988784395
0.9904685787
0.9894161512
0.9974232548
0.5760513282
0.6083624027
0.6809255157
0.8324715336
0.9495140073
0.9882082298
0.9921736268
0.9948348972
0.9943322885
0.9892826457
0.9856456508
0.9885562922
0.9976291351
0.5732023875
0.5978971314
0.6430652999
0.7552307503
0.894479844
0.9680583118
0.9900095647
0.9995439119
0.9966585625
0.9893328622
0.9842678846
0.9900174509
0.998284568
0.5663863813
0.5914219876
0.6268294753
0.7112344284
0.8468984939
0.9510253249
0.9929142913
1.001986239
0.996947839
0.9867019551
0.984296956
0.9923047408
0.9982739565
0.9981976799
0.55954565
0.5829577866
0.6124909035
0.6932187623
0.8302708049
0.9468757147
0.9946835908
1.003479553
0.9942602172
0.9870036715
0.9866638452
0.9930471251
0.9972980686
0.9969783503
0.5576704797
0.5760463017
0.5948602563
0.6614663195
0.8009693357
0.9354491392
0.9923620706
1.000261572
0.9912181908
0.9880421014
0.9890034214
0.9925850701
0.9940686423
0.9959321657
0.5561272367
0.5729571971
0.5850449261
0.6256637501
0.7449113576
0.9028223541
0.9773687446
0.9931518758
0.9914288456
0.9912333984
0.9902869755
0.9886460581
0.9927038894
0.9960857179
0.5537061062
0.5702448933
0.5804741665
0.6100313932
0.6979121471
0.8429286526
0.9473933816
0.9893672554
0.9934425347
0.9929777899
0.9887944326
0.985704765
0.9934087695
0.9973821059
0.5496386639
0.5656138573
0.5745057383
0.5994042806
0.6684494307
0.7949080123
0.9221926565
0.9878783269
0.9973953268
0.9942392305
0.9857624576
0.9851408241
0.9949985011
0.9984697436
0.5433210124
0.5620807959
0.568110744
0.5838882209
0.642125034
0.7669668431
0.9035753261
0.9851117652
0.9997627954
0.9915081876
0.9846905101
0.9863612057
0.9958973594
0.997947774
0.5387003419
0.5595405202
0.5659035268
0.5738711618
0.6144246731
0.7234462734
0.8741399357
0.9790133087
0.9980358611
0.9887862888
0.9859140006
0.9884321836
0.9949790084
0.9961536464
0.9919295835
0.5360570616
0.5567057789
0.5642096252
0.5690674823
0.5982808718
0.6800568585
0.82976077
0.960314141
0.9902782874
0.9881795173
0.9886844697
0.9895623222
0.9922276298
0.9945996541
0.9914288599
0.5334438067
0.5538229806
0.5610957463
0.5642372671
0.5875291292
0.6558767632
0.7922864117
0.9327702312
0.9836963487
0.9892342807
0.9900016574
0.987995781
0.9901869647
0.9940594912
0.9915226638
0.5303234835
0.5515111722
0.5595913209
0.5596897375
0.574334291
0.6319641888
0.7566717267
0.9083938112
0.9796733907
0.9909964012
0.9893063573
0.9854832363
0.9904238889
0.995696433
0.993378493
0.5272149584
0.5488917204
0.5601529931
0.5572336881
0.5647819806
0.6047690172
0.7122127047
0.8678222649
0.9705975923
0.9917965685
0.9879062405
0.9847256072
0.9922097634
0.997387559
0.9951444047
0.5243957973
0.5453353411
0.5598721716
0.5562366505
0.5599697361
0.5877370611
0.6654404419
0.814214546
0.9490147206
0.9906604228
0.9868802818
0.9851106356
0.9936640527
0.9975296673
0.9955843412
0.5220198305
0.5415839031
0.5584353542
0.5534326791
0.5544896283
0.5802822429
0.6429248199
0.7747544413
0.9167685207
0.9806971783
0.9862362215
0.9858643181
0.9938255296
0.9950443826
0.9942809541
0.5199705178
0.5377974974
0.5570887907
0.5517565184
0.5506951142
0.5697165481
0.6291182332
0.7545947175
0.8979632049
0.9756737475
0.9871767373
0.985264353
0.9911399294
0.9934589979
0.9932263154
0.9835761789
0.5182361941
0.5338907643
0.5563744378
0.5517527977
0.5481026703
0.5585864463
0.6026661677
0.7238841942
0.8861273928
0.9756789931
0.9884335094
0.9856702231
0.9884705768
0.9941226577
0.9941491663
0.9838888781
0.5169460784
0.5297302237
0.5550546541
0.5503383909
0.5460664695
0.5538834601
0.5814766209
0.6723698432
0.8396129472
0.9596040386
0.9857953045
0.9856864477
0.9877259351
0.9955839409
0.9958425866
0.984593605
0.516209125
0.5254344385
0.5528147451
0.5525332973
0.5440254313
0.5514693227
0.573120814
0.6368956954
0.7725749476
0.918782978
0.9783809387
0.9819674267
0.9889643401
0.9971462182
0.9971509344
0.9856696881
0.5158980906
0.5214637184
0.549361061
0.5549392356
0.5429943814
0.5489624102
0.5683549335
0.6208717714
0.7311707359
0.8774434344
0.9662705679
0.9795647943
0.9896002019
0.9960719531
0.9979538574
0.9864877335
0.515038877
0.5180150415
0.5459339474
0.5570227717
0.5423839602
0.544782021
0.5583827442
0.6031510451
0.7098440471
0.8606221139
0.9583448211
0.9794090965
0.9888700013
0.9932187178
0.9974867218
0.9858432348
0.5152021757
0.5150047426
0.5420990448
0.5578087892
0.542040804
0.5411190102
0.5511075575
0.5828816931
0.6796989184
0.8463892416
0.9594175819
0.9826761878
0.9878102844
0.9917510299
0.9961990035
0.9840116855
0.5151044271
0.512545831
0.5388742667
0.5580492219
0.5424809949
0.5394096392
0.5485249575
0.573578843
0.6412052361
0.7967581363
0.9432985194
0.9806013448
0.9855038437
0.9922246394
0.9971217782
0.9846720694
0.5150620589
0.5103202091
0.5354743367
0.5579033886
0.5440666578
0.5392112994
0.545948428
0.5673730712
0.6171474681
0.7361351473
0.8951341722
0.967988798
0.9816318603
0.9944879262
0.998543334
0.9858689822
0.9769628157
0.5170875321
0.5081321698
0.5320057157
0.5573360512
0.5449024312
0.5385003303
0.543139828
0.5570067998
0.6006440465
0.7031247721
0.8466936816
0.9449360276
0.9800349294
0.9957455335
1.000055702
0.9875175797
0.9769567239
0.5187171593
0.5063940421
0.528513774
0.5563646256
0.5456356083
0.5368897004
0.5395885625
0.5503951066
0.5840464006
0.6843138895
0.8227762226
0.9309885108
0.9811091773
0.9941986753
1.000534904
0.9881206779
0.9762549316
0.5208367587
0.5051060162
0.525160797
0.5550907717
0.5465098879
0.535975473
0.5386024587
0.5486116485
0.5730753429
0.6486927386
0.8028773882
0.9343573678
0.9821567677
0.9890523475
1.000298509
0.9892019458
0.9743504862
0.5234519455
0.50406122
0.521604351
0.5534532719
0.5477728332
0.5362867711
0.5385406005
0.5472993469
0.5644470427
)
;

boundaryField
{
    inlet
    {
        type            fixedValue;
        value           nonuniform 0();
    }
    outlet
    {
        type            zeroGradient;
    }
    bottom
    {
        type            slip;
    }
    top
    {
        type            slip;
    }
    obstacle
    {
        type            zeroGradient;
    }
    defaultFaces
    {
        type            empty;
    }
    procBoundary21to15
    {
        type            processor;
        value           nonuniform List<scalar> 
13
(
1.00066435
1.002600142
0.9985986087
0.9957118634
0.9903275701
0.9871476204
0.992637641
0.9970395848
1.001492379
0.7093280505
1.028722027
0.986040215
0.986040215
)
;
    }
    procBoundary21to22
    {
        type            processor;
        value           nonuniform List<scalar> 
35
(
1.001772496
1.001385753
1.000494393
0.9999892849
1.001586791
1.001949264
1.001949264
0.9970498422
0.9982610085
0.9989794129
0.9992701637
0.9988473133
0.9985014965
0.9985014965
0.9917515774
0.9915422429
0.991936779
0.9932827433
0.994219244
0.9943159771
0.9931247944
0.9931247944
0.9862016661
0.9858340884
0.9859687876
0.9874600396
0.9886542618
0.9884660173
0.9860034994
0.9860034994
0.9832617885
0.9829272235
0.9832957035
0.9844597348
0.9844734547
)
;
    }
    procBoundary21to27
    {
        type            processor;
        value           nonuniform List<scalar> 
18
(
0.6180410719
0.7615773118
0.9199291604
0.9801559635
0.9856259383
1.000223934
0.9915394215
0.9727502072
0.5264330237
0.5037822041
0.5181411398
0.5516073832
0.5494266559
0.5363816687
0.5367249452
0.5432891659
0.6180410719
0.5561764051
)
;
    }
    procBoundary21to28
    {
        type            processor;
        value           nonuniform List<scalar> 8(0.981886919 0.9786959086 0.9773498648 0.9773498648 0.9950890638 0.9957329603 0.9952012563 0.9927478962);
    }
}


// ************************************************************************* //
