/*--------------------------------*- C++ -*----------------------------------*\
  =========                 |
  \\      /  F ield         | OpenFOAM: The Open Source CFD Toolbox
   \\    /   O peration     | Website:  https://openfoam.org
    \\  /    A nd           | Version:  7
     \\/     M anipulation  |
\*---------------------------------------------------------------------------*/
FoamFile
{
    version     2.0;
    format      ascii;
    class       volScalarField;
    location    "2.5";
    object      T;
}
// * * * * * * * * * * * * * * * * * * * * * * * * * * * * * * * * * * * * * //

dimensions      [0 0 0 1 0 0 0];

internalField   nonuniform List<scalar> 
555
(
1.125929364
1.123886814
1.122982252
1.123285099
1.11919469
1.114625562
1.113845647
1.11588119
1.116515596
1.004338215
1.114447429
1.119621189
1.119985409
1.119761647
1.121596348
1.120784472
1.116884032
1.113190068
1.112117023
1.114252513
1.115030882
0.985382287
1.082263263
1.101047841
1.110377704
1.114270146
1.115005688
1.1141297
1.111725768
1.109730652
1.109375867
1.11064206
1.111394244
0.9666764241
1.056530781
1.077975917
1.098233521
1.104846246
1.105367903
1.104857536
1.10392972
1.103859332
1.104417744
1.104769018
1.105949203
0.9574507104
1.036746713
1.065789658
1.08637751
1.093763663
1.095312739
1.095048346
1.09644591
1.096758251
1.096930565
1.097223199
1.099264561
0.9514168476
1.012618863
1.056491782
1.076705801
1.084251396
1.085346123
1.087539145
1.089833701
1.088580698
1.088404027
1.088866538
1.092487175
0.9420358375
0.9812329376
1.032995532
1.064812882
1.077970465
1.078724498
1.081812532
1.082954972
1.080698028
1.080266499
1.081511013
1.084813157
1.085648282
0.9351406678
0.9630836005
1.008083002
1.051244621
1.072274968
1.075048159
1.076430931
1.07592248
1.073330621
1.073042251
1.075064983
1.076839911
1.077772223
0.933401389
0.9536289123
0.9965431837
1.043140317
1.068153541
1.071131518
1.07106676
1.06872347
1.066827109
1.066966967
1.068560234
1.068780301
1.070095745
0.928446578
0.9439734003
0.9825922164
1.03488689
1.062077984
1.065996637
1.063795449
1.062518455
1.061413322
1.061342897
1.061690605
1.060949817
1.062844055
0.9238680467
0.934942449
0.9590265063
1.011051249
1.048027479
1.057640806
1.056396354
1.056692203
1.056570149
1.055266862
1.054011608
1.054448173
1.056491864
0.9224183145
0.9299055458
0.9413277899
0.9778267855
1.023222318
1.044918546
1.049263439
1.051461502
1.050657393
1.048755395
1.047220076
1.048530856
1.050271535
0.9191540672
0.926529299
0.9328050048
0.9568568588
1.000172528
1.032192655
1.043031387
1.044891138
1.04355383
1.040984881
1.040483718
1.042572711
1.043661027
1.04303131
0.9159845634
0.9222666928
0.9253059391
0.9465123419
0.9881934398
1.02354512
1.036200544
1.037524792
1.035126353
1.033651114
1.034064627
1.035826878
1.036540635
1.035831052
0.9152382172
0.9188754051
0.9166736989
0.931458183
0.9723502578
1.012870186
1.028785239
1.028948497
1.026539599
1.026376856
1.027342736
1.028564316
1.02859423
1.028571168
0.91475469
0.9174552574
0.9114275301
0.914553531
0.9477422185
0.9956818592
1.017249713
1.019811243
1.019206983
1.01984814
1.020329847
1.020257398
1.021215064
1.021683759
0.914175691
0.9165911415
0.9082911052
0.9055105993
0.926859274
0.9704449692
1.001248715
1.012223757
1.013009928
1.013276743
1.012837541
1.012495443
1.014598756
1.01526363
0.9130078359
0.9150537302
0.9047037198
0.8987541156
0.9123546364
0.9490052877
0.9877444894
1.006012578
1.00796063
1.007181426
1.005433396
1.0058338
1.008561884
1.009071353
0.9108267007
0.9142350788
0.9016262042
0.8904299206
0.8991138815
0.9344180297
0.9767352594
1.000232896
1.003029305
1.000713186
0.9992197836
1.000184918
1.00283117
1.002883443
0.9097834035
0.9139477798
0.9008482645
0.8846776122
0.8853775116
0.9149719602
0.9625755125
0.9940965706
0.9979408563
0.9950011784
0.9943614759
0.9954083406
0.9971984776
0.9969844498
0.9957020318
0.9097981057
0.9135680029
0.9005644795
0.8813000844
0.8763610971
0.8962771148
0.9438596411
0.9837690246
0.9916277629
0.9905038886
0.9906281388
0.9910674099
0.9917849569
0.9919922112
0.9910106603
0.909810874
0.9132559425
0.8997897481
0.8783035174
0.8700551605
0.8851772984
0.9278073576
0.9707710866
0.9857512478
0.9870864618
0.9871906236
0.9867917369
0.987473132
0.988315733
0.987542906
0.9095963002
0.9132055803
0.8996734279
0.8760448473
0.8631839195
0.8741480507
0.9124626778
0.9598613458
0.9812543802
0.9844998112
0.9840196816
0.9831732817
0.9847734718
0.986292634
0.985677779
0.9094130969
0.9130568166
0.9009337444
0.8752513373
0.8581323839
0.86184355
0.8942167203
0.944613652
0.9762221867
0.9823801071
0.9815694947
0.9809882819
0.9834043797
0.9852592036
0.9847915753
0.9093568593
0.912492994
0.9017798162
0.875283369
0.8551796337
0.8534983251
0.8755445044
0.9255707529
0.9682632014
0.9805952459
0.9799006307
0.9799629282
0.9827918481
0.9844423845
0.9841678928
0.9095285794
0.9118660702
0.9020431886
0.8744943341
0.8519285817
0.8492104643
0.8663552706
0.9112588238
0.9574186751
0.9767156268
0.9791295798
0.9797120501
0.9824009719
0.9834180662
0.9835130946
0.9098906691
0.9112540779
0.9022287187
0.8740618971
0.8496346875
0.843891485
0.8605934245
0.9036470684
0.9510378055
0.9748782851
0.9796341917
0.9795075048
0.9816479456
0.9830103388
0.9832597992
0.9808207743
0.9102450974
0.9105238742
0.9025729966
0.8743136628
0.8480482622
0.8385462378
0.8498397661
0.8923181073
0.9472440212
0.9754053838
0.9805393503
0.980126401
0.981340745
0.983447218
0.9838212581
0.9811331281
0.9104458315
0.9094867794
0.902529078
0.8737519759
0.846872669
0.8361144592
0.8409308663
0.8732170089
0.9328313958
0.9719210446
0.9806627457
0.9811889733
0.9819595419
0.9845852101
0.9850592025
0.9819565894
0.9104950724
0.9081167107
0.90179524
0.8746464494
0.8459037731
0.8347193561
0.8371773533
0.8595643727
0.9110344666
0.9614826334
0.9799930489
0.981598841
0.9836701277
0.9861855563
0.9866314448
0.9833825367
0.910497216
0.9065202158
0.9000852215
0.8755117136
0.8454942802
0.8332378062
0.8348901763
0.8533785588
0.8970562338
0.9504871154
0.9786298145
0.9828734163
0.9856840227
0.9875474252
0.9886003002
0.9853438439
0.9097372645
0.9047299748
0.8980997139
0.8761093246
0.8452384228
0.8310272909
0.8304722754
0.8465957893
0.8899555481
0.9465811405
0.9786329027
0.9852390856
0.9876803342
0.9889889333
0.9907459743
0.9874513652
0.9091036269
0.9027473182
0.8957604583
0.8761727721
0.8450955826
0.8289969449
0.8272548353
0.838846696
0.8796043092
0.9431737835
0.9811204371
0.9887742408
0.9898982291
0.9911486229
0.9929757093
0.9895393744
0.9081351171
0.9007530564
0.8935538066
0.8758945744
0.8451649923
0.8278419511
0.8261387901
0.8354886985
0.8657027668
0.9280150586
0.9788706264
0.9903391555
0.9918725978
0.993980971
0.9959387941
0.9924438409
0.9074473329
0.8987677135
0.8911591644
0.8752964014
0.8454458704
0.8274457487
0.8250491724
0.8333300026
0.8568817922
0.907816944
0.9664961631
0.9888618389
0.9933206446
0.9973264899
0.9989988952
0.9954321912
0.9926232996
0.9076724342
0.896822088
0.8887301611
0.8743984381
0.8452729395
0.8268316985
0.8239087543
0.8293368122
0.8508662033
0.8964123175
0.9523575343
0.9847119092
0.9952923389
1.000274896
1.001854468
0.99830126
0.9950736042
0.9077349974
0.8952409627
0.8864595576
0.8733267632
0.8448719052
0.8257267037
0.8223191665
0.8268746541
0.8447403242
0.8899465047
0.9450898507
0.9826464226
0.9978789947
1.001976916
1.004085675
1.000541048
0.9969827625
0.9084511776
0.8940710992
0.8844340426
0.8721062384
0.8442521693
0.8247659261
0.8216500221
0.8264151339
0.8408464929
0.8770991395
0.9388538732
0.9850056861
1.000108494
1.002231443
1.005735866
1.00248284
0.9981294574
0.9096203385
0.8931949761
0.8824622
0.8706976278
0.8435135744
0.8241666874
0.8213444578
0.826155666
0.8378229775
)
;

boundaryField
{
    inlet
    {
        type            fixedValue;
        value           nonuniform 0();
    }
    outlet
    {
        type            inletOutlet;
        inletValue      nonuniform 0();
        value           nonuniform 0();
    }
    bottom
    {
        type            slip;
    }
    top
    {
        type            slip;
    }
    obstacle
    {
        type            zeroGradient;
    }
    defaultFaces
    {
        type            empty;
    }
    procBoundary21to15
    {
        type            processor;
        value           nonuniform List<scalar> 
13
(
1.128510121
1.126582331
1.123552993
1.120958317
1.117325045
1.114483081
1.115222497
1.115435285
1.115765669
1.028089515
1.150168384
1.127575189
1.127575189
)
;
    }
    procBoundary21to22
    {
        type            processor;
        value           nonuniform List<scalar> 
35
(
1.115433319
1.11431773
1.111504254
1.10694164
1.101168629
1.093737496
1.093737496
1.084566896
1.077170148
1.070075651
1.063278755
1.056506922
1.049816127
1.049816127
1.041038413
1.034134714
1.02734327
1.020839441
1.014333028
1.007864339
1.001466352
1.001466352
0.9942051811
0.9895394365
0.9861320379
0.9842437681
0.9832822023
0.9825323134
0.9815273611
0.9815273611
0.9809663872
0.9811083523
0.9817929308
0.9831522896
0.984677535
)
;
    }
    procBoundary21to27
    {
        type            processor;
        value           nonuniform List<scalar> 
18
(
0.8656398682
0.9250808981
0.982013503
1.000970511
1.002676281
1.007034562
1.004451623
0.998955073
0.9109914382
0.8928555466
0.8806492023
0.869187843
0.8427314883
0.823301164
0.8202679198
0.8246482889
0.8656398682
0.8349074332
)
;
    }
    procBoundary21to28
    {
        type            processor;
        value           nonuniform List<scalar> 8(0.9860315856 0.9876770076 0.9900451683 0.9900451683 0.9979352485 1.000619777 1.002605175 1.003600995);
    }
}


// ************************************************************************* //
