/*--------------------------------*- C++ -*----------------------------------*\
  =========                 |
  \\      /  F ield         | OpenFOAM: The Open Source CFD Toolbox
   \\    /   O peration     | Website:  https://openfoam.org
    \\  /    A nd           | Version:  7
     \\/     M anipulation  |
\*---------------------------------------------------------------------------*/
FoamFile
{
    version     2.0;
    format      ascii;
    class       volScalarField;
    location    "1.6";
    object      rho;
}
// * * * * * * * * * * * * * * * * * * * * * * * * * * * * * * * * * * * * * //

dimensions      [1 -3 0 0 0 0 0];

internalField   nonuniform List<scalar> 
2222
(
1.40000504
1.40000504
1.40000504
1.40000504
1.40000504
1.40000504
1.40000504
1.40000504
1.40000504
1.40000504
1.40000504
1.40000504
1.40000504
1.40000504
1.40000504
1.40000504
1.40000504
1.40000504
1.40000504
1.40000504
1.40000504
1.40000504
1.40000504
1.40000504
1.40000504
1.40000504
1.40000504
1.40000504
1.40000504
1.40000504
1.40000504
1.40000504
1.40000504
1.40000504
1.40000504
1.40000504
1.40000504
1.40000504
1.40000504
1.40000504
1.40000504
1.40000504
1.40000504
1.40000504
1.40000504
1.40000504
1.40000504
1.40000504
1.40000504
1.40000504
1.40000504
1.40000504
1.40000504
1.40000504
1.40000504
1.40000504
1.40000504
1.40000504
1.40000504
1.40000504
1.40000504
1.40000504
1.40000504
1.40000504
1.40000504
1.40000504
1.40000504
1.40000504
1.40000504
1.40000504
1.40000504
1.40000504
1.40000504
1.40000504
1.40000504
1.40000504
1.40000504
1.40000504
1.40000504
1.40000504
1.40000504
1.40000504
1.40000504
1.40000504
1.40000504
1.40000504
1.40000504
1.40000504
1.40000504
1.40000504
1.40000504
1.40000504
1.40000504
1.40000504
1.40000504
1.40000504
1.40000504
1.40000504
1.40000504
1.40000504
1.40000504
1.40000504
1.40000504
1.40000504
1.40000504
1.40000504
1.40000504
1.40000504
1.40000504
1.40000504
1.40000504
1.40000504
1.40000504
1.40000504
1.40000504
1.40000504
1.40000504
1.40000504
1.40000504
1.40000504
1.40000504
1.40000504
1.40000504
1.40000504
1.40000504
1.40000504
1.40000504
1.40000504
1.40000504
1.40000504
1.40000504
1.40000504
1.40000504
1.40000504
1.40000504
1.40000504
1.40000504
1.40000504
1.40000504
1.40000504
1.40000504
1.40000504
1.40000504
1.40000504
1.40000504
1.40000504
1.40000504
1.40000504
1.40000504
1.40000504
1.40000504
1.40000504
1.40000504
1.40000504
1.40000504
1.40000504
1.40000504
1.40000504
1.40000504
1.40000504
1.40000504
1.40000504
1.40000504
1.40000504
1.40000504
1.40000504
1.40000504
1.40000504
1.40000504
1.40000504
1.40000504
1.40000504
1.40000504
1.40000504
1.40000504
1.40000504
1.40000504
1.40000504
1.40000504
1.40000504
1.40000504
1.40000504
1.40000504
1.40000504
1.40000504
1.40000504
1.40000504
1.40000504
1.40000504
1.40000504
1.40000504
1.40000504
1.40000504
1.40000504
1.40000504
1.40000504
1.40000504
1.40000504
1.40000504
1.40000504
1.40000504
1.40000504
1.40000504
1.40000504
1.40000504
1.40000504
1.40000504
1.40000504
1.40000504
1.40000504
1.40000504
1.40000504
1.40000504
1.40000504
1.40000504
1.40000504
1.40000504
1.40000504
1.40000504
1.40000504
1.40000504
1.40000504
1.40000504
1.40000504
1.40000504
1.40000504
1.40000504
1.40000504
1.40000504
1.40000504
1.40000504
1.40000504
1.40000504
1.40000504
1.40000504
1.40000504
1.40000504
1.40000504
1.40000504
1.40000504
1.40000504
1.40000504
1.40000504
1.40000504
1.40000504
1.40000504
1.40000504
1.40000504
1.40000504
1.40000504
1.40000504
1.40000504
1.40000504
1.40000504
1.40000504
1.40000504
1.40000504
1.40000504
1.40000504
1.40000504
1.40000504
1.40000504
1.40000504
1.40000504
1.40000504
1.40000504
1.40000504
1.40000504
1.40000504
1.40000504
1.40000504
1.40000504
1.40000504
1.40000504
1.40000504
1.40000504
1.40000504
1.40000504
1.40000504
1.40000504
1.40000504
1.40000504
1.40000504
1.40000504
1.40000504
1.40000504
1.40000504
1.40000504
1.40000504
1.40000504
1.40000504
1.40000504
1.40000504
1.40000504
1.40000504
1.40000504
1.40000504
1.40000504
1.40000504
1.40000504
1.40000504
1.40000504
1.40000504
1.40000504
1.40000504
1.40000504
1.40000504
1.40000504
1.40000504
1.40000504
1.40000504
1.40000504
1.40000504
1.40000504
1.40000504
1.40000504
1.40000504
1.40000504
1.40000504
1.40000504
1.40000504
1.40000504
1.40000504
1.40000504
1.40000504
1.40000504
1.40000504
1.40000504
1.40000504
1.40000504
1.40000504
1.40000504
1.40000504
1.40000504
1.40000504
1.40000504
1.40000504
1.40000504
1.40000504
1.40000504
1.40000504
1.40000504
1.40000504
1.40000504
1.40000504
1.40000504
1.40000504
1.40000504
1.40000504
1.40000504
1.40000504
1.40000504
1.40000504
1.40000504
1.40000504
1.40000504
1.40000504
1.40000504
1.40000504
1.40000504
1.40000504
1.40000504
1.40000504
1.40000504
1.40000504
1.40000504
1.40000504
1.40000504
1.40000504
1.40000504
1.40000504
1.40000504
1.40000504
1.40000504
1.40000504
1.40000504
1.40000504
1.40000504
1.40000504
1.40000504
1.40000504
1.40000504
1.40000504
1.40000504
1.40000504
1.40000504
1.40000504
1.40000504
1.40000504
1.40000504
1.40000504
1.40000504
1.40000504
1.40000504
1.40000504
1.40000504
1.40000504
1.40000504
1.40000504
1.40000504
1.40000504
1.40000504
1.40000504
1.40000504
1.40000504
1.40000504
1.40000504
1.40000504
1.40000504
1.40000504
1.40000504
1.40000504
1.40000504
1.40000504
1.40000504
1.40000504
1.40000504
1.40000504
1.40000504
1.40000504
1.40000504
1.40000504
1.40000504
1.40000504
1.40000504
1.40000504
1.40000504
1.40000504
1.40000504
1.40000504
1.40000504
1.40000504
1.40000504
1.40000504
1.40000504
1.40000504
1.40000504
1.40000504
1.40000504
1.40000504
1.40000504
1.40000504
1.40000504
1.40000504
1.40000504
1.40000504
1.40000504
1.40000504
1.40000504
1.40000504
1.40000504
1.40000504
1.40000504
1.40000504
1.40000504
1.40000504
1.40000504
1.40000504
1.40000504
1.40000504
1.40000504
1.40000504
1.40000504
1.40000504
1.40000504
1.40000504
1.40000504
1.40000504
1.40000504
1.40000504
1.40000504
1.40000504
1.40000504
1.40000504
1.40000504
1.40000504
1.40000504
1.40000504
1.40000504
1.40000504
1.40000504
1.40000504
1.40000504
1.40000504
1.40000504
1.40000504
1.40000504
1.40000504
1.40000504
1.40000504
1.40000504
1.40000504
1.40000504
1.40000504
1.40000504
1.40000504
1.40000504
1.40000504
1.40000504
1.40000504
1.40000504
1.40000504
1.40000504
1.40000504
1.40000504
1.40000504
1.40000504
1.40000504
1.40000504
1.40000504
1.40000504
1.400005041
1.400005032
1.40000504
1.40000504
1.40000504
1.40000504
1.40000504
1.40000504
1.40000504
1.40000504
1.40000504
1.40000504
1.40000504
1.40000504
1.40000504
1.40000504
1.40000504
1.40000504
1.40000504
1.40000504
1.40000504
1.40000504
1.40000504
1.40000504
1.40000504
1.40000504
1.40000504
1.40000504
1.40000504
1.40000504
1.40000504
1.40000504
1.40000504
1.40000504
1.40000504
1.40000504
1.40000504
1.40000504
1.40000504
1.40000504
1.40000504
1.40000504
1.40000504
1.40000504
1.40000504
1.40000504
1.40000504
1.40000504
1.40000504
1.40000504
1.40000504
1.40000504
1.40000504
1.40000504
1.40000504
1.40000504
1.40000504
1.40000504
1.40000504
1.40000504
1.40000504
1.40000504
1.40000504
1.40000504
1.40000504
1.400005042
1.400005049
1.400005323
1.400004984
1.40000504
1.40000504
1.40000504
1.40000504
1.40000504
1.40000504
1.40000504
1.40000504
1.40000504
1.40000504
1.40000504
1.40000504
1.40000504
1.40000504
1.40000504
1.40000504
1.40000504
1.40000504
1.40000504
1.40000504
1.40000504
1.40000504
1.40000504
1.40000504
1.40000504
1.40000504
1.40000504
1.40000504
1.40000504
1.40000504
1.40000504
1.40000504
1.40000504
1.40000504
1.40000504
1.40000504
1.40000504
1.40000504
1.40000504
1.40000504
1.40000504
1.40000504
1.40000504
1.40000504
1.40000504
1.40000504
1.40000504
1.40000504
1.40000504
1.40000504
1.40000504
1.40000504
1.40000504
1.40000504
1.40000504
1.40000504
1.40000504
1.40000504
1.400005041
1.400005043
1.400005061
1.400005149
1.400005606
1.400007374
1.400014176
1.400060178
1.400026914
1.40000504
1.40000504
1.40000504
1.40000504
1.40000504
1.40000504
1.40000504
1.40000504
1.40000504
1.40000504
1.40000504
1.40000504
1.40000504
1.40000504
1.40000504
1.40000504
1.40000504
1.40000504
1.40000504
1.40000504
1.40000504
1.40000504
1.40000504
1.40000504
1.40000504
1.40000504
1.40000504
1.40000504
1.40000504
1.40000504
1.40000504
1.40000504
1.40000504
1.40000504
1.40000504
1.40000504
1.40000504
1.40000504
1.40000504
1.40000504
1.40000504
1.40000504
1.40000504
1.40000504
1.40000504
1.40000504
1.40000504
1.40000504
1.40000504
1.40000504
1.40000504
1.40000504
1.40000504
1.40000504
1.400005041
1.400005047
1.400005078
1.40000524
1.400005984
1.400008937
1.400020034
1.400054282
1.400163582
1.400428626
1.40112543
1.402692779
1.404422135
1.40000504
1.40000504
1.40000504
1.40000504
1.40000504
1.40000504
1.40000504
1.40000504
1.40000504
1.40000504
1.40000504
1.40000504
1.40000504
1.40000504
1.40000504
1.40000504
1.40000504
1.40000504
1.40000504
1.40000504
1.40000504
1.40000504
1.40000504
1.40000504
1.40000504
1.40000504
1.40000504
1.40000504
1.40000504
1.40000504
1.40000504
1.40000504
1.40000504
1.40000504
1.40000504
1.40000504
1.40000504
1.40000504
1.40000504
1.40000504
1.40000504
1.40000504
1.40000504
1.40000504
1.40000504
1.40000504
1.40000504
1.40000504
1.40000504
1.40000504
1.400005042
1.400005053
1.400005112
1.4000054
1.400006661
1.400011507
1.400028598
1.400080968
1.400236095
1.400611117
1.401545689
1.40337411
1.407278949
1.413467979
1.42471034
1.440534935
1.459590822
1.40000504
1.40000504
1.40000504
1.40000504
1.40000504
1.40000504
1.40000504
1.40000504
1.40000504
1.40000504
1.40000504
1.40000504
1.40000504
1.40000504
1.40000504
1.40000504
1.40000504
1.40000504
1.40000504
1.40000504
1.40000504
1.40000504
1.40000504
1.40000504
1.40000504
1.40000504
1.40000504
1.40000504
1.40000504
1.40000504
1.40000504
1.40000504
1.40000504
1.40000504
1.40000504
1.40000504
1.40000504
1.40000504
1.40000504
1.40000504
1.40000504
1.40000504
1.40000504
1.40000504
1.40000504
1.400005041
1.400005044
1.400005065
1.400005177
1.400005695
1.400007824
1.400015867
1.40004249
1.400121647
1.400342723
1.40086864
1.40210865
1.404516746
1.409307775
1.416946959
1.430009871
1.447314507
1.473408353
1.502990523
1.538196243
1.57748862
1.61353797
1.40000504
1.40000504
1.40000504
1.40000504
1.40000504
1.40000504
1.40000504
1.40000504
1.40000504
1.40000504
1.40000504
1.40000504
1.40000504
1.40000504
1.40000504
1.40000504
1.40000504
1.40000504
1.40000504
1.40000504
1.40000504
1.40000504
1.40000504
1.40000504
1.40000504
1.40000504
1.40000504
1.40000504
1.40000504
1.40000504
1.40000504
1.40000504
1.40000504
1.40000504
1.40000504
1.40000504
1.40000504
1.40000504
1.40000504
1.40000504
1.40000504
1.400005042
1.400005049
1.400005091
1.4000053
1.400006228
1.400009895
1.400022758
1.400065305
1.40018381
1.400501233
1.401243844
1.402898696
1.405973363
1.411923793
1.421244946
1.436459734
1.456165028
1.484081603
1.516527655
1.553577842
1.593105495
1.633474008
1.669626881
1.701986791
1.736053866
1.756091331
1.40000504
1.40000504
1.40000504
1.40000504
1.40000504
1.40000504
1.40000504
1.40000504
1.40000504
1.40000504
1.40000504
1.40000504
1.40000504
1.40000504
1.40000504
1.40000504
1.40000504
1.40000504
1.40000504
1.40000504
1.40000504
1.40000504
1.40000504
1.40000504
1.40000504
1.40000504
1.40000504
1.40000504
1.40000504
1.40000504
1.40000504
1.40000504
1.40000504
1.40000504
1.40000504
1.40000504
1.400005041
1.400005043
1.400005058
1.400005141
1.400005532
1.400007184
1.400013542
1.400034579
1.400100023
1.400279939
1.400733657
1.401750568
1.403999494
1.407915797
1.415272239
1.426587343
1.44387335
1.466678399
1.496584584
1.529978081
1.56964442
1.611028747
1.647527858
1.680063037
1.71049471
1.743830658
1.759826053
1.77344161
1.784784686
1.795218151
1.798597421
1.40000504
1.40000504
1.40000504
1.40000504
1.40000504
1.40000504
1.40000504
1.40000504
1.40000504
1.40000504
1.40000504
1.40000504
1.40000504
1.40000504
1.40000504
1.40000504
1.40000504
1.40000504
1.40000504
1.40000504
1.40000504
1.40000504
1.40000504
1.40000504
1.40000504
1.40000504
1.40000504
1.40000504
1.40000504
1.40000504
1.40000504
1.40000504
1.400005041
1.400005047
1.400005078
1.400005241
1.400005975
1.400008891
1.400019532
1.400054502
1.400154339
1.400424813
1.401091042
1.402464112
1.405395983
1.410621195
1.419164884
1.433465408
1.452949424
1.47727202
1.511768805
1.547654558
1.584822819
1.626810558
1.664127872
1.700541217
1.730045434
1.754866537
1.772890751
1.792088301
1.807050388
1.815604517
1.818395473
1.822444004
1.82585317
1.827428962
1.827704084
1.40000504
1.40000504
1.40000504
1.40000504
1.40000504
1.40000504
1.40000504
1.40000504
1.40000504
1.40000504
1.40000504
1.40000504
1.40000504
1.40000504
1.40000504
1.40000504
1.40000504
1.40000504
1.40000504
1.40000504
1.40000504
1.40000504
1.40000504
1.40000504
1.40000504
1.40000504
1.40000504
1.400005041
1.400005042
1.400005054
1.40000512
1.400005435
1.400006798
1.400012052
1.400029886
1.400086123
1.400243078
1.400635519
1.40157933
1.40352547
1.40720237
1.414053473
1.424633273
1.440646085
1.464193513
1.490401732
1.525096671
1.567652982
1.601815526
1.641727553
1.679777289
1.707495529
1.738839026
1.760418502
1.77121963
1.785479123
1.796323456
1.799804604
1.804281788
1.809485854
1.814384565
1.818483133
1.822904342
1.827748776
1.830782728
1.831920952
1.832267543
1.40000504
1.40000504
1.40000504
1.40000504
1.40000504
1.40000504
1.40000504
1.40000504
1.40000504
1.40000504
1.40000504
1.40000504
1.40000504
1.40000504
1.40000504
1.40000504
1.40000504
1.40000504
1.40000504
1.40000504
1.40000504
1.40000504
1.40000504
1.400005041
1.400005045
1.400005071
1.400005206
1.400005821
1.400008296
1.40001752
1.400047866
1.400135815
1.400381638
1.400967941
1.402242853
1.404989298
1.409738695
1.4180297
1.431880205
1.449494427
1.475107304
1.508320778
1.541678036
1.582530113
1.622776796
1.659775204
1.700006784
1.728035912
1.749860981
1.777157233
1.793572239
1.804516792
1.816941124
1.821809431
1.822491051
1.825348544
1.829208295
1.829506707
1.828669928
1.827582023
1.826095414
1.823658126
1.822934197
1.823589279
1.824494849
1.825037881
1.826184795
1.40000504
1.40000504
1.40000504
1.40000504
1.40000504
1.40000504
1.40000504
1.40000504
1.40000504
1.40000504
1.40000504
1.40000504
1.40000504
1.40000504
1.40000504
1.40000504
1.40000504
1.40000504
1.40000504
1.400005042
1.400005052
1.400005107
1.400005374
1.400006558
1.400011146
1.400026948
1.400077611
1.400219577
1.400581461
1.401457485
1.403253905
1.406796082
1.413301825
1.423250072
1.43942565
1.461535085
1.487299257
1.524665972
1.563609995
1.598110253
1.640939417
1.676670105
1.708145965
1.740339063
1.756458074
1.77272646
1.789893975
1.794147588
1.800448347
1.808172013
1.810570524
1.814154377
1.820765563
1.825931405
1.8281771
1.830365095
1.833590433
1.833786084
1.833488105
1.832975751
1.832196325
1.830795064
1.828783173
1.827215401
1.825549401
1.824121711
1.824070944
1.40000504
1.40000504
1.40000504
1.40000504
1.40000504
1.40000504
1.40000504
1.40000504
1.40000504
1.40000504
1.40000504
1.40000504
1.40000504
1.40000504
1.400005041
1.400005044
1.400005066
1.400005183
1.400005721
1.400007933
1.40001629
1.400043646
1.400124581
1.400354504
1.400897596
1.402119937
1.404721848
1.409274201
1.417540582
1.430530783
1.448043869
1.474727776
1.505539272
1.539588276
1.582193415
1.620494477
1.6610167
1.699583943
1.725741788
1.752561336
1.779003042
1.794033821
1.807642929
1.819198624
1.821373949
1.824041982
1.829269998
1.830817879
1.831248076
1.830989797
1.829584178
1.827418912
1.825411614
1.824355154
1.82440668
1.824959526
1.825957895
1.826641274
1.827371547
1.827852613
1.827792656
1.827201737
1.82651816
1.826069094
1.825970049
1.825623361
1.825150394
1.40000504
1.40000504
1.40000504
1.40000504
1.40000504
1.40000504
1.40000504
1.40000504
1.40000504
1.40000504
1.400005042
1.40000505
1.400005099
1.40000534
1.40000641
1.400010564
1.400025143
1.400072283
1.400204556
1.400550707
1.401394877
1.403104074
1.406574648
1.412935039
1.422685603
1.438819793
1.460266972
1.486971413
1.524703184
1.561116192
1.598796904
1.641676613
1.676136771
1.713699107
1.740329207
1.756382756
1.777939958
1.790940243
1.795482694
1.804170548
1.810349432
1.812199519
1.816561396
1.823259478
1.826837645
1.829080803
1.832320089
1.835458666
1.835498911
1.835201234
1.834545489
1.833391388
1.83171435
1.829624262
1.827946304
1.826023833
1.82458726
1.824191119
1.823943544
1.823841
1.82362422
1.823451252
1.823525672
1.823847933
1.824577045
1.825241655
1.825269629
1.40000504
1.40000504
1.40000504
1.40000504
1.40000504
1.400005041
1.400005044
1.400005064
1.40000517
1.400005661
1.400007718
1.400015509
1.40004105
1.400119356
1.400339687
1.400857165
1.402063764
1.404595785
1.409010074
1.417370646
1.430273741
1.447662762
1.47471962
1.505362664
1.540204866
1.583158974
1.621982182
1.66382022
1.700344327
1.727371599
1.758196712
1.781270965
1.797152306
1.81292524
1.820639775
1.823230322
1.827981162
1.832989382
1.83325618
1.833418655
1.832957406
1.831329865
1.828840352
1.826713939
1.825505114
1.825532428
1.82626798
1.827003993
1.827675417
1.828243665
1.828105693
1.82745204
1.826894165
1.826625997
1.82624167
1.825909578
1.82551489
1.824982964
1.824404774
1.823925895
1.823461872
1.823221674
1.823229047
1.823343697
1.823713107
1.82423275
1.824506292
1.40000504
1.400005042
1.40000505
1.400005095
1.400005323
1.400006335
1.400010277
1.400024364
1.400069546
1.400197017
1.400540309
1.40135259
1.403033737
1.406566324
1.412772753
1.422654451
1.439098348
1.460040071
1.487770118
1.526415083
1.561361119
1.601135248
1.645783464
1.679538838
1.717122005
1.742816851
1.760266189
1.783290366
1.793723332
1.799624756
1.808765535
1.812369063
1.814678813
1.81995671
1.825842161
1.829216074
1.831478999
1.8351765
1.837969993
1.83773298
1.836960612
1.83576389
1.834472071
1.832892343
1.830846331
1.828990549
1.82664142
1.824893347
1.824044987
1.823491197
1.823074575
1.822889528
1.822889651
1.823106678
1.823556991
1.824132308
1.824652213
1.824732735
1.824642328
1.824507738
1.824276158
1.824179161
1.824214249
1.824373322
1.824670268
1.824925743
1.824952078
1.400005633
1.400007633
1.400015207
1.400040271
1.400119039
1.400333479
1.400847001
1.40207827
1.404526944
1.409070319
1.417681749
1.429966244
1.448419317
1.476046504
1.505792187
1.543473729
1.586444226
1.624827038
1.668837031
1.704608064
1.731858022
1.765359853
1.785987887
1.801071014
1.817418529
1.824813507
1.827617826
1.833132494
1.836339461
1.836224406
1.836133916
1.835390214
1.833289292
1.830769536
1.828635389
1.827293632
1.827060182
1.827527342
1.828019876
1.828580995
1.828548132
1.827791579
1.82731944
1.827200627
1.826970684
1.826226324
1.825367072
1.824897342
1.824382453
1.823745625
1.823229066
1.822774428
1.822741156
1.822831137
1.823061621
1.823270747
1.823475423
1.823692406
1.823963039
1.824276687
1.824633573
1.824860626
1.825114371
1.825356337
1.825386942
1.825358051
1.825296361
1.400197207
1.400544158
1.401346428
1.403085418
1.406707462
1.412808994
1.423235999
1.439731618
1.460416423
1.491206684
1.528907595
1.563089708
1.607293054
1.649574854
1.684770595
1.724308522
1.747018434
1.76656173
1.791312072
1.797759399
1.804382219
1.813503509
1.815724858
1.818331252
1.824472445
1.830494735
1.8329052
1.834943391
1.83885647
1.840543115
1.840132962
1.838986633
1.837688626
1.836405495
1.834562928
1.831989346
1.829685453
1.826643369
1.824678807
1.823552761
1.82253754
1.822268533
1.82231048
1.822502912
1.82274233
1.822951754
1.823200925
1.82354711
1.823880601
1.823904511
1.823885463
1.823886709
1.823955041
1.824162753
1.824366038
1.824396853
1.824381479
1.824421537
1.824572915
1.82481346
1.825096874
1.825308605
1.825356479
1.825354497
1.82531131
1.825245907
1.825229604
1.409435928
1.418046511
1.430358928
1.450577903
1.477815867
1.507810296
1.548173489
1.589930851
1.631375332
1.676439597
1.709598794
1.740366724
1.773191452
1.792012674
1.809324508
1.82499841
1.828830758
1.832938454
1.839526923
1.840784295
1.840530742
1.839930656
1.838705763
1.836412667
1.833702513
1.831441461
1.829496218
1.82937472
1.82952481
1.82950766
1.829444271
1.828642869
1.827542511
1.827121833
1.827121727
1.826789805
1.825923298
1.825197759
1.824370143
1.823329949
1.822570876
1.8220808
1.822065921
1.822088974
1.82226548
1.822378859
1.822423933
1.822589655
1.822899278
1.823275443
1.82377276
1.824266792
1.824766401
1.825254652
1.825373439
1.825359137
1.825280828
1.82521356
1.825207198
1.825260577
1.825409545
1.825495239
1.825483726
1.82541235
1.825269944
1.825115849
1.825061888
1.496115336
1.531418553
1.567477181
1.614451094
1.655303055
1.694908746
1.731673941
1.75242731
1.776181962
1.79693083
1.803248538
1.812509684
1.8195765
1.820906189
1.823900562
1.829879028
1.834442956
1.836478354
1.839362328
1.843547482
1.843774244
1.843074073
1.841513164
1.839751116
1.838173461
1.835881488
1.833135192
1.829568288
1.826167107
1.824184331
1.82284743
1.821511634
1.821093235
1.821127615
1.821511504
1.822263723
1.822483596
1.822637998
1.822709396
1.822778895
1.822826762
1.823011389
1.823404837
1.82382459
1.824157192
1.824188583
1.824131382
1.824061136
1.824088044
1.824224805
1.824367271
1.824599094
1.824947958
1.825093866
1.825112521
1.825110619
1.82506408
1.825033721
1.825042113
1.825092195
1.825210467
1.825324395
1.825334201
1.82530709
1.825247218
1.825181858
1.825150851
1.683853201
1.715783305
1.751974028
1.783420767
1.801880502
1.820727824
1.831902735
1.835315717
1.841545761
1.846851875
1.847037228
1.846821204
1.845793771
1.843643474
1.839912719
1.836174604
1.832837802
1.831700857
1.831978451
1.832776336
1.832627703
1.831752309
1.829452694
1.826783739
1.826352793
1.826155289
1.825539516
1.824423456
1.823818787
1.823080204
1.822163383
1.821074077
1.820341039
1.820341156
1.820545977
1.821082459
1.821586643
1.822021172
1.822547361
1.822996485
1.8233796
1.823779128
1.824213177
1.824749298
1.825276708
1.825396362
1.82540279
1.825342131
1.825170151
1.825039954
1.824983199
1.824994681
1.825049961
1.825034654
1.824970136
1.824886635
1.82478478
1.824735015
1.824755501
1.824813012
1.82491513
1.825027393
1.825070459
1.825081878
1.825076473
1.825056371
1.825061746
1.804107651
1.811068136
1.821254466
1.825632363
1.826956685
1.830941694
1.835728876
1.839362636
1.841427447
1.845524501
1.848374814
1.848093129
1.846739629
1.844842787
1.842997808
1.840667323
1.837405171
1.834198584
1.831433372
1.828013381
1.825376456
1.822914415
1.82023117
1.81941691
1.819489746
1.819982812
1.82054491
1.820995897
1.821470884
1.822126607
1.822512828
1.822538133
1.822681963
1.823061049
1.82346737
1.823750184
1.823858849
1.823858185
1.823747773
1.823775256
1.823894341
1.824064918
1.824300465
1.824624448
1.824851728
1.824899197
1.824900873
1.824883979
1.824907485
1.824951758
1.825024473
1.825131774
1.825172303
1.825168445
1.825150319
1.825090908
1.824960852
1.824898362
1.824931612
1.824983886
1.825010988
1.825015227
1.825004659
1.824962193
1.824893771
1.824838429
1.824834488
1.85506953
1.854817881
1.853659378
1.851609263
1.848234
1.843968004
1.839788788
1.836114617
1.833792887
1.834185153
1.8343094
1.833332489
1.831338527
1.829884465
1.828581573
1.827218154
1.825565065
1.823845651
1.821822308
1.820256272
1.819489205
1.818568546
1.818379528
1.818450893
1.818869661
1.819562709
1.819919374
1.82052499
1.821644857
1.822657112
1.823043422
1.823279307
1.823587095
1.824039085
1.824339764
1.824369332
1.824441722
1.824580165
1.824591191
1.824556541
1.824503301
1.824501073
1.824532124
1.824598471
1.824615715
1.824612376
1.824569648
1.824512569
1.824531028
1.824597223
1.824715933
1.824898491
1.824994352
1.825011551
1.824997761
1.824954343
1.824965743
1.82496847
1.82492948
1.824872639
1.824857192
1.824851142
1.824820515
1.824746749
1.824677404
1.824608281
1.824574022
1.855583084
1.855481308
1.854081215
1.851747831
1.848911719
1.846267801
1.843644598
1.840112355
1.835618149
1.830029984
1.825839746
1.82322455
1.820256228
1.818810161
1.819240731
1.819819514
1.819948356
1.819935612
1.819505029
1.819283674
1.81974967
1.820421526
1.821422849
1.822356759
1.822727676
1.822840113
1.822701608
1.822568835
1.822904534
1.823554524
1.823862967
1.824061307
1.82429807
1.824618863
1.82469309
1.824675957
1.824645408
1.824657352
1.824674251
1.824681834
1.82468697
1.824674681
1.824618518
1.824532422
1.824438429
1.824340938
1.824266874
1.824217632
1.824223458
1.824263754
1.824351293
1.824479897
1.824542751
1.824574427
1.82458637
1.824598874
1.824632753
1.824674171
1.824699275
1.824702067
1.824698194
1.824677088
1.824602764
1.824549587
1.824532222
1.824530054
1.824535891
1.834413213
1.833030974
1.832526411
1.830881139
1.828248817
1.827198685
1.826546392
1.825147393
1.822272502
1.818766832
1.816788932
1.815348656
1.814159295
1.81418934
1.81474625
1.815998445
1.817209584
1.818243318
1.819206038
1.820437252
1.822059769
1.823479816
1.824903763
1.825741713
1.82582173
1.825770565
1.825335878
1.824462779
1.823914612
1.823858096
1.823879384
1.823949276
1.8240168
1.824080257
1.824094241
1.823977154
1.823876752
1.823938929
1.824062362
1.824246439
1.824464402
1.824549582
1.824585712
1.82459151
1.824508648
1.8243605
1.824269013
1.824253445
1.824263207
1.8243185
1.824359586
1.82437247
1.824357821
1.824289642
1.824226438
1.82422583
1.82424382
1.824288535
1.8243659
1.824421149
1.824441921
1.824452515
1.824446081
1.824397096
1.824365456
1.824368386
1.824388075
1.820905726
1.820543935
1.820342165
1.820233667
1.819980009
1.8197868
1.820041762
1.82039393
1.820921492
1.820986622
1.820403296
1.82030417
1.820807293
1.821755996
1.822541125
1.823280605
1.823833244
1.824133637
1.824189297
1.824161839
1.824022999
1.823975768
1.824106857
1.824446302
1.824685141
1.824688165
1.824628682
1.824438732
1.824086229
1.823896839
1.823886884
1.823965712
1.824203164
1.824382221
1.82439347
1.824365042
1.824264595
1.824099147
1.824021993
1.824007248
1.824060392
1.824216117
1.82429677
1.82428381
1.824218573
1.82409257
1.823985192
1.823965711
1.823975829
1.824044933
1.824133588
1.824156872
1.824141517
1.824114884
1.824083795
1.824071274
1.824066122
1.824097452
1.824183883
1.824236202
1.823518906
1.823484508
1.823544062
1.823869398
1.824388497
1.824635193
1.824617072
1.82450325
1.824298285
1.824167809
1.824132264
1.824159876
1.824432612
1.824761965
1.824758733
1.824625615
1.824371224
1.824110833
1.824024207
1.82399092
1.824017028
1.824231869
1.824384119
1.824342186
1.824215534
1.824042018
1.82394765
1.823923723
1.823920434
1.824007751
1.824180317
1.824196894
1.824128661
1.824017032
1.823928093
1.823901495
1.82388886
1.823902546
1.824004775
1.824112251
1.824109927
)
;

boundaryField
{
    inlet
    {
        type            calculated;
        value           nonuniform 0();
    }
    outlet
    {
        type            calculated;
        value           nonuniform 0();
    }
    bottom
    {
        type            calculated;
        value           nonuniform 0();
    }
    top
    {
        type            calculated;
        value           nonuniform 0();
    }
    obstacle
    {
        type            calculated;
        value           nonuniform List<scalar> 
41
(
1.823518906
1.823484508
1.823544062
1.823869398
1.824388497
1.824635193
1.824617072
1.82450325
1.824298285
1.824167809
1.824132264
1.824159876
1.824432612
1.824761965
1.824758733
1.824625615
1.824371224
1.824110833
1.824024207
1.82399092
1.824017028
1.824231869
1.824384119
1.824342186
1.824215534
1.824042018
1.82394765
1.823923723
1.823920434
1.824007751
1.824180317
1.824196894
1.824128661
1.824017032
1.823928093
1.823901495
1.82388886
1.823902546
1.824004775
1.824112251
1.824109927
)
;
    }
    defaultFaces
    {
        type            empty;
    }
    procBoundary14to7
    {
        type            processor;
        value           nonuniform List<scalar> 2(1.40000504 1.40000504);
    }
    procBoundary14to8
    {
        type            processor;
        value           nonuniform List<scalar> 
70
(
1.40000504
1.40000504
1.40000504
1.40000504
1.40000504
1.40000504
1.40000504
1.40000504
1.40000504
1.40000504
1.40000504
1.40000504
1.40000504
1.40000504
1.40000504
1.40000504
1.40000504
1.40000504
1.40000504
1.40000504
1.40000504
1.40000504
1.40000504
1.40000504
1.40000504
1.40000504
1.40000504
1.40000504
1.40000504
1.40000504
1.40000504
1.40000504
1.40000504
1.40000504
1.40000504
1.40000504
1.40000504
1.40000504
1.40000504
1.40000504
1.40000504
1.40000504
1.40000504
1.40000504
1.40000504
1.40000504
1.40000504
1.40000504
1.40000504
1.40000504
1.40000504
1.40000504
1.40000504
1.40000504
1.40000504
1.40000504
1.40000504
1.40000504
1.40000504
1.40000504
1.40000504
1.40000504
1.40000504
1.40000504
1.40000504
1.40000504
1.40000504
1.40000504
1.40000504
1.40000504
)
;
    }
    procBoundary14to9
    {
        type            processor;
        value           nonuniform List<scalar> 
32
(
1.40000504
1.40000504
1.40000504
1.40000504
1.400005058
1.40000695
1.400111655
1.402854977
1.433804252
1.560090212
1.729419724
1.808740474
1.813263285
1.825217377
1.83096513
1.826887782
1.823991758
1.824158462
1.824913087
1.825074656
1.825041269
1.825281608
1.825279185
1.825173248
1.825196792
1.825094093
1.824874215
1.824508149
1.823918456
1.817836422
1.759210791
1.4520827
)
;
    }
    procBoundary14to13
    {
        type            processor;
        value           nonuniform List<scalar> 
31
(
1.40000504
1.40000504
1.40000504
1.40000504
1.40000504
1.40000504
1.40000504
1.40000504
1.40000504
1.40000504
1.40000504
1.40000504
1.40000504
1.40000504
1.40000504
1.40000504
1.40000504
1.40000504
1.40000504
1.40000504
1.40000504
1.40000504
1.400005164
1.400069197
1.404605649
1.462766516
1.64095494
1.787441274
1.851417364
1.851965071
1.838645448
)
;
    }
    procBoundary14to20
    {
        type            processor;
        value           nonuniform List<scalar> 
28
(
1.823442271
1.822622442
1.820762602
1.819352626
1.819348656
1.82001852
1.820946545
1.820946545
1.81337687
1.81501076
1.817096018
1.819595485
1.822013514
1.823990629
1.825588955
1.826628139
1.827342137
1.827252629
1.826718476
1.825883832
1.825430758
1.825101494
1.824907186
1.824575155
1.824213641
1.82383503
1.823596653
1.823596653
)
;
    }
}


// ************************************************************************* //
