/*--------------------------------*- C++ -*----------------------------------*\
  =========                 |
  \\      /  F ield         | OpenFOAM: The Open Source CFD Toolbox
   \\    /   O peration     | Website:  https://openfoam.org
    \\  /    A nd           | Version:  7
     \\/     M anipulation  |
\*---------------------------------------------------------------------------*/
FoamFile
{
    version     2.0;
    format      ascii;
    class       volScalarField;
    location    "2.7";
    object      T;
}
// * * * * * * * * * * * * * * * * * * * * * * * * * * * * * * * * * * * * * //

dimensions      [0 0 0 1 0 0 0];

internalField   nonuniform List<scalar> 
555
(
0.9874185117
0.9875729583
0.9878082545
0.9879181043
0.9880127853
0.9881373231
0.9882693296
0.9886240545
0.9892551816
0.9900371959
0.9903620316
0.9869600319
0.9901802092
0.9899884718
0.989189003
0.9890683579
0.9896256197
0.989589384
0.9896865586
0.9898659518
0.9900382677
0.9901339439
0.9902094016
0.9902464607
0.9904016079
0.9909223867
0.9911885492
0.9915095455
0.9888716834
0.9925158609
0.9923907216
0.9917302117
0.99170341
0.9921852548
0.992289396
0.9923427501
0.9924819756
0.9926120458
0.9926710804
0.9926826448
0.9926502729
0.9927600849
0.9931835149
0.9932408855
0.9931573817
0.9909153968
0.9948750997
0.9950198402
0.9943635382
0.9944068596
0.9949290429
0.9950149642
0.9950183938
0.9951148987
0.9954645192
0.9955079106
0.9955668819
0.9956623001
0.9959039041
0.9959178117
0.9956644994
0.9947956233
0.9975766438
0.9977815499
0.9970421677
0.9969222574
0.9974558487
0.9975370955
0.9974776844
0.9975617707
0.9979952692
0.9984418835
0.9986158056
0.9989920903
0.9990597549
0.9987590341
0.9980725546
0.9965252965
1.000172394
1.000338062
0.999542234
0.9992314984
0.9997177293
0.9997111869
0.9996428222
0.9998422876
1.000392793
1.000894868
1.00128355
1.001580606
1.001508173
1.001226523
0.9998221533
0.9988305667
1.002586339
1.002629048
1.001767547
1.001357564
1.001904457
1.001877819
1.001760497
1.001971023
1.002487438
1.003004368
1.003374623
1.003567794
1.003447762
1.002734465
1.001995107
1.001532305
1.004394664
1.004417284
1.003466004
1.003118615
1.003725546
1.003716854
1.003572294
1.003747172
1.004106195
1.0044919
1.004642212
1.004499105
1.004260822
1.00395123
1.004002565
1.003941306
1.004156416
1.005538069
1.005654024
1.004700113
1.00443998
1.005166758
1.005210675
1.005035958
1.005021794
1.005137749
1.005198221
1.005070663
1.004951997
1.005060167
1.005426491
1.005749627
1.006096466
1.006478843
1.005905175
1.006456882
1.005388926
1.00526353
1.006024332
1.006067296
1.005938882
1.005780632
1.00547826
1.005561109
1.00568291
1.00591025
1.006205431
1.006633599
1.007451818
1.00783135
1.007939455
1.006149778
1.007109547
1.006011
1.005850743
1.006622664
1.006732224
1.006509126
1.006019579
1.005925669
1.006323205
1.006725534
1.007112014
1.007474124
1.008062021
1.008530349
1.008761159
1.008780923
1.006706944
1.007952498
1.006797747
1.006506191
1.007237345
1.007254731
1.006877477
1.006674425
1.006876334
1.007376921
1.00791308
1.008434071
1.009163227
1.009619611
1.009886479
1.009718621
1.009315483
1.008930521
1.00776232
1.007326162
1.008054421
1.008131153
1.007795561
1.007770601
1.007995925
1.008545486
1.00928742
1.010145404
1.010989258
1.011274865
1.011141508
1.01053397
1.009416933
1.010007723
1.008822516
1.008291175
1.009106544
1.009296007
1.009025536
1.009067282
1.009309855
1.00998489
1.010840114
1.011825718
1.012529638
1.012708746
1.012043521
1.010907226
1.009897902
1.011247196
1.009820522
1.00932887
1.010201976
1.010524657
1.010373229
1.010488044
1.010796238
1.011494136
1.012310652
1.013153349
1.013587392
1.013657854
1.013245316
1.012130027
1.010977392
1.012338538
1.01060674
1.010291264
1.011187879
1.011672192
1.011625028
1.011714425
1.011946714
1.012492076
1.013336479
1.013972632
1.014342213
1.014218004
1.014056815
1.013477134
1.012847329
1.013164151
1.011386063
1.011118372
1.012008837
1.012464652
1.012475888
1.012458191
1.012634921
1.013118791
1.013846346
1.014460807
1.014569839
1.014739079
1.014662301
1.014434684
1.014345395
1.01415388
1.012144236
1.011773255
1.012589573
1.012865382
1.012851494
1.012717869
1.012787213
1.013139663
1.013803572
1.014254669
1.01478149
1.015037436
1.015303552
1.015390858
1.015522049
1.014890125
1.012788597
1.012209614
1.012912523
1.013115984
1.013041081
1.012863252
1.012886233
1.013230434
1.013825724
1.014339033
1.014845747
1.015450562
1.015989618
1.016003031
1.015781138
1.015211675
1.012986222
1.012392825
1.012993393
1.013212151
1.013216252
1.013076154
1.01308982
1.013387551
1.013862237
1.014458138
1.015196382
1.015977836
1.016168133
1.015932488
1.015569805
1.015612746
1.012834124
1.011915639
1.012817859
1.013322003
1.013391038
1.013311996
1.013314735
1.013551769
1.013972998
1.014440094
1.014927545
1.015329746
1.015322
1.015144425
1.014830167
1.010116509
1.00890977
1.010944716
1.013341453
1.013280754
1.013264164
1.013289489
1.013322815
1.013524863
1.013485811
1.013298068
1.013353218
1.013627475
1.01388221
1.014131327
1.014188479
0.9870594517
0.9963589448
1.007142958
1.011507401
1.012249328
1.013179174
1.013386775
1.013199845
1.012767825
1.01206965
1.011317026
1.011124461
1.011419227
1.012014539
1.012596333
1.012893355
0.9202831376
0.9655014207
0.9980642844
1.002993099
1.007364741
1.011159761
1.011975655
1.011808603
1.011498441
1.010810791
1.009981543
1.009770636
1.010155195
1.010646552
1.011003743
1.011026883
0.8586194364
0.8946435278
0.9404199077
0.9701979361
0.9924489913
1.007753018
1.006373292
1.007809307
1.008881311
1.008905175
1.009090123
1.009322965
1.009653987
1.009577351
1.009410582
1.009126322
0.8478598337
0.851681559
0.8689599049
0.9145349155
0.9555709562
0.9864919709
0.9945790081
1.005337825
1.00712276
1.008063169
1.008866703
1.009202843
1.009035819
1.008600952
1.007953654
1.007771148
0.8502583763
0.8501913391
0.8512710302
0.861668504
0.8866231974
0.9279308169
0.9710645757
1.000447796
1.002049063
1.004028862
1.007177859
1.007396965
1.006415068
1.006800099
1.007147457
1.007508442
0.8657729531
0.8581982054
0.8528477018
0.8530131715
0.8555058099
0.8701793877
0.9063820647
0.9508064651
0.9741540166
0.9900386893
1.001305301
1.00106448
1.002799825
1.005380547
1.007122094
1.007478547
0.8760551652
0.8695616312
0.8596519322
0.8556293006
0.8560876509
0.8568940843
0.863070674
0.8829777963
0.9275678804
0.9676126817
0.9923087774
0.996038631
1.003714507
1.006582558
1.006740213
1.006882552
0.8907640605
0.8874373557
0.8803487486
0.8699257242
0.8641988966
0.8605197213
0.857893293
0.8589239762
0.871867083
0.9009423354
0.9419039204
0.9768180468
1.000562371
1.003174321
1.003141727
1.004824986
0.9155004682
0.9032184734
0.8940271772
0.8816812651
0.8720649083
0.8689253193
0.8642905915
0.8599502971
0.8608452222
0.86659829
0.8855322607
0.9206066769
0.9613844776
0.9791658426
0.992923061
1.00428895
0.9355392563
0.9198300398
0.9100130858
0.9026495166
0.8908347573
0.8845078173
0.8794274321
0.8704562967
0.8639579387
0.8640236085
0.8653658275
0.8745000883
0.897507186
0.939234094
0.9767053457
0.9974254023
0.9549656758
0.9423850827
0.9294704303
0.9209992079
0.9094329935
0.8954815337
0.8892196395
0.8846762925
0.874661075
0.8680515442
0.8665014958
0.86734806
0.8700877003
0.8863970034
0.915960975
0.9522775732
0.9744614603
0.9617225824
0.9464221168
0.9349524606
0.9260589752
0.9130430909
0.9032131064
0.9000093941
0.8937776459
0.8825775174
0.8762942479
0.8724092475
0.8692187276
0.8697407239
0.8760652865
0.8991775638
0.994444951
0.9797556945
0.9655653595
0.9522738925
0.9438007418
0.9341951892
0.9195752289
0.9105498032
)
;

boundaryField
{
    inlet
    {
        type            fixedValue;
        value           nonuniform 0();
    }
    outlet
    {
        type            inletOutlet;
        inletValue      nonuniform 0();
        value           nonuniform 0();
    }
    bottom
    {
        type            slip;
    }
    top
    {
        type            slip;
    }
    obstacle
    {
        type            zeroGradient;
    }
    defaultFaces
    {
        type            empty;
    }
    procBoundary28to21
    {
        type            processor;
        value           nonuniform List<scalar> 8(0.9885150217 0.9912359591 0.9939369087 0.9933707887 0.9933707887 0.9958877598 0.9982004577 0.9996816607);
    }
    procBoundary28to22
    {
        type            processor;
        value           nonuniform List<scalar> 
18
(
0.9859266874
0.986209641
0.9866591813
0.9868936878
0.9870211414
0.9871425059
0.9871908608
0.9873509407
0.9878582513
0.988579211
0.9892317714
0.9852663212
0.988083236
0.9878930333
0.9869879171
0.986988364
0.9873718486
0.9873718486
)
;
    }
    procBoundary28to23
    {
        type            processor;
        value           uniform 0.9904524262;
    }
    procBoundary28to27
    {
        type            processor;
        value           nonuniform List<scalar> 
28
(
1.000371073
1.000427293
1.000531068
1.000847789
1.007594419
1.007594419
1.008268767
1.00933987
1.010479743
1.011404182
1.012380693
1.013331312
1.014012424
1.012395865
1.001530348
0.9488594419
0.8750007188
0.8477851983
0.8486168531
0.8523536922
0.8699976265
0.8843554962
0.9033096957
0.930413256
0.9484684784
0.9674711257
0.9907722144
1.010932585
)
;
    }
    procBoundary28to29
    {
        type            processor;
        value           nonuniform List<scalar> 
34
(
0.9915366168
0.9926271302
0.9935874074
0.9958119811
0.9984868549
1.001426025
1.001426025
1.004402563
1.006657219
1.007929999
1.008533504
1.008512752
1.008534898
1.009210979
1.010213987
1.012356658
1.014301966
1.015453106
1.015429405
1.015112031
1.014455273
1.014050192
1.01288163
1.011041221
1.00910879
1.007935466
1.007942887
1.007587462
1.006385615
1.004189067
1.003485685
1.001106516
0.9785440989
0.9374964611
)
;
    }
    procBoundary28to34
    {
        type            processor;
        value           nonuniform List<scalar> 
17
(
0.9046766821
0.8954112369
0.8870235115
0.8811409132
0.8755357331
0.8707083355
0.8716020274
0.8747853217
1.013726871
0.9986484761
0.9844646481
0.9696897018
0.9581167886
0.9489672138
0.9373314267
0.9046766821
0.9242498095
)
;
    }
}


// ************************************************************************* //
