/*--------------------------------*- C++ -*----------------------------------*\
  =========                 |
  \\      /  F ield         | OpenFOAM: The Open Source CFD Toolbox
   \\    /   O peration     | Website:  https://openfoam.org
    \\  /    A nd           | Version:  7
     \\/     M anipulation  |
\*---------------------------------------------------------------------------*/
FoamFile
{
    version     2.0;
    format      ascii;
    class       volVectorField;
    location    "2.6";
    object      U;
}
// * * * * * * * * * * * * * * * * * * * * * * * * * * * * * * * * * * * * * //

dimensions      [0 1 -1 0 0 0 0];

internalField   nonuniform List<vector> 
555
(
(3 -7.236939505e-15 0)
(3 -4.633735485e-15 0)
(3 -3.133181485e-15 0)
(3 -2.127221067e-15 0)
(3 -2.524734401e-15 0)
(3 -2.567607545e-15 0)
(3 -7.932080505e-16 0)
(3 1.995941499e-15 0)
(3 2.359432859e-15 0)
(3 1.876175435e-15 0)
(3 2.505222958e-15 0)
(3 4.044439832e-15 0)
(3 4.34929616e-15 0)
(3 3.007142176e-15 0)
(3 1.302041116e-15 0)
(3 6.033186894e-15 0)
(3 8.782474653e-15 0)
(3 1.128240372e-14 0)
(3 1.128658806e-14 0)
(3 1.136200757e-14 0)
(3 1.184182462e-14 0)
(3 1.109730338e-14 0)
(3 -1.013786011e-14 0)
(3 -8.186406231e-15 0)
(3 -6.906668961e-15 0)
(3 -6.835678222e-15 0)
(3 -6.584063115e-15 0)
(3 -6.131374313e-15 0)
(3 -6.723468884e-15 0)
(3 -6.488603441e-15 0)
(3 -6.619924396e-15 0)
(3 -5.173727161e-15 0)
(3 -4.251023073e-15 0)
(3 -1.631888206e-15 0)
(3 -5.930058842e-16 0)
(3 1.281786533e-15 0)
(3 1.346742788e-15 0)
(3 2.949857316e-15 0)
(3 6.288396871e-15 0)
(3 9.366065339e-15 0)
(3 9.413665507e-15 0)
(3 8.892751387e-15 0)
(3 8.594034153e-15 0)
(3 9.157754678e-15 0)
(3 9.119619091e-15 0)
(3 8.913812092e-15 0)
(3 8.910392864e-15 0)
(3 1.03799464e-14 0)
(3 1.081614741e-14 0)
(3 9.928891857e-15 0)
(3 1.008850424e-14 0)
(3 1.098316528e-14 0)
(3 1.080890465e-14 0)
(3 1.004173742e-14 0)
(3 7.917798613e-15 0)
(3 7.215318843e-15 0)
(3 -1.558689651e-14 0)
(3 -1.334955414e-14 0)
(3 -1.077114517e-14 0)
(3 -8.185372392e-15 0)
(3 -7.146875139e-15 0)
(3 -7.254405459e-15 0)
(3 -7.795297246e-15 0)
(3 -8.949805289e-15 0)
(3 -8.370569201e-15 0)
(3 -6.087526592e-15 0)
(3 -3.005480461e-15 0)
(3 -6.589780543e-16 0)
(3 1.341155892e-15 0)
(3 2.067261305e-15 0)
(3 2.696685358e-15 0)
(3 3.263642725e-15 0)
(3 2.646688289e-15 0)
(3 3.377003268e-15 0)
(3 5.590131454e-15 0)
(3 6.398585759e-15 0)
(3 6.037860757e-15 0)
(3 5.382107934e-15 0)
(3 4.93939359e-15 0)
(3 6.075018765e-15 0)
(3 6.449851546e-15 0)
(3 5.964106883e-15 0)
(3 5.96112601e-15 0)
(3 7.018358803e-15 0)
(3 7.458970923e-15 0)
(3 6.369082077e-15 0)
(3 8.0104069e-15 0)
(3 1.190788716e-14 0)
(3 1.180974506e-14 0)
(3 9.567743874e-15 0)
(3 -1.219961569e-14 0)
(3 -1.102285006e-14 0)
(3 -9.41882541e-15 0)
(3 -7.625254692e-15 0)
(3 -5.504982757e-15 0)
(3 -2.255256588e-15 0)
(3 -1.295365954e-15 0)
(3 -1.976568298e-15 0)
(3 -3.766126127e-15 0)
(3 -5.127386614e-15 0)
(3 -3.412400601e-15 0)
(3 -2.436883301e-16 0)
(3 3.023283415e-15 0)
(3 2.884787213e-15 0)
(3 2.928792091e-15 0)
(3 2.262745923e-15 0)
(3 1.074381872e-15 0)
(3 5.160112866e-16 0)
(3 6.263146256e-16 0)
(3 1.056349624e-15 0)
(3 8.629230993e-16 0)
(3 -9.656389252e-16 0)
(3 -3.031614841e-15 0)
(3 1.049918973e-15 0)
(3 3.978316257e-15 0)
(3 4.52366065e-15 0)
(3 3.807689608e-15 0)
(3 4.60717839e-15 0)
(3 3.175625934e-15 0)
(3 2.729118424e-15 0)
(3 4.51261203e-15 0)
(3 5.287046697e-15 0)
(3 6.484996983e-15 0)
(3 1.037139639e-14 0)
(3 -4.84715691e-15 0)
(3 -2.373651692e-15 0)
(3 -2.727312462e-15 0)
(3 -3.318569345e-15 0)
(3 -2.271370528e-15 0)
(3 -1.146735874e-15 0)
(3 -6.251573869e-16 0)
(3 1.130281818e-15 0)
(3 2.413171954e-15 0)
(3 3.602908298e-15 0)
(3 3.721025692e-16 0)
(3 -5.043097475e-16 0)
(3 -4.180245199e-16 0)
(3 4.574940725e-16 0)
(3 5.392965856e-16 0)
(3 1.651285702e-16 0)
(3 -1.105003339e-15 0)
(3 -2.776694277e-15 0)
(3 -2.987837351e-15 0)
(3 -2.754349451e-15 0)
(3 -2.615357847e-15 0)
(3 -4.082862787e-15 0)
(3 -3.086915666e-15 0)
(3 -2.485299185e-15 0)
(3 -2.447863925e-16 0)
(3 -5.727417256e-16 0)
(3 1.055140585e-15 0)
(3 1.598606365e-15 0)
(3 3.574069876e-15 0)
(3 5.250977109e-15 0)
(3 5.985049955e-15 0)
(3 3.997914244e-15 0)
(3 5.839500318e-15 0)
(3 6.678786177e-15 0)
(3 -7.878895167e-16 0)
(3 -2.732176975e-15 0)
(3 -3.233335884e-15 0)
(3 -3.309266968e-15 0)
(3 -3.073708772e-15 0)
(3 -3.13077039e-15 0)
(3 -2.166341605e-15 0)
(3 -3.997172002e-16 0)
(3 1.633604221e-15 0)
(3 3.992062148e-15 0)
(3 3.470596617e-15 0)
(3 6.105996015e-16 0)
(3 -1.485969087e-15 0)
(3 -3.321998831e-15 0)
(3 -3.335637628e-15 0)
(3 -1.74423823e-15 0)
(3 -6.108511589e-16 0)
(3 -4.911275868e-16 0)
(3 -1.518165293e-15 0)
(3 -3.48367215e-15 0)
(3 -3.952790272e-15 0)
(3 -4.727793978e-15 0)
(3 -4.897662604e-15 0)
(3 -5.33687492e-15 0)
(3 -6.483585082e-15 0)
(3 -8.44047264e-15 0)
(3 -6.549742302e-15 0)
(3 -4.613198387e-15 0)
(3 -1.790321734e-15 0)
(3 -7.314433623e-17 0)
(3 -6.214001138e-16 0)
(3 -1.107852424e-15 0)
(3 2.716311877e-16 0)
(3 3.478492902e-16 0)
(3 2.667915324e-16 0)
(3 -6.961805985e-16 0)
(3 -1.543637281e-15 0)
(3 -2.018796264e-15 0)
(3 -1.695773581e-15 0)
(3 -3.423751052e-16 0)
(3 2.018820417e-15 0)
(3 3.276983309e-15 0)
(3 4.029249943e-15 0)
(3 5.245008643e-15 0)
(3 6.044127868e-15 0)
(3 6.388981026e-15 0)
(3 4.530387252e-15 0)
(3 2.346867264e-15 0)
(3 -3.454386879e-16 0)
(3 -3.057838435e-15 0)
(3 -2.732741867e-15 0)
(3 -3.975784171e-15 0)
(3 -6.659124848e-15 0)
(3 -9.604044539e-15 0)
(3 -1.013447151e-14 0)
(3 -1.041504315e-14 0)
(3 -1.186868412e-14 0)
(3 -1.288860746e-14 0)
(3 -1.415497623e-14 0)
(3 -1.459388194e-14 0)
(3 -1.439891671e-14 0)
(3 -1.354620432e-14 0)
(3 -1.162343689e-14 0)
(3 -1.168765476e-14 0)
(3 -1.180231645e-14 0)
(3 -1.202167203e-14 0)
(3 -1.08668517e-14 0)
(3 -8.365791921e-15 0)
(3 3.699560045e-15 0)
(3 1.810489295e-15 0)
(3 1.064161223e-15 0)
(3 1.100841704e-15 0)
(3 1.330315619e-15 0)
(3 3.399119116e-15 0)
(3 4.967800502e-15 0)
(3 5.715419509e-15 0)
(3 7.289402372e-15 0)
(3 7.28982962e-15 0)
(3 6.875853162e-15 0)
(3 6.40723755e-15 0)
(3 3.987488566e-15 0)
(3 -1.079906645e-16 0)
(3 -3.47035159e-15 0)
(3 -8.564968542e-15 0)
(3 -1.400373703e-14 0)
(3 -1.576133874e-14 0)
(3 -1.907994316e-14 0)
(3 -2.173082357e-14 0)
(3 -2.183305397e-14 0)
(3 -2.015330437e-14 0)
(3 -2.005001274e-14 0)
(3 -2.225984574e-14 0)
(3 -2.339139751e-14 0)
(3 -2.311774247e-14 0)
(3 -2.140749757e-14 0)
(3 -2.044065538e-14 0)
(3 -2.16561121e-14 0)
(3 -2.281842027e-14 0)
(3 -2.30083668e-14 0)
(3 -2.038351626e-14 0)
(3 -1.922021478e-14 0)
(3 -1.578832646e-14 0)
(3 7.685947068e-15 0)
(3 7.142132424e-15 0)
(3 6.749360589e-15 0)
(3 6.887157589e-15 0)
(3 6.271120738e-15 0)
(3 6.055201706e-15 0)
(3 4.404632898e-15 0)
(3 5.249645003e-15 0)
(3 4.095912375e-15 0)
(3 3.845141592e-15 0)
(3 2.204431878e-15 0)
(3 -9.470833779e-16 0)
(3 -2.282428811e-15 0)
(3 -3.70818436e-15 0)
(3 -5.874756707e-15 0)
(3 -1.000398191e-14 0)
(3 -1.517570423e-14 0)
(3 -1.919464623e-14 0)
(3 -2.540333862e-14 0)
(3 -2.848964296e-14 0)
(3 -2.923854349e-14 0)
(3 -2.858519491e-14 0)
(3 -2.754800955e-14 0)
(3 -2.978558194e-14 0)
(3 -3.117157206e-14 0)
(3 -3.057081088e-14 0)
(3 -3.152340242e-14 0)
(3 -3.183344303e-14 0)
(3 -3.290311101e-14 0)
(3 -3.339967984e-14 0)
(3 -3.246291957e-14 0)
(3 -2.882132353e-14 0)
(3 -2.758890043e-14 0)
(3 -2.493269355e-14 0)
(3 8.787950967e-15 0)
(3 7.787378272e-15 0)
(3 7.078007316e-15 0)
(3 6.992103792e-15 0)
(3 6.363072894e-15 0)
(3 4.260340112e-15 0)
(3 3.02853031e-15 0)
(3 1.656419924e-15 0)
(3 -1.160727334e-15 0)
(3 -2.163943283e-15 0)
(3 -2.557965662e-15 0)
(3 -2.955985376e-15 0)
(3 -4.801496725e-15 0)
(3 -6.712051855e-15 0)
(3 -9.571268185e-15 0)
(3 -1.087996911e-14 0)
(3 -1.352353963e-14 0)
(3 -1.614533686e-14 0)
(3 -2.151855161e-14 0)
(3 -2.490610283e-14 0)
(3 -2.785832662e-14 0)
(3 -3.171976415e-14 0)
(3 -3.312320219e-14 0)
(3 -3.281644884e-14 0)
(3 -3.303793001e-14 0)
(3 -3.427091101e-14 0)
(3 -3.537428074e-14 0)
(3 -3.757006506e-14 0)
(3 -3.577438142e-14 0)
(3 -3.439185075e-14 0)
(3 -3.416947876e-14 0)
(3 -3.309643298e-14 0)
(3 -3.223902877e-14 0)
(3 -3.044655223e-14 0)
(3 8.021634804e-15 0)
(3 9.035814529e-15 0)
(3 9.273954295e-15 0)
(3 7.362200578e-15 0)
(3 2.77812094e-15 0)
(3 1.219422741e-15 0)
(3 1.745807911e-16 0)
(3 -1.843776298e-15 0)
(3 -4.088221076e-15 0)
(3 -4.304432417e-15 0)
(3 -5.206896023e-15 0)
(3 -5.8806315e-15 0)
(3 -5.887618162e-15 0)
(3 -7.194020094e-15 0)
(3 -8.049119911e-15 0)
(3 -8.674400747e-15 0)
(3 -1.033438647e-14 0)
(3 -1.425174851e-14 0)
(3 -1.636204485e-14 0)
(3 -2.040416469e-14 0)
(3 -2.196647779e-14 0)
(3 -2.369640768e-14 0)
(3 -2.844308834e-14 0)
(3 -3.205771693e-14 0)
(3 -3.288465018e-14 0)
(3 -3.387674506e-14 0)
(3 -3.293873669e-14 0)
(3 -3.194642732e-14 0)
(3 -3.195836256e-14 0)
(3 -3.254353317e-14 0)
(3 -3.200946717e-14 0)
(3 -2.874364422e-14 0)
(3 -2.693062603e-14 0)
(3 -2.594008805e-14 0)
(3 1.305086558e-15 0)
(3 2.201157961e-16 0)
(3 -1.8590983e-15 0)
(3 -4.528122538e-15 0)
(3 -6.82777267e-15 0)
(3 -7.248602466e-15 0)
(3 -7.746680726e-15 0)
(3 -8.314766594e-15 0)
(3 -9.777551756e-15 0)
(3 -9.94099364e-15 0)
(3 -9.821171994e-15 0)
(3 -8.882041247e-15 0)
(3 -7.160226208e-15 0)
(3 -6.300143119e-15 0)
(3 -6.557898504e-15 0)
(3 -7.514883025e-15 0)
(3 -9.114741954e-15 0)
(3 -1.084429636e-14 0)
(3 -1.256784018e-14 0)
(3 -1.576918204e-14 0)
(3 -1.66718331e-14 0)
(3 -1.924952898e-14 0)
(3 -2.133957752e-14 0)
(3 -2.332640312e-14 0)
(3 -2.385067247e-14 0)
(3 -2.339325389e-14 0)
(3 -2.19256937e-14 0)
(3 -2.048826138e-14 0)
(3 -2.078231706e-14 0)
(3 -2.195604994e-14 0)
(3 -2.471519759e-14 0)
(3 -2.357808847e-14 0)
(3 -2.027083369e-14 0)
(3 -1.802999501e-14 0)
(3 -9.564061579e-15 0)
(3 -1.086519846e-14 0)
(3 -1.342352785e-14 0)
(3 -1.525082196e-14 0)
(3 -1.56661445e-14 0)
(3 -1.684807006e-14 0)
(3 -1.731604265e-14 0)
(3 -1.7412117e-14 0)
(3 -1.495167712e-14 0)
(3 -1.291923543e-14 0)
(3 -1.233902692e-14 0)
(3 -1.199170997e-14 0)
(3 -1.100195612e-14 0)
(3 -1.039674568e-14 0)
(3 -1.003052419e-14 0)
(3 -9.541112653e-15 0)
(3 -9.765802113e-15 0)
(3 -1.006028573e-14 0)
(3 -9.245378763e-15 0)
(3 -8.539813042e-15 0)
(3 -8.960951242e-15 0)
(3 -1.074710161e-14 0)
(3 -1.122316119e-14 0)
(3 -1.250764675e-14 0)
(3 -1.245950712e-14 0)
(3 -1.050274001e-14 0)
(3 -1.092720494e-14 0)
(3 -1.177404655e-14 0)
(3 -1.227475579e-14 0)
(3 -1.216698651e-14 0)
(3 -1.229120942e-14 0)
(3 -1.135632749e-14 0)
(3 -9.742102826e-15 0)
(3 -9.277139446e-15 0)
(3 -1.433884941e-14 0)
(3 -1.606834392e-14 0)
(3 -1.461963757e-14 0)
(3 -1.522498708e-14 0)
(3 -1.563644112e-14 0)
(3 -1.539250257e-14 0)
(3 -1.400069394e-14 0)
(3 -1.289031128e-14 0)
(3 -1.245712081e-14 0)
(3 -1.257062086e-14 0)
(3 -1.254175921e-14 0)
(3 -1.329273289e-14 0)
(3 -1.403834536e-14 0)
(3 -1.30877174e-14 0)
(3 -1.262593802e-14 0)
(3 -1.187187243e-14 0)
(3 -1.065352821e-14 0)
(3 -9.867486754e-15 0)
(3 -8.157742761e-15 0)
(3 -4.516932825e-15 0)
(3 -5.459106491e-15 0)
(3 -6.774286959e-15 0)
(3 -7.773685288e-15 0)
(3 -8.155045746e-15 0)
(3 -6.717736443e-15 0)
(3 -5.071424698e-15 0)
(3 -8.496713178e-15 0)
(3 -9.964901225e-15 0)
(3 -9.977714509e-15 0)
(3 -7.753646939e-15 0)
(3 -4.921196853e-15 0)
(3 -6.193954324e-15 0)
(3 -8.486538656e-15 0)
(3 -9.521311514e-15 0)
(3 -1.01657515e-14 0)
(3 -1.177109009e-14 0)
(3 -1.24554606e-14 0)
(3 -1.31687734e-14 0)
(3 -1.380415382e-14 0)
(3 -1.136805418e-14 0)
(3 -7.981277359e-15 0)
(3 -5.707472011e-15 0)
(3 -5.387433402e-15 0)
(3 -5.291743512e-15 0)
(3 -5.781133708e-15 0)
(3 -6.713252013e-15 0)
(3 -8.526624853e-15 0)
(3 -9.044799315e-15 0)
(3 -8.775239933e-15 0)
(3 -8.593733718e-15 0)
(3 -8.115052546e-15 0)
(3 -5.736822166e-15 0)
(3 -1.925141865e-15 0)
(3 -5.965778053e-16 0)
(3 2.036729719e-15 0)
(3 4.900888863e-15 0)
(3 5.671040135e-15 0)
(3 7.423318843e-15 0)
(3 7.206797945e-15 0)
(3 5.176122078e-15 0)
(3 1.347278946e-15 0)
(3 4.036775968e-16 0)
(3 1.219724585e-15 0)
(3 1.438949256e-15 0)
(3 1.012431651e-15 0)
(3 3.333624689e-16 0)
(3 -1.425889373e-15 0)
(3 -5.427186956e-15 0)
(3 -5.965191165e-15 0)
(3 -4.410791708e-15 0)
(3 -4.143274501e-15 0)
(3 -4.001877873e-15 0)
(3 -2.665020634e-15 0)
(3 -2.257099663e-15 0)
(3 -2.527020863e-15 0)
(3 -2.221587806e-15 0)
(3 -1.845203429e-15 0)
(3 -2.776157749e-15 0)
(3 -4.381038681e-15 0)
(3 -4.351793762e-15 0)
(3 -3.750636095e-15 0)
(3 -3.713774996e-15 0)
(3 -2.839985071e-15 0)
(3 -1.761474372e-15 0)
(3 2.537008199e-16 0)
(3 8.460029214e-16 0)
(3 3.325069864e-15 0)
(3 5.512857301e-15 0)
(3 7.762899833e-15 0)
(3 1.061512241e-14 0)
(3 1.041403355e-14 0)
(3 1.001896276e-14 0)
(3 9.943897226e-15 0)
(3 8.650774657e-15 0)
(3 9.153039744e-15 0)
(3 1.0225001e-14 0)
(3 8.922245824e-15 0)
(3 8.197733103e-15 0)
(3 1.057333513e-14 0)
(3 1.200612626e-14 0)
(3 2.7384217e-14 0)
(3 2.429021648e-14 0)
(3 3.489482389e-15 0)
(3 2.941614346e-15 0)
(3 1.740449695e-15 0)
(3 1.972287225e-15 0)
(3 2.941616025e-15 0)
(3 3.839195816e-15 0)
(3 5.610112861e-15 0)
(3 8.245363293e-15 0)
(3 9.417672017e-15 0)
(3 9.488286513e-15 0)
(3 9.483100987e-15 0)
(3 9.62989884e-15 0)
(3 8.630681204e-15 0)
(3 7.374366695e-15 0)
(3 9.174762898e-15 0)
(3 1.172457236e-14 0)
(3 1.644560628e-14 0)
(3 2.702174892e-14 0)
(3 5.618052141e-14 0)
(3 9.392880263e-14 0)
(3 1.211235817e-13 0)
(3 1.983155712e-13 0)
(3 2.684297408e-13 0)
)
;

boundaryField
{
    inlet
    {
        type            fixedValue;
        value           nonuniform 0();
    }
    outlet
    {
        type            inletOutlet;
        inletValue      nonuniform 0();
        value           nonuniform 0();
    }
    bottom
    {
        type            slip;
    }
    top
    {
        type            slip;
    }
    obstacle
    {
        type            slip;
    }
    defaultFaces
    {
        type            empty;
    }
    procBoundary8to1
    {
        type            processor;
        value           uniform (3 -9.453232795e-15 0);
    }
    procBoundary8to2
    {
        type            processor;
        value           nonuniform List<vector> 
35
(
(3 -5.223110587e-15 0)
(3 -4.753111248e-15 0)
(3 -3.42389898e-15 0)
(3 -1.705609299e-15 0)
(3 3.594784932e-16 0)
(3 9.011598145e-16 0)
(3 2.562500456e-15 0)
(3 3.614787166e-15 0)
(3 4.519178195e-15 0)
(3 4.434309017e-15 0)
(3 5.450537371e-15 0)
(3 5.931666074e-15 0)
(3 6.674447471e-15 0)
(3 7.561713133e-15 0)
(3 7.442543176e-15 0)
(3 8.48767849e-15 0)
(3 8.579049693e-15 0)
(3 1.043631958e-14 0)
(3 1.091996278e-14 0)
(3 1.216063282e-14 0)
(3 1.253167735e-14 0)
(3 1.442911017e-14 0)
(3 1.023470063e-14 0)
(3 1.023470063e-14 0)
(3 9.325273394e-15 0)
(3 8.084878034e-15 0)
(3 7.942868421e-15 0)
(3 7.839538605e-15 0)
(3 8.021981229e-15 0)
(3 8.222076101e-15 0)
(3 8.729282156e-15 0)
(3 1.012083526e-14 0)
(3 1.020476996e-14 0)
(3 8.499447677e-15 0)
(3 6.211377505e-15 0)
)
;
    }
    procBoundary8to3
    {
        type            processor;
        value           nonuniform List<vector> 
14
(
(3 1.087722484e-14 0)
(3 3.538130207e-15 0)
(3 1.176787854e-14 0)
(3 1.05012019e-14 0)
(3 2.021111275e-15 0)
(3 -2.502333156e-15 0)
(3 -7.789662196e-15 0)
(3 -1.733131058e-14 0)
(3 -2.457653741e-14 0)
(3 -2.274514139e-14 0)
(3 -1.875727599e-14 0)
(3 -7.983404002e-15 0)
(3 7.577752346e-17 0)
(3 4.356385564e-15 0)
)
;
    }
    procBoundary8to7
    {
        type            processor;
        value           nonuniform List<vector> 
15
(
(3 -1.129458126e-14 0)
(3 -1.565276967e-14 0)
(3 -1.446405765e-14 0)
(3 -7.457646158e-15 0)
(3 9.269787446e-16 0)
(3 9.611157864e-16 0)
(3 2.545633647e-15 0)
(3 6.963342317e-15 0)
(3 8.779986677e-15 0)
(3 8.482377334e-15 0)
(3 2.205654024e-15 0)
(3 -9.62415629e-15 0)
(3 -1.181593889e-14 0)
(3 -9.980041862e-15 0)
(3 -6.922358289e-15 0)
)
;
    }
    procBoundary8to9
    {
        type            processor;
        value           nonuniform List<vector> 2((3 -1.663305686e-13 0) (3 -1.69319778e-10 0));
    }
    procBoundary8to14
    {
        type            processor;
        value           nonuniform List<vector> 
35
(
(3 -4.53493575e-16 0)
(3 2.375397266e-15 0)
(3 4.848908275e-15 0)
(3 5.014592553e-15 0)
(3 5.087413171e-15 0)
(3 5.21452701e-15 0)
(3 5.097459042e-15 0)
(3 6.412120563e-15 0)
(3 6.119523026e-15 0)
(3 4.345009554e-15 0)
(3 3.624196761e-15 0)
(3 3.624196761e-15 0)
(3 3.379807304e-15 0)
(3 3.969637778e-15 0)
(3 4.405956852e-15 0)
(3 5.932247208e-15 0)
(3 6.07163817e-15 0)
(3 6.415522409e-15 0)
(3 6.896699643e-15 0)
(3 6.192599831e-15 0)
(3 5.279207115e-15 0)
(3 5.614090837e-15 0)
(3 7.23615353e-15 0)
(3 1.174646378e-14 0)
(3 1.547845237e-14 0)
(3 2.606616296e-14 0)
(3 5.308319021e-14 0)
(3 8.915822608e-14 0)
(3 1.634630712e-13 0)
(3 2.427196786e-13 0)
(3 3.337152703e-13 0)
(3 3.486798861e-13 0)
(3 5.059561711e-13 0)
(3 4.553416067e-13 0)
(3 3.166012631e-11 0)
)
;
    }
}


// ************************************************************************* //
