/*--------------------------------*- C++ -*----------------------------------*\
  =========                 |
  \\      /  F ield         | OpenFOAM: The Open Source CFD Toolbox
   \\    /   O peration     | Website:  https://openfoam.org
    \\  /    A nd           | Version:  7
     \\/     M anipulation  |
\*---------------------------------------------------------------------------*/
FoamFile
{
    version     2.0;
    format      ascii;
    class       volScalarField;
    location    "0.5";
    object      T;
}
// * * * * * * * * * * * * * * * * * * * * * * * * * * * * * * * * * * * * * //

dimensions      [0 0 0 1 0 0 0];

internalField   nonuniform List<scalar> 
555
(
0.9800081634
0.982964774
0.9881640141
0.9946792445
0.996944653
0.9830951749
0.9827121459
0.9825111372
0.9821119714
0.9808148231
0.9796379294
0.9791298956
0.9790360012
0.979266602
0.9796824332
0.9799569065
0.9804124822
0.9815661388
0.9842830227
0.98959969
0.9950579608
0.9982901381
0.9852193585
0.9846381694
0.9845130168
0.9838665406
0.9827651734
0.9820368865
0.9816544285
0.9816231331
0.9819667773
0.9823564247
0.9823775747
0.9826698361
0.9834028881
0.9858350076
0.9906670927
0.9956360411
1.000525856
0.9876960063
0.9866149264
0.9861797388
0.9855244877
0.9849883248
0.9845807576
0.9843410705
0.9842752112
0.9848039981
0.9848337398
0.9847187422
0.9841992642
0.9847213763
0.9870943408
0.9915452588
0.998176641
1.003220587
0.9904492971
0.9890032412
0.987855582
0.9871223264
0.9868937941
0.9869195685
0.9870352027
0.9870260899
0.9869808707
0.9870473797
0.9861575214
0.9857786564
0.9866619266
0.9892500112
0.9938869502
1.001116971
1.006221313
0.9933736714
0.9914164942
0.9898422761
0.9890530297
0.9887139577
0.9885970758
0.9888231075
0.9890171475
0.9889919466
0.9885116634
0.9879237512
0.9885491653
0.9897725147
0.9922994654
0.9966151908
1.004019386
1.009553544
0.9960784572
0.9937842322
0.9920458343
0.9912429312
0.9908438924
0.99071552
0.99118121
0.991184431
0.9907464274
0.9896480476
0.9899891041
0.9909572533
0.9924253584
0.9949223169
0.9991425294
1.006870982
1.01273272
0.996125309
0.9942351959
0.9934505531
0.99305668
0.9928233945
0.9930440151
0.9928111122
0.9917025076
0.9912701348
0.991837574
0.9929538799
0.9945627149
0.9971236137
1.001559431
1.009722789
1.01507136
0.9978892632
0.9964313468
0.995472089
0.9950087617
0.9944862568
0.9942310608
0.9933828023
0.992628423
0.9929284481
0.9936837031
0.9947288675
0.9964403479
0.9990748382
1.003892
1.012304307
1.016837013
0.999159817
0.9979132083
0.9971561278
0.9962608742
0.9949289664
0.9944351967
0.9937760897
0.9939807046
0.9946150557
0.9955840155
0.9966210792
0.9979573112
1.000527753
1.005994343
1.01399455
1.017858839
0.9996189028
0.9988662586
0.9981529363
0.9973717464
0.9962930063
0.9953176912
0.9950872103
0.9953568832
0.9961095284
0.9970909987
0.9982566842
0.9995229266
1.002038304
1.007491182
1.015037406
1.017776873
1.000127433
0.99937925
0.9988421457
0.9982243456
0.9975883643
0.9968815666
0.9964454091
0.9966119215
0.9972105272
0.9980707989
0.9991098745
1.00054944
1.003110709
1.008490161
1.014544423
1.017700106
1.000992192
1.000068337
0.9995862911
0.999169476
0.9988456611
0.9982354904
0.9977848564
0.9978226511
0.998122351
0.9988488213
0.9996765966
1.00073875
1.003071849
1.008325145
1.012866662
1.01827505
1.001849213
1.000850395
1.000325683
1.000195683
1.000030694
0.9994872939
0.9990780874
0.9989472667
0.9989345707
0.9990845144
0.9996586183
1.000916901
1.003644229
1.008099991
1.013753405
1.019231282
1.002688795
1.001674769
1.001316367
1.001136085
1.000980258
1.000511267
1.000167686
0.9999463353
0.9996354979
0.9990923316
0.999520119
1.000912983
1.003862349
1.008208024
1.014265263
1.020749173
1.004134897
1.002967817
1.002458179
1.002041838
1.001734207
1.001215787
1.00085835
1.000601168
1.000156082
0.9995423552
0.9998507143
1.001141877
1.004188227
1.008549311
1.014379671
1.022396925
1.005782741
1.004215414
1.003317343
1.002586165
1.00209282
1.001448814
1.001080998
1.000920686
1.000447829
1.000070935
1.000473326
1.001896519
1.004708108
1.0091131
1.015601563
1.02446327
1.007106635
1.005065306
1.003763938
1.002803049
1.00213266
1.001454393
1.001100655
1.001115787
1.000855389
1.000675111
1.001168651
1.002720475
1.005475831
1.009961017
1.017594416
1.025733367
1.007474115
1.005161539
1.00382642
1.002943707
1.002263788
1.001638329
1.00132154
1.001506689
1.001456745
1.00158342
1.002199716
1.003996282
1.006758135
1.011683735
1.019728
1.025577016
1.007192558
1.005047261
1.003828591
1.003142671
1.002821996
1.002379008
1.001805789
1.001460371
1.001376208
1.001593875
1.002363435
1.004348955
1.007200558
1.012393339
1.019851818
1.024802296
1.007001129
1.005132661
1.003915016
1.003141368
1.002644611
1.002015673
1.001227365
1.000808254
1.00078757
1.000921895
1.001434233
1.002672059
1.005302345
1.009917382
1.016429789
1.023019409
1.006683566
1.004490187
1.002729516
1.001563812
1.001074287
1.000728551
1.000353362
1.00036268
1.000397856
1.000432846
1.000749888
1.001908151
1.00438385
1.008888115
1.015355403
1.022310921
1.005729886
1.003691851
1.001925395
1.000708972
1.000135472
0.9996989269
0.9993157619
0.9992964563
0.9993020007
0.9993318485
0.9996318732
1.000716368
1.00309147
1.007252159
1.013748995
1.020989001
1.003974859
1.002161567
1.000517247
0.9994725767
0.9990550299
0.9987051999
0.9983755037
0.9981413682
0.9979576949
0.9979538318
0.9982341539
0.9992166201
1.001383719
1.005363445
1.011783183
1.019130292
1.002035622
1.000293
0.9987467757
0.9980398276
0.9977423162
0.9974426754
0.9970888917
0.9967500095
0.9965895786
0.9966105927
0.9968868177
0.9977922631
0.9998935597
1.003899281
1.010198316
1.017384935
1.001143048
0.9994350146
0.9978501412
0.9972032935
0.9968575049
0.9964904259
0.9959853953
0.9955084616
0.9953601806
0.9953826134
0.9956366931
0.9964903859
0.998498358
1.002470691
1.008861787
1.016256622
1.001008245
0.9990195369
0.997414877
0.9966331804
0.9961597949
0.9957018197
0.9949717674
0.9944372631
0.9943730577
0.994432032
0.9947207033
0.9955677987
0.9975206081
1.001450826
1.007756132
1.015516178
1.000730206
0.9981698395
0.9963496557
0.9955288346
0.9951457728
0.9945659302
0.9939125723
0.9935493146
0.9935585137
0.9937030356
0.9940949657
0.9949643201
0.9968332379
1.000676062
1.006664041
1.01471226
0.9995623066
0.9964597521
0.994749343
0.994603813
0.9944420441
0.9939325064
0.9934028268
0.9932277618
0.993209229
0.9932856807
0.9936795414
0.994464542
0.9961553959
0.9996919878
1.005068073
1.01350962
0.9979371134
0.995397914
0.9948675759
0.9948992433
0.9947392288
0.9943771178
0.9940787711
0.9939013245
0.9935818254
0.9932823118
0.9933250824
0.9938303361
0.9952733609
0.9984704518
1.003615339
1.01254947
0.9982475435
0.9972484668
0.9968543219
0.9964570061
0.9957033626
0.9948303039
0.9942120362
0.9937241059
0.9932551192
0.9928787178
0.9928764121
0.9931961707
0.994476798
0.9975284103
1.002918265
1.012109632
0.9946230163
0.996478291
0.996816207
0.9962588374
0.9952570575
0.9941615714
0.9933239957
0.9926731758
0.9922082386
0.992114991
0.9922481984
0.9927624736
0.9941575095
0.9973146717
1.002724251
1.012182928
0.9677315665
0.9891859296
0.9917985486
0.9920553471
0.9922387368
0.9909893654
0.9906644508
0.9910109309
0.9913129411
0.9918467523
0.992141381
0.992426226
0.9936577597
0.996687491
1.001888803
1.0115589
0.9264699402
0.962289855
0.9737316821
0.9834421167
0.9899458355
0.9889033241
0.9897146787
0.9906671469
0.9914287366
0.9918069027
0.9915081817
0.9916157377
0.9927618612
0.9956087732
1.000143249
1.009962536
0.8805613453
0.9032079138
0.9380045096
0.9681387848
0.9839681516
0.9875080523
0.9919276784
0.99209941
0.9916797447
0.9910664801
0.9896149935
0.9897194711
0.9907286392
0.9930784963
0.9971919892
1.007810917
)
;

boundaryField
{
    inlet
    {
        type            fixedValue;
        value           nonuniform 0();
    }
    outlet
    {
        type            inletOutlet;
        inletValue      uniform 1;
        value           nonuniform List<scalar> 
35
(
1.023038743
1.022362647
1.02103788
1.019176983
1.017425899
1.016297339
1.015565798
1.014769534
1.013578172
1.01261808
1.012170335
1.012248887
1.011635277
1.010059861
1.007901496
0.9967916811
0.9983228501
1.00056875
1.003315849
1.006389689
1.009767307
1.01283101
1.015051859
1.016746924
1.017623418
1.017498883
1.017642071
1.018334656
1.019290831
1.020885076
1.022705771
1.024805311
1.025829807
1.025589013
1.024703025
)
;
    }
    bottom
    {
        type            slip;
    }
    top
    {
        type            slip;
    }
    obstacle
    {
        type            zeroGradient;
    }
    defaultFaces
    {
        type            empty;
    }
    procBoundary29to23
    {
        type            processor;
        value           nonuniform List<scalar> 
18
(
0.9788428481
0.9817571657
0.9865166027
0.9934224804
0.9967217968
0.9811950131
0.9806889196
0.9806483573
0.9804750549
0.979709752
0.9781015929
0.9769411402
0.9766409985
0.9767815806
0.9772374717
0.9776817289
0.9784527551
0.9784527551
)
;
    }
    procBoundary29to28
    {
        type            processor;
        value           nonuniform List<scalar> 
34
(
0.9840493395
0.9864013525
0.9889289581
0.9917288012
0.9947206714
0.9975965668
0.9983808025
0.9983808025
1.000104714
1.001306217
1.001353863
1.001420172
1.002459035
1.003602196
1.004973624
1.006433611
1.007950557
1.009184672
1.009768768
1.009605549
1.009274619
1.008754587
1.007720592
1.006027631
1.004185188
1.002815605
1.00249476
1.002517447
1.00195936
0.9994778286
0.9988583562
0.9923836344
0.94564125
0.8913165268
)
;
    }
    procBoundary29to34
    {
        type            processor;
        value           uniform 0.8702903694;
    }
    procBoundary29to35
    {
        type            processor;
        value           nonuniform List<scalar> 
16
(
0.8707337797
0.8733501432
0.8877579768
0.9121087677
0.9430163687
0.9680707962
0.9872521989
0.9882924717
0.9890325728
0.9870723234
0.9867473386
0.9878271576
0.9892212297
0.9914102012
0.9955450192
1.006753267
)
;
    }
}


// ************************************************************************* //
