/*--------------------------------*- C++ -*----------------------------------*\
  =========                 |
  \\      /  F ield         | OpenFOAM: The Open Source CFD Toolbox
   \\    /   O peration     | Website:  https://openfoam.org
    \\  /    A nd           | Version:  7
     \\/     M anipulation  |
\*---------------------------------------------------------------------------*/
FoamFile
{
    version     2.0;
    format      ascii;
    class       volVectorField;
    location    "4.4";
    object      U;
}
// * * * * * * * * * * * * * * * * * * * * * * * * * * * * * * * * * * * * * //

dimensions      [0 1 -1 0 0 0 0];

internalField   nonuniform List<vector> 
555
(
(2.853192935 -0.001053043793 0)
(2.852794551 -0.001737356451 0)
(2.852778387 -0.001795534143 0)
(2.853214776 -0.001305288787 0)
(2.853704655 -0.0007496654577 0)
(2.854406156 -0.0001874970134 0)
(2.854998437 0.0006886495349 0)
(2.855456666 0.001561542843 0)
(2.85557033 0.002179754851 0)
(2.85573566 0.00219589663 0)
(2.85634118 0.001403018509 0)
(2.857570691 -0.0001429253607 0)
(2.858785085 -0.001266998772 0)
(2.859826478 -0.001037243573 0)
(2.860694419 -0.0001677920419 0)
(2.861279002 0.0008674517035 0)
(2.861693105 0.001975794251 0)
(2.852392053 -0.0007876656978 0)
(2.851900644 -0.001542997232 0)
(2.851731646 -0.002258831598 0)
(2.85187461 -0.002394031866 0)
(2.852412733 -0.001766825035 0)
(2.853018186 -0.001085391039 0)
(2.854080926 0.000464453439 0)
(2.854976024 0.002210092885 0)
(2.855279635 0.003530056575 0)
(2.855865467 0.003640432517 0)
(2.856420675 0.003007662562 0)
(2.857492447 0.001201611858 0)
(2.859080512 -0.0001776034895 0)
(2.860076886 -1.674528739e-06 0)
(2.861046125 0.0005764997005 0)
(2.861495647 0.002488835076 0)
(2.861660835 0.003240614767 0)
(2.85296681 -0.0006217693333 0)
(2.85240845 -0.001892920837 0)
(2.852037702 -0.003153410387 0)
(2.852030787 -0.003663015674 0)
(2.852619307 -0.003362200597 0)
(2.853376094 -0.002783947532 0)
(2.854620409 -0.001356088219 0)
(2.855436345 0.001079189521 0)
(2.856042867 0.003241314396 0)
(2.85672871 0.004062789106 0)
(2.857443376 0.003401185313 0)
(2.858180572 0.001877441015 0)
(2.859465485 0.0008816586565 0)
(2.860684534 0.00102191465 0)
(2.861570574 0.001862986879 0)
(2.8619914 0.003589799295 0)
(2.861975013 0.004034526101 0)
(2.854598148 -0.0008135731122 0)
(2.854079936 -0.001857130999 0)
(2.853568949 -0.002724649898 0)
(2.853742348 -0.002932525828 0)
(2.85499979 -0.002191034234 0)
(2.856012042 -0.002078932947 0)
(2.856765865 -0.00191504119 0)
(2.856806394 -0.001647093997 0)
(2.857058383 -0.000210042537 0)
(2.857678548 0.001903372479 0)
(2.858619974 0.002665084254 0)
(2.859445357 0.002387693022 0)
(2.860748388 0.001862228639 0)
(2.862280755 0.001819818035 0)
(2.863332294 0.003230180827 0)
(2.863987434 0.004373336486 0)
(2.864336204 0.004711836676 0)
(2.857354269 -0.001249159652 0)
(2.856859085 -0.002245111693 0)
(2.856624219 -0.002195297233 0)
(2.857104208 -0.00142660306 0)
(2.857996316 -0.001501407365 0)
(2.858763296 -0.001754396238 0)
(2.859477311 -0.002565376753 0)
(2.859846218 -0.003560655384 0)
(2.85946942 -0.004050706477 0)
(2.85939062 -0.003037944895 0)
(2.860345636 -0.0001432178908 0)
(2.861631085 0.002285476368 0)
(2.863072175 0.00289632021 0)
(2.864691332 0.003391870318 0)
(2.866314372 0.003851900649 0)
(2.867223881 0.003988569775 0)
(2.86825478 0.004389963264 0)
(2.861365143 -0.001634923131 0)
(2.861168021 -0.001384742381 0)
(2.860590658 -0.001378978491 0)
(2.860593208 -0.001217963552 0)
(2.860860161 -0.0006143095193 0)
(2.861547477 -0.0006521064492 0)
(2.862475338 -0.001751698041 0)
(2.863506358 -0.00332026626 0)
(2.864117683 -0.004648716074 0)
(2.864274621 -0.005537101616 0)
(2.864878796 -0.004913743323 0)
(2.866011655 -0.001989095339 0)
(2.867456756 0.0005922526627 0)
(2.86889147 0.001895847111 0)
(2.870038403 0.001783612947 0)
(2.870800621 0.001869291629 0)
(2.871801455 0.002702036831 0)
(2.866497646 -0.001157152241 0)
(2.866020432 -0.001458672906 0)
(2.865238413 -0.0009242991334 0)
(2.864767998 -0.0001200914739 0)
(2.865188267 0.0004763556605 0)
(2.866534597 7.076241551e-05 0)
(2.867690683 -0.0008671366399 0)
(2.868703472 -0.002120954078 0)
(2.87085416 -0.004293013302 0)
(2.872351354 -0.006083950067 0)
(2.87306911 -0.005664847188 0)
(2.87381296 -0.003846103208 0)
(2.874649293 -0.001749657912 0)
(2.874934228 -0.001014411493 0)
(2.875041521 -0.001376071945 0)
(2.875511301 -0.002286380237 0)
(2.876044791 -0.001020663904 0)
(2.872528096 -0.0003063388603 0)
(2.871644739 -8.101391848e-05 0)
(2.871634225 0.0002811238911 0)
(2.871993711 0.0008882391734 0)
(2.872958038 0.001151832959 0)
(2.874458216 0.0007231563323 0)
(2.875667286 -0.0001614999008 0)
(2.876919363 -0.001347090612 0)
(2.878552804 -0.002657768536 0)
(2.880427883 -0.003514496528 0)
(2.881164669 -0.003598238214 0)
(2.88145374 -0.002828022655 0)
(2.88151117 -0.002145771484 0)
(2.881720493 -0.002648869279 0)
(2.88188203 -0.003244596054 0)
(2.881848347 -0.003754458439 0)
(2.882619323 -0.003950473257 0)
(2.880255352 0.0008758489876 0)
(2.879916459 0.0006615709117 0)
(2.880451404 0.0008448884053 0)
(2.88137473 0.001338129684 0)
(2.882629082 0.00141201462 0)
(2.884216171 0.001168995452 0)
(2.885181904 0.0003737394987 0)
(2.885615198 -0.0005151840185 0)
(2.886429828 -0.0009332912 0)
(2.886414229 -0.0003823148021 0)
(2.886943728 -0.0009927629243 0)
(2.887198606 -0.001509762877 0)
(2.886993227 -0.002166354048 0)
(2.887309818 -0.0029712852 0)
(2.888261384 -0.003839324905 0)
(2.889033463 -0.005406991595 0)
(2.890913588 -0.005853647528 0)
(2.891342435 0.001627476802 0)
(2.890773972 0.001224244464 0)
(2.89048422 0.0005370999641 0)
(2.890669961 -0.0002582505668 0)
(2.891045919 -0.0003977227218 0)
(2.891373817 -0.0004208228563 0)
(2.89227197 0.0001783643255 0)
(2.893277353 0.001162520056 0)
(2.89392445 0.001832831347 0)
(2.894018803 0.002534174168 0)
(2.894007173 0.002518627067 0)
(2.894538353 0.001453854916 0)
(2.894830291 0.0002189750347 0)
(2.894637615 -0.00111924605 0)
(2.894571909 -0.002023430495 0)
(2.895592152 -0.002905830616 0)
(2.89736012 -0.004237698597 0)
(2.899815238 -0.003480308383 0)
(2.904585218 0.001055479823 0)
(2.903804957 0.0005757718299 0)
(2.903256593 -0.0003476892933 0)
(2.90288929 -0.0018261154 0)
(2.902781763 -0.002672682443 0)
(2.902802776 -0.002684711305 0)
(2.903290704 -0.001920488773 0)
(2.904505085 -6.743725256e-08 0)
(2.905545623 0.002426169886 0)
(2.906222714 0.003801329114 0)
(2.906714387 0.003609339026 0)
(2.906325709 0.003000879042 0)
(2.905842561 0.001900738616 0)
(2.905530871 0.0004158514686 0)
(2.905487337 -0.0009329192845 0)
(2.9058299 -0.001895175245 0)
(2.906305892 -0.002113198388 0)
(2.906583334 -0.001620425162 0)
(2.920291922 0.0003638572736 0)
(2.919347407 -0.0001783758086 0)
(2.918761997 -0.001100689565 0)
(2.918475915 -0.002573070041 0)
(2.91890423 -0.003422013926 0)
(2.919894438 -0.003047420133 0)
(2.920861486 -0.002565267545 0)
(2.921170551 -0.001012124781 0)
(2.92110702 0.001735265275 0)
(2.921441298 0.003683828639 0)
(2.921632372 0.004028625405 0)
(2.920518198 0.003578620985 0)
(2.919625168 0.002098493516 0)
(2.918990019 0.0005567332587 0)
(2.918249482 -0.0002224402873 0)
(2.917220004 -9.618375911e-05 0)
(2.916313843 0.001375019032 0)
(2.915054397 0.002001262812 0)
(2.93828669 -0.0010698288 0)
(2.937507289 -0.0009926975937 0)
(2.937127729 -0.001323659675 0)
(2.937161774 -0.00228284588 0)
(2.937909003 -0.002884698218 0)
(2.938944094 -0.002704132347 0)
(2.939245793 -0.002290962391 0)
(2.938529673 -0.001286319935 0)
(2.938435842 -0.0005054438569 0)
(2.938345978 0.0008740888405 0)
(2.93792751 0.002386694216 0)
(2.937516735 0.00286316682 0)
(2.936160233 0.001808955687 0)
(2.934448396 0.001040898934 0)
(2.932577948 0.001356464139 0)
(2.931007828 0.002299486573 0)
(2.929494758 0.004680402754 0)
(2.930005279 0.004250513044 0)
(2.958800305 -0.001414966675 0)
(2.957995999 -0.001083409443 0)
(2.957631696 -0.001150437132 0)
(2.957517441 -0.001293896711 0)
(2.957522469 -0.001084375027 0)
(2.957392688 -0.0007689882336 0)
(2.956856268 -0.000609925019 0)
(2.956650975 -0.000902413846 0)
(2.956789868 -0.00173869218 0)
(2.956608056 -0.001783435302 0)
(2.955682839 -0.0008447294924 0)
(2.95509386 0.0003287320922 0)
(2.953499482 0.0009692929379 0)
(2.951080965 0.001642279449 0)
(2.949423763 0.002904220355 0)
(2.948379788 0.004835084001 0)
(2.948190073 0.005732043782 0)
(2.948249075 0.004866214033 0)
(2.981190494 -0.001900147229 0)
(2.980210804 -0.0007597063637 0)
(2.979171651 0.0001627334967 0)
(2.978143973 0.0009008727868 0)
(2.977480479 0.001060157113 0)
(2.977193263 0.0007921086207 0)
(2.977313292 4.382978666e-05 0)
(2.977688138 -0.001582596647 0)
(2.977327069 -0.002974865189 0)
(2.976804498 -0.003654888596 0)
(2.975989039 -0.003728643691 0)
(2.974687684 -0.002801259739 0)
(2.972975079 -0.001041383081 0)
(2.971411538 0.0008632505354 0)
(2.970635095 0.003484273971 0)
(2.970000099 0.005358208532 0)
(2.969380746 0.005536273904 0)
(2.969017918 0.004605989549 0)
(3.003642639 -2.677409046e-05 0)
(3.002182077 0.001119256748 0)
(3.000943155 0.001836717357 0)
(3.000024767 0.002637709822 0)
(3.000058842 0.002500674623 0)
(3.000419308 0.001419307978 0)
(3.00088585 5.55644188e-05 0)
(3.000902225 -0.002051210417 0)
(3.000428619 -0.00361082504 0)
(2.999917739 -0.004824252289 0)
(2.999543011 -0.005110825633 0)
(2.998622822 -0.004494860249 0)
(2.99772898 -0.00262301948 0)
(2.996767348 0.0002665514298 0)
(2.994845111 0.002612340986 0)
(2.993658684 0.003881218597 0)
(2.99248278 0.004349968895 0)
(2.991881296 0.003482070279 0)
(3.025862881 0.00177942068 0)
(3.024795723 0.002004534353 0)
(3.024192986 0.001976920697 0)
(3.024289091 0.002422565675 0)
(3.024755113 0.002531030707 0)
(3.024720872 0.001874956819 0)
(3.02454701 0.0001319298326 0)
(3.024663965 -0.002027068307 0)
(3.024873618 -0.003297973092 0)
(3.024784959 -0.004837767029 0)
(3.024776684 -0.004712415017 0)
(3.023995088 -0.003477504078 0)
(3.022674495 -0.001579147214 0)
(3.021355738 0.0004276742871 0)
(3.019135945 0.001487900394 0)
(3.017420536 0.001541028371 0)
(3.015771116 0.001064175009 0)
(3.015405433 0.00122276539 0)
(3.050181494 0.002546364415 0)
(3.049573663 0.001752688879 0)
(3.049003682 0.001166282692 0)
(3.049228184 0.001467115607 0)
(3.049314626 0.001347591589 0)
(3.049122279 0.0006789270126 0)
(3.049181708 -0.000506110572 0)
(3.049138826 -0.001304166751 0)
(3.049293386 -0.002350005009 0)
(3.049525877 -0.00349642662 0)
(3.049189029 -0.003222220233 0)
(3.048054362 -0.001785466926 0)
(3.046481544 -0.0006411300027 0)
(3.045350545 -0.0001381899798 0)
(3.043772327 -6.074111792e-05 0)
(3.041966828 -0.0004855479041 0)
(3.040731377 -0.001269469636 0)
(3.039996657 -0.001173587109 0)
(3.075289715 0.002680182736 0)
(3.074368274 0.001564570923 0)
(3.073675288 0.0005777266522 0)
(3.073820599 0.0002235579155 0)
(3.073930153 -0.0002361679421 0)
(3.074381398 -0.00047915428 0)
(3.074298534 -0.0005867030751 0)
(3.074205278 -0.000174279515 0)
(3.074527329 -0.0003569791053 0)
(3.074508582 -0.0005624521614 0)
(3.07419433 -0.000802845354 0)
(3.073577825 -0.000791360752 0)
(3.072885006 -0.0007855788504 0)
(3.071622271 -0.001172845816 0)
(3.070089212 -0.001556961978 0)
(3.068171663 -0.002038773868 0)
(3.066951916 -0.002628598663 0)
(3.066667661 -0.002757469848 0)
(3.099127777 0.002135905432 0)
(3.098556558 0.0007346479512 0)
(3.098397519 -0.0005255252207 0)
(3.098626874 -0.001418393833 0)
(3.099015645 -0.001993450703 0)
(3.099355217 -0.001393090934 0)
(3.099432345 -0.0005456353193 0)
(3.100091632 0.0003863388942 0)
(3.100661163 0.001279908285 0)
(3.101072393 0.001979549711 0)
(3.101342033 0.001118513731 0)
(3.101053587 1.99570877e-05 0)
(3.100137479 -0.0007042558498 0)
(3.098553269 -0.001443249025 0)
(3.097335667 -0.002224106386 0)
(3.095983577 -0.003147830348 0)
(3.095196141 -0.003606040482 0)
(3.094972938 -0.002881588418 0)
(3.123212866 0.00125420883 0)
(3.123000557 -3.893938196e-05 0)
(3.123320795 -0.001635212592 0)
(3.123836823 -0.00268635659 0)
(3.124056426 -0.002624328156 0)
(3.124522877 -0.00182811966 0)
(3.125441018 -0.0001802195391 0)
(3.126267505 0.0008397379583 0)
(3.127153394 0.00157262823 0)
(3.127824538 0.001943203425 0)
(3.128161237 0.001494659981 0)
(3.127645578 0.0009980186276 0)
(3.126477257 5.515665551e-05 0)
(3.125184281 -0.001243717044 0)
(3.124359626 -0.002784133635 0)
(3.123579451 -0.003298051066 0)
(3.122895259 -0.003502425925 0)
(3.12275763 -0.002075957029 0)
(3.148141135 -0.0004969675626 0)
(3.148075151 -0.001144408881 0)
(3.148206131 -0.001981592747 0)
(3.148630561 -0.002479249852 0)
(3.148906772 -0.002110943596 0)
(3.15003357 -0.0009870889044 0)
(3.151130476 0.0002408867169 0)
(3.152178983 0.0007852630098 0)
(3.153103332 0.001054693312 0)
(3.153751867 0.001240424249 0)
(3.153927938 0.00115288706 0)
(3.153303306 0.0005706647035 0)
(3.152525989 -0.0005158047552 0)
(3.151492516 -0.001529302099 0)
(3.150388942 -0.002074450605 0)
(3.149557686 -0.001994769981 0)
(3.148745891 -0.001183700821 0)
(3.148828331 0.0004540232839 0)
(3.172416727 -0.002813854767 0)
(3.172159809 -0.001898758229 0)
(3.172167489 -0.001553080677 0)
(3.172147528 -0.001566148023 0)
(3.172258095 -0.001887178828 0)
(3.17337754 -0.001280063481 0)
(3.174379551 -0.0003459167663 0)
(3.175858332 -0.0001857994997 0)
(3.177277807 1.019768532e-06 0)
(3.178103726 0.0002616247562 0)
(3.178658077 0.0001932095557 0)
(3.178780384 0.0001118461555 0)
(3.178400828 -0.0004239557082 0)
(3.17768925 -0.0008243777888 0)
(3.176451071 -0.000915362797 0)
(3.174824818 -0.0005898519632 0)
(3.173845629 0.0004067965884 0)
(3.17347915 0.002287965424 0)
(3.173983416 0.00286904138 0)
(3.194349202 -0.003677637674 0)
(3.193954674 -0.002565466891 0)
(3.193889612 -0.001786362919 0)
(3.19416581 -0.001053549501 0)
(3.194745376 -0.0005028866873 0)
(3.196067171 0.0001042611881 0)
(3.197223143 -0.0001387431639 0)
(3.198811574 -0.0006396526434 0)
(3.200285596 -0.0009731181161 0)
(3.200998161 -0.0007298129271 0)
(3.20140055 -0.0009086071758 0)
(3.201519046 -0.0008443075425 0)
(3.200987777 -0.0009083438489 0)
(3.199886597 -0.0006519952748 0)
(3.198496673 -0.0002235853054 0)
(3.197352765 0.0004120591416 0)
(3.196948523 0.001707786952 0)
(3.196819308 0.003230767604 0)
(3.197473777 0.003066018609 0)
(3.21393611 -0.00316768814 0)
(3.21369553 -0.002202787264 0)
(3.213719953 -0.001332900021 0)
(3.214070903 -0.0001186025207 0)
(3.215039741 0.001230039829 0)
(3.216371238 0.000898232131 0)
(3.217740455 -7.551329208e-06 0)
(3.218849536 -0.001012805922 0)
(3.219970036 -0.001588110713 0)
(3.220734082 -0.00188115604 0)
(3.220839355 -0.001866503422 0)
(3.220259646 -0.001726534284 0)
(3.219436487 -0.00114762506 0)
(3.218441366 -0.0005128070593 0)
(3.21725942 0.0002922003857 0)
(3.216394548 0.001349939312 0)
(3.215845075 0.002214670544 0)
(3.215872189 0.002886055806 0)
(3.216295472 0.002299946753 0)
(3.230541065 -0.001471609591 0)
(3.230374604 -0.0007315232657 0)
(3.230215328 0.0002288544754 0)
(3.230498572 0.001158965183 0)
(3.231819814 0.00160438232 0)
(3.233225294 0.0009622083041 0)
(3.234271543 0.0001148028006 0)
(3.235310322 -0.0008745201939 0)
(3.235939354 -0.001736936116 0)
(3.236050736 -0.002388828867 0)
(3.235644121 -0.002377458502 0)
(3.234723715 -0.00205261922 0)
(3.233999279 -0.001096656719 0)
(3.233114046 3.284518627e-06 0)
(3.231860272 0.001059932984 0)
(3.230921235 0.001742411876 0)
(3.230339954 0.00186347311 0)
(3.229912888 0.001971060312 0)
(3.230154047 0.001337279771 0)
(3.24341818 0.001548747733 0)
(3.24335561 0.001550065334 0)
(3.243211226 0.00186281938 0)
(3.243680009 0.002010413368 0)
(3.244800031 0.001575646975 0)
(3.245619139 0.001044610938 0)
(3.246529848 0.0004418996217 0)
(3.247493391 -0.0003946575576 0)
(3.247656203 -0.001465802082 0)
(3.24718838 -0.002483824996 0)
(3.24638545 -0.002498360801 0)
(3.245368896 -0.001902667935 0)
(3.244545633 -0.0009173795697 0)
(3.243503142 0.0004028652216 0)
(3.242492036 0.001336774088 0)
(3.241596301 0.001742796844 0)
(3.240572987 0.001408589941 0)
(3.239580908 0.0003302731939 0)
(3.239709664 -0.0003425290064 0)
(3.252961493 0.003538163943 0)
(3.252885019 0.003253279607 0)
(3.252846228 0.003036236578 0)
(3.253064851 0.003001165311 0)
(3.25331198 0.001860893677 0)
(3.254029175 0.001411017916 0)
(3.254739609 0.0008577680619 0)
(3.255165363 -0.0002924133875 0)
(3.255018583 -0.001528060392 0)
(3.254391003 -0.002304490159 0)
(3.253745627 -0.002133237517 0)
(3.252273158 -0.001382517264 0)
(3.25127901 -0.0005398757553 0)
(3.250604003 0.0006288801757 0)
(3.249765691 0.001423481009 0)
(3.248404925 0.001315055154 0)
(3.246848069 0.000397345996 0)
(3.245585617 -0.001455044029 0)
(3.245486934 -0.002521459121 0)
(3.258519821 0.0041295282 0)
(3.258001201 0.002933300491 0)
(3.257690872 0.002406543721 0)
(3.257802576 0.002483151925 0)
(3.25824177 0.00167303357 0)
(3.258919639 0.001359123087 0)
(3.259304023 0.0004929884101 0)
(3.259208092 -0.001008669861 0)
(3.258919785 -0.001668923242 0)
(3.258230201 -0.001771339524 0)
(3.257295117 -0.001497497461 0)
(3.256213821 -0.0006456143042 0)
(3.255374658 -6.990555214e-05 0)
(3.254796866 0.000548103444 0)
(3.253682116 0.0009645081913 0)
(3.252110169 0.0002491992727 0)
(3.250767339 -0.00103214959 0)
(3.249726245 -0.002843835579 0)
(3.249265929 -0.003901639744 0)
(3.260959719 0.002572287409 0)
(3.260082206 0.00136326652 0)
(3.259740421 0.001347496365 0)
(3.259829611 0.001310009593 0)
(3.260310652 0.0006765102062 0)
(3.260952872 0.0002620816861 0)
(3.261268261 -0.0005008067671 0)
(3.261139714 -0.001134567335 0)
(3.260453856 -0.00125338943 0)
(3.26002291 -0.000967283354 0)
(3.259132507 -0.0005916105009 0)
(3.258521978 4.52635268e-05 0)
(3.257640576 0.00027737811 0)
(3.256489057 0.0001371756826 0)
(3.255505541 0.0001616976568 0)
(3.254438283 -0.0004137460729 0)
(3.253599451 -0.001313248263 0)
(3.252852232 -0.002319696093 0)
(3.252280384 -0.003273108897 0)
(3.261483086 0.001709189149 0)
(3.260890943 0.00106957458 0)
(3.260564588 0.001266322242 0)
(3.260466591 0.0006939396784 0)
(3.260779866 5.783672357e-05 0)
(3.261363079 -0.0001709328841 0)
(3.261897002 -0.0004929013939 0)
(3.262055051 -0.0008151422363 0)
(3.261433434 -0.0006239921772 0)
(3.261059931 -0.000314124511 0)
(3.26012702 0.0002015519084 0)
(3.259477475 0.0003324857351 0)
(3.258347957 0.0003138578842 0)
(3.257041638 8.2462879e-05 0)
(3.256249484 0.0002672083822 0)
(3.255530747 0.0001167329621 0)
)
;

boundaryField
{
    inlet
    {
        type            fixedValue;
        value           nonuniform 0();
    }
    outlet
    {
        type            inletOutlet;
        inletValue      uniform (3 0 0);
        value           nonuniform List<vector> 
30
(
(2.861693105 0.001975794251 0)
(2.861660835 0.003240614767 0)
(2.861975013 0.004034526101 0)
(2.864336204 0.004711836676 0)
(2.86825478 0.004389963264 0)
(2.871801455 0.002702036831 0)
(2.876044791 -0.001020663904 0)
(2.882619323 -0.003950473257 0)
(2.890913588 -0.005853647528 0)
(2.899815238 -0.003480308383 0)
(2.906583334 -0.001620425162 0)
(2.915054397 0.002001262812 0)
(2.930005279 0.004250513044 0)
(2.948249075 0.004866214033 0)
(2.969017918 0.004605989549 0)
(2.991881296 0.003482070279 0)
(3.015405433 0.00122276539 0)
(3.039996657 -0.001173587109 0)
(3.066667661 -0.002757469848 0)
(3.094972938 -0.002881588418 0)
(3.12275763 -0.002075957029 0)
(3.148828331 0.0004540232839 0)
(3.173983416 0.00286904138 0)
(3.197473777 0.003066018609 0)
(3.216295472 0.002299946753 0)
(3.230154047 0.001337279771 0)
(3.239709664 -0.0003425290064 0)
(3.245486934 -0.002521459121 0)
(3.249265929 -0.003901639744 0)
(3.252280384 -0.003273108897 0)
)
;
    }
    bottom
    {
        type            slip;
    }
    top
    {
        type            slip;
    }
    obstacle
    {
        type            slip;
    }
    defaultFaces
    {
        type            empty;
    }
    procBoundary17to11
    {
        type            processor;
        value           nonuniform List<vector> 
17
(
(2.855966596 -0.001562088851 0)
(2.855648986 -0.001504030189 0)
(2.855527607 -0.00130895019 0)
(2.855680706 -0.0009662162929 0)
(2.85605919 -0.0006213719021 0)
(2.856700349 3.65900375e-05 0)
(2.856752451 0.0003188287533 0)
(2.856711244 0.0002472956864 0)
(2.856756938 0.0004050585204 0)
(2.857152555 0.0005723076733 0)
(2.857972107 -0.0005856148949 0)
(2.858688997 -0.001440772307 0)
(2.8594556 -0.001756729319 0)
(2.860430607 -0.001849080842 0)
(2.861414336 -0.0005780249474 0)
(2.861910514 0.001037511054 0)
(2.862338641 0.0006198551596 0)
)
;
    }
    procBoundary17to16
    {
        type            processor;
        value           nonuniform List<vector> 
32
(
(2.853349454 -0.0002505050225 0)
(2.852616022 0.0001415365662 0)
(2.853267581 0.000444221807 0)
(2.854780901 -5.753013284e-07 0)
(2.857410193 -0.0007688014386 0)
(2.861632613 -0.001712166366 0)
(2.867072818 -0.001031584762 0)
(2.873200914 -0.0002051405292 0)
(2.880773609 0.001203766865 0)
(2.880773609 0.001203766865 0)
(2.891810442 0.001930259787 0)
(2.905273961 0.001510916347 0)
(2.921253143 0.00059508969 0)
(2.939361467 -0.001092241309 0)
(2.959949221 -0.001896138314 0)
(2.98223614 -0.002597712816 0)
(3.00488948 -0.0009446097466 0)
(3.027077212 0.001393301221 0)
(3.050879757 0.003511402369 0)
(3.076039417 0.003925591276 0)
(3.099837907 0.003175057306 0)
(3.123817618 0.001862715166 0)
(3.148435886 -0.0004337125535 0)
(3.148435886 -0.0004337125535 0)
(3.173050508 -0.003332102592 0)
(3.194786392 -0.003918058474 0)
(3.214248114 -0.003606103841 0)
(3.23074306 -0.001812836344 0)
(3.243588232 0.001395293884 0)
(3.253265147 0.003600185606 0)
(3.258955213 0.00481870225 0)
(3.261808987 0.004367415866 0)
)
;
    }
    procBoundary17to22
    {
        type            processor;
        value           uniform (3.262335617 0.002654004478 0);
    }
    procBoundary17to23
    {
        type            processor;
        value           nonuniform List<vector> 
20
(
(3.255053811 -0.0004586544853 0)
(3.254643734 -0.001072932708 0)
(3.254147954 -0.002101945298 0)
(3.261791918 0.0003778653713 0)
(3.261123915 0.0002966589004 0)
(3.26083082 0.0001117847198 0)
(3.260711031 -0.0001268601353 0)
(3.261024522 -0.0004143808262 0)
(3.261651715 -0.000156356713 0)
(3.262034649 -0.0001908987293 0)
(3.262182869 -0.0006861225975 0)
(3.261868962 -0.000612025623 0)
(3.261052942 1.076848045e-05 0)
(3.260181803 0.0001737557009 0)
(3.259206952 0.0002410360712 0)
(3.258322588 8.906857095e-05 0)
(3.257195635 0.000231301115 0)
(3.256464188 0.000585061301 0)
(3.255053811 -0.0004586544853 0)
(3.255860565 0.0006452606241 0)
)
;
    }
}


// ************************************************************************* //
