/*--------------------------------*- C++ -*----------------------------------*\
  =========                 |
  \\      /  F ield         | OpenFOAM: The Open Source CFD Toolbox
   \\    /   O peration     | Website:  https://openfoam.org
    \\  /    A nd           | Version:  7
     \\/     M anipulation  |
\*---------------------------------------------------------------------------*/
FoamFile
{
    version     2.0;
    format      ascii;
    class       volVectorField;
    location    "3.3";
    object      U;
}
// * * * * * * * * * * * * * * * * * * * * * * * * * * * * * * * * * * * * * //

dimensions      [0 1 -1 0 0 0 0];

internalField   nonuniform List<vector> 
139
(
(2.968133645 -0.002265050244 0)
(2.966676854 -0.002484925737 0)
(2.965496096 -0.002581160184 0)
(2.965345888 -0.0005446959427 0)
(2.965143323 0.0009234132254 0)
(2.965731027 -0.000259892322 0)
(2.966841561 -0.001631093437 0)
(2.926018928 -0.005897689046 0)
(2.92618723 -0.00471002561 0)
(2.926659091 -0.003355555669 0)
(2.926815195 -0.001970499199 0)
(2.927153885 -0.001675799099 0)
(2.928433938 -0.002512951785 0)
(2.930458432 -0.003245036153 0)
(2.932711927 -0.001335014544 0)
(2.889979225 -0.00139162986 0)
(2.890540015 -0.0008453589387 0)
(2.892321788 0.000483034105 0)
(2.89407212 0.001221263536 0)
(2.895834164 0.000590337615 0)
(2.898269281 -0.003035415413 0)
(2.901305606 -0.00287509615 0)
(2.903744074 0.0003489295125 0)
(2.859975108 0.001355603354 0)
(2.861653284 0.002868976543 0)
(2.864794838 0.004709762621 0)
(2.868255424 0.005130528586 0)
(2.871090482 0.002850281269 0)
(2.875021508 0.000482701875 0)
(2.877495559 0.001468547635 0)
(2.88119224 0.004508106777 0)
(2.836767374 0.0009063577457 0)
(2.839173732 0.003302701717 0)
(2.843232349 0.004211242374 0)
(2.848481055 0.003157325272 0)
(2.852489876 0.001836058174 0)
(2.856338234 0.001758779622 0)
(2.85916629 0.003564654575 0)
(2.863469731 0.003871475335 0)
(2.823392785 -0.003583004356 0)
(2.825559294 -0.001020919702 0)
(2.829887252 -5.110062339e-05 0)
(2.836114283 -0.001475879019 0)
(2.840981955 -0.002070972731 0)
(2.84331385 0.0004431943102 0)
(2.846324927 0.003162424987 0)
(2.851529491 0.002299672397 0)
(2.818371213 -0.005242012501 0)
(2.821212946 -0.003461608673 0)
(2.825177099 -0.003678281805 0)
(2.830732931 -0.004342355215 0)
(2.835331247 -0.003691373892 0)
(2.836648422 -0.001609427492 0)
(2.839005904 -0.0009686732618 0)
(2.845413076 -0.002466634758 0)
(2.816133318 -0.004184682986 0)
(2.819224924 -0.003047993997 0)
(2.822590055 -0.002925019465 0)
(2.826827467 -0.003173480542 0)
(2.831022494 -0.002295171092 0)
(2.833607263 -0.002000642084 0)
(2.835975695 -0.002448902763 0)
(2.84179615 -0.002621666755 0)
(2.816912498 -0.002414692288 0)
(2.819831565 -0.001443239769 0)
(2.822919584 -0.0003450056471 0)
(2.826320386 9.342827349e-05 0)
(2.8298315 0.0005052962964 0)
(2.83236659 -0.0004314940742 0)
(2.834682072 -0.001001164328 0)
(2.840679998 -0.0002839314451 0)
(2.820857439 -0.001350874324 0)
(2.82339901 0.0001649455675 0)
(2.826137148 0.00236511049 0)
(2.829257248 0.003413593279 0)
(2.831933932 0.002558276693 0)
(2.833487069 0.0009655416108 0)
(2.835640744 0.0008164380007 0)
(2.842252271 0.002084987298 0)
(2.858781783 -0.005244485039 0)
(2.859933171 -0.003185508392 0)
(2.860810523 -0.0006437512951 0)
(2.861570264 -7.879675644e-05 0)
(2.862348168 -0.001152172842 0)
(2.863168701 -0.001765086112 0)
(2.864610358 -0.001869831466 0)
(2.868416608 -0.002225876882 0)
(2.926498867 -0.006077989288 0)
(2.925716191 -0.005104156892 0)
(2.92509786 -0.002830935665 0)
(2.924588555 -0.0009797601652 0)
(2.922972608 0.001216169541 0)
(2.921862693 0.0009907398064 0)
(2.922018181 0.0002774818502 0)
(2.921422342 -0.0006578373921 0)
(2.972765847 -0.003108064244 0)
(2.973352763 -0.004861940837 0)
(2.973976528 -0.005370989477 0)
(2.972805578 -0.004375922672 0)
(2.970973843 -0.002572368142 0)
(2.969520251 -0.002316354059 0)
(2.968688042 -0.001138909014 0)
(2.966593116 -0.001091295553 0)
(2.998197424 0.002510383139 0)
(3.000024429 -0.003371058811 0)
(3.001240579 -0.004166868251 0)
(3.000750752 -0.003387514853 0)
(2.999725308 -0.00292710989 0)
(2.997717033 -0.003265786754 0)
(2.996128148 -0.002784569749 0)
(2.994098139 -0.001033349771 0)
(3.011432562 -0.003988192906 0)
(3.009805397 -0.00725251683 0)
(3.010357271 -0.00614926399 0)
(3.011360939 -0.004820353595 0)
(3.010520964 -0.00498899804 0)
(3.008718066 -0.00511017597 0)
(3.007323583 -0.003629764916 0)
(3.005901273 -0.002413170821 0)
(3.027520632 -0.03535403458 0)
(3.013273058 -0.02075380163 0)
(3.008827002 -0.0139606652 0)
(3.011742934 -0.006364250502 0)
(3.010261659 -0.002506088343 0)
(3.00913938 -0.002475885604 0)
(3.008031782 -0.002785812919 0)
(3.006648678 -0.002179903736 0)
(3.043546578 -0.1032932239 0)
(3.016771496 0.002585654066 0)
(2.995095414 -0.00867580048 0)
(3.006371717 -0.004819827311 0)
(3.006328922 0.001374350907 0)
(3.003155644 -0.001265111803 0)
(3.002011783 -0.003676413122 0)
(3.001523366 -0.003117503511 0)
(3.058502791 -0.1997104393 0)
(3.03786716 -0.1256961861 0)
(3.039251197 -0.1013268178 0)
(3.007311101 -0.02274418793 0)
)
;

boundaryField
{
    inlet
    {
        type            fixedValue;
        value           nonuniform 0();
    }
    outlet
    {
        type            inletOutlet;
        inletValue      uniform (3 0 0);
        value           nonuniform List<vector> 
17
(
(2.868416608 -0.002225876882 0)
(2.921422342 -0.0006578373921 0)
(2.966593116 -0.001091295553 0)
(2.994098139 -0.001033349771 0)
(3.005901273 -0.002413170821 0)
(3.006648678 -0.002179903736 0)
(3.001523366 -0.003117503511 0)
(2.966841561 -0.001631093437 0)
(2.932711927 -0.001335014544 0)
(2.903744074 0.0003489295125 0)
(2.88119224 0.004508106777 0)
(2.863469731 0.003871475335 0)
(2.851529491 0.002299672397 0)
(2.845413076 -0.002466634758 0)
(2.84179615 -0.002621666755 0)
(2.840679998 -0.0002839314451 0)
(2.842252271 0.002084987298 0)
)
;
    }
    bottom
    {
        type            slip;
    }
    top
    {
        type            slip;
    }
    obstacle
    {
        type            slip;
    }
    defaultFaces
    {
        type            empty;
    }
    procBoundary29to23
    {
        type            processor;
        value           nonuniform List<vector> 9((3.014654715 0.0008562307421 0) (3.011052615 0.0001880187854 0) (3.008706086 -0.0001622832636 0) (3.008068252 0.0009009770881 0) (3.006557155 0.002246798125 0) (3.006177583 0.002631090824 0) (3.005126657 0.0005467106157 0) (2.969709536 -0.003705397047 0) (2.969709536 -0.003705397047 0));
    }
    procBoundary29to28
    {
        type            processor;
        value           nonuniform List<vector> 
16
(
(2.927469545 -0.006709679055 0)
(2.890101138 -0.002118235225 0)
(2.859192439 0.00016758149 0)
(2.835373268 -0.0002020704234 0)
(2.821817052 -0.004555529784 0)
(2.816479823 -0.005832219712 0)
(2.814104868 -0.004415168029 0)
(2.814887025 -0.002601412215 0)
(2.818691051 -0.001754786841 0)
(2.857082164 -0.006006840656 0)
(2.927367138 -0.006441929046 0)
(2.974221369 -0.001610791565 0)
(3.00373339 0.003757883347 0)
(3.022687849 0.005506588768 0)
(3.028982439 -0.0609904661 0)
(3.048640597 -0.1613905814 0)
)
;
    }
    procBoundary29to34
    {
        type            processor;
        value           uniform (3.070819036 -0.235415203 0);
    }
    procBoundary29to35
    {
        type            processor;
        value           nonuniform List<vector> 9((3.002071133 0.004461005694 0) (2.999682716 -0.005218205583 0) (2.99851805 -0.005094509463 0) (2.998615233 -0.00322502073 0) (3.068175557 -0.236674037 0) (3.060678475 -0.2107188512 0) (3.051446545 -0.1513288188 0) (3.002071133 0.004461005694 0) (3.024443014 -0.0695487375 0));
    }
}


// ************************************************************************* //
