/*--------------------------------*- C++ -*----------------------------------*\
  =========                 |
  \\      /  F ield         | OpenFOAM: The Open Source CFD Toolbox
   \\    /   O peration     | Website:  https://openfoam.org
    \\  /    A nd           | Version:  7
     \\/     M anipulation  |
\*---------------------------------------------------------------------------*/
FoamFile
{
    version     2.0;
    format      ascii;
    class       volVectorField;
    location    "3.4";
    object      U;
}
// * * * * * * * * * * * * * * * * * * * * * * * * * * * * * * * * * * * * * //

dimensions      [0 1 -1 0 0 0 0];

internalField   nonuniform List<vector> 
138
(
(3 7.074389769e-15 0)
(3 5.781236487e-15 0)
(3 3.546163179e-15 0)
(3 1.42919052e-15 0)
(3 2.312075716e-15 0)
(3 3.847264611e-15 0)
(3 5.613242236e-15 0)
(3 5.688859879e-15 0)
(3 5.393677732e-15 0)
(3 1.671383231e-14 0)
(3 1.36688809e-14 0)
(3 8.862714377e-15 0)
(3 7.808105167e-15 0)
(3 1.061127544e-14 0)
(3 1.566967665e-14 0)
(3 1.622854016e-14 0)
(3 1.607024594e-14 0)
(3 1.597608029e-14 0)
(3 1.369573883e-14 0)
(3 1.27950699e-14 0)
(3 1.484014102e-14 0)
(3 1.847032197e-14 0)
(3 2.074514526e-14 0)
(3 2.035174831e-14 0)
(3 1.967461001e-14 0)
(3 1.770685609e-14 0)
(3 1.686925587e-14 0)
(3 8.075604675e-15 0)
(3 8.371058473e-15 0)
(3 1.004706809e-14 0)
(3 1.234451541e-14 0)
(3 1.199318351e-14 0)
(3 1.277077345e-14 0)
(3 1.2807997e-14 0)
(3 1.241469708e-14 0)
(3 1.07759057e-14 0)
(3 4.243893757e-15 0)
(3 2.251620608e-15 0)
(3 2.540317459e-15 0)
(3 1.646235628e-15 0)
(3 1.434861689e-16 0)
(3 1.716475752e-15 0)
(3 1.046664804e-15 0)
(3 2.238168219e-15 0)
(3 1.808153367e-15 0)
(3 3.1482402e-15 0)
(3 2.029900352e-15 0)
(3 2.297029935e-15 0)
(3 -2.273631279e-16 0)
(3 -6.987759204e-16 0)
(3 -1.723343589e-15 0)
(3 -1.315405747e-15 0)
(3 -4.89388907e-16 0)
(3 -3.901541863e-16 0)
(3 6.176018696e-15 0)
(3 6.402916842e-15 0)
(3 5.767269866e-15 0)
(3 3.381057871e-15 0)
(3 4.05729103e-15 0)
(3 2.697362529e-15 0)
(3 4.212230785e-15 0)
(3 3.430916103e-15 0)
(3 2.536039234e-15 0)
(3 1.280721866e-15 0)
(3 9.730267575e-16 0)
(3 -3.213737857e-16 0)
(3 4.781638271e-16 0)
(3 4.133578951e-15 0)
(3 7.917814196e-15 0)
(3 1.014900358e-14 0)
(3 9.675412695e-15 0)
(3 8.889509882e-15 0)
(3 7.126350286e-15 0)
(3 7.275071777e-15 0)
(3 6.271436498e-15 0)
(3 6.049619454e-15 0)
(3 5.964104079e-15 0)
(3 6.658671295e-15 0)
(3 5.173208745e-15 0)
(3 4.782921783e-15 0)
(3 1.555923449e-14 0)
(3 1.486473518e-14 0)
(3 1.326459505e-14 0)
(3 1.268783604e-14 0)
(3 1.311602296e-14 0)
(3 1.310828295e-14 0)
(3 1.221545001e-14 0)
(3 1.063625647e-14 0)
(3 1.424055371e-14 0)
(3 1.329228255e-14 0)
(3 1.348093403e-14 0)
(3 1.291637571e-14 0)
(3 1.327170477e-14 0)
(3 1.265543193e-14 0)
(3 1.231231133e-14 0)
(3 1.157057867e-14 0)
(3 9.331206119e-15 0)
(3 8.307900712e-15 0)
(3 7.855892089e-15 0)
(3 7.165855603e-15 0)
(3 7.721939422e-15 0)
(3 8.223040373e-15 0)
(3 7.766534214e-15 0)
(3 6.532051594e-15 0)
(3 2.103351737e-15 0)
(3 1.765878696e-15 0)
(3 1.348900056e-15 0)
(3 1.37044223e-15 0)
(3 1.404221578e-15 0)
(3 1.844912839e-15 0)
(3 1.848609549e-15 0)
(3 2.344265252e-15 0)
(3 -5.255356146e-16 0)
(3 -6.109878076e-16 0)
(3 3.536613996e-17 0)
(3 4.719078623e-16 0)
(3 -7.538879825e-16 0)
(3 -1.791062708e-15 0)
(3 -1.836033886e-15 0)
(3 -2.114753118e-16 0)
(3 2.460805485e-15 0)
(3 2.984487404e-15 0)
(3 3.86855085e-15 0)
(3 5.005473128e-15 0)
(3 4.508687592e-15 0)
(3 4.529702087e-15 0)
(3 4.673187948e-15 0)
(3 4.616527713e-15 0)
(3 9.979989294e-15 0)
(3 1.096624541e-14 0)
(3 1.254758691e-14 0)
(3 1.409286658e-14 0)
(3 1.480723605e-14 0)
(3 1.377320049e-14 0)
(3 1.365738965e-14 0)
(3 1.385758471e-14 0)
(3 1.348587017e-14 0)
(3 1.324920761e-14 0)
)
;

boundaryField
{
    inlet
    {
        type            fixedValue;
        value           nonuniform 0();
    }
    outlet
    {
        type            inletOutlet;
        inletValue      nonuniform 0();
        value           nonuniform 0();
    }
    bottom
    {
        type            slip;
    }
    top
    {
        type            slip;
    }
    obstacle
    {
        type            slip;
    }
    defaultFaces
    {
        type            empty;
    }
    procBoundary1to0
    {
        type            processor;
        value           nonuniform List<vector> 8((3 5.006416794e-15 0) (3 1.535708038e-14 0) (3 1.206426624e-14 0) (3 9.348494461e-15 0) (3 7.82250529e-15 0) (3 5.680944843e-15 0) (3 4.683638089e-15 0) (3 -3.272195905e-17 0));
    }
    procBoundary1to2
    {
        type            processor;
        value           nonuniform List<vector> 8((3 4.837878706e-15 0) (3 9.78406167e-15 0) (3 1.068998449e-14 0) (3 5.241129819e-15 0) (3 2.889530571e-15 0) (3 1.494720244e-15 0) (3 4.395425192e-15 0) (3 1.203449499e-14 0));
    }
    procBoundary1to7
    {
        type            processor;
        value           nonuniform List<vector> 
18
(
(3 -9.325783018e-15 0)
(3 -8.623114421e-15 0)
(3 -7.121469119e-15 0)
(3 -4.374106599e-15 0)
(3 -3.309254699e-15 0)
(3 3.235386865e-16 0)
(3 3.221040754e-15 0)
(3 3.111739019e-15 0)
(3 8.487318458e-15 0)
(3 9.172654567e-15 0)
(3 1.030202149e-14 0)
(3 1.037278295e-14 0)
(3 9.956138603e-15 0)
(3 1.005502076e-14 0)
(3 1.276392179e-14 0)
(3 1.276392179e-14 0)
(3 5.139368688e-15 0)
(3 5.381684526e-15 0)
)
;
    }
    procBoundary1to8
    {
        type            processor;
        value           uniform (3 1.358809253e-14 0);
    }
}


// ************************************************************************* //
