/*--------------------------------*- C++ -*----------------------------------*\
  =========                 |
  \\      /  F ield         | OpenFOAM: The Open Source CFD Toolbox
   \\    /   O peration     | Website:  https://openfoam.org
    \\  /    A nd           | Version:  7
     \\/     M anipulation  |
\*---------------------------------------------------------------------------*/
FoamFile
{
    version     2.0;
    format      ascii;
    class       volScalarField;
    location    "3.6";
    object      p;
}
// * * * * * * * * * * * * * * * * * * * * * * * * * * * * * * * * * * * * * //

dimensions      [1 -1 -2 0 0 0 0];

internalField   nonuniform List<scalar> 
555
(
1
1
1
1
1
1
1
1
1
1
1
1
1.000000002
1.000000095
1.000002565
1.000043998
1
1
1
1
1
1
1
1
1
1
1
1.000000003
1.000000092
1.000002526
1.000048795
1.00052004
1
1
1
1
1
1
1
1
1
1
1.000000002
1.000000103
1.000002499
1.000044041
1.000572792
1.004100195
1
1
1
1
1
1
1
1
1
1.000000003
1.000000088
1.000002629
1.000047795
1.000511724
1.004653906
1.022017204
1
1
1
1
1
1
1
1
1.000000002
1.000000102
1.000002298
1.000046645
1.000584936
1.004144105
1.024711691
1.080020359
1
1
1
1
1
1
1
1.000000003
1.000000085
1.000002685
1.000042701
1.00054986
1.00477427
1.022377981
1.08613647
1.196289172
1
1
1
1
1
1
1.000000002
1.000000102
1.000002213
1.000048798
1.000539216
1.004430187
1.024779938
1.083008387
1.194663274
1.321678388
1
1
1
1
1
1.000000003
1.000000084
1.000002689
1.000039608
1.000603011
1.004474555
1.023644036
1.08615336
1.198874499
1.30104811
1.382627361
1
1
1
1
1.000000003
1.0000001
1.000002123
1.000048958
1.000491985
1.004902839
1.023972076
1.085011081
1.193666719
1.327139273
1.362897858
1.388802506
1
1
1
1.000000002
1.000000085
1.000002628
1.000037699
1.000613501
1.004100654
1.02614624
1.084524921
1.195436527
1.308400124
1.392176519
1.404366365
1.401236987
1
1
1.000000003
1.000000092
1.000002038
1.00004754
1.000467285
1.005047041
1.023000375
1.088278457
1.198104189
1.322733938
1.360987784
1.392684213
1.409263608
1.406609028
1
1.000000002
1.000000085
1.000002469
1.000035986
1.000596969
1.003937541
1.027196832
1.083755158
1.194932842
1.318999461
1.400745706
1.401368096
1.401545476
1.405730268
1.39863239
1.000000002
1.000000085
1.000002054
1.00004613
1.000454284
1.005003548
1.022520303
1.091659902
1.203700272
1.308070603
1.367949579
1.408884342
1.413907562
1.410011829
1.398623443
1.377059248
1.000000088
1.000002337
1.000035849
1.00058694
1.003904182
1.027286853
1.084269175
1.200232472
1.325634275
1.402030211
1.400391817
1.407193488
1.411619248
1.402641657
1.378760904
1.346926885
1.000002145
1.000044349
1.000447542
1.004931911
1.022461931
1.093023185
1.208638533
1.305881991
1.381425312
1.419293634
1.417011705
1.412658634
1.402775014
1.380637105
1.347955597
1.308909408
1.000036573
1.000568624
1.003842908
1.026904685
1.084695705
1.203009002
1.336095718
1.397286895
1.405466232
1.414347846
1.416089869
1.405929304
1.381962914
1.349522784
1.310636109
1.268196489
1.000441774
1.004802531
1.022223895
1.092724237
1.21048852
1.307795078
1.391397773
1.421634391
1.419933873
1.417031784
1.407864839
1.384261164
1.350928556
1.310935655
1.268586771
1.233023002
1.003740437
1.026329212
1.084595478
1.204061872
1.343110076
1.393677965
1.406041252
1.419322854
1.420309176
1.41042051
1.386660963
1.352765424
1.313171228
1.270100484
1.2325581
1.199996836
1.021737927
1.091769783
1.211133913
1.310382385
1.399105451
1.424103188
1.422047285
1.420271967
1.411455454
1.388540107
1.354315386
1.31462535
1.27123295
1.232899768
1.199134929
1.159114006
1.083499952
1.204537573
1.347939162
1.392058889
1.407861908
1.423609631
1.423333896
1.413572038
1.390107334
1.355449939
1.316708748
1.273152205
1.232836558
1.197664301
1.157950061
1.11621778
1.209968976
1.312979727
1.40498066
1.427504803
1.424472837
1.423302282
1.414418918
1.391573473
1.357142757
1.316998171
1.274262532
1.233001896
1.194996972
1.157534412
1.114781442
1.081890465
1.350072354
1.391525807
1.411630333
1.42928994
1.428502482
1.417901671
1.393628381
1.359363083
1.318090463
1.27595983
1.231809214
1.192276825
1.154301151
1.113171633
1.077546143
1.048817098
1.409416058
1.431175264
1.427988716
1.428315394
1.419891449
1.397027616
1.361965584
1.319858609
1.275933807
1.232356903
1.190041554
1.15025035
1.111673894
1.072540658
1.041653678
1.012908293
1.415831297
1.434658444
1.433796108
1.423052912
1.399349643
1.364407618
1.322281924
1.276684391
1.232097379
1.188441908
1.145646326
1.107273588
1.06930153
1.033894774
1.005625385
0.9736426676
1.43219651
1.433242594
1.425415172
1.40304925
1.367172826
1.324193122
1.276617942
1.232667811
1.18732196
1.141902506
1.102706728
1.06501663
1.028712615
0.995357169
0.9677798332
0.9331310635
1.438633645
1.42823239
1.40474516
1.370116054
1.326037911
1.277982344
1.231177178
1.185699476
1.13941668
1.096073592
1.061880067
1.022349606
0.9860614421
0.9581422089
0.926859149
0.89495579
1.430719629
1.408321115
1.372129564
1.327717457
1.278510597
1.229826722
1.184935152
1.136642851
1.091750047
1.055273268
1.017468196
0.9764165689
0.9469683846
0.921053615
0.887024026
0.8620512146
1.410598882
1.37524982
1.330246455
1.279558624
1.228378542
1.182393078
1.134747997
1.085644242
1.047802506
1.011219771
0.9686826546
0.9346524357
0.9116131284
0.8805183065
0.8488822698
0.8323093671
1.377003226
1.33236302
1.280809929
1.227974107
1.180250071
1.131520677
1.080957718
1.03794833
1.004936697
0.9627910774
0.9231475405
0.9001016025
0.8722338349
0.8373089071
0.8146942186
0.7987011102
1.334630867
1.282332653
1.227488881
1.175943028
1.128585693
1.074626849
1.029238767
0.9956932423
0.9564367883
0.9124851669
0.8841266997
0.8627336904
0.8284679247
0.8010943315
0.7873211462
0.7649841032
1.284846486
1.227001712
1.173082941
1.123546207
1.070626865
1.01982642
0.9845780986
0.949557392
0.9029757101
0.869434937
0.8488868612
0.8193159652
0.7844517135
0.7698456526
0.7554530368
0.7300230919
1.227167576
1.168829346
1.118252715
1.065504719
1.01086815
0.9706621802
0.9377080149
0.8938656655
0.8535838185
0.8348878273
0.8125402372
0.7773806996
0.7525768096
0.7395196777
0.7166461061
0.688813665
1.166098599
1.111320508
1.059680216
1.002071221
0.9568842767
0.9254162284
0.8862755347
0.8422803855
0.8153906548
0.7964411806
0.7649299986
0.7340861927
0.7245995696
0.7091019232
0.6812558314
0.6629638634
1.104423424
1.050629503
0.9935126623
0.9429719721
0.908563991
0.8753454513
0.8306073736
0.7990869482
0.7824824724
0.7563228568
0.720152785
0.7017960927
0.6896172161
0.6665951525
0.6413270399
0.6330856952
1.040644694
0.9854104437
0.9312747139
0.8934128267
0.8610493372
0.8184785669
0.7769156275
0.7582795272
0.7417369616
0.7114928491
0.6875450818
)
;

boundaryField
{
    inlet
    {
        type            fixedValue;
        value           nonuniform 0();
    }
    outlet
    {
        type            zeroGradient;
    }
    bottom
    {
        type            slip;
    }
    top
    {
        type            slip;
    }
    obstacle
    {
        type            zeroGradient;
    }
    defaultFaces
    {
        type            empty;
    }
    procBoundary4to3
    {
        type            processor;
        value           nonuniform List<scalar> 
30
(
1
1
1
1
1
1
1
1
1
1
1
1
1
1.000000002
1.000000082
1.000002224
1.000041488
1.000531593
1.004564893
1.025495478
1.090349445
1.204407103
1.31482477
1.391093989
1.434954179
1.439930321
1.438324976
1.433416051
1.413653009
1.380421187
)
;
    }
    procBoundary4to5
    {
        type            processor;
        value           nonuniform List<scalar> 
34
(
1.000534818
1.004562683
1.025040322
1.087694636
1.194498824
1.29391378
1.354972899
1.398916546
1.40442585
1.400724456
1.395442742
1.376164338
1.345449981
1.308713808
1.268446739
1.234481685
1.200946504
1.159264537
1.117925422
1.086893767
1.057117146
1.019716538
0.9781632017
0.9389051508
0.9035655563
0.8743153012
0.844334532
0.8103778026
0.7724562651
0.7367023782
0.7085391784
0.6773478338
0.6516363478
0.6244440092
)
;
    }
    procBoundary4to9
    {
        type            processor;
        value           nonuniform List<scalar> 5(1.336843289 1.286170628 1.22738597 1.162238507 1.09633498);
    }
    procBoundary4to10
    {
        type            processor;
        value           nonuniform List<scalar> 
17
(
0.6786061799
0.6586515528
0.6320240288
0.6244325527
0.6220679567
0.9732606861
0.9182877139
0.8723690932
0.8419758389
0.807836522
0.7668080785
0.742628099
0.7263786388
0.6971311031
0.6635284987
0.6786061799
0.652883485
)
;
    }
}


// ************************************************************************* //
