/*--------------------------------*- C++ -*----------------------------------*\
  =========                 |
  \\      /  F ield         | OpenFOAM: The Open Source CFD Toolbox
   \\    /   O peration     | Website:  https://openfoam.org
    \\  /    A nd           | Version:  7
     \\/     M anipulation  |
\*---------------------------------------------------------------------------*/
FoamFile
{
    version     2.0;
    format      ascii;
    class       volVectorField;
    location    "3.3";
    object      U;
}
// * * * * * * * * * * * * * * * * * * * * * * * * * * * * * * * * * * * * * //

dimensions      [0 1 -1 0 0 0 0];

internalField   nonuniform List<vector> 
22
(
(2.999995492 -8.125494827e-06 0)
(2.999982349 -3.098588672e-05 0)
(2.999925178 -0.0001480980333 0)
(2.999809757 -0.0003775944428 0)
(2.999341876 -0.00128486917 0)
(2.998498417 -0.003167321086 0)
(2.996993559 -0.006736786746 0)
(2.994758322 -0.01254592185 0)
(2.991598308 -0.02130956595 0)
(2.987486441 -0.03335054892 0)
(2.983709667 -0.0471013072 0)
(2.98244473 -0.03478946532 0)
(2.973587311 -0.05658852337 0)
(2.963216856 -0.08278486177 0)
(2.953342542 -0.1111198639 0)
(2.940836701 -0.1447038988 0)
(2.931972983 -0.1720487673 0)
(2.914078033 -0.2224952098 0)
(2.917043485 -0.07268861073 0)
(2.904773384 -0.09799996439 0)
(2.900471506 -0.1075295016 0)
(2.887004477 -0.1372623011 0)
)
;

boundaryField
{
    inlet
    {
        type            fixedValue;
        value           nonuniform 0();
    }
    outlet
    {
        type            inletOutlet;
        inletValue      nonuniform 0();
        value           nonuniform 0();
    }
    bottom
    {
        type            slip;
    }
    top
    {
        type            slip;
    }
    obstacle
    {
        type            slip;
    }
    defaultFaces
    {
        type            empty;
    }
    procBoundary14to7
    {
        type            processor;
        value           uniform (2.99999956 -5.961049716e-07 0);
    }
    procBoundary14to8
    {
        type            processor;
        value           nonuniform List<vector> 8((3.000000015 1.291227337e-08 0) (2.999999987 -3.26306564e-08 0) (2.999999862 -1.640944463e-07 0) (2.999998956 -1.729767608e-06 0) (2.99944435 -0.001204400729 0) (2.99944435 -0.001204400729 0) (2.998874529 -0.002553077782 0) (2.997978285 -0.004628289429 0));
    }
    procBoundary14to9
    {
        type            processor;
        value           nonuniform List<vector> 3((2.948111683 -0.122656056 0) (2.917981065 -0.2056443482 0) (2.947090205 -0.06570985703 0));
    }
    procBoundary14to13
    {
        type            processor;
        value           nonuniform List<vector> 2((2.999781343 -0.0004004280474 0) (2.989855404 -0.01881328718 0));
    }
    procBoundary14to20
    {
        type            processor;
        value           nonuniform List<vector> 4((2.946388575 -0.03522019163 0) (2.936932928 -0.03938574726 0) (2.923741019 -0.06514894872 0) (2.923741019 -0.06514894872 0));
    }
}


// ************************************************************************* //
