/*--------------------------------*- C++ -*----------------------------------*\
  =========                 |
  \\      /  F ield         | OpenFOAM: The Open Source CFD Toolbox
   \\    /   O peration     | Website:  https://openfoam.org
    \\  /    A nd           | Version:  7
     \\/     M anipulation  |
\*---------------------------------------------------------------------------*/
FoamFile
{
    version     2.0;
    format      ascii;
    class       volScalarField;
    location    "3.7";
    object      rho;
}
// * * * * * * * * * * * * * * * * * * * * * * * * * * * * * * * * * * * * * //

dimensions      [1 -3 0 0 0 0 0];

internalField   nonuniform List<scalar> 
2222
(
1.823807092
1.820805517
1.820814019
1.821343165
1.820663689
1.819390211
1.819310288
1.80849352
1.808198898
1.809007717
1.809598961
1.809554949
1.809772367
1.810670634
1.812480781
1.814963031
1.817522517
1.819666079
1.821630967
1.823821468
1.825584607
1.826391023
1.826972561
1.827251491
1.827269005
1.826880579
1.826024401
1.824935213
1.823964133
1.823752341
1.823706716
1.823757563
1.82392678
1.808493552
1.808198624
1.809007179
1.809599091
1.809555243
1.809772509
1.81067058
1.812480696
1.814963126
1.817522638
1.819666206
1.821631157
1.823821407
1.825584428
1.826390888
1.826972436
1.827251401
1.827268943
1.826880617
1.826024501
1.824935415
1.82396421
1.82375234
1.823706699
1.823757543
1.823926833
1.824078135
1.824112811
1.824102374
1.824074358
1.823957966
1.823885715
1.823903333
1.824129402
1.824598036
1.824898516
1.824866054
1.824719376
1.824447878
1.82421023
1.824138535
1.824109257
1.824204725
1.824469535
1.824498078
1.824390853
1.824196778
1.824016642
1.823955995
1.823934995
1.823963766
1.824148378
1.82428802
1.824248593
1.824129297
1.823973391
1.823884741
1.823860539
1.82385406
1.823920236
1.824083179
1.824133847
1.824097279
1.824029979
1.823971074
1.823952821
1.823954884
1.823807584
1.820805629
1.820813445
1.821342856
1.820664236
1.819390651
1.819310332
1.819842175
1.820626761
1.8209587
1.820868725
1.820773314
1.820460558
1.820015544
1.819649897
1.819477672
1.819817677
1.82101911
1.822167935
1.822397843
1.822248945
1.822223217
1.822409796
1.822761092
1.823115144
1.823635303
1.82442453
1.824907767
1.824933351
1.824887064
1.824624599
1.824172016
1.823997946
1.823980575
1.824085103
1.82435496
1.824456171
1.82444787
1.824357242
1.824117032
1.823954573
1.823934276
1.823960633
1.824118055
1.824296992
1.824328485
1.824307694
1.824240515
1.824099328
1.824000263
1.823986896
1.824031058
1.824159215
1.824210171
1.824180766
1.824120523
1.824031513
1.82396305
1.823952174
1.823962833
1.824033082
1.824152214
1.8242312
1.824231129
1.824208406
1.824182427
1.824174084
1.8383686
1.835905579
1.832632183
1.830746153
1.82931795
1.82692615
1.823455818
1.822321261
1.82172085
1.820195518
1.818270861
1.816928686
1.815975973
1.814645535
1.813894317
1.814104323
1.814995243
1.817109614
1.820043386
1.822510219
1.823845906
1.824460962
1.824769092
1.824859792
1.824799411
1.824821386
1.825042344
1.825113589
1.824963253
1.824610128
1.824154685
1.823704731
1.823542788
1.823550179
1.823659579
1.823948911
1.824186072
1.824280958
1.824353148
1.824370085
1.824312189
1.824286031
1.824297089
1.824316988
1.824392035
1.824455362
1.824478719
1.824481192
1.824415883
1.824271409
1.824190847
1.824191547
1.824210315
1.824257435
1.8243145
1.824339709
1.824347922
1.824335246
1.824314246
1.824321044
1.824338485
1.824377874
1.82444388
1.824478888
1.824482994
1.824475837
1.824444853
1.854284629
1.854738812
1.853997225
1.852344341
1.850182083
1.846963012
1.842302432
1.837693594
1.834330204
1.831104194
1.826980572
1.823535108
1.821899373
1.820704834
1.818923501
1.817891905
1.817878093
1.818437837
1.819956677
1.820807203
1.821045627
1.821298228
1.821257393
1.821353778
1.821817465
1.822324524
1.822988042
1.823505407
1.823614552
1.823586403
1.823713103
1.823979521
1.824146385
1.824294439
1.82452529
1.824765732
1.824835089
1.824825677
1.824789662
1.824713017
1.824611995
1.824506047
1.824418656
1.824369073
1.824333597
1.824313046
1.824318754
1.82433763
1.824353193
1.824334829
1.824320327
1.82436938
1.824435588
1.824511247
1.824611549
1.824670903
1.82469573
1.82469919
1.824660845
1.824626665
1.824637837
1.824669093
1.824684969
1.824693082
1.824692555
1.824686141
1.824637443
1.852530825
1.854002376
1.853497597
1.852557158
1.850217045
1.845176305
1.838684002
1.835761578
1.833868688
1.833734691
1.833531935
1.832811222
1.831418066
1.830572141
1.829117977
1.827146478
1.825305749
1.823524786
1.821794507
1.820527844
1.819359128
1.819039481
1.818801579
1.818639555
1.818731303
1.819101201
1.819961092
1.820967955
1.821803097
1.822369054
1.822945592
1.82357775
1.823810396
1.823917703
1.824084927
1.82432932
1.824457559
1.824465629
1.82451275
1.82458837
1.824591214
1.824559983
1.82449865
1.824429661
1.824416679
1.82445135
1.824555157
1.824685499
1.824738149
1.824764569
1.824766315
1.824779538
1.824833894
1.824896295
1.824968302
1.824992025
1.824984267
1.824961149
1.824932646
1.824926006
1.824916037
1.824858133
1.824791836
1.824741594
1.824709155
1.824673554
1.824644099
1.79833492
1.813969624
1.818313824
1.824006517
1.828687318
1.831348611
1.83539151
1.841457841
1.844034233
1.844161513
1.844864189
1.846226726
1.846067377
1.845315595
1.844065678
1.841941479
1.83854603
1.834492588
1.830816126
1.826882265
1.823130134
1.821518431
1.821138817
1.820861357
1.820414303
1.82021232
1.820170247
1.820332073
1.820780399
1.821556275
1.822455256
1.823266514
1.823531932
1.823499515
1.823284419
1.823243817
1.823394171
1.823505721
1.823673832
1.824030518
1.824260841
1.824291473
1.824313765
1.824385202
1.824488332
1.82463439
1.824854939
1.825069681
1.825122191
1.825129322
1.825098789
1.82504276
1.82504223
1.825059328
1.825047056
1.825043357
1.82505539
1.82504492
1.824994457
1.824892449
1.824845558
1.82489712
1.824943523
1.824954674
1.824946606
1.824921927
1.824881536
1.679615107
1.723777527
1.752814059
1.775136363
1.802295814
1.819754337
1.830324725
1.84210525
1.844462078
1.843920842
1.845357214
1.845344103
1.84479056
1.843646863
1.841157068
1.837598227
1.834610809
1.832745438
1.831628274
1.831259817
1.830685266
1.830384036
1.830127602
1.829558871
1.828344065
1.826305533
1.824774687
1.823943521
1.823192306
1.822327754
1.821969957
1.821773516
1.821505049
1.821097373
1.820678505
1.820631129
1.820851622
1.821306673
1.822111053
1.823128822
1.823990498
1.824451505
1.82462455
1.824719973
1.824793632
1.824874766
1.825029065
1.825299552
1.825433299
1.825434722
1.825363789
1.825136701
1.824868383
1.824736237
1.824733629
1.82476059
1.824823556
1.824865685
1.824874479
1.824872605
1.824861308
1.824896464
1.824954334
1.825036497
1.825136834
1.825173118
1.82516343
1.492313788
1.529213016
1.574948786
1.612481616
1.655308418
1.694157857
1.724562005
1.761188966
1.778691217
1.7911903
1.807040025
1.811458615
1.816388401
1.821372223
1.8245439
1.828819847
1.835405049
1.839554111
1.839788308
1.840430802
1.842083066
1.842839516
1.842309633
1.84109868
1.839157401
1.835910428
1.832500922
1.828848364
1.825859047
1.823055937
1.822145076
1.822285721
1.822250702
1.822032548
1.821670599
1.821527151
1.821581884
1.821863055
1.822441662
1.823351565
1.823800321
1.823816403
1.823721874
1.823535685
1.823482364
1.823560628
1.823736219
1.824086734
1.824498369
1.824700893
1.824752849
1.824762839
1.824715989
1.824708083
1.824747638
1.824895291
1.825149145
1.825281508
1.825282946
1.825245886
1.82517278
1.825123152
1.825127066
1.825166732
1.825264932
1.825353059
1.82535901
1.409469879
1.417534829
1.431722999
1.450385746
1.475449086
1.511076068
1.547382795
1.589350287
1.633249399
1.66993424
1.713331409
1.744958041
1.76791592
1.793684378
1.810265353
1.820590863
1.833317644
1.837123547
1.836713971
1.838479856
1.840162165
1.839873886
1.839291751
1.836916979
1.833539434
1.830296595
1.829441404
1.830031124
1.82982205
1.829051515
1.828290171
1.828343753
1.828746085
1.828452915
1.827039516
1.826049917
1.825343376
1.824718943
1.824221734
1.823776667
1.823235448
1.822578489
1.82200781
1.82187589
1.821920489
1.82202417
1.822214414
1.822642765
1.823287428
1.823718686
1.824089452
1.824391722
1.824566801
1.824685717
1.824839295
1.825125778
1.825499378
1.825642569
1.825629609
1.825536172
1.825349659
1.825140487
1.825059682
1.825061757
1.825147827
1.825324264
1.825381787
1.400201138
1.400537209
1.401362227
1.403152126
1.406497452
1.412953981
1.423295457
1.438691496
1.462959941
1.490122243
1.52395033
1.568866706
1.607002429
1.649015962
1.687736783
1.716237812
1.751529715
1.770687224
1.783101821
1.800301113
1.806826542
1.810842
1.816685987
1.819730298
1.822894265
1.828788094
1.834229916
1.836786463
1.837956688
1.83971599
1.840016298
1.839458274
1.838384093
1.836700224
1.834248733
1.831498416
1.829445734
1.826949948
1.824548166
1.823319992
1.82301334
1.822560519
1.822304331
1.822347452
1.822424154
1.822532125
1.822863787
1.823507475
1.824143419
1.824290661
1.824177299
1.823974565
1.823848889
1.82382652
1.823932401
1.824170835
1.824520203
1.824847993
1.824950548
1.824970137
1.824988562
1.825004577
1.825037941
1.82512544
1.825270495
1.825416663
1.825452165
1.400005646
1.400007637
1.400015091
1.400040889
1.400116973
1.400327682
1.400870851
1.402032186
1.404548802
1.409289832
1.416971162
1.430678527
1.449374714
1.473387119
1.507901101
1.543591654
1.583835711
1.628315681
1.664229044
1.705146524
1.738349767
1.760535857
1.785468624
1.804940613
1.814159846
1.824573794
1.832798614
1.832537012
1.833651897
1.83636964
1.836288196
1.835742544
1.833890894
1.830942825
1.827769779
1.827057717
1.827541756
1.828342004
1.82802447
1.827709192
1.827935687
1.827799671
1.827815252
1.827641345
1.826870148
1.82585607
1.825251807
1.824804919
1.824270855
1.823811101
1.823306468
1.822912835
1.822866374
1.822890663
1.822960674
1.823094697
1.823346897
1.823741029
1.824096297
1.824323799
1.824651995
1.824971606
1.825107902
1.825191081
1.825292768
1.8254145
1.825463435
1.40000504
1.400005042
1.400005049
1.400005095
1.400005321
1.400006323
1.400010339
1.400024408
1.400069124
1.40020063
1.400533823
1.4013393
1.403124904
1.406436457
1.412710443
1.423029693
1.437876002
1.461572275
1.489448175
1.520956264
1.564937753
1.603980394
1.641713508
1.683336257
1.711807276
1.742606242
1.767742178
1.778415063
1.792173929
1.80370917
1.806255839
1.81139442
1.816213613
1.819617888
1.824067957
1.829383113
1.833992034
1.835568272
1.836871781
1.837175974
1.8367644
1.836107492
1.835043937
1.833325246
1.830900915
1.828876376
1.826681384
1.824723108
1.823469882
1.823160882
1.822967646
1.822992076
1.823133862
1.823400855
1.823530777
1.823719234
1.824042087
1.824331009
1.824576134
1.824617545
1.824479615
1.824459488
1.824496911
1.824445089
1.824432807
1.824540533
1.82482249
1.40000504
1.40000504
1.40000504
1.40000504
1.40000504
1.400005041
1.400005044
1.400005064
1.400005169
1.400005666
1.400007724
1.400015327
1.400041613
1.400119559
1.400330481
1.400878143
1.40205425
1.404521544
1.409363757
1.41692809
1.429974486
1.449309113
1.472376241
1.505588528
1.542950584
1.580109256
1.623971187
1.661599622
1.697859738
1.734714108
1.75716128
1.776727851
1.800187538
1.810934118
1.818120296
1.828533377
1.830503016
1.830339539
1.832412222
1.833223023
1.832645923
1.831250075
1.829071444
1.826504536
1.825371315
1.825842165
1.827078996
1.827047095
1.82685257
1.827313169
1.82747496
1.827477639
1.827518629
1.827217031
1.826458064
1.825761651
1.825089313
1.824414665
1.824050435
1.823791395
1.823581514
1.823639716
1.823698868
1.823673399
1.823648031
1.823763112
1.824090904
1.40000504
1.40000504
1.40000504
1.40000504
1.40000504
1.40000504
1.40000504
1.40000504
1.40000504
1.40000504
1.400005042
1.40000505
1.400005099
1.40000534
1.400006396
1.400010594
1.400025335
1.400071521
1.400206952
1.400551197
1.401354443
1.403174934
1.406569799
1.412671181
1.423301931
1.438039192
1.460276526
1.489926946
1.520181624
1.5608036
1.604236499
1.638394476
1.679218125
1.710588445
1.734478633
1.765534928
1.777266548
1.786468442
1.800201745
1.803931537
1.807309006
1.812357279
1.817075225
1.821287485
1.825715826
1.831073203
1.833700145
1.834664223
1.8349513
1.834648631
1.834243797
1.833496058
1.832074854
1.830150943
1.82839408
1.826503125
1.824839739
1.82366796
1.823315582
1.823365784
1.82359199
1.823954409
1.824271711
1.824362584
1.82447405
1.824620185
1.824801456
1.40000504
1.40000504
1.40000504
1.40000504
1.40000504
1.40000504
1.40000504
1.40000504
1.40000504
1.40000504
1.40000504
1.40000504
1.40000504
1.40000504
1.400005041
1.400005045
1.400005067
1.400005182
1.400005719
1.400007942
1.400016056
1.400043763
1.400127248
1.400345519
1.400908718
1.402149624
1.404587015
1.409512483
1.417466608
1.429811362
1.449800762
1.473450168
1.50381138
1.543499171
1.580128153
1.621243261
1.661688216
1.693286753
1.730816212
1.756786436
1.774227043
1.794459559
1.808814857
1.815249993
1.823226119
1.828800892
1.828911526
1.82949259
1.830775707
1.830488061
1.829338853
1.827193614
1.824535931
1.82421622
1.824843532
1.825958527
1.826342288
1.826624783
1.826724791
1.826840891
1.827200028
1.827579176
1.82737583
1.826772645
1.826136827
1.825426747
1.824644348
1.40000504
1.40000504
1.40000504
1.40000504
1.40000504
1.40000504
1.40000504
1.40000504
1.40000504
1.40000504
1.40000504
1.40000504
1.40000504
1.40000504
1.40000504
1.40000504
1.40000504
1.40000504
1.40000504
1.400005042
1.400005052
1.400005107
1.400005379
1.400006547
1.400011126
1.400027172
1.400076752
1.400219196
1.400590746
1.401423021
1.403278346
1.406908862
1.412973215
1.423657994
1.439404773
1.460145945
1.490873426
1.522942204
1.558382567
1.60381865
1.640766202
1.677043746
1.709728291
1.733539765
1.760314402
1.775683972
1.785008974
1.796818134
1.802088301
1.805703116
1.810155067
1.814663171
1.819191632
1.8237534
1.829463359
1.832626616
1.832893257
1.833461283
1.833187766
1.832607846
1.831860091
1.830823867
1.829453206
1.827964157
1.826092157
1.824734296
1.823691189
1.40000504
1.40000504
1.40000504
1.40000504
1.40000504
1.40000504
1.40000504
1.40000504
1.40000504
1.40000504
1.40000504
1.40000504
1.40000504
1.40000504
1.40000504
1.40000504
1.40000504
1.40000504
1.40000504
1.40000504
1.40000504
1.40000504
1.40000504
1.400005041
1.400005045
1.400005071
1.400005204
1.400005816
1.400008337
1.400017401
1.4000474
1.400138946
1.400376937
1.400957266
1.402314342
1.404854603
1.409797779
1.418411459
1.430790613
1.450478796
1.476004265
1.505530026
1.543731964
1.582497488
1.622943142
1.662056152
1.693404592
1.728724509
1.755807059
1.773973281
1.793571122
1.807172936
1.812564879
1.820150605
1.827477025
1.827898203
1.827673068
1.828893974
1.82898992
1.827859787
1.825416915
1.823323116
1.823371937
1.823769501
1.824996602
1.825933595
1.826315027
1.40000504
1.40000504
1.40000504
1.40000504
1.40000504
1.40000504
1.40000504
1.40000504
1.40000504
1.40000504
1.40000504
1.40000504
1.40000504
1.40000504
1.40000504
1.40000504
1.40000504
1.40000504
1.40000504
1.40000504
1.40000504
1.40000504
1.40000504
1.40000504
1.40000504
1.40000504
1.40000504
1.400005041
1.400005042
1.400005054
1.40000512
1.400005439
1.400006798
1.400011986
1.400030179
1.400085771
1.400241726
1.400645501
1.401564664
1.403496503
1.407351047
1.413848305
1.424812839
1.440660149
1.46255106
1.493342063
1.526025223
1.561314702
1.605262528
1.642271396
1.679024994
1.712611122
1.734396155
1.756127873
1.777239031
1.785516164
1.793406235
1.80113242
1.805394995
1.808863572
1.813338799
1.818215562
1.822535821
1.827106378
1.831806493
1.832512667
1.832286188
1.40000504
1.40000504
1.40000504
1.40000504
1.40000504
1.40000504
1.40000504
1.40000504
1.40000504
1.40000504
1.40000504
1.40000504
1.40000504
1.40000504
1.40000504
1.40000504
1.40000504
1.40000504
1.40000504
1.40000504
1.40000504
1.40000504
1.40000504
1.40000504
1.40000504
1.40000504
1.40000504
1.40000504
1.40000504
1.40000504
1.40000504
1.40000504
1.400005041
1.400005047
1.400005079
1.400005241
1.40000597
1.400008927
1.400019628
1.400053531
1.400157046
1.400425459
1.401070558
1.402501746
1.405356955
1.410591201
1.419482795
1.432772152
1.453001986
1.479258651
1.508936635
1.547073572
1.587075258
1.626843344
1.665233547
1.696611655
1.728852408
1.75663181
1.775508741
1.793365445
1.807552779
1.811347132
1.816440822
1.824664196
1.827692537
1.827289263
1.827526244
1.40000504
1.40000504
1.40000504
1.40000504
1.40000504
1.40000504
1.40000504
1.40000504
1.40000504
1.40000504
1.40000504
1.40000504
1.40000504
1.40000504
1.40000504
1.40000504
1.40000504
1.40000504
1.40000504
1.40000504
1.40000504
1.40000504
1.40000504
1.40000504
1.40000504
1.40000504
1.40000504
1.40000504
1.40000504
1.40000504
1.40000504
1.40000504
1.40000504
1.40000504
1.40000504
1.40000504
1.400005041
1.400005043
1.400005058
1.40000514
1.400005535
1.400007195
1.400013453
1.400034667
1.400100312
1.400279784
1.400732069
1.401774629
1.403891917
1.408089382
1.415078745
1.426771238
1.443442477
1.466011487
1.497461423
1.532057272
1.566972365
1.608549383
1.647509438
1.681561854
1.719096617
1.738102263
1.754574631
1.775211273
1.788193476
1.792448876
1.800748804
1.40000504
1.40000504
1.40000504
1.40000504
1.40000504
1.40000504
1.40000504
1.40000504
1.40000504
1.40000504
1.40000504
1.40000504
1.40000504
1.40000504
1.40000504
1.40000504
1.40000504
1.40000504
1.40000504
1.40000504
1.40000504
1.40000504
1.40000504
1.40000504
1.40000504
1.40000504
1.40000504
1.40000504
1.40000504
1.40000504
1.40000504
1.40000504
1.40000504
1.40000504
1.40000504
1.40000504
1.40000504
1.40000504
1.40000504
1.40000504
1.40000504
1.400005042
1.400005049
1.400005091
1.4000053
1.400006228
1.400009875
1.400023022
1.400064002
1.400185973
1.400498232
1.401247226
1.402846056
1.406076398
1.411726132
1.421586751
1.435478098
1.457051134
1.484469205
1.515712319
1.552177478
1.59382732
1.63468403
1.669573179
1.704190233
1.729988768
1.758758838
1.40000504
1.40000504
1.40000504
1.40000504
1.40000504
1.40000504
1.40000504
1.40000504
1.40000504
1.40000504
1.40000504
1.40000504
1.40000504
1.40000504
1.40000504
1.40000504
1.40000504
1.40000504
1.40000504
1.40000504
1.40000504
1.40000504
1.40000504
1.40000504
1.40000504
1.40000504
1.40000504
1.40000504
1.40000504
1.40000504
1.40000504
1.40000504
1.40000504
1.40000504
1.40000504
1.40000504
1.40000504
1.40000504
1.40000504
1.40000504
1.40000504
1.40000504
1.40000504
1.40000504
1.40000504
1.400005041
1.400005044
1.400005066
1.400005175
1.400005696
1.400007837
1.400015863
1.400042006
1.400123731
1.400334454
1.400886162
1.402057593
1.404603557
1.409046572
1.417399532
1.429263247
1.448123918
1.471638058
1.50399186
1.53922291
1.577374664
1.615448755
1.40000504
1.40000504
1.40000504
1.40000504
1.40000504
1.40000504
1.40000504
1.40000504
1.40000504
1.40000504
1.40000504
1.40000504
1.40000504
1.40000504
1.40000504
1.40000504
1.40000504
1.40000504
1.40000504
1.40000504
1.40000504
1.40000504
1.40000504
1.40000504
1.40000504
1.40000504
1.40000504
1.40000504
1.40000504
1.40000504
1.40000504
1.40000504
1.40000504
1.40000504
1.40000504
1.40000504
1.40000504
1.40000504
1.40000504
1.40000504
1.40000504
1.40000504
1.40000504
1.40000504
1.40000504
1.40000504
1.40000504
1.40000504
1.40000504
1.40000504
1.400005042
1.400005053
1.400005112
1.400005402
1.400006639
1.400011543
1.400028256
1.400082099
1.400228725
1.400628947
1.401484768
1.403499093
1.406987243
1.414001259
1.423896474
1.441873511
1.458809762
1.40000504
1.40000504
1.40000504
1.40000504
1.40000504
1.40000504
1.40000504
1.40000504
1.40000504
1.40000504
1.40000504
1.40000504
1.40000504
1.40000504
1.40000504
1.40000504
1.40000504
1.40000504
1.40000504
1.40000504
1.40000504
1.40000504
1.40000504
1.40000504
1.40000504
1.40000504
1.40000504
1.40000504
1.40000504
1.40000504
1.40000504
1.40000504
1.40000504
1.40000504
1.40000504
1.40000504
1.40000504
1.40000504
1.40000504
1.40000504
1.40000504
1.40000504
1.40000504
1.40000504
1.40000504
1.40000504
1.40000504
1.40000504
1.40000504
1.40000504
1.40000504
1.40000504
1.40000504
1.40000504
1.400005041
1.400005047
1.400005078
1.40000524
1.400005963
1.400009017
1.400019516
1.400056455
1.40015531
1.400453721
1.401055957
1.403026188
1.404293076
1.40000504
1.40000504
1.40000504
1.40000504
1.40000504
1.40000504
1.40000504
1.40000504
1.40000504
1.40000504
1.40000504
1.40000504
1.40000504
1.40000504
1.40000504
1.40000504
1.40000504
1.40000504
1.40000504
1.40000504
1.40000504
1.40000504
1.40000504
1.40000504
1.40000504
1.40000504
1.40000504
1.40000504
1.40000504
1.40000504
1.40000504
1.40000504
1.40000504
1.40000504
1.40000504
1.40000504
1.40000504
1.40000504
1.40000504
1.40000504
1.40000504
1.40000504
1.40000504
1.40000504
1.40000504
1.40000504
1.40000504
1.40000504
1.40000504
1.40000504
1.40000504
1.40000504
1.40000504
1.40000504
1.40000504
1.40000504
1.40000504
1.40000504
1.400005041
1.400005043
1.40000506
1.400005155
1.40000557
1.400007563
1.400013484
1.400071478
1.400034149
1.40000504
1.40000504
1.40000504
1.40000504
1.40000504
1.40000504
1.40000504
1.40000504
1.40000504
1.40000504
1.40000504
1.40000504
1.40000504
1.40000504
1.40000504
1.40000504
1.40000504
1.40000504
1.40000504
1.40000504
1.40000504
1.40000504
1.40000504
1.40000504
1.40000504
1.40000504
1.40000504
1.40000504
1.40000504
1.40000504
1.40000504
1.40000504
1.40000504
1.40000504
1.40000504
1.40000504
1.40000504
1.40000504
1.40000504
1.40000504
1.40000504
1.40000504
1.40000504
1.40000504
1.40000504
1.40000504
1.40000504
1.40000504
1.40000504
1.40000504
1.40000504
1.40000504
1.40000504
1.40000504
1.40000504
1.40000504
1.40000504
1.40000504
1.40000504
1.40000504
1.40000504
1.40000504
1.40000504
1.400005042
1.400005049
1.400005393
1.400004952
1.40000504
1.40000504
1.40000504
1.40000504
1.40000504
1.40000504
1.40000504
1.40000504
1.40000504
1.40000504
1.40000504
1.40000504
1.40000504
1.40000504
1.40000504
1.40000504
1.40000504
1.40000504
1.40000504
1.40000504
1.40000504
1.40000504
1.40000504
1.40000504
1.40000504
1.40000504
1.40000504
1.40000504
1.40000504
1.40000504
1.40000504
1.40000504
1.40000504
1.40000504
1.40000504
1.40000504
1.40000504
1.40000504
1.40000504
1.40000504
1.40000504
1.40000504
1.40000504
1.40000504
1.40000504
1.40000504
1.40000504
1.40000504
1.40000504
1.40000504
1.40000504
1.40000504
1.40000504
1.40000504
1.40000504
1.40000504
1.40000504
1.40000504
1.40000504
1.40000504
1.40000504
1.40000504
1.40000504
1.40000504
1.40000504
1.400005041
1.400005022
1.40000504
1.40000504
1.40000504
1.40000504
1.40000504
1.40000504
1.40000504
1.40000504
1.40000504
1.40000504
1.40000504
1.40000504
1.40000504
1.40000504
1.40000504
1.40000504
1.40000504
1.40000504
1.40000504
1.40000504
1.40000504
1.40000504
1.40000504
1.40000504
1.40000504
1.40000504
1.40000504
1.40000504
1.40000504
1.40000504
1.40000504
1.40000504
1.40000504
1.40000504
1.40000504
1.40000504
1.40000504
1.40000504
1.40000504
1.40000504
1.40000504
1.40000504
1.40000504
1.40000504
1.40000504
1.40000504
1.40000504
1.40000504
1.40000504
1.40000504
1.40000504
1.40000504
1.40000504
1.40000504
1.40000504
1.40000504
1.40000504
1.40000504
1.40000504
1.40000504
1.40000504
1.40000504
1.40000504
1.40000504
1.40000504
1.40000504
1.40000504
1.40000504
1.40000504
1.40000504
1.40000504
1.40000504
1.40000504
1.40000504
1.40000504
1.40000504
1.40000504
1.40000504
1.40000504
1.40000504
1.40000504
1.40000504
1.40000504
1.40000504
1.40000504
1.40000504
1.40000504
1.40000504
1.40000504
1.40000504
1.40000504
1.40000504
1.40000504
1.40000504
1.40000504
1.40000504
1.40000504
1.40000504
1.40000504
1.40000504
1.40000504
1.40000504
1.40000504
1.40000504
1.40000504
1.40000504
1.40000504
1.40000504
1.40000504
1.40000504
1.40000504
1.40000504
1.40000504
1.40000504
1.40000504
1.40000504
1.40000504
1.40000504
1.40000504
1.40000504
1.40000504
1.40000504
1.40000504
1.40000504
1.40000504
1.40000504
1.40000504
1.40000504
1.40000504
1.40000504
1.40000504
1.40000504
1.40000504
1.40000504
1.40000504
1.40000504
1.40000504
1.40000504
1.40000504
1.40000504
1.40000504
1.40000504
1.40000504
1.40000504
1.40000504
1.40000504
1.40000504
1.40000504
1.40000504
1.40000504
1.40000504
1.40000504
1.40000504
1.40000504
1.40000504
1.40000504
1.40000504
1.40000504
1.40000504
1.40000504
1.40000504
1.40000504
1.40000504
1.40000504
1.40000504
1.40000504
1.40000504
1.40000504
1.40000504
1.40000504
1.40000504
1.40000504
1.40000504
1.40000504
1.40000504
1.40000504
1.40000504
1.40000504
1.40000504
1.40000504
1.40000504
1.40000504
1.40000504
1.40000504
1.40000504
1.40000504
1.40000504
1.40000504
1.40000504
1.40000504
1.40000504
1.40000504
1.40000504
1.40000504
1.40000504
1.40000504
1.40000504
1.40000504
1.40000504
1.40000504
1.40000504
1.40000504
1.40000504
1.40000504
1.40000504
1.40000504
1.40000504
1.40000504
1.40000504
1.40000504
1.40000504
1.40000504
1.40000504
1.40000504
1.40000504
1.40000504
1.40000504
1.40000504
1.40000504
1.40000504
1.40000504
1.40000504
1.40000504
1.40000504
1.40000504
1.40000504
1.40000504
1.40000504
1.40000504
1.40000504
1.40000504
1.40000504
1.40000504
1.40000504
1.40000504
1.40000504
1.40000504
1.40000504
1.40000504
1.40000504
1.40000504
1.40000504
1.40000504
1.40000504
1.40000504
1.40000504
1.40000504
1.40000504
1.40000504
1.40000504
1.40000504
1.40000504
1.40000504
1.40000504
1.40000504
1.40000504
1.40000504
1.40000504
1.40000504
1.40000504
1.40000504
1.40000504
1.40000504
1.40000504
1.40000504
1.40000504
1.40000504
1.40000504
1.40000504
1.40000504
1.40000504
1.40000504
1.40000504
1.40000504
1.40000504
1.40000504
1.40000504
1.40000504
1.40000504
1.40000504
1.40000504
1.40000504
1.40000504
1.40000504
1.40000504
1.40000504
1.40000504
1.40000504
1.40000504
1.40000504
1.40000504
1.40000504
1.40000504
1.40000504
1.40000504
1.40000504
1.40000504
1.40000504
1.40000504
1.40000504
1.40000504
1.40000504
1.40000504
1.40000504
1.40000504
1.40000504
1.40000504
1.40000504
1.40000504
1.40000504
1.40000504
1.40000504
1.40000504
1.40000504
1.40000504
1.40000504
1.40000504
1.40000504
1.40000504
1.40000504
1.40000504
1.40000504
1.40000504
1.40000504
1.40000504
1.40000504
1.40000504
1.40000504
1.40000504
1.40000504
1.40000504
1.40000504
1.40000504
1.40000504
1.40000504
1.40000504
1.40000504
1.40000504
1.40000504
1.40000504
1.40000504
1.40000504
1.40000504
1.40000504
1.40000504
1.40000504
1.40000504
1.40000504
1.40000504
1.40000504
1.40000504
1.40000504
1.40000504
1.40000504
1.40000504
1.40000504
1.40000504
1.40000504
1.40000504
1.40000504
1.40000504
1.40000504
1.40000504
1.40000504
1.40000504
1.40000504
1.40000504
1.40000504
1.40000504
1.40000504
1.40000504
1.40000504
1.40000504
1.40000504
1.40000504
1.40000504
1.40000504
1.40000504
1.40000504
1.40000504
)
;

boundaryField
{
    inlet
    {
        type            calculated;
        value           nonuniform 0();
    }
    outlet
    {
        type            calculated;
        value           nonuniform 0();
    }
    bottom
    {
        type            calculated;
        value           nonuniform 0();
    }
    top
    {
        type            calculated;
        value           nonuniform 0();
    }
    obstacle
    {
        type            calculated;
        value           nonuniform List<scalar> 
93
(
1.808493552
1.808198624
1.809007179
1.809599091
1.809555243
1.809772509
1.81067058
1.812480696
1.814963126
1.817522638
1.819666206
1.821631157
1.823821407
1.825584428
1.826390888
1.826972436
1.827251401
1.827268943
1.826880617
1.826024501
1.824935415
1.82396421
1.82375234
1.823706699
1.823757543
1.823926833
1.824078135
1.824112811
1.824102374
1.824074358
1.823957966
1.823885715
1.823903333
1.824129402
1.824598036
1.824898516
1.824866054
1.824719376
1.824447878
1.82421023
1.824138535
1.824109257
1.824204725
1.824469535
1.824498078
1.824390853
1.824196778
1.824016642
1.823955995
1.823934995
1.823963766
1.824148378
1.82428802
1.824248593
1.824129297
1.823973391
1.823884741
1.823860539
1.82385406
1.823920236
1.824083179
1.824133847
1.824097279
1.824029979
1.823971074
1.823952821
1.823954884
1.80849352
1.808198898
1.809007717
1.809598961
1.809554949
1.809772367
1.810670634
1.812480781
1.814963031
1.817522517
1.819666079
1.821630967
1.823821468
1.825584607
1.826391023
1.826972561
1.827251491
1.827269005
1.826880579
1.826024401
1.824935213
1.823964133
1.823752341
1.823706716
1.823757563
1.82392678
)
;
    }
    defaultFaces
    {
        type            empty;
    }
    procBoundary20to13
    {
        type            processor;
        value           nonuniform List<scalar> 2(1.827087892 1.811069917);
    }
    procBoundary20to14
    {
        type            processor;
        value           nonuniform List<scalar> 
28
(
1.838368884
1.835905019
1.832631518
1.830746746
1.8293184
1.826924773
1.823454907
1.819842458
1.819842458
1.820627026
1.820958825
1.820868835
1.820773206
1.820460188
1.820015381
1.81964995
1.819477795
1.819817845
1.821019303
1.822167954
1.822397745
1.822248818
1.822223136
1.82240979
1.822761125
1.823115151
1.823635312
1.82407808
)
;
    }
    procBoundary20to19
    {
        type            processor;
        value           nonuniform List<scalar> 
33
(
1.811070232
1.827087713
1.839579659
1.853608892
1.851824963
1.785748483
1.640088674
1.464807861
1.404667002
1.40006915
1.400005165
1.40000504
1.40000504
1.40000504
1.40000504
1.40000504
1.40000504
1.40000504
1.40000504
1.40000504
1.40000504
1.40000504
1.40000504
1.40000504
1.40000504
1.40000504
1.40000504
1.40000504
1.40000504
1.40000504
1.40000504
1.40000504
1.40000504
)
;
    }
    procBoundary20to25
    {
        type            processor;
        value           nonuniform List<scalar> 2(1.40000504 1.40000504);
    }
    procBoundary20to26
    {
        type            processor;
        value           nonuniform List<scalar> 
69
(
1.40000504
1.40000504
1.40000504
1.40000504
1.40000504
1.40000504
1.40000504
1.40000504
1.40000504
1.40000504
1.40000504
1.40000504
1.40000504
1.40000504
1.40000504
1.40000504
1.40000504
1.40000504
1.40000504
1.40000504
1.40000504
1.40000504
1.40000504
1.40000504
1.40000504
1.40000504
1.40000504
1.40000504
1.40000504
1.40000504
1.40000504
1.40000504
1.40000504
1.40000504
1.40000504
1.40000504
1.40000504
1.40000504
1.40000504
1.40000504
1.40000504
1.40000504
1.40000504
1.40000504
1.40000504
1.40000504
1.40000504
1.40000504
1.40000504
1.40000504
1.40000504
1.40000504
1.40000504
1.40000504
1.40000504
1.40000504
1.40000504