/*--------------------------------*- C++ -*----------------------------------*\
  =========                 |
  \\      /  F ield         | OpenFOAM: The Open Source CFD Toolbox
   \\    /   O peration     | Website:  https://openfoam.org
    \\  /    A nd           | Version:  7
     \\/     M anipulation  |
\*---------------------------------------------------------------------------*/
FoamFile
{
    version     2.0;
    format      ascii;
    class       volVectorField;
    location    "2.2";
    object      U;
}
// * * * * * * * * * * * * * * * * * * * * * * * * * * * * * * * * * * * * * //

dimensions      [0 1 -1 0 0 0 0];

internalField   nonuniform List<vector> 
555
(
(3 2.013969323e-14 0)
(3 2.454632317e-14 0)
(3 2.384434435e-14 0)
(3 1.94999246e-14 0)
(3 1.545270274e-14 0)
(3 1.312820639e-14 0)
(3 4.185996933e-16 0)
(3 -9.526596997e-16 0)
(3 -8.628547026e-16 0)
(3 -3.775716052e-16 0)
(3 -6.425311084e-16 0)
(3 -1.158347209e-15 0)
(3 -9.579154076e-16 0)
(3 2.251977705e-15 0)
(3 1.20292881e-15 0)
(3 1.208562162e-16 0)
(3 -5.179257399e-16 0)
(3 -1.727483102e-15 0)
(3 -2.280541771e-15 0)
(3 -4.442117044e-15 0)
(3 -4.242789448e-15 0)
(3 -5.256401279e-15 0)
(3 -5.900001026e-15 0)
(3 -8.189814292e-15 0)
(3 -8.695552106e-15 0)
(3 -8.123437612e-15 0)
(3 -5.569655043e-15 0)
(3 -9.799760421e-16 0)
(3 3.011847016e-15 0)
(3 3.453682022e-15 0)
(3 4.4804409e-15 0)
(3 6.43965957e-15 0)
(3 7.076707589e-15 0)
(3 1.076158501e-14 0)
(3 1.11705455e-14 0)
(3 1.369681647e-14 0)
(3 1.035789101e-14 0)
(3 5.292309602e-15 0)
(3 -6.407901636e-16 0)
(3 -7.648350571e-16 0)
(3 -2.623811111e-15 0)
(3 -4.557582135e-15 0)
(3 -5.166938052e-15 0)
(3 -5.095719267e-15 0)
(3 -5.987547519e-15 0)
(3 -4.42442108e-15 0)
(3 -5.872889724e-15 0)
(3 -4.217339364e-15 0)
(3 -4.96154401e-15 0)
(3 -1.434072746e-15 0)
(3 -1.156972214e-15 0)
(3 -3.196392605e-16 0)
(3 2.218580568e-15 0)
(3 1.485785907e-15 0)
(3 1.123480847e-16 0)
(3 -2.391743913e-15 0)
(3 -2.658369783e-15 0)
(3 -9.006477794e-16 0)
(3 1.554482789e-15 0)
(3 3.325697181e-15 0)
(3 5.839231103e-15 0)
(3 1.097357365e-14 0)
(3 1.168501463e-14 0)
(3 9.397449772e-15 0)
(3 3.717072025e-15 0)
(3 9.976382092e-16 0)
(3 -1.982062322e-15 0)
(3 -2.652699361e-15 0)
(3 -3.188953418e-15 0)
(3 -6.456254054e-15 0)
(3 -7.64270181e-15 0)
(3 -7.301367142e-15 0)
(3 3.449819259e-16 0)
(3 -1.614304226e-15 0)
(3 -4.787328664e-15 0)
(3 -5.767993781e-15 0)
(3 -3.967373538e-15 0)
(3 -4.032070757e-15 0)
(3 -3.924841949e-15 0)
(3 -3.921592852e-15 0)
(3 -3.613342567e-15 0)
(3 -3.033228419e-15 0)
(3 -3.740034947e-15 0)
(3 -5.554512356e-15 0)
(3 -4.821481955e-15 0)
(3 -1.550781469e-15 0)
(3 -1.841336397e-16 0)
(3 2.114012136e-16 0)
(3 7.466759476e-16 0)
(3 4.033988339e-15 0)
(3 4.668940945e-15 0)
(3 3.081537868e-15 0)
(3 2.600366046e-15 0)
(3 2.522053435e-15 0)
(3 3.374565817e-15 0)
(3 5.611223769e-15 0)
(3 4.276484162e-15 0)
(3 2.535272989e-15 0)
(3 8.159188157e-16 0)
(3 -2.171565794e-15 0)
(3 -3.090564636e-15 0)
(3 -6.313681992e-15 0)
(3 -6.599683833e-15 0)
(3 -7.901240329e-15 0)
(3 -9.849702498e-15 0)
(3 1.632252558e-15 0)
(3 1.265540857e-15 0)
(3 1.23247877e-15 0)
(3 2.939179e-15 0)
(3 6.339682442e-16 0)
(3 8.450145518e-17 0)
(3 -1.717533991e-15 0)
(3 -6.667413219e-16 0)
(3 -1.354087549e-15 0)
(3 -1.1657449e-15 0)
(3 -9.867639076e-17 0)
(3 -2.135811194e-15 0)
(3 -2.104332775e-15 0)
(3 5.279733533e-16 0)
(3 3.231201375e-15 0)
(3 3.730676462e-15 0)
(3 2.873306918e-15 0)
(3 1.630628149e-15 0)
(3 -1.67985948e-16 0)
(3 -2.116122402e-15 0)
(3 -2.278574102e-15 0)
(3 -6.019970296e-15 0)
(3 -7.013479126e-15 0)
(3 -6.196338334e-15 0)
(3 -5.365630721e-15 0)
(3 -4.38609333e-15 0)
(3 -4.402789424e-15 0)
(3 -5.114404694e-15 0)
(3 -4.763159171e-15 0)
(3 -1.850391492e-15 0)
(3 -1.918105707e-15 0)
(3 -2.90572081e-15 0)
(3 -6.095999133e-15 0)
(3 -9.889779992e-16 0)
(3 2.661888763e-15 0)
(3 3.592233018e-15 0)
(3 2.082727441e-15 0)
(3 -2.186012974e-16 0)
(3 2.095674016e-15 0)
(3 3.570574692e-16 0)
(3 -9.444597935e-16 0)
(3 -1.066073884e-15 0)
(3 3.651714102e-18 0)
(3 1.686810909e-16 0)
(3 1.740333402e-15 0)
(3 1.850880607e-15 0)
(3 2.776210397e-15 0)
(3 3.963270469e-15 0)
(3 3.797611629e-15 0)
(3 1.372119474e-15 0)
(3 -1.109190896e-16 0)
(3 -4.185999094e-15 0)
(3 -3.686855561e-15 0)
(3 -4.865602039e-15 0)
(3 -9.28606126e-15 0)
(3 -1.108734243e-14 0)
(3 -1.145864391e-14 0)
(3 -9.10798829e-15 0)
(3 -9.921418597e-15 0)
(3 -8.162872484e-15 0)
(3 -6.53022623e-15 0)
(3 -6.842556786e-15 0)
(3 -6.598633895e-15 0)
(3 -7.170472398e-15 0)
(3 -7.679196924e-15 0)
(3 -6.274611735e-15 0)
(3 6.051837668e-16 0)
(3 1.77846262e-15 0)
(3 1.877896782e-15 0)
(3 8.562867135e-16 0)
(3 8.062356383e-16 0)
(3 1.190281776e-15 0)
(3 3.588566824e-15 0)
(3 2.525515174e-15 0)
(3 2.278725761e-15 0)
(3 6.3943724e-16 0)
(3 -4.256179121e-15 0)
(3 -1.961302664e-15 0)
(3 -2.362647295e-15 0)
(3 -3.752438048e-15 0)
(3 -4.901108457e-15 0)
(3 -3.807114279e-15 0)
(3 -2.50237441e-15 0)
(3 -5.278130231e-16 0)
(3 -1.73559483e-16 0)
(3 1.9006539e-17 0)
(3 -6.344345131e-16 0)
(3 1.017924878e-16 0)
(3 -3.475201922e-15 0)
(3 -5.353518681e-15 0)
(3 -4.01774673e-15 0)
(3 -2.512802648e-15 0)
(3 -3.286689793e-15 0)
(3 -2.784179371e-15 0)
(3 -3.787995462e-15 0)
(3 -5.967632775e-15 0)
(3 -5.852949698e-15 0)
(3 -5.913939616e-15 0)
(3 -2.891350893e-17 0)
(3 2.712227285e-16 0)
(3 -1.220941508e-15 0)
(3 -1.113543731e-15 0)
(3 2.15927639e-15 0)
(3 2.956458138e-15 0)
(3 3.540496394e-15 0)
(3 4.44431261e-15 0)
(3 3.434922076e-15 0)
(3 2.513042641e-15 0)
(3 -1.253587711e-15 0)
(3 -1.753725793e-15 0)
(3 -4.549010783e-15 0)
(3 -6.429292563e-15 0)
(3 -9.486253602e-15 0)
(3 -8.75421913e-15 0)
(3 -7.737048379e-15 0)
(3 -4.395904385e-15 0)
(3 -3.222214152e-15 0)
(3 -9.714640666e-17 0)
(3 7.408735624e-16 0)
(3 4.413494815e-15 0)
(3 9.305915334e-15 0)
(3 7.88813242e-15 0)
(3 6.257680157e-15 0)
(3 3.355235669e-15 0)
(3 3.1750738e-15 0)
(3 1.146852142e-15 0)
(3 -1.058098863e-15 0)
(3 -2.501131422e-15 0)
(3 -4.766889543e-15 0)
(3 -2.473347976e-15 0)
(3 2.824955556e-15 0)
(3 7.928669775e-15 0)
(3 -8.161238217e-16 0)
(3 -3.800825589e-15 0)
(3 -3.186298061e-15 0)
(3 -1.788882866e-15 0)
(3 -6.519703731e-16 0)
(3 -4.332941458e-16 0)
(3 -1.402954164e-15 0)
(3 -4.375622709e-16 0)
(3 7.004670078e-17 0)
(3 -4.473489181e-16 0)
(3 -7.302242214e-16 0)
(3 -1.56254806e-15 0)
(3 -1.748357374e-15 0)
(3 -2.384689434e-15 0)
(3 -3.122410742e-15 0)
(3 -2.681170263e-15 0)
(3 -1.680166648e-15 0)
(3 -1.364976997e-15 0)
(3 8.825126181e-16 0)
(3 7.45410625e-16 0)
(3 2.345896041e-15 0)
(3 8.02106094e-15 0)
(3 1.065322462e-14 0)
(3 1.059358903e-14 0)
(3 6.512181521e-15 0)
(3 1.848084074e-16 0)
(3 -1.547973999e-15 0)
(3 -2.574512185e-15 0)
(3 -1.360872395e-15 0)
(3 -1.33222335e-15 0)
(3 2.499953746e-15 0)
(3 6.515539292e-15 0)
(3 8.390627715e-15 0)
(3 7.124430811e-16 0)
(3 1.007045402e-15 0)
(3 -1.912482675e-15 0)
(3 -3.609867851e-15 0)
(3 -4.454263e-15 0)
(3 -3.956493133e-15 0)
(3 -3.220996857e-15 0)
(3 -1.167566813e-15 0)
(3 1.218267065e-16 0)
(3 3.720682137e-16 0)
(3 -2.580038451e-16 0)
(3 -2.191570648e-15 0)
(3 -1.889744918e-15 0)
(3 -7.028753053e-16 0)
(3 2.234445516e-16 0)
(3 1.320044122e-15 0)
(3 -2.022616762e-16 0)
(3 7.30276337e-16 0)
(3 1.315427924e-15 0)
(3 2.144684797e-15 0)
(3 1.073629524e-15 0)
(3 -1.930064538e-16 0)
(3 -1.413175414e-15 0)
(3 -1.450132292e-15 0)
(3 -2.270816352e-15 0)
(3 -1.817976214e-15 0)
(3 -3.065100278e-15 0)
(3 -2.841188356e-16 0)
(3 3.926203976e-15 0)
(3 8.405278179e-15 0)
(3 1.374818615e-14 0)
(3 1.085763376e-14 0)
(3 1.312899735e-14 0)
(3 3.219806704e-16 0)
(3 1.579215459e-15 0)
(3 3.740833554e-16 0)
(3 -1.911255669e-15 0)
(3 -3.100267334e-15 0)
(3 -2.078155069e-15 0)
(3 -1.524494005e-15 0)
(3 -4.527841543e-15 0)
(3 -3.536890506e-15 0)
(3 -2.920536827e-15 0)
(3 -3.488134993e-15 0)
(3 -3.932559554e-15 0)
(3 -4.580720959e-15 0)
(3 -4.479037501e-15 0)
(3 -2.770645902e-15 0)
(3 -7.097621905e-16 0)
(3 -1.022378725e-15 0)
(3 -1.177553418e-15 0)
(3 -3.204254354e-16 0)
(3 4.958437054e-16 0)
(3 -2.321362884e-15 0)
(3 -9.192645177e-15 0)
(3 -1.222880086e-14 0)
(3 -1.150207766e-14 0)
(3 -8.840595854e-15 0)
(3 -7.070155126e-15 0)
(3 -3.142864662e-15 0)
(3 1.324666946e-16 0)
(3 2.909004765e-15 0)
(3 5.409046566e-15 0)
(3 3.79490294e-15 0)
(3 4.220744191e-15 0)
(3 5.725809561e-15 0)
(3 -1.150544184e-15 0)
(3 -8.548098156e-16 0)
(3 -2.738992748e-16 0)
(3 -8.059281466e-16 0)
(3 -3.34475317e-17 0)
(3 2.376019954e-15 0)
(3 2.182438111e-15 0)
(3 1.341164557e-15 0)
(3 -2.396775991e-15 0)
(3 -2.919117945e-15 0)
(3 -1.776699764e-15 0)
(3 3.031962136e-16 0)
(3 8.650719502e-16 0)
(3 2.681548746e-16 0)
(3 -1.591647579e-15 0)
(3 -4.189488597e-16 0)
(3 2.677683721e-15 0)
(3 2.229767799e-15 0)
(3 6.352307395e-16 0)
(3 -7.384037737e-16 0)
(3 -4.410955597e-15 0)
(3 -6.120615467e-15 0)
(3 -7.913019266e-15 0)
(3 -6.796829461e-15 0)
(3 -6.409880398e-15 0)
(3 -7.570616464e-15 0)
(3 -5.831721151e-15 0)
(3 -8.940832529e-15 0)
(3 -6.556454186e-15 0)
(3 -2.715847025e-15 0)
(3 -1.005141097e-14 0)
(3 -8.146863408e-15 0)
(3 -1.002493e-14 0)
(3 5.438217146e-16 0)
(3 4.347692433e-16 0)
(3 2.091359249e-15 0)
(3 4.478452074e-15 0)
(3 6.350347989e-15 0)
(3 5.153190297e-15 0)
(3 4.86917077e-15 0)
(3 4.209179992e-15 0)
(3 4.498822422e-15 0)
(3 3.265268771e-15 0)
(3 4.023336136e-15 0)
(3 4.691665181e-15 0)
(3 5.823198228e-15 0)
(3 5.78916033e-15 0)
(3 3.585444763e-15 0)
(3 3.656399101e-16 0)
(3 1.326812895e-15 0)
(3 8.078731708e-16 0)
(3 -5.706908957e-16 0)
(3 -4.821205393e-15 0)
(3 -4.915773922e-15 0)
(3 -1.959057985e-15 0)
(3 1.393522049e-15 0)
(3 1.413258571e-15 0)
(3 -4.944535096e-16 0)
(3 -1.92272772e-15 0)
(3 -1.575975809e-15 0)
(3 -2.981101723e-15 0)
(3 -6.400851974e-15 0)
(3 -1.015706757e-14 0)
(3 -1.350619512e-14 0)
(3 -1.488469813e-14 0)
(3 -1.657818029e-14 0)
(3 -8.893932098e-16 0)
(3 1.123758674e-15 0)
(3 1.994477936e-15 0)
(3 4.828537655e-15 0)
(3 5.445671436e-15 0)
(3 3.897267443e-15 0)
(3 1.314821123e-15 0)
(3 2.426188669e-16 0)
(3 3.514140436e-15 0)
(3 3.428084261e-15 0)
(3 2.35955445e-15 0)
(3 3.725349505e-15 0)
(3 3.701621484e-15 0)
(3 3.82635877e-15 0)
(3 5.401237243e-15 0)
(3 2.687071868e-15 0)
(3 1.976696111e-15 0)
(3 3.405259603e-15 0)
(3 5.215441843e-15 0)
(3 4.888032034e-15 0)
(3 5.4953919e-15 0)
(3 6.688679252e-15 0)
(3 6.618266669e-15 0)
(3 5.912561564e-15 0)
(3 4.809873345e-15 0)
(3 3.29178633e-15 0)
(3 5.871935465e-15 0)
(3 4.758311716e-15 0)
(3 -6.148352078e-17 0)
(3 -5.448424177e-15 0)
(3 -3.539504458e-15 0)
(3 -4.295978525e-16 0)
(3 -3.814812275e-15 0)
(3 2.732035965e-16 0)
(3 1.267379578e-15 0)
(3 1.690268013e-15 0)
(3 1.96835066e-15 0)
(3 2.462675239e-15 0)
(3 2.51066375e-15 0)
(3 1.402090996e-15 0)
(3 6.305130175e-17 0)
(3 -3.174282904e-15 0)
(3 -2.482061981e-15 0)
(3 -7.865188057e-16 0)
(3 6.68627425e-16 0)
(3 4.914958734e-16 0)
(3 1.116903578e-15 0)
(3 3.542032451e-15 0)
(3 6.105964665e-15 0)
(3 7.226851826e-15 0)
(3 8.026941866e-15 0)
(3 9.765691981e-15 0)
(3 1.490019636e-14 0)
(3 1.554502999e-14 0)
(3 1.396618312e-14 0)
(3 9.652476655e-15 0)
(3 8.432267732e-15 0)
(3 9.140170203e-15 0)
(3 1.09440367e-14 0)
(3 8.906505332e-15 0)
(3 6.697078397e-15 0)
(3 7.082540579e-15 0)
(3 7.820942727e-15 0)
(3 7.024641812e-15 0)
(3 7.43918763e-15 0)
(3 6.695672878e-15 0)
(3 1.425883282e-15 0)
(3 9.615065943e-16 0)
(3 3.712525356e-15 0)
(3 4.393666944e-15 0)
(3 3.738308517e-15 0)
(3 4.092369153e-15 0)
(3 5.509366804e-15 0)
(3 3.558477156e-15 0)
(3 9.466850228e-17 0)
(3 -1.710718338e-15 0)
(3 -9.061190759e-16 0)
(3 3.871019171e-16 0)
(3 1.367528634e-15 0)
(3 4.163068924e-15 0)
(3 2.563878296e-15 0)
(3 3.798800097e-15 0)
(3 2.459518949e-15 0)
(3 1.394447067e-15 0)
(3 1.572306666e-15 0)
(3 1.555783378e-15 0)
(3 1.002532323e-15 0)
(3 1.379917854e-15 0)
(3 1.826492536e-15 0)
(3 3.119476322e-15 0)
(3 8.028047998e-15 0)
(3 1.301134287e-14 0)
(3 1.148946855e-14 0)
(3 1.118695074e-14 0)
(3 1.39829809e-14 0)
(3 1.652938064e-14 0)
(3 1.243221074e-14 0)
(3 8.761284953e-15 0)
(3 1.030704577e-14 0)
(3 -1.658449659e-16 0)
(3 -3.298750913e-16 0)
(3 6.677391033e-16 0)
(3 2.901735887e-15 0)
(3 5.663144339e-15 0)
(3 6.140107745e-15 0)
(3 6.843300957e-15 0)
(3 7.746668702e-15 0)
(3 7.007116031e-15 0)
(3 5.796366998e-15 0)
(3 3.466848308e-15 0)
(3 2.711549681e-15 0)
(3 2.046840039e-15 0)
(3 3.221716721e-15 0)
(3 1.755000984e-15 0)
(3 -1.847019695e-16 0)
(3 -3.249657306e-15 0)
(3 -5.669877368e-15 0)
(3 -6.592615679e-15 0)
(3 -7.270911082e-15 0)
(3 -6.343590236e-15 0)
(3 -6.443379914e-15 0)
(3 -3.274129982e-15 0)
(3 1.338663209e-15 0)
(3 2.949926039e-15 0)
(3 7.211106599e-15 0)
(3 7.613135046e-15 0)
(3 9.856743629e-15 0)
(3 1.305879124e-14 0)
(3 1.725536264e-14 0)
(3 1.874959656e-14 0)
(3 1.949964087e-14 0)
(3 1.750271897e-14 0)
(3 -8.99418944e-16 0)
(3 -1.138126456e-15 0)
(3 -8.661222713e-16 0)
(3 -1.199600966e-15 0)
(3 2.010215396e-15 0)
(3 2.283329862e-15 0)
(3 2.695224751e-15 0)
(3 5.668822829e-15 0)
(3 7.66605209e-15 0)
(3 1.040736823e-14 0)
(3 8.531721724e-15 0)
(3 6.86332424e-15 0)
(3 4.653775995e-15 0)
(3 2.665785199e-15 0)
(3 3.658122837e-15 0)
(3 2.190850719e-15 0)
(3 8.026550784e-16 0)
(3 2.984929107e-16 0)
(3 -4.39356682e-17 0)
(3 9.572327771e-16 0)
(3 1.40189279e-15 0)
)
;

boundaryField
{
    inlet
    {
        type            fixedValue;
        value           uniform (3 0 0);
    }
    outlet
    {
        type            inletOutlet;
        inletValue      nonuniform 0();
        value           nonuniform 0();
    }
    bottom
    {
        type            slip;
    }
    top
    {
        type            slip;
    }
    obstacle
    {
        type            slip;
    }
    defaultFaces
    {
        type            empty;
    }
    procBoundary6to0
    {
        type            processor;
        value           nonuniform List<vector> 
34
(
(3 5.995704492e-15 0)
(3 1.276662189e-14 0)
(3 1.67473872e-14 0)
(3 1.675059275e-14 0)
(3 1.608782508e-14 0)
(3 1.644154105e-14 0)
(3 -9.75687715e-16 0)
(3 -2.510386194e-15 0)
(3 -1.111497321e-15 0)
(3 -1.275990629e-15 0)
(3 1.590758903e-16 0)
(3 5.704832111e-16 0)
(3 2.744546078e-15 0)
(3 5.056515374e-15 0)
(3 5.109344859e-15 0)
(3 5.558975396e-15 0)
(3 2.453747599e-15 0)
(3 -1.516866413e-15 0)
(3 -4.877618724e-15 0)
(3 -7.646803147e-15 0)
(3 -9.447942097e-15 0)
(3 -9.663806179e-15 0)
(3 -7.262796857e-15 0)
(3 -7.696339911e-15 0)
(3 -9.176606779e-15 0)
(3 -1.053314974e-14 0)
(3 -1.019281183e-14 0)
(3 -6.960811021e-15 0)
(3 -5.762705031e-15 0)
(3 -3.787048786e-15 0)
(3 1.631118097e-15 0)
(3 9.038076003e-15 0)
(3 1.385035283e-14 0)
(3 1.385035283e-14 0)
)
;
    }
    procBoundary6to1
    {
        type            processor;
        value           uniform (3 6.080396959e-15 0);
    }
    procBoundary6to7
    {
        type            processor;
        value           nonuniform List<vector> 
16
(
(3 -4.693876977e-15 0)
(3 -5.132274712e-15 0)
(3 -9.526011602e-15 0)
(3 -7.386750695e-15 0)
(3 -6.024110446e-15 0)
(3 3.356611812e-15 0)
(3 1.000863309e-14 0)
(3 9.749394298e-15 0)
(3 1.486589185e-14 0)
(3 4.894997658e-15 0)
(3 -1.440593145e-14 0)
(3 -1.441092242e-14 0)
(3 -1.074848613e-15 0)
(3 8.416126748e-15 0)
(3 1.307248771e-14 0)
(3 1.500045861e-14 0)
)
;
    }
    procBoundary6to12
    {
        type            processor;
        value           nonuniform List<vector> 
34
(
(3 7.678115888e-16 0)
(3 2.09813026e-15 0)
(3 4.145743671e-15 0)
(3 2.953020816e-15 0)
(3 4.176026698e-15 0)
(3 3.199070186e-15 0)
(3 4.325621312e-15 0)
(3 6.252128305e-15 0)
(3 7.497105246e-15 0)
(3 1.399181616e-14 0)
(3 1.950400498e-14 0)
(3 1.667704791e-14 0)
(3 -2.090687311e-16 0)
(3 1.490759638e-15 0)
(3 1.813793128e-15 0)
(3 1.151453888e-15 0)
(3 -1.043463221e-15 0)
(3 -3.25530096e-15 0)
(3 -1.589741736e-15 0)
(3 2.44736402e-15 0)
(3 3.106104666e-15 0)
(3 3.97910466e-15 0)
(3 6.180693557e-15 0)
(3 8.155574873e-15 0)
(3 8.611287804e-15 0)
(3 9.028939943e-15 0)
(3 9.467117766e-15 0)
(3 1.007145003e-14 0)
(3 1.01519905e-14 0)
(3 1.027572942e-14 0)
(3 1.15229791e-14 0)
(3 1.257296023e-14 0)
(3 7.678115888e-16 0)
(3 1.270024763e-14 0)
)
;
    }
}


// ************************************************************************* //
