/*--------------------------------*- C++ -*----------------------------------*\
  =========                 |
  \\      /  F ield         | OpenFOAM: The Open Source CFD Toolbox
   \\    /   O peration     | Website:  https://openfoam.org
    \\  /    A nd           | Version:  7
     \\/     M anipulation  |
\*---------------------------------------------------------------------------*/
FoamFile
{
    version     2.0;
    format      ascii;
    class       volScalarField;
    location    "1.4";
    object      T;
}
// * * * * * * * * * * * * * * * * * * * * * * * * * * * * * * * * * * * * * //

dimensions      [0 0 0 1 0 0 0];

internalField   nonuniform List<scalar> 
2222
(
1.965284893
1.947243752
1.945852401
1.944340355
1.942955214
1.917013396
1.916119502
1.915174587
1.914409197
1.913960543
1.913749137
1.913527773
1.889683893
1.889433044
1.889287031
1.889443799
1.889864748
1.890657606
1.891538443
1.892157407
1.892548495
1.880132696
1.880019504
1.880347845
1.881027563
1.882003307
1.883082664
1.883991965
1.884545854
1.884565392
1.884145543
1.883697793
1.883759894
0.7854580072
0.7862317022
0.7879823753
0.7897813629
0.7906545872
0.7906108265
0.7903880027
0.7905145282
0.7915520774
0.7934039628
0.7937945941
0.7936488898
0.7934909552
0.7934827297
0.7932529626
0.7927934157
0.7924517817
0.7921734555
0.7918520645
0.7913248265
0.7905291348
0.7897155005
0.7889082774
0.7881096292
0.7876395174
0.7873598376
0.7870944372
0.7867815013
0.7864925383
0.7862248049
0.786027539
0.7858017937
0.7856651576
0.7857330553
0.7857804646
0.7857398533
0.7855878955
0.7853324309
0.7852695777
0.78526234
0.7852173294
0.7851088933
0.7849644608
0.7848310387
0.7847276663
0.7846518922
0.7845817076
0.7845055156
0.7844243391
0.7843330854
0.7842317199
0.7841649747
0.7841347406
0.7841280081
0.7841237696
0.7840805207
0.7840467943
0.7840507971
0.7840714008
0.7840986752
0.7840905859
0.7840516961
0.7840012597
0.7839909694
0.7839921631
0.7840001245
0.784058575
0.7700139264
0.7718766177
0.7737530206
0.7755988461
0.7770658445
0.778495409
0.7793309976
0.7798710701
0.7807078118
0.7822196053
0.7830288648
0.7830427843
0.7826946827
0.7825888334
0.7828518681
0.7835466863
0.7840592512
0.7842124329
0.7842118109
0.7841728107
0.7842620489
0.7845709125
0.785057345
0.7854761315
0.7858461976
0.7860570036
0.7860647634
0.7859389425
0.7856018006
0.785555783
0.7855028348
0.7853417246
0.7851082762
0.7848896507
0.7847440498
0.7845875219
0.7842825572
0.7838872098
0.7836811786
0.7835928631
0.7835251518
0.7834179399
0.7832325079
0.7830721586
0.7830062801
0.783006798
0.7830082936
0.782992587
0.7829533939
0.7828959522
0.7828318617
0.7828135951
0.7828177103
0.7828286579
0.7828215278
0.7828020831
0.7827684524
0.782722413
0.7826923069
0.7826731022
0.7826418949
0.7825923307
0.7825316159
0.7824730372
0.7824266367
0.7823683841
0.7824802152
0.7624916869
0.762918423
0.7635678334
0.7638368003
0.7640268248
0.7645346608
0.7659423582
0.7676869389
0.7681803793
0.768272439
0.7686872415
0.7695896206
0.7701848767
0.7705940406
0.7713228233
0.7729543839
0.774516055
0.7752420364
0.7757344734
0.7762174063
0.7767862413
0.7776207018
0.778670016
0.779446508
0.7799539774
0.7803499044
0.7805348492
0.7804425311
0.7802904706
0.7803478938
0.7806589126
0.7808945338
0.7807914614
0.7804064796
0.7800155895
0.7798635591
0.7798450322
0.7798326796
0.7797565684
0.7796774978
0.7796670485
0.7796381448
0.7795025546
0.7794017328
0.7793960296
0.7794281365
0.7795335481
0.779576528
0.7795656795
0.7795065896
0.7794588015
0.7794623738
0.779468798
0.7794553597
0.7794228113
0.7793818752
0.7793211684
0.7792341759
0.7791480251
0.7790823729
0.779028505
0.7789657162
0.7788847608
0.7788522867
0.7788536561
0.7788556687
0.779023543
0.7664677202
0.7647048367
0.7635498918
0.7614608628
0.7588703632
0.7577014652
0.7578490423
0.7577802823
0.7570924779
0.7571440681
0.7575400594
0.7582082928
0.7587583646
0.7592014873
0.7597754289
0.7608894203
0.7624220457
0.7638457321
0.7647714631
0.7657260978
0.7666750315
0.7676937179
0.7692354959
0.7710481758
0.7720658935
0.7725080484
0.7729751539
0.7733263605
0.7735833412
0.7739837534
0.7747022732
0.7754530543
0.7757903343
0.7758227428
0.7757003627
0.7756619039
0.7758194706
0.7763033309
0.7769106067
0.7771892374
0.7771989462
0.7771943007
0.777192098
0.7772061194
0.7772758583
0.7773861002
0.7774577973
0.7774413043
0.7773218965
0.7770242889
0.7767522614
0.7766608397
0.7766195136
0.7765473418
0.7764269704
0.7762946474
0.7761686889
0.7760220039
0.7758890203
0.7758218569
0.7758017344
0.7757886231
0.7757824096
0.7757956989
0.7758093992
0.7758215572
0.7759564446
0.7786052784
0.7723903427
0.7692392194
0.7672591985
0.7641845839
0.7610213838
0.7611152746
0.7611873502
0.7600148459
0.7593405944
0.7596721946
0.7601651016
0.7601048126
0.7603414068
0.7611120132
0.7622301345
0.7632624099
0.7638965297
0.7643934653
0.764318557
0.7640377403
0.7640242916
0.7644082951
0.7654361631
0.7661686612
0.766352923
0.766604286
0.7672902236
0.7681996633
0.7690843597
0.7700621464
0.7710769011
0.7719198536
0.7725831597
0.773132026
0.7734797977
0.7738046566
0.7743356489
0.7750012554
0.7751886537
0.7751630116
0.7751100351
0.7750987678
0.7751206776
0.7751571114
0.7752808703
0.7754332183
0.7754338716
0.7753523498
0.7751919931
0.7750446953
0.7750182188
0.7750477406
0.7751221452
0.7751143599
0.7750680752
0.7750194315
0.774945383
0.774893045
0.7748953343
0.7749008786
0.7748995619
0.7749010563
0.7748869793
0.7748044552
0.7746937946
0.7747042359
0.8165797664
0.8071062501
0.8011260341
0.798486735
0.794712734
0.7871580231
0.7841299257
0.7822444936
0.779055184
0.7750482527
0.7734788126
0.7717960278
0.7691505818
0.7673248162
0.7667078293
0.7656685296
0.7640708275
0.7627457713
0.7625350174
0.7619139838
0.7609447871
0.7608637211
0.7611180206
0.7612408328
0.7612642855
0.7613226204
0.7615008819
0.7619460137
0.7626144923
0.7632927867
0.7639625552
0.7647325128
0.7656703249
0.7665805707
0.7676050386
0.768671802
0.7695191482
0.7702356751
0.771268979
0.7721398074
0.7723925052
0.7724898286
0.7726974637
0.7731264165
0.7732806718
0.7734426004
0.7737115447
0.7738951273
0.7739369574
0.7739169519
0.7739087081
0.7739987646
0.7742668172
0.774590069
0.7748039761
0.7748603148
0.7748678979
0.7749175879
0.7749930989
0.7750566834
0.7751317445
0.7751555324
0.7751413656
0.7750958819
0.774982836
0.7748157465
0.7746879902
0.85003139
0.8417031072
0.8322315872
0.8266607789
0.8218230912
0.8141102634
0.8070807782
0.8027755572
0.7986228811
0.7920737567
0.7872262204
0.7840861194
0.7807850515
0.7757984555
0.7729817024
0.7711373972
0.769080872
0.76605322
0.7654181952
0.765041965
0.7638642487
0.763105823
0.7633220217
0.7633464651
0.7628509628
0.7628038107
0.7632330755
0.7638514591
0.7641124725
0.7644081844
0.7649074681
0.7652352939
0.7650368567
0.7649902869
0.7651312422
0.7655413961
0.7659178532
0.766027284
0.7662930395
0.7669618185
0.7678490776
0.7683969137
0.768841225
0.7695230239
0.7703999105
0.7711510061
0.7717721092
0.7723075469
0.7727217475
0.773134405
0.7735737164
0.7738809252
0.7740810202
0.774344252
0.774645744
0.7746798108
0.7746284271
0.774624073
0.7746929571
0.7748014876
0.7748865404
0.7749016821
0.7749103154
0.7749208883
0.7749090087
0.7748522546
0.7748248925
0.8860678802
0.878524045
0.8679036461
0.8611130444
0.8560989004
0.8487137578
0.8397588345
0.8347263481
0.8306049718
0.8235264646
0.8165354096
0.8129496328
0.8096854942
0.8035226693
0.798608367
0.7958865727
0.7929153109
0.7876179873
0.7848491344
0.7829795872
0.7801035272
0.7767229497
0.775402119
0.7740155949
0.7715322151
0.7697567691
0.7692258491
0.7682777894
0.7668818943
0.7658225017
0.7653559932
0.7646091986
0.7635966833
0.763272874
0.7633818072
0.7633778916
0.7631402096
0.7631085321
0.7632168481
0.7634539165
0.7637325207
0.7640299967
0.7643511906
0.7648152985
0.7654845049
0.7663384736
0.7670237402
0.7676972681
0.7684479318
0.7692097311
0.7700734853
0.7709919075
0.7715369658
0.7719209867
0.7724329027
0.7730114856
0.7731067188
0.7731808685
0.773384501
0.7738466715
0.7741108264
0.7741010898
0.7741387335
0.7743203437
0.7744441907
0.7744431062
0.7744928561
0.9197302541
0.9131679038
0.9024975604
0.8941571711
0.8885715419
0.8819760596
0.8722249817
0.8655295421
0.8606245021
0.8539771159
0.8457565981
0.8403733379
0.8361046636
0.8297072407
0.8230371155
0.8186446004
0.8148669813
0.8088854645
0.8035472986
0.8001543984
0.7969138307
0.791723985
0.7877105779
0.7850098284
0.7821356267
0.7780077706
0.7756566798
0.7740190404
0.7720294826
0.7691750732
0.7682695833
0.7676315336
0.7663043243
0.7652431168
0.765367017
0.7653492571
0.7647043364
0.7644488617
0.7647042745
0.764991129
0.7648888831
0.7649038485
0.7651712062
0.7657596288
0.7659244393
0.7658447195
0.7659127936
0.7659830554
0.7659734565
0.7660027695
0.7661712117
0.7666214059
0.7671782194
0.7674699568
0.7677490592
0.7682586019
0.7690152846
0.7696182392
0.7701450084
0.7707474845
0.7714460781
0.7719303333
0.772281751
0.7726242414
0.7730283795
0.7733981566
0.773837231
0.9500664881
0.9443178966
0.9352570726
0.9259537106
0.9198261835
0.9138520663
0.9041609268
0.8965011096
0.8913066346
0.8851895639
0.8760185447
0.8699645234
0.8655473616
0.8594788709
0.8514147384
0.8466056497
0.8427986227
0.8369820156
0.8302690105
0.8263904364
0.8231154079
0.8177033229
0.8123739933
0.8092319854
0.8063739733
0.8013035756
0.7974842631
0.7952999449
0.7928568295
0.7883077709
0.7856378169
0.7839421756
0.7814868919
0.7781467401
0.776940368
0.7758190269
0.7737258222
0.7716638018
0.7709515242
0.7700536782
0.7686302146
0.7675418243
0.7672326314
0.7666753769
0.7657697933
0.7649515965
0.7648515453
0.7646519216
0.7641728143
0.7641280844
0.7642945614
0.7644205657
0.7644300401
0.764455641
0.7645291697
0.7647209652
0.7650769166
0.7655267056
0.7659746925
0.7664053548
0.7669666177
0.7676422535
0.7682835324
0.7688313605
0.7694489135
0.7700637023
0.7710001293
0.9750513308
0.9700940046
0.9636582315
0.9548560038
0.9482652876
0.9429841016
0.9344922051
0.9258096726
0.9202061935
0.9147983222
0.9057870356
0.8985440687
0.89371474
0.8881875952
0.8797916167
0.8738688497
0.8696211811
0.864034617
0.8566783011
0.8517449524
0.8479912485
0.8425205462
0.8362016844
0.8320168123
0.8286744807
0.8235063307
0.8181432575
0.8146313148
0.811630237
0.8068296421
0.8022915127
0.7993714345
0.7967088987
0.7923918648
0.7888977188
0.7866446949
0.7843362121
0.7806115798
0.7780528951
0.7764173066
0.7747065384
0.7719334604
0.7707957483
0.770085049
0.7690107697
0.7672242666
0.7668726058
0.7667599685
0.766149211
0.7656414849
0.765796072
0.7659846566
0.7657171968
0.7654719186
0.7655677265
0.7658824657
0.7660805923
0.7661600698
0.7663349231
0.7665834787
0.7665223831
0.7663713448
0.7663795529
0.7664601159
0.7666316719
0.766780954
0.7671171303
0.991565213
0.9881548407
0.9843913637
0.9785373115
0.9723686051
0.9676567698
0.961454914
0.9530306409
0.9468741043
0.9420018466
0.9340810471
0.9260033121
0.92079726
0.9157990554
0.9073685623
0.9006475113
0.8962117861
0.8911414587
0.8830533309
0.8775548291
0.8736864203
0.8686707005
0.8613626588
0.856812072
0.8533908192
0.848541551
0.8421633822
0.838319994
0.8352663698
0.8306205554
0.8251502869
0.821959376
0.8193224256
0.8150022941
0.8103864768
0.8077325636
0.8054304242
0.8013477823
0.7975719667
0.7955206272
0.7936179495
0.7899584126
0.7872212516
0.7856638142
0.7838348007
0.7804598034
0.7787138042
0.7776277443
0.7760735115
0.7738213132
0.7730080281
0.7722937837
0.7709906663
0.7693135803
0.7688555265
0.7684231516
0.767661182
0.7668322063
0.7665973568
0.7663842486
0.765694135
0.7651895805
0.765208934
0.7652805827
0.7652254791
0.7651570116
0.7652105354
0.9984765169
0.9972260003
0.9956298635
0.993179762
0.9895170399
0.9859310686
0.9820828604
0.9760732686
0.9700423684
0.9655994418
0.9596600704
0.9515582174
0.9458449782
0.941378667
0.9339650597
0.9262766057
0.9214589545
0.9169306637
0.9091040301
0.9026310444
0.8984520336
0.8938536008
0.8863809326
0.8809905425
0.8772973855
0.8727247969
0.865908548
0.8612920938
0.8579781255
0.8535460381
0.8474800839
0.8434756112
0.8404934243
0.8362763383
0.8309280389
0.8273475643
0.824606341
0.8205986388
0.815909245
0.8128198471
0.8103984651
0.806710038
0.8025729406
0.7998703642
0.797664968
0.7941953109
0.7906421069
0.7885394283
0.7867669251
0.7838268392
0.7810421359
0.7793543126
0.7778158426
0.7751531438
0.7733409269
0.7725189587
0.7717035805
0.7700187582
0.7690192655
0.768694961
0.7680228879
0.7669285639
0.7668196447
0.7669200277
0.7667093792
0.7663981076
0.7663131997
0.9998844371
0.9997110859
0.9993845195
0.9988087343
0.9977367473
0.9961513559
0.9942883603
0.9915046705
0.9874938766
0.9838218319
0.979975497
0.9739260311
0.9680427506
0.9638566494
0.9582342384
0.9504936019
0.9451022405
0.9409780765
0.9340707431
0.9267654585
0.9222538737
0.9181292096
0.9107775093
0.9045574091
0.9006749421
0.8965659829
0.8894147618
0.8841587298
0.8807064403
0.8766921112
0.8700746904
0.8655955651
0.8624853239
0.8586145681
0.8525736185
0.8486897952
0.8458795664
0.8422149476
0.8367753607
0.8334572965
0.8309613697
0.8275315897
0.8226176045
0.8196687576
0.8174265398
0.8142789294
0.8099529836
0.807491289
0.8055699683
0.8026846674
0.7988738923
0.7966955436
0.7949867164
0.7922289638
0.789121263
0.7875899306
0.7862844782
0.783801093
0.7813748268
0.7800409159
0.7786935261
0.7763243069
0.7750791159
0.7743898651
0.7733625803
0.7720514344
0.7708136153
0.9999971176
0.9999895943
0.9999677374
0.9999124234
0.9997802073
0.9994976863
0.9990175145
0.9982392683
0.9968620446
0.9949611704
0.9928807149
0.9898339478
0.9855657928
0.9818695108
0.9780911677
0.9720665953
0.9663534415
0.9624226515
0.9571635371
0.9496795972
0.9445724965
0.9407968741
0.9344542413
0.9273518487
0.9230636335
0.9193426162
0.9125959476
0.9064608106
0.9027347999
0.8990647853
0.8924617491
0.8872099048
0.8838723848
0.8802953886
0.8740959423
0.8695124787
0.8664780603
0.8630611762
0.8574067518
0.8533586186
0.8505693043
0.8473004869
0.8421382103
0.8384695488
0.8358966381
0.8328339234
0.8282240175
0.8249421465
0.8225713639
0.8196562207
0.815420573
0.8123795945
0.8102025658
0.807527213
0.8037754885
0.8011741028
0.7992642928
0.7967702514
0.7932750861
0.7909139161
0.7892173514
0.7869845326
0.7841648298
0.7824863432
0.7810570139
0.779255233
0.7763706153
0.9999999804
0.9999998932
0.999999498
0.9999979458
0.9999925172
0.9999758514
0.9999326316
0.9998352089
0.9996225118
0.999201321
0.9985473723
0.9975621449
0.9958867166
0.9937008393
0.9914582384
0.9882314496
0.9837733115
0.9800820852
0.976440473
0.9705363863
0.964942002
0.9612241146
0.9563796281
0.949181208
0.9442506564
0.9407648577
0.9349976025
0.9280618675
0.9239443976
0.9205905163
0.9144385969
0.9083111169
0.9047319367
0.9014761063
0.8953822204
0.8900544408
0.8868456407
0.8837203155
0.8779479528
0.8732762908
0.8703349972
0.8673471084
0.8619491492
0.8578090218
0.8551262286
0.8523358933
0.8473795271
0.8436959313
0.8412233829
0.838589774
0.8339702662
0.830664125
0.8284286927
0.8260382094
0.8218801238
0.8189496404
0.816895001
0.8146343423
0.8107669074
0.8081051155
0.8062550791
0.8042374503
0.8009540968
0.798688716
0.7969545934
0.7950368275
0.7915431445
1
0.9999999997
0.9999999979
0.999999987
0.9999999283
0.999999654
0.9999985623
0.999994786
0.9999830389
0.9999504432
0.9998738612
0.9997181029
0.9994042975
0.998820965
0.997982203
0.9968011169
0.9948536484
0.9924164182
0.9900607339
0.9867395927
0.9821504313
0.9784756199
0.9750175012
0.9692906429
0.9637763575
0.9602458659
0.9558684644
0.9489171764
0.9440799834
0.9408496868
0.9357360617
0.9289061291
0.9248485016
0.9217959344
0.9163394018
0.9101790059
0.9066515225
0.9037337279
0.8982968114
0.8928417999
0.8896482455
0.8868531526
0.8816477912
0.8768113278
0.8738844786
0.8712363624
0.8663857341
0.8620403597
0.8592892647
0.8567589939
0.8522546609
0.8483394704
0.8457925098
0.843422183
0.8393182777
0.8357484529
0.8333105836
0.8310133767
0.8271904941
0.8239512317
0.8217139771
0.8195503998
0.8161480653
0.8132316757
0.8110491399
0.8088509497
0.8053294369
1
1
1
1
0.9999999998
0.9999999987
0.9999999917
0.9999999543
0.9999997765
0.9999990382
0.9999964173
0.999988332
0.9999657389
0.9999083687
0.999784526
0.9995548953
0.9991243781
0.9983633534
0.9973378685
0.9959845002
0.9938051665
0.9911451002
0.988718498
0.9853934481
0.9807161197
0.9770390106
0.9737979586
0.9683451109
0.9628532255
0.9594464849
0.9555479137
0.9489085804
0.9440683
0.9410246559
0.9365686795
0.9298829076
0.9258146982
0.9229940273
0.9182547409
0.9120594218
0.9085163617
0.9058499214
0.9011045636
0.8955309953
0.8923482566
0.8898151898
0.8852374291
0.8802241288
0.8772806952
0.8748668121
0.8705408962
0.8660418399
0.8633377861
0.861062687
0.857023528
0.8529326189
0.8503852708
0.8482178241
0.8444291636
0.8407668954
0.8384601373
0.8364161829
0.8328968415
0.82965567
0.8274288028
0.8253362651
0.8217514319
1
1
1
1
1
1
1
0.9999999999
0.9999999992
0.999999995
0.999999972
0.9999998619
0.9999993962
0.9999976578
0.9999920841
0.999976563
0.9999372437
0.9998449551
0.9996594137
0.9993426942
0.9987875312
0.9978429891
0.9966338621
0.9951404318
0.9927810799
0.9899227407
0.9874514225
0.9842037081
0.9794834009
0.9757795924
0.9727583195
0.9676568776
0.9621455082
0.9588117014
0.9553822723
0.9491318806
0.9442022711
0.9412773918
0.9374602506
0.9310067377
0.9268256065
0.924151698
0.9201264429
0.914015058
0.9103770768
0.9078657562
0.903814786
0.8982099002
0.8949303798
0.8925471999
0.8886193922
0.8835578363
0.8805491115
0.8782756609
0.8745255947
0.8699392926
0.8671104846
0.8649314482
0.861396913
0.8573009306
0.8546749756
0.8525687357
0.8492161349
0.8455709921
0.8430445924
0.8408981357
0.8373268581
1
1
1
1
1
1
1
1
1
1
0.9999999999
0.9999999996
0.9999999972
0.9999999837
0.9999999175
0.9999996346
0.9999985585
0.9999949163
0.9999842383
0.9999570929
0.9998942889
0.9997568221
0.9994960726
0.9990827275
0.9984034265
0.9972788966
0.9958928
0.9942936214
0.991813058
0.9887761006
0.9862719812
0.9831709662
0.9784617881
0.9746946622
0.9718695147
0.9672040847
0.9616644514
0.9583321759
0.9553044126
0.9495553669
0.9444870569
0.9416110222
0.9383479858
0.9322782458
0.9279226186
0.9253151999
0.92190251
0.9160165802
0.9122223575
0.9097893602
0.9063583242
0.9008899453
0.8974934542
0.8951777956
0.8918014754
0.8867891993
0.8836865347
0.881476919
0.8782244816
0.8737019647
0.870855178
0.8687232747
0.8655256642
0.8615416229
0.8588478367
0.8567358026
0.8531346965
1
1
1
1
1
1
1
1
1
1
1
1
1
1
0.9999999998
0.9999999985
0.9999999911
0.9999999535
0.9999997858
0.9999991393
0.9999969117
0.9999900186
0.9999713394
0.9999274954
0.9998342364
0.9996426239
0.9992954001
0.9987795288
0.997984603
0.996692965
0.9951373947
0.993463873
0.9909239199
0.9877320548
0.9851922049
0.9822793892
0.9776467899
0.9737911037
0.9711158151
0.966927769
0.961395396
0.9580158937
0.9553010469
0.9501350539
0.9449269427
0.9420353676
0.9392015974
0.9336401127
0.9290970882
0.9264996605
0.9235736589
0.9180806562
0.9141088062
0.9116803267
0.9087175892
0.9035285761
0.8999990013
0.8976975996
0.8947577958
0.889996828
0.886798533
0.8845871797
0.8815992517
0.8774117109
0.8744255305
0.8722886006
0.8686444542
1
1
1
1
1
1
1
1
1
1
1
1
1
1
1
1
1
0.9999999999
0.9999999992
0.9999999954
0.9999999754
0.9999998821
0.9999995032
0.9999981703
0.9999939791
0.9999820444
0.9999518495
0.9998856934
0.9997555667
0.9995033155
0.9990617039
0.9984410154
0.9975445594
0.996106133
0.9943907847
0.9926668684
0.9901239105
0.9868073208
0.9842236327
0.9815120858
0.9770279329
0.9730753359
0.9704953932
0.9667769991
0.9613312235
0.9578657466
0.9553591276
0.950791773
0.9455263892
0.942579763
0.9400394568
0.935045604
0.9303717852
0.9277326893
0.92513142
0.920107136
0.9160281989
0.9135787907
0.910927432
0.9061290589
0.9025244045
0.9002064678
0.8974135818
0.8931246628
0.8898660816
0.8876412209
0.884017224
1
1
1
1
1
1
1
1
1
1
1
1
1
1
1
1
1
1
1
1
0.9999999999
0.9999999996
0.9999999977
0.9999999875
0.9999999389
0.9999997318
0.9999989577
0.9999964486
0.9999891943
0.9999700769
0.9999245286
0.9998303638
0.999658094
0.9993418867
0.9988019365
0.9980771946
0.9970962782
0.9955366374
0.9936750243
0.9919172294
0.9894149298
0.986014007
0.9833807572
0.9808532117
0.976572428
0.9725462791
0.9700168315
0.9667070586
0.9614411569
0.957894934
0.9555083534
0.9514682574
0.9462605674
0.9432466055
0.9408784861
0.9364090037
0.9317413032
0.9290591738
0.926636419
0.9220676303
0.9179999402
0.9155223018
0.912936387
0.9086265047
0.9051125355
0.9027432819
0.8992326867
1
1
1
1
1
1
1
1
1
1
1
1
1
1
1
1
1
1
1
1
1
1
1
1
0.9999999998
0.999999999
0.999999994
0.9999999696
0.9999998631
0.999999446
0.9999980004
0.9999936407
0.9999819621
0.9999533486
0.9998886663
0.9997612351
0.9995431841
0.9991629355
0.9985248157
0.9977002415
0.9966518436
0.9949967808
0.993008828
0.9912288917
0.9887912227
0.9853511166
0.9826779325
0.9803011803
0.976246967
0.972199315
0.9696932097
0.9666936388
0.9616753535
0.9580940568
0.9557673008
0.9521257705
0.9471080269
0.9440642611
0.9417682456
0.9376805826
0.9331897409
0.9304883716
0.9280881853
0.9238620748
0.9201073973
0.9175853779
0.9141990508
1
1
1
1
1
1
1
1
1
1
1
1
1
1
1
1
1
1
1
1
1
1
1
1
1
1
1
0.9999999999
0.9999999996
0.9999999973
0.9999999857
0.9999999328
0.99999972
0.9999989499
0.999996459
0.9999894033
0.9999717573
0.9999313871
0.9998442296
0.9996791705
0.9994136211
0.9989717683
0.9982391939
0.9973231775
0.9962228324
0.9944942704
0.9924077612
0.9906174678
0.9882458723
0.9848095389
0.9821232368
0.9798582391
0.9760097815
0.972020237
0.969538058
0.9667379224
0.9619878698
0.9584594381
0.9561639904
0.952732183
0.9480258672
0.9450213658
0.9427368044
0.9387948873
0.9347653374
0.9321095353
0.9288037162
1
1
1
1
1
1
1
1
1
1
1
1
1
1
1
1
1
1
1
1
1
1
1
1
1
1
1
1
1
1
1
0.9999999998
0.9999999989
0.9999999938
0.9999999691
0.9999998641
0.9999994726
0.9999981556
0.9999941605
0.9999834346
0.9999582173
0.9999041245
0.999791842
0.9995862187
0.9992736235
0.9987741839
0.9979530416
0.9969596163
0.9958192344
0.994031718
0.99188111
0.9900967211
0.9877716659
0.9843768551
0.9817246329
0.9795304298
0.9758374396
0.9719823495
0.9695580635
0.9668213896
0.9623569392
0.9589736403
0.9567009461
0.9532910177
0.9490222202
0.9462114002
0.9429403126
1
1
1
1
1
1
1
1
1
1
1
1
1
1
1
1
1
1
1
1
1
1
1
1
1
1
1
1
1
1
1
1
1
1
0.9999999999
0.9999999996
0.9999999974
0.9999999867
0.9999999385
0.9999997466
0.999999077
0.999996976
0.9999909569
0.99997555
0.9999412247
0.9998719725
0.999732586
0.9994852464
0.9991286317
0.9985750516
0.9976740945
0.9966219281
0.9954510189
0.9936076211
0.9914419785
0.9896713382
0.9873664568
0.9840383512
0.9814744719
0.9793069924
0.9757278959
0.9720938156
0.9696990742
0.9669707647
0.9628154552
0.9597405286
0.9564841265
1
1
1
1
1
1
1
1
1
1
1
1
1
1
1
1
1
1
1
1
1
1
1
1
1
1
1
1
1
1
1
1
1
1
1
1
1
1
0.9999999998
0.999999999
0.9999999946
0.9999999741
0.9999998871
0.9999995614
0.9999984885
0.9999953343
0.9999867721
0.9999656335
0.9999211812
0.9998354928
0.9996682967
0.9993797483
0.9989849742
0.9983774689
0.9974108605
0.996324466
0.9951141719
0.9932349692
0.9910912755
0.9893409891
0.9870020522
0.9838665381
0.9813390747
0.9791118425
0.9757618882
0.9725366302
0.9692684651
1
1
1
1
1
1
1
1
1
1
1
1
1
1
1
1
1
1
1
1
1
1
1
1
1
1
1
1
1
1
1
1
1
1
1
1
1
1
1
1
1
0.9999999999
0.9999999996
0.999999998
0.9999999897
0.9999999531
0.9999998079
0.9999992863
0.9999976788
0.9999931803
0.9999815698
0.9999538954
0.9998984789
0.9997964176
0.9995987226
0.9992784521
0.9988439787
0.998185569
0.9971768155
0.996076257
0.9947938671
0.9929326492
0.990889952
0.9890158911
0.9867000702
0.9839992573
0.9809521196
1
1
1
1
1
1
1
1
1
1
1
1
1
1
1
1
1
1
1
1
1
1
1
1
1
1
1
1
1
1
1
1
1
1
1
1
1
1
1
1
1
1
1
1
1
0.9999999999
0.9999999993
0.9999999962
0.9999999816
0.9999999211
0.9999996913
0.9999989156
0.9999966021
0.9999905895
0.9999752501
0.9999407895
0.9998746838
0.9997535999
0.9995307175
0.9991828307
0.9987124989
0.9979925522
0.9970080825
0.9958626248
0.9944812695
0.9927897943
0.9905183747
1
1
1
1
1
1
1
1
1
1
1
1
1
1
1
1
1
1
1
1
1
1
1
1
1
1
1
1
1
1
1
1
1
1
1
1
1
1
1
1
1
1
1
1
1
1
0.9999999998
0.9999999987
0.9999999933
0.9999999693
0.9999998753
0.9999995352
0.9999984236
0.999995344
0.9999874031
0.9999683136
0.999926812
0.9998502806
0.9997096384
0.9994660285
0.9991015611
0.9985741736
0.9978685104
0.9967067202
1
1
1
1
1
1
1
1
1
1
1
1
1
1
1
1
1
1
1
1
1
1
1
1
1
1
1
1
1
1
1
1
1
1
1
0.9999999999
0.9999999996
0.9999999978
0.999999989
0.9999999523
0.9999998133
0.9999993336
0.9999978502
0.9999938401
0.9999839398
0.999960696
0.9999135534
0.9998235134
0.9996756373
0.9993478481
1
1
1
1
1
1
1
1
1
1
1
1
1
1
1
1
1
1
1
1
1
1
1
1
1
0.9999999999
0.9999999993
0.9999999964
0.9999999832
0.9999999296
0.9999997367
0.9999990923
0.9999972075
0.9999921117
0.9999810996
0.9999375367
1
1
1
1
1
1
1
1
1
1
1
1
1
1
1
0.9999999998
0.9999999989
0.9999999946
0.9999999758
0.9999998999
0.9999996779
0.999997399
1
1
1
0.9999999999
0.9999999997
0.9999999986
0.9999999601
)
;

boundaryField
{
    inlet
    {
        type            fixedValue;
        value           nonuniform 0();
    }
    outlet
    {
        type            inletOutlet;
        inletValue      nonuniform 0();
        value           nonuniform 0();
    }
    bottom
    {
        type            slip;
    }
    top
    {
        type            slip;
    }
    obstacle
    {
        type            zeroGradient;
    }
    defaultFaces
    {
        type            empty;
    }
    procBoundary20to13
    {
        type            processor;
        value           nonuniform List<scalar> 8(1.966271966 1.948510718 1.917818865 1.889700877 1.880247237 0.7854624062 0.7677434581 0.7616056445);
    }
    procBoundary20to14
    {
        type            processor;
        value           nonuniform List<scalar> 
17
(
1.969487865
1.963865272
1.963865272
1.962407788
1.96120359
1.94187048
1.94187048
1.941225626
1.940719831
1.913090563
1.913090563
1.912569003
1.892848374
1.892848374
1.893240655
1.893705689
1.884726138
)
;
    }
    procBoundary20to19
    {
        type            processor;
        value           nonuniform List<scalar> 
27
(
0.768835398
0.7831618399
0.821010995
0.8555659473
0.8921443417
0.9263326732
0.9571646785
0.9812555212
0.9947899953
0.9992559508
0.9999585254
0.9999993024
0.9999999969
1
1
1
1
1
1
1
1
1
1
1
1
1
1
)
;
    }
    procBoundary20to26
    {
        type            processor;
        value           nonuniform List<scalar> 
72
(
1
1
1
1
1
1
1
1
1
1
1
1
1
1
1
1
1
1
1
1
1
1
1
1
1
1
1
1
1
1
1
1
1
1
1
1
1
1
1
1
1
1
1
1
1
1
1
1
1
1
1
1
1
1
1
1
1
1
1
1
1
1
1
1
1
1
1
1
1
1
1
0.9999999998
)
;
    }
    procBoundary20to27
    {
        type            processor;
        value           nonuniform List<scalar> 
35
(
0.7794747294
0.7819040228
0.7783617306
0.7756507556
0.7745728635
0.774644302
0.7748470068
0.774770299
0.7743669613
0.7711072635
0.7672231779
0.7653169515
0.7670851139
0.7698027075
0.7756505015
0.7900497822
0.8018683289
0.818475963
0.8334427441
0.8493012136
0.8648725085
0.8799662797
0.8944853473
0.9087208592
0.9231133898
0.9377113412
0.9517545102
0.9646302062
0.9763477153
0.9867156805
0.9944077517
0.9984646172
0.9997712859
0.9999842858
0.9999995449
)
;
    }
}


// ************************************************************************* //
