/*--------------------------------*- C++ -*----------------------------------*\
  =========                 |
  \\      /  F ield         | OpenFOAM: The Open Source CFD Toolbox
   \\    /   O peration     | Website:  https://openfoam.org
    \\  /    A nd           | Version:  7
     \\/     M anipulation  |
\*---------------------------------------------------------------------------*/
FoamFile
{
    version     2.0;
    format      ascii;
    class       volScalarField;
    location    "3";
    object      p;
}
// * * * * * * * * * * * * * * * * * * * * * * * * * * * * * * * * * * * * * //

dimensions      [1 -1 -2 0 0 0 0];

internalField   nonuniform List<scalar> 
2222
(
1.452338743
1.451191857
1.451242871
1.450283852
1.448935846
1.448618068
1.448784025
1.437417835
1.437834292
1.43843891
1.437513949
1.437284072
1.437675104
1.439132762
1.441762025
1.444656344
1.447245779
1.449252402
1.451433807
1.454100338
1.45587478
1.456678563
1.457379233
1.457764756
1.457662112
1.457052009
1.455898447
1.454622813
1.454250492
1.454129776
1.45410917
1.454040288
1.453964573
1.437417638
1.437833989
1.438438663
1.437513945
1.437284292
1.437675263
1.43913256
1.441761798
1.44465652
1.447246153
1.449252518
1.45143356
1.454100342
1.455874746
1.456678226
1.457378985
1.457764615
1.457662083
1.457052034
1.455898779
1.454622813
1.454250147
1.454129373
1.454108851
1.454040123
1.453964619
1.453890618
1.453783876
1.453700536
1.45363524
1.453612209
1.453734745
1.454151222
1.454630776
1.454721617
1.454619224
1.454411376
1.45414642
1.454015158
1.453970115
1.454006469
1.454308583
1.454539763
1.454486713
1.454298416
1.454012071
1.453827124
1.453781788
1.453768703
1.45387237
1.454162002
1.454248597
1.454158884
1.453964005
1.453738045
1.453634968
1.453604038
1.453596693
1.453691249
1.453869606
1.453887779
1.453833312
1.453753765
1.453696835
1.453673682
1.453669856
1.45374472
1.452338123
1.451192182
1.451243378
1.450283656
1.448935582
1.448618208
1.448784032
1.449698573
1.450600824
1.450616722
1.450331703
1.45000803
1.44929526
1.448815831
1.448719592
1.448984701
1.450022105
1.451140025
1.451391146
1.451217225
1.451251659
1.451586899
1.452082022
1.452620186
1.453235104
1.454025473
1.454547035
1.454584658
1.454528066
1.45429881
1.453943332
1.453866315
1.453875133
1.45406437
1.454259037
1.454259166
1.454193475
1.453992174
1.453691841
1.453608245
1.453622119
1.453746385
1.45399868
1.454146289
1.454144979
1.454099728
1.453974144
1.453818571
1.453768236
1.45376742
1.453869798
1.454024558
1.454033
1.453972435
1.453864958
1.453718532
1.453634884
1.453620074
1.453635382
1.453727123
1.453855712
1.453909133
1.453904571
1.453887376
1.453859411
1.453848646
1.453865299
1.468710067
1.465520084
1.462534968
1.460024855
1.458149331
1.456255996
1.453696601
1.452435489
1.451290438
1.449074474
1.446866211
1.44520908
1.443268145
1.441737845
1.441766984
1.442357017
1.444212197
1.447065693
1.449740533
1.451508178
1.452560257
1.453345822
1.453838371
1.454191643
1.454629694
1.455074754
1.455123742
1.454974663
1.454440486
1.453739025
1.453215968
1.453103541
1.453109176
1.453199532
1.453472185
1.453666893
1.453727261
1.453774752
1.453740515
1.453724994
1.453789665
1.453849232
1.453944113
1.454075557
1.454121629
1.454142069
1.454124339
1.454025602
1.453895553
1.453831995
1.453826898
1.453839238
1.453883195
1.453920766
1.453932323
1.453920737
1.453865442
1.453839492
1.4538573
1.453892886
1.453952967
1.454023245
1.454054245
1.454064831
1.454058934
1.454000307
1.453966491
1.486667873
1.487738836
1.487157081
1.485207112
1.481812926
1.477905974
1.473517508
1.468918352
1.465194595
1.460986924
1.455838666
1.45249333
1.45055421
1.448327692
1.446268254
1.446186574
1.446881128
1.448222094
1.449244668
1.44957172
1.449649036
1.449590077
1.44962748
1.450184193
1.451081974
1.451997015
1.452428717
1.452498461
1.452388483
1.452460902
1.452886113
1.453273066
1.453504906
1.453747329
1.454040163
1.454180905
1.454191283
1.454172007
1.454126454
1.454073993
1.454017946
1.453949431
1.453885852
1.45382524
1.453779975
1.453760388
1.453756506
1.453753194
1.453737848
1.453703792
1.453726893
1.45378832
1.453883621
1.454005644
1.454064611
1.454089681
1.454087707
1.454049151
1.454050151
1.454057328
1.454056726
1.454069298
1.45406691
1.454040652
1.453979819
1.453908157
1.453884182
1.485388198
1.487156833
1.48677584
1.485707774
1.481722856
1.475337075
1.469382719
1.46626261
1.463692879
1.46347402
1.463511875
1.463095274
1.462026909
1.460605762
1.45810185
1.455968986
1.454245205
1.452476227
1.450556765
1.448925417
1.447935974
1.447564441
1.446985514
1.446855638
1.447067126
1.447682266
1.448652742
1.449574623
1.450386113
1.451113226
1.452048318
1.45258993
1.452759426
1.452945589
1.453205315
1.45348139
1.453557977
1.453628237
1.453791883
1.453828944
1.453811966
1.453736356
1.453625201
1.45360451
1.453642058
1.453755758
1.453884197
1.453924667
1.453946873
1.453933108
1.453949995
1.454029586
1.454131033
1.454240882
1.454275842
1.454275913
1.454247542
1.454217184
1.454190916
1.454161259
1.45414675
1.45408699
1.454011792
1.453956034
1.453899211
1.453831736
1.45378503
1.427293517
1.44003054
1.446105223
1.455142583
1.458015307
1.460432026
1.466457991
1.473017471
1.473565623
1.474396056
1.476774077
1.479051981
1.478704412
1.477559187
1.47554545
1.472512314
1.468228439
1.463786032
1.460260289
1.455906452
1.45266901
1.451447555
1.45049525
1.449217812
1.448389331
1.448256674
1.448430204
1.448934956
1.449621085
1.450582491
1.451677723
1.452199616
1.452204552
1.451995045
1.451917126
1.452111159
1.45229361
1.452479858
1.452815281
1.453043824
1.453101156
1.453117015
1.453213563
1.453351797
1.453534517
1.453818984
1.45409817
1.454168776
1.454182838
1.45416088
1.454129195
1.454155131
1.454195212
1.454207312
1.454201021
1.454187108
1.454154327
1.454075246
1.453955423
1.453852485
1.453846212
1.453909814
1.453983147
1.454025264
1.4540397
1.454033695
1.453963095
1.297865835
1.339808562
1.369159795
1.401111529
1.430442837
1.447693591
1.463105159
1.471675137
1.472348743
1.474688605
1.477485514
1.477193244
1.47726244
1.475902985
1.472466517
1.467706071
1.464048786
1.461576875
1.460796789
1.461011271
1.461105905
1.461061863
1.460605877
1.459021254
1.456212794
1.454549242
1.453645079
1.453013638
1.451959261
1.451369075
1.451054686
1.450589017
1.44987666
1.449060866
1.448740026
1.448857432
1.449284991
1.45006902
1.451209154
1.452141591
1.452698066
1.453024123
1.453265345
1.453447723
1.453621889
1.453918988
1.454343832
1.454500391
1.454501437
1.454438752
1.454228851
1.453927874
1.453760737
1.453743778
1.453758537
1.453768219
1.453757276
1.453742069
1.453718742
1.453681374
1.453691674
1.453744821
1.453857933
1.454023743
1.454112255
1.454121266
1.454094865
1.094381713
1.137257268
1.179289399
1.219639206
1.268501019
1.307168275
1.348066228
1.38175434
1.398122625
1.417866899
1.432966683
1.43734333
1.445280907
1.450317431
1.452986012
1.458255795
1.465976215
1.468452757
1.46921612
1.471059514
1.474107393
1.474399417
1.473492185
1.471464975
1.468735888
1.465303689
1.462146429
1.458658308
1.45495962
1.452135265
1.451336691
1.451029481
1.450523504
1.449891043
1.449674682
1.449769406
1.450125103
1.450749088
1.451542509
1.452153303
1.452188773
1.452110822
1.451955707
1.451973513
1.452119913
1.452388006
1.452851008
1.453167216
1.453241738
1.453293906
1.453385577
1.453429095
1.453439965
1.453521853
1.453735583
1.453959671
1.454042119
1.454040329
1.453994812
1.453917866
1.453892558
1.453906235
1.453979819
1.454119923
1.45418777
1.454178084
1.454132861
1.009411907
1.018127613
1.032085377
1.050332488
1.078765208
1.113833836
1.151021438
1.197968948
1.241470287
1.285518034
1.331297347
1.361848836
1.390178485
1.419735422
1.436318661
1.449831537
1.463187065
1.464639303
1.466062713
1.469983791
1.471080909
1.470922404
1.469906433
1.466678687
1.462706805
1.459582948
1.458968349
1.459309844
1.458945418
1.458181657
1.457582459
1.457920925
1.457857724
1.456631996
1.455418183
1.454936937
1.454250748
1.453547869
1.453007589
1.452373613
1.451527952
1.450601062
1.450124302
1.450146132
1.450274435
1.4505014
1.450937943
1.451377372
1.451716886
1.452025349
1.452457504
1.452879005
1.453167588
1.453425945
1.45382557
1.454246534
1.454341878
1.454315986
1.454179533
1.45398392
1.453856634
1.453818504
1.453835181
1.453963275
1.454095404
1.454094669
1.454025616
1.000194971
1.000534495
1.001374022
1.003112339
1.006579189
1.013181703
1.023324054
1.040014567
1.063858343
1.090940627
1.130546054
1.175143503
1.213269766
1.261023117
1.300698246
1.334917096
1.372914991
1.390854197
1.407011586
1.427359435
1.432062551
1.437814805
1.444543727
1.446904031
1.450539775
1.458119333
1.463773777
1.466059061
1.467763395
1.470362624
1.470504384
1.469762738
1.468240302
1.466133189
1.463588045
1.460833738
1.458678088
1.455549344
1.452968516
1.451926025
1.451211315
1.450472245
1.450423801
1.450529833
1.450694341
1.450938087
1.451527366
1.452232175
1.452703972
1.452693513
1.452506058
1.452315874
1.452260162
1.452322495
1.452533388
1.452903189
1.453199254
1.45329032
1.453285892
1.453313756
1.453404211
1.453518085
1.453677593
1.45386671
1.453998696
1.454004455
1.453959693
1.000000601
1.000002571
1.000010111
1.000035638
1.000111468
1.000329131
1.000862823
1.002036049
1.004633501
1.009230844
1.017289778
1.031407057
1.049540614
1.075539278
1.111253118
1.147255849
1.191673879
1.237480267
1.277190977
1.322903552
1.355729532
1.380446841
1.411127086
1.429987854
1.441213459
1.454883018
1.460332978
1.460823433
1.463759702
1.466390692
1.466272086
1.465592905
1.463008136
1.459523893
1.456541275
1.456077784
1.456329312
1.45676508
1.456399642
1.456528359
1.457069679
1.456640562
1.456488254
1.456226622
1.455413069
1.454391824
1.453777878
1.453242126
1.452699652
1.45212479
1.451577761
1.451284346
1.451068945
1.451053228
1.451125334
1.451332315
1.451687922
1.452110248
1.452436763
1.45267101
1.453061906
1.453359786
1.453496894
1.453612293
1.453768429
1.453886224
1.45390712
1
1.000000001
1.000000009
1.000000054
1.00000028
1.000001292
1.000005301
1.000019283
1.000064508
1.000195118
1.000528045
1.001355054
1.003121992
1.006453235
1.012942789
1.023219245
1.038750929
1.062981515
1.09041947
1.125641938
1.171774786
1.21004706
1.253226935
1.29627122
1.327985355
1.365773604
1.386394865
1.400519136
1.419433966
1.426845072
1.432076847
1.439531037
1.4427457
1.446461722
1.453265653
1.459641096
1.462502279
1.464126198
1.4664221
1.466998352
1.466734003
1.465937606
1.464469824
1.462451405
1.459784163
1.457600549
1.454954053
1.452662506
1.451712168
1.451344093
1.451317594
1.45135362
1.45139704
1.451401639
1.451458813
1.451817026
1.452400443
1.452902332
1.453078239
1.45302063
1.452838007
1.452701626
1.452547289
1.452484629
1.45256224
1.452803665
1.453236323
1
1
1
1
1
1.000000001
1.000000004
1.000000024
1.000000129
1.000000624
1.000002665
1.000010354
1.00003667
1.000113718
1.000329308
1.000879051
1.002047275
1.00459066
1.009375785
1.01704455
1.030779064
1.049698398
1.074030493
1.109448452
1.146171124
1.187380783
1.233372496
1.272635504
1.31684674
1.350768024
1.37517584
1.40281927
1.423927814
1.436423319
1.449624291
1.456727938
1.456811773
1.458809371
1.462074889
1.462432924
1.462151582
1.460274812
1.457410802
1.45493393
1.454324674
1.454545554
1.454955103
1.45496456
1.455295186
1.455855388
1.456305202
1.456692915
1.456550498
1.45572469
1.45440431
1.453743222
1.453233575
1.452764681
1.452405455
1.452064053
1.451858484
1.451762783
1.451607837
1.451465308
1.451514508
1.451776489
1.452352178
1
1
1
1
1
1
1
1
1
1
1.000000001
1.00000001
1.000000059
1.000000298
1.000001359
1.000005573
1.000020213
1.000066628
1.000202495
1.000543896
1.001368242
1.003197272
1.006561072
1.012949692
1.02344901
1.038581121
1.062377553
1.090372977
1.123945879
1.16907507
1.209105267
1.250232028
1.292127211
1.323322334
1.360766842
1.383770382
1.396381007
1.414329982
1.423667301
1.427414885
1.434509642
1.439229571
1.443204575
1.449559176
1.456491846
1.460082622
1.46155115
1.463618231
1.46434546
1.464115243
1.463637483
1.462787756
1.4613961
1.459077695
1.456846427
1.454485916
1.452394817
1.451531423
1.451437931
1.451586598
1.451933466
1.452063284
1.452105382
1.452087253
1.452258327
1.452642468
1.45309693
1
1
1
1
1
1
1
1
1
1
1
1
1
1
1.000000001
1.000000004
1.000000026
1.000000141
1.000000681
1.000002895
1.000011051
1.000039118
1.000121282
1.00034291
1.000913028
1.002127209
1.004674277
1.009568922
1.01740838
1.03098695
1.050047172
1.074171701
1.109139279
1.146142683
1.186129601
1.232169579
1.270173972
1.312282917
1.349354448
1.373004234
1.397404298
1.421014865
1.432884926
1.443603652
1.45408543
1.454626964
1.455605152
1.458732787
1.459763269
1.459287535
1.457750377
1.455385274
1.453202829
1.452740588
1.453278441
1.453828503
1.454076546
1.454465198
1.454801843
1.455330387
1.456099364
1.456212949
1.455731621
1.454603748
1.453898294
1.453330846
1.452771614
1
1
1
1
1
1
1
1
1
1
1
1
1
1
1
1
1
1
1
1.000000002
1.000000012
1.000000067
1.000000337
1.000001502
1.000006107
1.000022077
1.00007175
1.000216439
1.000580831
1.00143532
1.003324156
1.006823903
1.013277597
1.02404144
1.03916954
1.063020388
1.092157725
1.123752597
1.168454825
1.211075068
1.248618567
1.292128214
1.323326858
1.353961092
1.382920076
1.395001087
1.408951965
1.42284104
1.425714546
1.431094064
1.436798557
1.441222012
1.446562944
1.452656764
1.4586904
1.460087268
1.461595563
1.462547293
1.462210443
1.461628828
1.460892214
1.459793935
1.457912901
1.455921854
1.453901271
1.45229527
1.45144773
1
1
1
1
1
1
1
1
1
1
1
1
1
1
1
1
1
1
1
1
1
1
1
1.000000001
1.000000005
1.000000031
1.000000164
1.00000078
1.000003289
1.00001232
1.000042881
1.000133071
1.000370065
1.000976757
1.00227017
1.004894371
1.010068841
1.018123496
1.031616651
1.052037328
1.075964225
1.109502802
1.148965853
1.187566156
1.232685835
1.272526654
1.308699399
1.349588433
1.374454284
1.394545483
1.419384247
1.432366739
1.439498349
1.450628633
1.454491415
1.454313504
1.455628166
1.458001765
1.457529334
1.45523237
1.453150868
1.452220081
1.451456687
1.451618226
1.452759781
1.453469689
1.453834958
1
1
1
1
1
1
1
1
1
1
1
1
1
1
1
1
1
1
1
1
1
1
1
1
1
1
1
1
1.000000002
1.000000014
1.00000008
1.000000397
1.000001748
1.000006987
1.000025039
1.000080389
1.000239315
1.000639412
1.00155269
1.003571992
1.00734536
1.013923659
1.025287218
1.0410437
1.064336624
1.095920485
1.127438204
1.168554519
1.215225585
1.251339174
1.292092207
1.328027065
1.350822318
1.381250975
1.398125669
1.407430104
1.417209964
1.427935668
1.43042804
1.43361664
1.439620243
1.446661525
1.45144999
1.455029289
1.458853604
1.461214278
1.46110354
1
1
1
1
1
1
1
1
1
1
1
1
1
1
1
1
1
1
1
1
1
1
1
1
1
1
1
1
1
1
1
1
1.000000001
1.000000006
1.000000038
1.0000002
1.000000932
1.00000389
1.000014392
1.000049061
1.000152558
1.000415612
1.001079488
1.002526401
1.005331724
1.010763114
1.019757872
1.03293884
1.054609653
1.080351783
1.111937265
1.152960307
1.193820682
1.234787323
1.276078666
1.313869221
1.346328349
1.377062846
1.398596502
1.416536842
1.428611506
1.441274103
1.448203988
1.450483581
1.452138448
1.455596462
1.456204051
1
1
1
1
1
1
1
1
1
1
1
1
1
1
1
1
1
1
1
1
1
1
1
1
1
1
1
1
1
1
1
1
1
1
1
1
1
1.000000003
1.000000018
1.0000001
1.000000495
1.000002137
1.000008436
1.000029775
1.000095274
1.000273605
1.00074099
1.001741748
1.003974294
1.008094428
1.015407886
1.026707896
1.044688392
1.067703437
1.099529614
1.134754594
1.174390101
1.216075362
1.259353267
1.300620181
1.32708092
1.354542633
1.379804552
1.399184631
1.407275612
1.41895557
1.424399521
1
1
1
1
1
1
1
1
1
1
1
1
1
1
1
1
1
1
1
1
1
1
1
1
1
1
1
1
1
1
1
1
1
1
1
1
1
1
1
1
1
1.000000001
1.000000009
1.000000051
1.000000259
1.00000118
1.000004881
1.000017724
1.000059589
1.000180439
1.000500503
1.001229981
1.00291515
1.006053452
1.012033064
1.02138554
1.036993274
1.057619492
1.085811204
1.11895515
1.159416582
1.199801866
1.242146311
1.284352155
1.31766744
1.350719433
1.376650435
1
1
1
1
1
1
1
1
1
1
1
1
1
1
1
1
1
1
1
1
1
1
1
1
1
1
1
1
1
1
1
1
1
1
1
1
1
1
1
1
1
1
1
1
1
1.000000001
1.000000004
1.000000025
1.000000135
1.000000659
1.000002796
1.000010739
1.000037653
1.000117116
1.000338235
1.000868963
1.002109206
1.004530406
1.009406544
1.017082054
1.030456554
1.048161988
1.074419266
1.105694134
1.144182334
1.183612077
1.220278297
1
1
1
1
1
1
1
1
1
1
1
1
1
1
1
1
1
1
1
1
1
1
1
1
1
1
1
1
1
1
1
1
1
1
1
1
1
1
1
1
1
1
1
1
1
1
1
1
1
1
1.000000002
1.000000013
1.000000072
1.000000361
1.000001616
1.000006449
1.00002363
1.000075786
1.00023075
1.00060884
1.001550586
1.003383543
1.007338328
1.013628548
1.025121171
1.041084827
1.060539783
1
1
1
1
1
1
1
1
1
1
1
1
1
1
1
1
1
1
1
1
1
1
1
1
1
1
1
1
1
1
1
1
1
1
1
1
1
1
1
1
1
1
1
1
1
1
1
1
1
1
1
1
1
1
1.000000001
1.000000006
1.000000038
1.000000198
1.000000942
1.000003893
1.000015066
1.000049444
1.000158397
1.000424345
1.001133233
1.002695273
1.004429499
1
1
1
1
1
1
1
1
1
1
1
1
1
1
1
1
1
1
1
1
1
1
1
1
1
1
1
1
1
1
1
1
1
1
1
1
1
1
1
1
1
1
1
1
1
1
1
1
1
1
1
1
1
1
1
1
1
1
1
1.000000003
1.000000021
1.000000109
1.000000564
1.00000233
1.000009143
1.00005524
1.000021846
1
1
1
1
1
1
1
1
1
1
1
1
1
1
1
1
1
1
1
1
1
1
1
1
1
1
1
1
1
1
1
1
1
1
1
1
1
1
1
1
1
1
1
1
1
1
1
1
1
1
1
1
1
1
1
1
1
1
1
1
1
1
1
1.000000002
1.000000009
1.000000283
0.9999999463
1
1
1
1
1
1
1
1
1
1
1
1
1
1
1
1
1
1
1
1
1
1
1
1
1
1
1
1
1
1
1
1
1
1
1
1
1
1
1
1
1
1
1
1
1
1
1
1
1
1
1
1
1
1
1
1
1
1
1
1
1
1
1
1
1
1
0.9999999912
1
1
1
1
1
1
1
1
1
1
1
1
1
1
1
1
1
1
1
1
1
1
1
1
1
1
1
1
1
1
1
1
1
1
1
1
1
1
1
1
1
1
1
1
1
1
1
1
1
1
1
1
1
1
1
1
1
1
1
1
1
1
1
1
1
1
0.9999999997
1
1
1
1
1
1
1
1
1
1
1
1
1
1
1
1
1
1
1
1
1
1
1
1
1
1
1
1
1
1
1
1
1
1
1
1
1
1
1
1
1
1
1
1
1
1
1
1
1
1
1
1
1
1
1
1
1
1
1
1
1
1
1
1
1
1
1
1
1
1
1
1
1
1
1
1
1
1
1
1
1
1
1
1
1
1
1
1
1
1
1
1
1
1
1
1
1
1
1
1
1
1
1
1
1
1
1
1
1
1
1
1
1
1
1
1
1
1
1
1
1
1
1
1
1
1
1
1
1
1
1
1
1
1
1
1
1
1
1
1
1
1
1
1
1
1
1
1
1
1
1
1
1
1
1
1
1
1
1
1
1
1
1
1
1
1
1
1
1
1
1
1
1
1
1
1
1
1
1
1
1
1
1
1
1
1
1
1
1
1
1
1
1
1
1
1
1
1
1
1
1
1
1
1
1
1
1
1
1
1
1
1
1
1
1
1
1
1
1
1
1
1
1
1
1
1
1
1
1
1
1
1
1
1
1
1
1
1
1
1
1
1
1
1
1
1
1
1
1
1
1
1
1
1
1
1
1
1
1
1
1
1
1
1
1
1
1
1
1
1
1
1
1
1
1
1
1
1
1
1
1
1
1
1
1
1
1
1
1
1
1
1
1
1
1
1
1
1
1
1
1
1
1
1
1
1
1
1
1
1
1
1
1
)
;

boundaryField
{
    inlet
    {
        type            fixedValue;
        value           nonuniform 0();
    }
    outlet
    {
        type            zeroGradient;
    }
    bottom
    {
        type            slip;
    }
    top
    {
        type            slip;
    }
    obstacle
    {
        type            zeroGradient;
    }
    defaultFaces
    {
        type            empty;
    }
    procBoundary20to13
    {
        type            processor;
        value           nonuniform List<scalar> 2(1.457129516 1.439006996);
    }
    procBoundary20to14
    {
        type            processor;
        value           nonuniform List<scalar> 
28
(
1.468710747
1.465520727
1.46253176
1.460023681
1.458150687
1.456256874
1.453695919
1.449698637
1.449698637
1.450600602
1.450616479
1.450331498
1.450007847
1.449295159
1.448815729
1.44871973
1.448985213
1.450022948
1.451140299
1.451390914
1.451216742
1.451251381
1.451586824
1.452082061
1.452620397
1.453235551
1.454025848
1.453890348
)
;
    }
    procBoundary20to19
    {
        type            processor;
        value           nonuniform List<scalar> 
33
(
1.439007151
1.457129641
1.472188542
1.485517138
1.482178998
1.40604097
1.249135076
1.065121608
1.004737598
1.000064755
1.000000124
1
1
1
1
1
1
1
1
1
1
1
1
1
1
1
1
1
1
1
1
1
1
)
;
    }
    procBoundary20to25
    {
        type            processor;
        value           nonuniform List<scalar> 2(1 1);
    }
    procBoundary20to26
    {
        type            processor;
        value           nonuniform List<scalar> 
69
(
1
1
1
1
1
1
1
1
1
1
1
1
1
1
1
1
1
1
1
1
1
1
1
1
1
1
1
1
1
1
1
1
1
1
1
1
1
1
1
1
1
1
1
1
1
1
1
1
1
1
1
1
1
1
1
1
1
1
1
1
1
1
1
1
1
1
1
1
1
)
;
    }
    procBoundary20to27
    {
        type            processor;
        value           nonuniform List<scalar> 
31
(
1.088294234
1.385357713
1.446604401
1.4532042
1.453705148
1.453946662
1.454045228
1.454052574
1.453929788
1.453902683
1.453810255
1.453504728
1.453488171
1.453188268
1.452064073
1.451713812
1.454789216
1.459529809
1.453087401
1.439766214
1.435649399
1.347591335
1.164818247
1.033983746
1.002824401
1.000103582
1.000001808
1.000000016
1
1
1
)
;
    }
}


// ************************************************************************* //
