/*--------------------------------*- C++ -*----------------------------------*\
  =========                 |
  \\      /  F ield         | OpenFOAM: The Open Source CFD Toolbox
   \\    /   O peration     | Website:  https://openfoam.org
    \\  /    A nd           | Version:  7
     \\/     M anipulation  |
\*---------------------------------------------------------------------------*/
FoamFile
{
    version     2.0;
    format      ascii;
    class       volScalarField;
    location    "3";
    object      p;
}
// * * * * * * * * * * * * * * * * * * * * * * * * * * * * * * * * * * * * * //

dimensions      [1 -1 -2 0 0 0 0];

internalField   nonuniform List<scalar> 
2222
(
1.985205368
1.967695255
1.954412385
1.92004542
2.5442469
2.520995189
2.491729521
2.468009982
2.455201551
2.451134206
2.459018432
2.446242345
2.440789996
2.423767525
2.406691398
2.382353671
2.332785292
2.281514903
2.24500286
2.218164189
2.19076242
2.177890325
2.162562311
2.139134411
2.116478149
2.093942378
2.066750393
2.043576797
2.029088162
2.010167869
1.98629936
1.968471173
1.954721982
1.920522063
2.672039648
2.618208077
2.600158507
2.567341762
2.543710466
2.521543462
2.494676019
2.473383977
2.463121579
2.458791495
2.458237849
2.447606978
2.441880694
2.423707103
2.407153561
2.380965622
2.331353194
2.278896113
2.242575604
2.216176882
2.19088317
2.178261447
2.162654913
2.138792092
2.116567633
2.094313773
2.06738345
2.044091336
2.029343105
2.010843844
1.987460504
1.968664744
1.95474677
1.920968556
2.671248106
2.616121937
2.59785946
2.565083871
2.541411962
2.52140901
2.496484891
2.477391995
2.469590936
2.466509761
2.458407949
2.447046822
2.441904245
2.4245316
2.408033577
2.380576958
2.330711227
2.276658589
2.241514492
2.215563523
2.191541413
2.178818411
2.16323908
2.138722283
2.116668534
2.094966999
2.068316824
2.044728013
2.029815675
2.01187269
1.987829935
1.968730107
1.954777336
1.921413419
2.670587819
2.613989878
2.59240994
2.558763647
2.539928668
2.520895491
2.497658349
2.480007869
2.473335659
2.470927964
2.463424956
2.447629187
2.44221432
2.426487348
2.409721391
2.38021718
2.3291974
2.274897674
2.241005714
2.215994553
2.192890958
2.179728205
2.16443599
2.139405018
2.11727257
2.095845069
2.069478889
2.045577323
2.030659408
2.012416709
1.987957777
1.96881122
1.954852492
1.921818429
2.668871038
2.611599406
2.583747692
2.554528481
2.539825876
2.521530134
2.496724586
2.479508283
2.474259919
2.472921367
2.471072453
2.450456825
2.444083032
2.428567122
2.410345764
2.379210247
2.327005343
2.273616327
2.241522107
2.217709024
2.194479589
2.180948713
2.165028063
2.140392583
2.118514399
2.096964104
2.070879556
2.04666412
2.031556451
2.012518598
1.988074205
1.968982177
1.955036279
1.922235891
2.663719049
2.608151446
2.580504753
2.553606545
2.540788645
2.522792881
2.498133367
2.48051369
2.473647273
2.471914981
2.473755886
2.454177129
2.447216729
2.429489148
2.410329189
2.377942421
2.324142274
2.272820734
2.241883147
2.220025376
2.1958175
2.182158746
2.165071045
2.140332823
2.119530137
2.098375031
2.072366233
2.047898295
2.032086703
2.01252391
1.988144961
1.969248112
1.955366469
1.922746084
2.660214362
2.606771556
2.579556892
2.554070797
2.542654301
2.524320243
2.502011554
2.486210259
2.478900379
2.476594678
2.474490058
2.455639847
2.449152857
2.430114317
2.409865275
2.375936739
2.321522131
2.27121021
2.242229416
2.222017106
2.19675764
2.182825889
2.164865745
2.140055938
2.119821983
2.099603316
2.073655453
2.048981632
2.032404249
2.01258883
1.988351817
1.969567063
1.955865566
1.923396854
2.660015646
2.606404282
2.580634873
2.557923128
2.543177345
2.525941606
2.506031524
2.493302218
2.487279479
2.483711395
2.471719288
2.455626115
2.450128349
2.430078458
2.408838661
2.373560964
2.319506527
2.26889144
2.242188286
2.222661539
2.197643234
2.183087915
2.16472017
2.139762238
2.119926531
2.100352935
2.074793752
2.049694224
2.032728964
2.012899807
1.988924052
1.970175121
1.956695688
1.92421444
2.660020216
2.605477376
2.580890301
2.558425309
2.543067326
2.527417456
2.508833429
2.497576056
2.492344284
2.486963604
2.47288621
2.456722172
2.450362327
2.430888018
2.408857081
2.371680553
2.317889503
2.267007556
2.242657466
2.223294546
2.199021525
2.18355332
2.164891688
2.139776986
2.120229154
2.100979799
2.075797598
2.050194815
2.033204888
2.013761893
1.990123297
1.971349537
1.957863785
1.925046416
2.708295539
2.658570604
2.604046197
2.579229383
2.556253637
2.543388495
2.528456599
2.510866655
2.500194541
2.495103153
2.48775364
2.476928059
2.459424669
2.450572129
2.432381531
2.4089192
2.36979792
2.315786092
2.266028863
2.243408861
2.224830404
2.200558848
2.18418803
2.165471446
2.140380596
2.121114606
2.101873425
2.076457899
2.050638433
2.033826266
2.014703112
1.99106782
1.97211866
1.95867074
1.925733707
2.70708506
2.656129327
2.601918143
2.573754343
2.553132167
2.544743053
2.527706507
2.509669986
2.498501549
2.493637944
2.491755178
2.479923482
2.461489853
2.45217472
2.433992555
2.408742782
2.367647238
2.312416536
2.265524793
2.243357479
2.22610539
2.201304971
2.184445733
2.166225138
2.141981439
2.12276477
2.102991282
2.076796414
2.051067454
2.034291765
2.014981359
1.991334785
1.972223197
1.958891305
1.926281772
2.703399067
2.652517785
2.598146317
2.56683366
2.553139138
2.546698301
2.529621452
2.511217141
2.499964442
2.494537605
2.498401575
2.481319829
2.462412092
2.454704433
2.435026976
2.408262761
2.364413419
2.307460556
2.264403164
2.242892821
2.226467893
2.201731847
2.184532499
2.166341451
2.142731242
2.123596151
2.103687552
2.077036456
2.051526798
2.034476371
2.01506068
1.991479714
1.972200864
1.958916292
1.926801553
2.698162428
2.647235858
2.593672526
2.565782513
2.554464073
2.549747115
2.532364809
2.51601298
2.506019067
2.500098595
2.501106267
2.482124259
2.463034882
2.456548738
2.43578952
2.407137855
2.359375604
2.302723638
2.262252915
2.242056755
2.226474337
2.201747673
2.184300823
2.166209626
2.142871162
2.123758163
2.103992266
2.077371969
2.05198286
2.034576113
2.015157278
1.991784981
1.972278484
1.958946285
1.927368129
2.690153771
2.639223983
2.592628381
2.566337963
2.557273559
2.552187842
2.534631192
2.520126073
2.512300321
2.506616847
2.500687175
2.480407828
2.464709319
2.457483001
2.435684908
2.404700082
2.354429136
2.300395802
2.260302276
2.241809354
2.226360998
2.201525765
2.183956587
2.165844045
2.1428782
2.123816353
2.104259195
2.077979975
2.052442368
2.034827386
2.015783127
1.992956423
1.97285111
1.959308872
1.927928725
2.686112035
2.634183689
2.592494375
2.56888814
2.562078567
2.553607556
2.536449463
2.522493322
2.515897422
2.509939223
2.49929308
2.479064659
2.467543609
2.457933112
2.435338188
2.401351784
2.351804812
2.299713506
2.259596816
2.241893114
2.226792057
2.201828366
2.183799909
2.165740485
2.142813155
2.124165499
2.104859216
2.079048184
2.052857732
2.035358563
2.017496307
1.995415041
1.974784379
1.960500409
1.928339928
2.683813558
2.633055774
2.594061266
2.573052428
2.563667875
2.553078751
2.536424333
2.52246226
2.515569091
2.509915051
2.502297592
2.480966941
2.470059067
2.457376515
2.435697829
2.39944039
2.350448381
2.299983016
2.259943371
2.241927118
2.227541252
2.202379614
2.18373034
2.165870774
2.143125948
2.125227943
2.106483482
2.080382864
2.053192867
2.035935649
2.01797042
1.996456702
1.977114632
1.96205642
1.928610675
2.681660252
2.632210163
2.595440523
2.574027124
2.563112664
2.552655416
2.538081468
2.525627429
2.517126375
2.509755598
2.50945189
2.484681964
2.471354722
2.458154042
2.436098417
2.398582091
2.349051518
2.297959318
2.25981594
2.242033599
2.228179756
2.203013438
2.183737757
2.166084738
2.143727709
2.127342561
2.1090073
2.081388695
2.053410712
2.036123983
2.017842285
1.996465252
1.977692475
1.962771366
1.928822653
2.67927964
2.631380597
2.595427572
2.572188748
2.563954546
2.554526644
2.54152079
2.530997582
2.523309357
2.513900605
2.513461443
2.486959255
2.472062798
2.459790107
2.436566652
2.397858606
2.346346534
2.293545033
2.258894895
2.241962529
2.228786167
2.203591816
2.183772105
2.166196612
2.144778127
2.128420382
2.110085185
2.081955971
2.053597319
2.036150503
2.017761939
1.996420887
1.977808233
1.963040601
1.929137998
2.676599413
2.630196846
2.592149922
2.569574118
2.566115677
2.556994708
2.54456453
2.534867516
2.528834048
2.519190764
2.5147669
2.488025741
2.471699629
2.460944402
2.436350642
2.396292526
2.341129286
2.290546426
2.257921166
2.242704971
2.229278052
2.204029683
2.183732868
2.165999837
2.145196157
2.128786447
2.110283831
2.082288343
2.053912688
2.036275307
2.01776853
1.996262496
1.977907344
1.963283962
1.929788436
2.673496494
2.62735535
2.589703344
2.570614906
2.569400004
2.560046208
2.546004771
2.535392048
2.531075158
2.521819643
2.514851582
2.488671965
2.472650246
2.461410452
2.435439466
2.392844702
2.334446016
2.289660533
2.25820371
2.243396763
2.229847567
2.204242026
2.18343293
2.165459092
2.145317358
2.128947128
2.110220749
2.082442095
2.054533354
2.036705844
2.01783389
1.996016375
1.978044495
1.963627643
1.930887266
2.669350541
2.624640467
2.590845673
2.572797659
2.5727064
2.562847414
2.546928056
2.536424
2.530562364
2.522704952
2.511564337
2.487704581
2.475090678
2.461396642
2.433588177
2.387292086
2.330608503
2.290629939
2.258940258
2.24473375
2.230637436
2.204047702
2.182653554
2.165230948
2.145540826
2.128901436
2.109937352
2.082539597
2.055667459
2.0376429
2.017972685
1.995789045
1.978193012
1.964135319
1.932045058
2.665779929
2.625314998
2.593052233
2.576207715
2.574578912
2.565097195
2.550641148
2.541645013
2.534110276
2.520339009
2.509300318
2.488269777
2.47850239
2.460769714
2.431860378
2.382924477
2.328682935
2.290467493
2.259979932
2.246350965
2.231489503
2.203529052
2.181778722
2.16551847
2.146098407
2.129291708
2.110086673
2.08273594
2.056936885
2.038651574
2.018135908
1.995678392
1.978347062
1.964770197
1.932803873
2.665050423
2.626920422
2.59772106
2.581662417
2.575388377
2.566815529
2.555200627
2.547412946
2.540919615
2.52220028
2.510784226
2.49042997
2.480072356
2.460660931
2.430117351
2.38005851
2.328700464
2.288474135
2.260894195
2.247547556
2.231946314
2.203121814
2.181544115
2.166162876
2.146846861
2.130032191
2.11059294
2.083204308
2.057671556
2.039082723
2.018270847
1.99569066
1.978714722
1.96565014
1.933347454
2.718817844
2.664771821
2.628310287
2.601408869
2.584553126
2.576521998
2.566666438
2.558266565
2.550814436
2.545197279
2.525845194
2.514991445
2.493614149
2.480644439
2.460139807
2.428116319
2.378146907
2.327500072
2.28582118
2.261436613
2.248297052
2.232092824
2.202823687
2.181743278
2.166708133
2.147852616
2.13095151
2.111876958
2.084079807
2.05801345
2.039185008
2.018397887
1.995813528
1.979611229
1.967306292
1.933865953
2.715361159
2.664229836
2.629138244
2.602635919
2.586039131
2.578970502
2.567948924
2.558329099
2.551133404
2.546920197
2.527813646
2.517314238
2.495188672
2.480623661
2.459164401
2.425368183
2.375397499
2.323806006
2.28574363
2.26209759
2.248385218
2.231971075
2.202605304
2.182355168
2.167591828
2.148763845
2.131317291
2.112978273
2.085144601
2.058229094
2.039209818
2.018563871
1.996113109
1.981658825
1.968870846
1.934285131
2.709771911
2.663422002
2.629242064
2.600648262
2.585806299
2.583289488
2.571559389
2.559492513
2.550472046
2.544465495
2.528657168
2.517774763
2.495820941
2.479462359
2.457888744
2.421193331
2.370226118
2.31696118
2.286387787
2.263362986
2.249106105
2.231907079
2.202530545
2.182918984
2.168088225
2.149556974
2.131546475
2.113106595
2.085930048
2.058457476
2.039313228
2.018851154
1.997087657
1.9829449
1.968685257
1.934714164
2.703875016
2.660375424
2.626401579
2.597575931
2.58700834
2.588898717
2.576119192
2.564744386
2.555223134
2.54586977
2.528437696
2.517685424
2.495354966
2.479281444
2.456386673
2.416720386
2.362521653
2.313829127
2.287996245
2.265432001
2.250424319
2.23192457
2.202599123
2.183039654
2.168761591
2.150334724
2.131769254
2.113103362
2.086366852
2.058809133
2.03957273
2.019470996
1.998993688
1.982792467
1.968296011
1.935516688
2.702729106
2.658169903
2.623528254
2.598462377
2.589372665
2.591780707
2.580133646
2.570972702
2.562281498
2.551803907
2.525478426
2.515128066
2.496019861
2.479902945
2.455068604
2.413657892
2.358310366
2.313131202
2.289799374
2.268083008
2.25125803
2.231980887
2.202221109
2.182378748
2.169636498
2.151193701
2.132015693
2.113135744
2.086572966
2.059358129
2.040100256
2.020768893
2.000243102
1.982615449
1.967861726
1.936493351
2.70223915
2.658512549
2.62445052
2.600449232
2.592075339
2.593704296
2.583001618
2.574796093
2.566439462
2.55676268
2.525705995
2.51418697
2.498446529
2.481640301
2.453580873
2.410793722
2.356453357
2.313749832
2.290527521
2.269482867
2.251473037
2.231651728
2.20121985
2.181892633
2.170584078
2.152347145
2.132705761
2.113263633
2.086699726
2.059986651
2.040921115
2.022211678
2.000555851
1.982453155
1.967504851
1.936554879
2.701728368
2.659424281
2.626708664
2.604120237
2.596354033
2.59413779
2.584024635
2.576247534
2.568305501
2.55832158
2.528220942
2.51591965
2.501430049
2.481825746
2.451211428
2.407299084
2.356702036
2.315080005
2.290307201
2.269709467
2.25101092
2.231241885
2.200366484
2.182226857
2.171725811
2.153877009
2.133797909
2.11384702
2.086864868
2.060411684
2.041657535
2.02268583
2.000622624
1.982348396
1.967300748
1.936420057
2.701153302
2.660483189
2.630459504
2.610753511
2.601821253
2.593364717
2.58398512
2.574953931
2.565724448
2.55745285
2.531482051
2.519637051
2.502239911
2.481284078
2.447995297
2.403770154
2.355204659
2.314347953
2.288843366
2.269465147
2.250793743
2.230848084
2.200113983
2.183029863
2.172983111
2.154924343
2.134150762
2.114660283
2.087076982
2.060564833
2.042018244
2.022641023
2.00061558
1.982285807
1.96727226
1.936321597
2.700519453
2.661662557
2.632385053
2.613573548
2.605227102
2.596404763
2.588113034
2.578984984
2.567485535
2.554748958
2.532334641
2.521837242
2.502461546
2.479722009
2.445194548
2.400458468
2.351487408
2.311195764
2.289365337
2.27024927
2.251289987
2.23058125
2.200151889
2.184484483
2.173875169
2.155354501
2.134184165
2.114579095
2.087392731
2.060771288
2.042133699
2.022363105
2.000562014
1.982423091
1.967586514
1.93640371
2.699546853
2.662738535
2.633166802
2.614647554
2.607778128
2.602590376
2.594202732
2.586223823
2.57332485
2.556021124
2.531983317
2.52258965
2.501767203
2.477916184
2.443190971
2.396351745
2.344057536
2.307500828
2.290815263
2.273252465
2.252427788
2.230496694
2.200507544
2.185769472
2.174332591
2.155392571
2.134127979
2.114250682
2.088054066
2.061572438
2.04224813
2.022049293
2.000623901
1.983060585
1.96836673
1.936685942
2.696616686
2.661794135
2.630331959
2.612494671
2.609744407
2.608592061
2.598580367
2.591213071
2.577573654
2.558812398
2.530877142
2.521923673
2.501899888
2.47671623
2.441223802
2.390561923
2.339750644
2.307110383
2.293426702
2.275714083
2.252752045
2.230677122
2.201530077
2.186310269
2.174869266
2.155683571
2.133791602
2.113593701
2.088233447
2.062854933
2.042474303
2.021846864
2.001189959
1.984221492
1.969189162
1.937366931
2.690356974
2.657258705
2.627868385
2.612430821
2.61053559
2.611707471
2.601330764
2.59395858
2.579109619
2.559560776
2.531301007
2.522055208
2.50261879
2.47596392
2.438004255
2.385466083
2.33868951
2.307321689
2.295013883
2.276117905
2.252377354
2.230832163
2.202345695
2.186306398
2.176048149
2.156500044
2.133583527
2.113091227
2.08789493
2.063124663
2.042700669
2.022075301
2.002194801
1.98484671
1.969862708
1.939348369
2.687102397
2.655654225
2.629565276
2.614989019
2.61259563
2.613418096
2.59993596
2.592687286
2.578848949
2.559337219
2.533324988
2.523549632
2.503990352
2.475066323
2.433128485
2.382875616
2.338725463
2.308969578
2.295664052
2.275403644
2.251603281
2.230722864
2.20254848
2.186444802
2.177601834
2.158129739
2.133821075
2.113104735
2.087668981
2.062790454
2.042812766
2.022979162
2.002625142
1.984956561
1.971028852
1.941949319
2.689193268
2.657982885
2.632607494
2.618635619
2.615999803
2.61223743
2.602113555
2.592745871
2.573647539
2.557985581
2.533966313
2.524781707
2.503838486
2.473009088
2.428666668
2.381745668
2.339783506
2.31104564
2.295323558
2.27524374
2.251432258
2.230548914
2.202428634
2.187221782
2.178325072
2.159580648
2.134349177
2.113412639
2.087662028
2.062428716
2.042833144
2.0240146
2.00248852
1.985172744
1.973520108
1.942411212
2.730574001
2.69242677
2.661498551
2.636862914
2.624800337
2.621769593
2.615100887
2.608278661
2.596954231
2.573026591
2.554043462
2.533673121
2.525128324
2.503196399
2.469400507
2.425987139
2.37983173
2.339280699
2.311960478
2.295852734
2.277025417
2.252460967
2.23044839
2.202095746
2.188429641
2.178645582
2.160166792
2.135189283
2.114113922
2.088010193
2.062213236
2.042929907
2.023876747
2.002157736
1.986368005
1.97574396
1.942250281
2.733959968
2.695420809
2.66432038
2.639116549
2.628375739
2.625740257
2.620170082
2.613956309
2.602698255
2.576108279
2.552361288
2.532913738
2.525054711
2.5017219
2.466145973
2.423445792
2.375901689
2.336353711
2.312156566
2.298535059
2.280321406
2.25428461
2.230732665
2.202101574
2.189084488
2.178720404
2.160432707
2.136641958
2.116182645
2.089645724
2.062633312
2.04343851
2.023382024
2.001861572
1.98883244
1.976207633
1.941515593
2.736845468
2.697797287
2.664606398
2.638994201
2.63065516
2.627850117
2.624251314
2.617303795
2.607674194
2.57907422
2.552199059
2.533407508
2.524599421
2.500514536
2.464444007
2.419775655
2.369786563
2.332502199
2.310937923
2.301474094
2.281509374
2.254536589
2.231828826
2.2029899
2.189312183
2.178212275
2.160523448
2.13839564
2.1192495
2.092195921
2.06440781
2.044374134
2.022699989
2.002096195
1.990235201
1.976081814
1.940590817
2.738990792
2.694494758
2.66089574
2.638679093
2.63196076
2.628499116
2.627106058
2.617019416
2.610410283
2.579367553
2.553727064
2.535481443
2.524950773
2.500081743
2.463702074
2.416610679
2.367615214
2.33242233
2.312337008
2.302436156
2.281760469
2.254313377
2.232763581
2.205184638
2.189398216
2.177970072
2.160918008
2.139519051
2.119921786
2.092829764
2.065220897
2.044039405
2.022153062
2.003065075
1.990337839
1.975576029
1.940224907
2.737301897
2.689154062
2.661695881
2.641173066
2.633407691
2.629803472
2.627151442
2.618286033
2.611229544
2.578735316
2.554257523
2.537306933
2.525658717
2.500408206
2.462671754
2.414921913
2.36723648
2.333615183
2.314879989
2.30219551
2.28081969
2.253605898
2.232660891
2.206544637
2.189718387
2.178129942
2.161378624
2.140101144
2.120169234
2.092946851
2.065033874
2.043401995
2.021813512
2.004238432
1.990084536
1.974636032
1.940019049
2.73115573
2.690527622
2.664038259
2.644349767
2.637066351
2.633880547
2.629412176
2.623014159
2.610374769
2.576948919
2.554136835
2.538384575
2.52634288
2.499985265
2.460078857
2.413272527
2.368405058
2.336242491
2.318626868
2.303294302
2.280575066
2.253167966
2.232328084
2.207000389
2.190545426
2.178492636
2.162095572
2.140367045
2.119774551
2.092552849
2.064675802
2.042952998
2.021815
2.005340333
1.989615716
1.973973173
1.939830997
2.730315655
2.692928757
2.664791133
2.646739539
2.642143817
2.639715803
2.635385092
2.627443059
2.605253866
2.571402886
2.553251928
2.539186863
2.526808006
2.498047109
2.455373305
2.410374088
2.369026491
2.338675303
2.321626584
2.306120567
2.281525066
2.253118143
2.232171704
2.207632234
2.191839309
2.178993477
2.162600301
2.140148579
2.119300504
2.092526633
2.064537815
2.042790376
2.023040653
2.005815563
1.989029693
1.973491406
1.939700452
2.732151604
2.694138
2.663187944
2.647848378
2.645943547
2.644532023
2.641880108
2.63015668
2.598228334
2.565188988
2.550341891
2.538860657
2.526233785
2.494478136
2.450264784
2.406216259
2.36838359
2.340044333
2.32324856
2.307647654
2.283206352
2.254057967
2.232530768
2.209033085
2.192979854
2.179143401
2.162589548
2.140017195
2.119483371
2.092681875
2.064583307
2.043072405
2.024681947
2.005284732
1.988432468
1.973000031
1.939566316
2.734591641
2.693106217
2.664195198
2.649675714
2.648692985
2.647741739
2.645869566
2.628788182
2.599264717
2.564790278
2.550173705
2.539762931
2.524430638
2.491327192
2.446628505
2.403465601
2.365143638
2.34016418
2.323221692
2.308011996
2.283436947
2.255133619
2.234085574
2.21119378
2.19366554
2.179068204
2.162295623
2.140282983
2.119748352
2.092865081
2.06503681
2.044403222
2.024367826
2.004565726
1.987881701
1.972523407
1.939329338
2.738123979
2.693472206
2.668069446
2.653001381
2.650258718
2.649628438
2.647599051
2.628942538
2.604115426
2.566762645
2.551984387
2.541919961
2.523590267
2.489290418
2.444328845
2.402358691
2.363435335
2.338044536
2.323631372
2.306947388
2.28328431
2.254859983
2.235434402
2.21225244
2.193859554
2.178899149
2.162229348
2.140624079
2.120124455
2.093619568
2.065845781
2.044652003
2.023626226
2.003896754
1.987306538
1.972254942
1.939249689
2.741809106
2.696814388
2.671892723
2.656817381
2.65295174
2.648468716
2.646185162
2.633570076
2.607619844
2.571383071
2.5553022
2.544035101
2.523228835
2.487781477
2.443413354
2.402633302
2.36391605
2.339174413
2.325707776
2.306813178
2.282441838
2.254227099
2.235537331
2.212368137
2.193752314
2.17819918
2.162286765
2.141261401
2.120993327
2.094126928
2.065680945
2.044141199
2.022993901
2.003330919
1.986920736
1.972029067
1.939151016
2.744693694
2.699566809
2.674104622
2.661177958
2.657076026
2.651412499
2.649251852
2.638676933
2.608417176
2.573571619
2.55742281
2.544750768
2.522849477
2.485109533
2.441411792
2.403024194
2.365076176
2.341856594
2.329051739
2.30779999
2.281085709
2.253249712
2.235462291
2.211808985
2.193284024
2.177457623
2.162457401
2.142592153
2.122009924
2.093860992
2.06485065
2.043466083
2.02271283
2.00297533
1.986682362
1.971856403
1.939132349
2.729712488
2.742710396
2.69816751
2.672552381
2.66427353
2.66112007
2.657717524
2.656276557
2.640389698
2.608076281
2.573927756
2.558293055
2.544908997
2.522115537
2.480519823
2.43728381
2.401966501
2.36702117
2.344396856
2.330175365
2.30883006
2.280708672
2.252860225
2.235394137
2.211165222
2.192391524
2.177473438
2.162933595
2.144279595
2.122281629
2.093081389
2.064057505
2.043409248
2.022602064
2.002806705
1.98679774
1.972550841
1.940008373
2.722121264
2.732092166
2.692491881
2.670812545
2.666116726
2.663572048
2.663610984
2.661905213
2.640199285
2.606670935
2.573396772
2.558200139
2.54447508
2.520758105
2.476493328
2.430880295
2.398296847
2.367780351
2.345555959
2.330422236
2.308795194
2.280546191
2.252751656
2.235644579
2.211383829
2.192333379
2.177685495
2.16398255
2.145171638
2.122331865
2.09243754
2.063904664
2.043515199
2.022703378
2.003300772
1.988499328
1.974373547
1.940174893
2.724572794
2.727896869
2.69245112
2.67320534
2.666468276
2.665213976
2.666965717
2.664644094
2.636467872
2.601363602
2.570672226
2.556452819
2.544847938
2.518913001
2.474660228
2.425767565
2.394123997
2.36767869
2.346383732
2.329403297
2.308478401
2.280828856
2.252895039
2.236436041
2.212416857
2.192630989
2.178195806
2.165111863
2.145409388
2.122143834
2.092250168
2.063994385
2.043823191
2.023468833
2.005528864
1.990735262
1.975003512
1.939976704
2.731972197
2.730238068
2.695306538
2.677025942
2.669066779
2.665732651
2.668381895
2.66420258
2.628953594
2.591979867
2.566744123
2.556959034
2.545954638
2.518091765
2.473165151
2.423745412
2.393468519
2.365229809
2.345874941
2.329677176
2.307103576
2.280635295
2.253847406
2.237011375
2.214074007
2.193481265
2.179226049
2.165442591
2.145276366
2.12183139
2.09234784
2.064319028
2.044917164
2.025507575
2.006818687
1.990537669
1.974571565
1.939756551
2.743715301
2.734664449
2.700653759
2.682908777
2.67348163
2.668962789
2.667001659
2.661531217
2.629083654
2.590830389
2.566726218
2.55958309
2.547380543
2.51765518
2.470479054
2.423103521
2.393713551
2.363345899
2.345193657
2.33142284
2.305407123
2.280024905
2.253710302
2.237214619
2.215110679
2.19614513
2.180794615
2.165371827
2.144684606
2.121929015
2.092770978
2.065614701
2.04747091
2.026657418
2.00652599
1.990024302
1.97426598
1.939659583
2.750063338
2.739152691
2.704083378
2.687823472
2.679452207
2.674873038
2.670926242
2.664069471
2.630764854
2.592698419
2.56925797
2.562189952
2.548067032
2.517795759
2.467161204
2.423742852
2.395058418
2.364695978
2.346866319
2.334161266
2.305141613
2.278703839
2.253097634
2.237273997
2.216025613
2.200069116
2.182279389
2.165145875
2.144498978
2.122096984
2.094248043
2.068180674
2.04869767
2.026699897
2.006183812
1.989736354
1.974113421
1.939773573
2.753089423
2.74205263
2.704903315
2.691325024
2.68506385
2.681029467
2.678683816
2.668841207
2.631825754
2.597107858
2.573155621
2.563156175
2.548234164
2.51683794
2.464610169
2.426220489
2.398280665
2.367432092
2.350465828
2.334984991
2.305229187
2.277711331
2.252567369
2.23683787
2.217839564
2.201258286
2.183304577
2.16488118
2.144425275
2.122818107
2.095571434
2.068470545
2.048809035
2.026734897
2.006098541
1.989629272
1.97411652
1.940294701
2.754007764
2.742182776
2.70021382
2.692036047
2.688248268
2.684556131
2.684528084
2.67042853
2.631810404
2.599001504
2.574391575
2.563605244
2.547983623
2.514522596
2.46256724
2.426046769
2.400204579
2.370660392
2.353542064
2.335290702
2.306248456
2.277292118
2.25236916
2.236565001
2.220201258
2.201331211
2.183642255
2.164833974
2.145135252
2.123649808
2.095626032
2.068202089
2.048768804
2.026916817
2.006192975
1.989719354
1.974364812
1.94211476
2.748753657
2.734669738
2.698909682
2.690225565
2.690169579
2.686577054
2.688136652
2.670008985
2.630892616
2.599670936
2.57498999
2.562781328
2.546516441
2.511569979
2.46046353
2.424195975
2.401289826
2.372826669
2.354961694
2.334931224
2.306090163
2.276917596
2.252268546
2.236914212
2.22139918
2.201325506
2.18345068
2.165552105
2.145279343
2.123744608
2.095281093
2.067889589
2.048923324
2.027269938
2.006523664
1.990093456
1.975152604
1.945141398
2.750167071
2.733469544
2.701421853
2.69329578
2.689278783
2.685535575
2.690523404
2.667238685
2.628654321
2.599617075
2.57532352
2.56252058
2.544404658
2.508785904
2.457594966
2.418740796
2.400204599
2.374307008
2.354963726
2.333955622
2.305347007
2.276865606
2.252830175
2.237811187
2.22168532
2.201172698
2.183206118
2.165694591
2.145113259
2.123549061
2.09511699
2.068010492
2.049244939
2.02809905
2.007386609
1.99096042
1.976699954
1.946483299
2.7574363
2.738072367
2.70558408
2.698475334
2.691793171
2.684266374
2.686306463
2.659649871
2.619908867
2.59750326
2.573914002
2.563984902
2.543303629
2.506328894
2.45171096
2.414165422
2.395676669
2.372839535
2.355363935
2.334281977
2.303554336
2.276307474
2.25295756
2.23880142
2.221615563
2.200598531
2.183005459
2.165195999
2.144516542
2.12293023
2.095460342
2.068338557
2.049903275
2.02965208
2.008363774
1.99183241
1.977787951
1.946800119
2.767494367
2.741770503
2.71185311
2.706205804
2.696955855
2.687175322
2.689164123
2.657044703
2.616635745
2.593992578
2.57409534
2.568085792
2.543263058
2.50324123
2.444724236
2.413211478
2.396026707
2.372756625
2.357903262
2.336154985
2.302626894
2.275498302
2.252893194
2.239121308
2.221667562
2.200210636
2.182854974
2.16475574
2.143989283
2.123014313
2.096118118
2.069239953
2.051293991
2.030497899
2.008468933
1.992131521
1.977996848
1.947012894
2.715913028
2.772672197
2.741985345
2.714358015
2.711638034
2.700308208
2.689675337
2.696290158
2.654520826
2.61450429
2.593988024
2.575437312
2.56923691
2.542049592
2.498557527
2.440393885
2.411937456
2.397429785
2.375054056
2.360019974
2.336603958
2.301345983
)
;

boundaryField
{
    inlet
    {
        type            fixedValue;
        value           nonuniform 0();
    }
    outlet
    {
        type            zeroGradient;
    }
    bottom
    {
        type            slip;
    }
    top
    {
        type            slip;
    }
    obstacle
    {
        type            zeroGradient;
    }
    defaultFaces
    {
        type            empty;
    }
    procBoundary17to11
    {
        type            processor;
        value           nonuniform List<scalar> 
36
(
1.984596334
1.966745785
1.953607023
1.919545063
2.54178157
2.520286595
2.489078456
2.464538271
2.451401339
2.447971056
2.455943535
2.443586048
2.438868324
2.422859063
2.405737712
2.383754035
2.334643971
2.283898048
2.248007706
2.219259654
2.191587933
2.177633675
2.162662536
2.139375328
2.115893865
2.093722248
2.066335074
2.043083507
2.028885463
2.009874915
2.009874915
2.675124381
2.620726155
2.600319306
2.566095365
2.566095365
)
;
    }
    procBoundary17to16
    {
        type            processor;
        value           nonuniform List<scalar> 
65
(
2.724907239
2.723665574
2.723279304
2.721992216
2.719767336
2.715080163
2.709740362
2.707923405
2.707923405
2.768257003
2.766906457
2.766203992
2.760866877
2.755609628
2.753933062
2.753804754
2.749911054
2.744801172
2.737127237
2.731789976
2.728417017
2.725163052
2.722005344
2.722005344
2.745088338
2.745869421
2.743849435
2.741270382
2.736975818
2.732697488
2.732378194
2.733677817
2.735142165
2.735890024
2.736129943
2.733432949
2.728158013
2.727807492
2.727807492
2.696130789
2.702346993
2.705174752
2.707068443
2.704433242
2.700683548
2.703362575
2.708645474
2.716735034
2.724170983
2.728589552
2.73133008
2.73133008
2.649034579
2.649390392
2.654456035
2.666347396
2.681589972
2.688387201
2.692073413
2.692786377
2.688830162
2.692738281
2.701251207
2.709492746
2.709492746
)
;
    }
    procBoundary17to22
    {
        type            processor;
        value           uniform 2.671592713;
    }
    procBoundary17to23
    {
        type            processor;
        value           nonuniform List<scalar> 
40
(
2.274347052
2.25234145
2.238877361
2.221142844
2.199623849
2.182483802
2.164194317
2.14343621
2.123093617
2.096868876
2.069835527
2.051803672
2.030664787
2.008286771
1.991780265
1.977866414
1.947116456
2.714427492
2.777171481
2.744779297
2.718895175
2.716779024
2.704936653
2.694983666
2.707397
2.662664527
2.619897484
2.599147339
2.578737332
2.571316812
2.54314198
2.495706486
2.440276103
2.413159656
2.401406966
2.380373453
2.363563579
2.339485576
2.274347052
2.302811266
)
;
    }
}


// ************************************************************************* //
