/*--------------------------------*- C++ -*----------------------------------*\
  =========                 |
  \\      /  F ield         | OpenFOAM: The Open Source CFD Toolbox
   \\    /   O peration     | Website:  https://openfoam.org
    \\  /    A nd           | Version:  7
     \\/     M anipulation  |
\*---------------------------------------------------------------------------*/
FoamFile
{
    version     2.0;
    format      ascii;
    class       volScalarField;
    location    "4.4";
    object      T;
}
// * * * * * * * * * * * * * * * * * * * * * * * * * * * * * * * * * * * * * //

dimensions      [0 0 0 1 0 0 0];

internalField   nonuniform List<scalar> 
2225
(
1.006841093
1.006601176
1.00647433
1.006516042
1.006719907
1.006944922
1.00701571
1.007010291
1.006990197
1.006935519
1.006838648
1.006684137
0.8623965424
0.8605441428
0.8592119313
0.8594444636
0.862797508
0.8806304952
0.9112801051
0.9524874233
0.982830438
1.001831252
1.003573518
1.002686293
1.004231001
1.004237413
1.004073176
1.004628722
1.005775685
1.006574849
1.00675738
1.006743436
1.006430626
1.006030294
1.005967185
1.006095237
1.006397701
1.006692413
1.006791081
1.006801677
1.006754635
1.006680505
1.006568203
1.006450677
0.8672281138
0.8656514756
0.8629908899
0.8603246442
0.8607086318
0.8621805097
0.8698287404
0.8948860755
0.9325982172
0.9690372637
0.9825023519
0.9943987025
1.005071412
1.004179703
1.0045532
1.005775409
1.006955129
1.006949334
1.00671383
1.00635611
1.006026316
1.005906483
1.005908283
1.006086515
1.006370056
1.006551749
1.006559545
1.006459456
1.006356957
1.006297807
1.00621481
1.006213642
0.872711839
0.8702779679
0.8681244037
0.8638819319
0.8628674356
0.8629692779
0.8629056443
0.8654581647
0.8803477993
0.9087339793
0.9489300506
0.9834324843
0.9998426407
1.000793517
1.003606905
1.006176752
1.006654359
1.006455705
1.006191067
1.005912377
1.006086997
1.006192851
1.006212995
1.006255939
1.006383957
1.006388613
1.006275591
1.006146275
1.006079315
1.006070715
1.006045899
1.00604046
0.8798746282
0.8771021115
0.8749586374
0.8704247126
0.8661578621
0.8651326058
0.8633604604
0.8633393414
0.8643722938
0.8704551757
0.8928110243
0.9258201448
0.961131009
0.9808209361
0.9994755994
1.002674957
1.00307968
1.004556845
1.005575693
1.005927646
1.00590435
1.005762984
1.00578304
1.00581215
1.00592952
1.006062684
1.006047152
1.006079351
1.006135913
1.006117178
1.006082622
1.005979018
0.8841071776
0.8818787977
0.8806633345
0.8779593587
0.8736746471
0.8712424633
0.8683356091
0.8643209505
0.864407319
0.8649273716
0.8672096836
0.8783680674
0.9071717877
0.948771916
0.9822184457
0.9891811488
0.9967075
1.005042008
1.005508946
1.005516848
1.00517638
1.004227667
1.004204134
1.00485432
1.005541194
1.005854995
1.006034022
1.006053218
1.006041217
1.00600731
1.005967578
1.005851615
0.889835793
0.8863273059
0.8848970401
0.8822838091
0.8784456916
0.8765710125
0.8749864556
0.8707864962
0.8677218992
0.8662351223
0.8657013324
0.8662501206
0.8714117578
0.8929958792
0.925768963
0.9614838557
0.9882208523
1.002601525
1.001415869
1.002838313
1.002450473
1.002202128
1.002883878
1.004742791
1.005673812
1.005948402
1.005894231
1.005737588
1.005519322
1.005437863
1.00552735
1.005642072
0.897038464
0.8925834844
0.8906807144
0.8883736485
0.8837776774
0.8813367453
0.8795977546
0.8766271779
0.8727860759
0.8709747914
0.8690709804
0.867096546
0.8670897973
0.8690411822
0.8787451666
0.9072333637
0.9398519136
0.9738160785
0.9859088479
0.9986055249
1.000493252
1.00256105
1.004562568
1.006071412
1.006045774
1.005849869
1.005452057
1.004901337
1.004692888
1.004828704
1.005135945
1.00542834
0.9017346881
0.8970202353
0.8955389137
0.8942554439
0.8905630391
0.887364019
0.8857091575
0.8828904772
0.8785247784
0.8755602236
0.8735004466
0.8705051932
0.8683978466
0.8685585394
0.8690643424
0.8738242851
0.8897623343
0.9209011865
0.9617772139
0.9908747675
0.9964943536
1.001612854
1.005336258
1.005777895
1.005337148
1.004944291
1.004818031
1.004441736
1.0045018
1.004867603
1.005188825
1.005265068
0.9074121871
0.9018984054
0.8997854994
0.8984720678
0.8949937773
0.8913503547
0.8905797972
0.8888596248
0.8851487327
0.8822895408
0.87983139
0.8762730842
0.8728943064
0.8709785273
0.8696672206
0.8697092809
0.8709532105
0.8795693898
0.9059146214
0.9398427844
0.9669640403
0.9893616058
1.002816035
1.000962792
1.002470955
1.003550992
1.004201622
1.004988462
1.005498276
1.005735609
1.005539198
1.005116512
0.9136811214
0.9090389767
0.9056009032
0.9038617107
0.9005038168
0.8956757126
0.8941716698
0.8926491897
0.8888026911
0.8865166578
0.8854544387
0.8830095937
0.8791999803
0.876581962
0.8732370309
0.870188868
0.8703765237
0.8711596614
0.8756874567
0.8898904149
0.924976439
0.9567791998
0.9826532335
0.9906068241
1.001178401
1.00336438
1.004302144
1.005259383
1.005878718
1.005790474
1.005436788
1.004932615
0.918774866
0.9147558447
0.9107450369
0.9093974035
0.9070319188
0.9023317467
0.8995147956
0.8977871013
0.893817992
0.8903063989
0.8892082897
0.8871810888
0.8835334344
0.8815795131
0.8800338278
0.8761744168
0.8730626696
0.8724545695
0.8721264347
0.8730736931
0.8820052528
0.9030930164
0.9367305574
0.9722000433
0.9964347383
0.9989798461
1.00170752
1.003852835
1.004194348
1.003821146
1.004478508
1.004926066
0.9239535037
0.9199759436
0.9148546628
0.9134269314
0.9115576553
0.9070504096
0.9042565354
0.9031576005
0.9005662525
0.8963430934
0.8943989674
0.8926250643
0.8882458509
0.8849074004
0.8840708572
0.8820132804
0.8780391487
0.8752424172
0.8739057285
0.87315155
0.8736340631
0.8768409158
0.890375107
0.9206807659
0.9564207379
0.97532607
0.9908444188
0.9984612725
0.9989174301
1.000968288
1.003583382
1.005096593
0.929779321
0.9266307591
0.9212521352
0.9184811479
0.916377448
0.9117755187
0.9082648515
0.9073150129
0.9052150065
0.9007915185
0.8989513658
0.8979136866
0.8948948101
0.8904900465
0.8890107936
0.8877162508
0.8837926416
0.8799601671
0.8782706882
0.8762873771
0.8747532247
0.8738952492
0.8747640711
0.88269848
0.9021419094
0.939596017
0.9738443896
0.9916904125
0.9956132057
1.002458687
1.004846279
1.00476647
0.9347733169
0.932133524
0.9269427803
0.9236788715
0.9217696775
0.9182049571
0.9139883179
0.912087132
0.9098750608
0.9051834335
0.9023713399
0.9014192353
0.8992704895
0.8948671176
0.8931883269
0.8926813363
0.8907302761
0.8862330874
0.8832892609
0.8810656719
0.8773752842
0.8746719953
0.8749431699
0.8755721459
0.8783307245
0.892573124
0.9178688671
0.9530787093
0.9827087362
0.9979425232
1.001966116
1.00150739
0.9396094221
0.9370945797
0.9320082408
0.9284600818
0.9267016156
0.923810764
0.9197265032
0.9174402904
0.9154320043
0.9114594009
0.9076421082
0.9057138756
0.9036968101
0.8994203521
0.8962252996
0.8957692286
0.8946149292
0.8911027935
0.8882877438
0.8867843154
0.8843327364
0.8804231118
0.8785040784
0.877319827
0.8761009333
0.8768396669
0.8831231261
0.9047196936
0.9374673828
0.9645188264
0.9818144698
0.9958216983
0.9451329367
0.9426472526
0.9380656707
0.9338579261
0.9316180414
0.9284996825
0.9240330873
0.9216544191
0.9197393203
0.9163774151
0.9127299318
0.9106807087
0.9089499226
0.9059235892
0.9018940321
0.8995337571
0.8979721807
0.8951209272
0.8914644376
0.8904531997
0.8890140593
0.8856024619
0.8826393604
0.8806267925
0.8779707886
0.8769695778
0.8773516865
0.8807016964
0.8931576536
0.9178203282
0.9516331042
0.9885402783
0.950152991
0.9478236032
0.9438642803
0.939547484
0.9370422775
0.9340879108
0.9294114945
0.9264410766
0.9242064766
0.920752849
0.9170785292
0.9149744438
0.9130732019
0.9107193145
0.9075916129
0.9045345412
0.9025249584
0.9003638353
0.8969532498
0.8945115961
0.8929665694
0.8904199873
0.8867900437
0.8853807249
0.8833688042
0.8802883641
0.8782643313
0.8782488405
0.8792317131
0.8853284404
0.9018275719
0.9487376143
0.9551484285
0.9528195486
0.9490864597
0.9446514093
0.9421616556
0.9394995366
0.9349420183
0.9315509158
0.9292547349
0.9259495577
0.9221673078
0.9196097069
0.9170491308
0.9140799298
0.9116208991
0.9089183027
0.9062214837
0.9042926737
0.902052437
0.8995495113
0.8978574248
0.8956722441
0.8918926901
0.8891729977
0.8876266216
0.885118212
0.8805823508
0.8788539197
0.8792797193
0.8798975405
0.8819146911
0.9067328945
0.960652448
0.9580444857
0.9542687984
0.9492376924
0.9466868657
0.9442852444
0.9398489991
0.9362387995
0.9341977712
0.9313137211
0.9274304619
0.9249880192
0.9224677868
0.9185153087
0.9157075668
0.9137037816
0.9108483147
0.9075621318
0.9054171818
0.9035158497
0.9016623827
0.8999943376
0.8971501057
0.8939320946
0.8925141452
0.8910183387
0.8878121174
0.8836835142
0.8821635691
0.8813043104
0.8801790111
0.8845605258
0.9658590174
0.9633200543
0.960011106
0.9546169965
0.9516310732
0.9493879597
0.9451425413
0.9410593444
0.9389041425
0.9361049103
0.9316865389
0.92923318
0.9273460655
0.9236381105
0.9195855
0.918195592
0.916426045
0.9126941736
0.9095669951
0.9075944848
0.9053813812
0.9032231311
0.900855188
0.8977715931
0.8957921078
0.8950184663
0.8932339749
0.8896768463
0.886454576
0.8841680545
0.8812728631
0.8816863147
0.9706247555
0.9679826965
0.9652036531
0.9599489089
0.9564111673
0.954309213
0.9506364563
0.9462068981
0.9437071647
0.9411112033
0.9365343901
0.9333735726
0.9317633374
0.9288676904
0.9237598418
0.9219354771
0.9210170923
0.9183093726
0.9140313608
0.9120054516
0.9101047178
0.9075991844
0.9054653316
0.9027399685
0.8992100089
0.8975189082
0.8966640273
0.8944904034
0.8912793163
0.8891683274
0.8867171086
0.8840073344
0.9763298867
0.9729593297
0.9703275098
0.965301658
0.960994341
0.9588270905
0.9557671504
0.9514338799
0.9485713497
0.9461560665
0.94211551
0.9381426425
0.9360998093
0.933891756
0.9291710451
0.9255041571
0.9244991149
0.9226982318
0.918417024
0.9156296095
0.9140494968
0.9117744281
0.9094655171
0.9077881483
0.9050341636
0.9012703188
0.8996739895
0.8981983489
0.8954403011
0.8927200416
0.8908546611
0.8872976895
0.9821572128
0.9779477483
0.9754378862
0.9712811561
0.966360233
0.9633613213
0.96028434
0.956122996
0.9528831673
0.9504591701
0.9471540973
0.9431461258
0.9403985525
0.9384301666
0.9352583061
0.9307867892
0.92831743
0.9266832113
0.9234570757
0.9198480557
0.9179368469
0.9156558862
0.9126876517
0.911115176
0.9095602393
0.9063934945
0.9030703782
0.9019761729
0.9004096409
0.8975911716
0.8952885427
0.8919040011
0.9879853524
0.982812844
0.9800221093
0.9766877658
0.9721750429
0.9685122151
0.965133696
0.9612159241
0.9576613433
0.9547148995
0.9516540897
0.9481814796
0.9448465095
0.9423141276
0.9399925105
0.9364113047
0.9327000281
0.9304049198
0.9279362943
0.9246505851
0.9222210441
0.9200285098
0.9166895062
0.9142943222
0.9130779745
0.9109113195
0.9066776622
0.9046198115
0.9039497227
0.9022316361
0.8998508473
0.8962811729
0.9940127398
0.9885344746
0.9846959166
0.9812566612
0.9772624815
0.9735562886
0.969782472
0.9660100694
0.9628195894
0.9595449413
0.9558952298
0.9528368253
0.9497457472
0.9461996872
0.9435139822
0.9412094514
0.9379047978
0.9344772207
0.9318966648
0.9292178268
0.9268772439
0.924776761
0.9213887903
0.9178790076
0.9166123914
0.9154561013
0.9123298254
0.9079104044
0.9067834416
0.9057680364
0.9036851336
0.9000686022
0.9991858283
0.994467469
0.9900905888
0.9860182977
0.9822046102
0.9789273193
0.9748467588
0.9701626526
0.9672972372
0.9645926581
0.9604199745
0.9571167077
0.9548884568
0.9515023651
0.9472569979
0.9451498899
0.9430056917
0.9394923408
0.9358552348
0.9331405006
0.9308343559
0.9289059527
0.9262938799
0.9219907266
0.9195360648
0.9188277567
0.9172532904
0.9134702082
0.9103984827
0.9092973876
0.9076124463
0.9035950893
1.003696237
0.9995743395
0.9955005682
0.9909936369
0.9866361788
0.9838773395
0.9806238078
0.9753053933
0.9715565366
0.9692761623
0.9653337011
0.9607523682
0.9588258958
0.9566725989
0.9520795952
0.948561176
0.9471453068
0.944765882
0.9407149019
0.93737259
0.9348452264
0.9327328357
0.9307428224
0.9274962124
0.9233497629
0.9216929492
0.9207402474
0.9184186686
0.9146168443
0.9125652538
0.9113676845
0.9078563904
1.00861384
1.004427598
1.000800822
0.9965865048
0.9910208055
0.9878045495
0.985544086
0.9811943556
0.976234542
0.9738173216
0.9709267331
0.9657051552
0.9623922997
0.9608402372
0.9575538916
0.9525367009
0.9506497264
0.9492119261
0.9460114104
0.9420909311
0.9391177687
0.9364770642
0.9343773857
0.9321654521
0.9284860266
0.9247756134
0.9235857914
0.9223109834
0.9193883682
0.915968592
0.9143522739
0.9114092617
1.013998017
1.009136934
1.005517988
1.00228875
0.9969512308
0.9917767881
0.9895071355
0.9864956087
0.9813120449
0.9777399508
0.9755397446
0.971739155
0.9668869557
0.9645065493
0.9623501787
0.9579013134
0.9539503836
0.9523725089
0.9502654024
0.9469206833
0.9437693673
0.9406880872
0.9378321143
0.9360342864
0.9338469109
0.9297558387
0.9263720607
0.9254091347
0.9237690901
0.9206209716
0.9181144813
0.9148668576
1.019880136
1.014500996
1.009532125
1.006793065
1.003109159
0.9971063944
0.9932732207
0.9910189108
0.9871676952
0.9822249189
0.9792002446
0.976618865
0.9723844453
0.9683544219
0.9662468712
0.9635544306
0.9592081214
0.9557978916
0.9536728415
0.9511514419
0.9483809889
0.945389637
0.9416802293
0.9392283158
0.9377774089
0.9352869379
0.9307437751
0.9280514596
0.9270462872
0.9248997872
0.922245051
0.9186694232
1.02518097
1.020860539
1.014647287
1.010618534
1.008026704
1.003362472
0.9975034241
0.9946435439
0.9922406948
0.9880439551
0.983333458
0.9805695973
0.9776871462
0.9732667815
0.9694343994
0.9673786579
0.9646224772
0.9606990738
0.9571634541
0.9546438865
0.9524186666
0.9500228765
0.9464269792
0.9424436235
0.940784055
0.9394876686
0.9365437079
0.9319011234
0.9301828068
0.9289543933
0.9266485878
0.9225144327
1.029204251
1.02622736
1.021108615
1.015014067
1.012144655
1.009136587
1.003567911
0.9982336652
0.9959501582
0.99329967
0.9886377431
0.9843037233
0.9820374434
0.9790924782
0.9741797493
0.970605815
0.9685721864
0.9658193737
0.9617230708
0.9580886344
0.9559040202
0.9541911096
0.9517034599
0.9473753723
0.9439099498
0.9427140569
0.9411030799
0.9372203003
0.9333198768
0.9320333235
0.9305276323
0.9265044655
1.033276415
1.030421753
1.026954261
1.020747511
1.015938297
1.013526759
1.009951106
1.003956468
0.999472707
0.9972707148
0.9941540911
0.9888697912
0.9853528445
0.9834284721
0.9799974532
0.9750799782
0.972094637
0.9700839745
0.966857547
0.9625197745
0.9590003215
0.9570823516
0.9555139582
0.9527558078
0.9483938256
0.9455844129
0.9444143114
0.9422617146
0.9381651924
0.9352510788
0.9338320719
0.9303734038
1.03861256
1.03424324
1.03156946
1.027130566
1.021035485
1.017047416
1.014403986
1.010390505
1.004580088
1.000766786
0.9985849007
0.9947749162
0.9894363446
0.9866090885
0.9844675375
0.9804969987
0.9759557235
0.9737371368
0.9714376411
0.9679247293
0.9638266402
0.9603414291
0.9583690798
0.9566698782
0.953664938
0.9493964714
0.9472494059
0.9459865632
0.9432204951
0.9394611785
0.9373396928
0.9339237792
1.044915422
1.038777909
1.035210109
1.032014703
1.0273658
1.021821572
1.017874075
1.015070278
1.010836973
1.005092915
1.001896931
0.9996244571
0.9954012833
0.9903805511
0.9879414416
0.9854131997
0.9809449
0.9771936683
0.9748637267
0.9722789334
0.9689952191
0.9652233975
0.9617496381
0.9597491288
0.9578420089
0.9544500816
0.9502888171
0.9486846788
0.9471657144
0.9440320202
0.9412634678
0.937668972
1.050490273
1.04494939
1.039571781
1.035494111
1.032135053
1.027794774
1.022178634
1.018582298
1.015969788
1.011391203
1.005624002
1.002965997
1.000565687
0.995871447
0.991351161
0.9891623561
0.9863536272
0.9820560476
0.9783716989
0.9758617345
0.9731535778
0.9701380699
0.9662885691
0.9629161963
0.961213018
0.9592495126
0.9553204362
0.9515782415
0.9502543825
0.9482892065
0.945482378
0.9413354043
1.054706293
1.050393973
1.045493447
1.039767346
1.035684702
1.032754117
1.028019421
1.022181762
1.01950694
1.016930942
1.011716613
1.00648239
1.00427605
1.001437871
0.9962829131
0.9921900668
0.9902817055
0.9872578966
0.98290254
0.9796340594
0.9769362097
0.9743772712
0.9712039193
0.9669671063
0.9638986363
0.9625035305
0.9602787334
0.956038076
0.9530834781
0.9515508556
0.949542978
0.9453141754
1.05913608
1.054514405
1.050763699
1.045618149
1.039517221
1.036507485
1.03354792
1.027859547
1.022757682
1.020550883
1.017461446
1.011914122
1.007700045
1.005574313
1.002243635
0.9966053065
0.9933296522
0.9912554233
0.9879119074
0.9837184079
0.9805111165
0.9781908481
0.9756630607
0.9723182562
0.9678234502
0.9652057555
0.9638238947
0.9610374766
0.9568460396
0.9544680461
0.9530419086
0.9493040989
1.064425601
1.058751811
1.054880792
1.051279931
1.045139129
1.039907022
1.037452137
1.033823765
1.02798359
1.023805448
1.021355406
1.017694827
1.012299398
1.008763681
1.006615451
1.002714899
0.9974005298
0.9944119101
0.9923227906
0.9886018132
0.9842901044
0.9815150924
0.9791262564
0.9767544444
0.9731694416
0.9688423257
0.9667882038
0.9650803416
0.9617265573
0.9577269177
0.9559238281
0.9527266424
1.069444261
1.063967489
1.058592544
1.055496108
1.05131307
1.045069041
1.040829185
1.037971134
1.033802669
1.028362873
1.024547095
1.021976584
1.018116023
1.012832919
1.009624801
1.007342383
1.0031927
0.9980265279
0.9956893689
0.9932211795
0.9893645929
0.9853977176
0.982352519
0.9801891527
0.9776038974
0.973816919
0.9699675054
0.9681987295
0.966268171
0.962601278
0.9594198322
0.9559047852
1.073623996
1.069390877
1.063427256
1.058966608
1.055779009
1.051100364
1.045496339
1.041498739
1.038326376
1.034057641
1.028554126
1.024994144
1.022611656
1.018615235
1.013310013
1.010563278
1.008095338
1.003534824
0.9990239537
0.9965567438
0.9941685149
0.9902217148
0.986233607
0.9835642542
0.9811541487
0.9785524814
0.9744775754
0.9710246501
0.969311851
0.9670407194
0.9638893585
0.9594773346
1.077509635
1.073769808
1.068996846
1.063362794
1.059388052
1.055781925
1.051072514
1.045726683
1.04186459
1.038894292
1.034395927
1.028626503
1.025654556
1.023256665
1.018761188
1.013894027
1.011501311
1.0088661
1.004196208
0.9997814894
0.9976869203
0.9948005487
0.9909143647
0.9872220547
0.9843695314
0.9822857714
0.9793601706
0.9755034783
0.9722796917
0.9702467956
0.9680053916
0.963513864
1.082184674
1.077658559
1.073663859
1.068589352
1.063502087
1.059563136
1.055915106
1.051203204
1.045691595
1.042318815
1.03942766
1.03437908
1.029103595
1.026526435
1.023740017
1.018888389
1.014475205
1.012348775
1.009473714
1.004731195
1.00096664
0.9984894556
0.995723075
0.9915273425
0.9878904877
0.9853722557
0.9829735554
0.9803158871
0.9764547013
0.9735291267
0.9715384143
0.9673387767
1.082029132
1.077777679
1.073457638
1.068501211
1.06352967
1.059611526
1.056136641
1.051143307
1.045899101
1.042927677
1.039650482
1.034355201
1.029749918
1.027253919
1.024160716
1.019230928
1.015146785
1.012942845
1.010033509
1.005359161
1.001784252
0.999639866
0.9962270432
0.9924441019
0.9888365855
0.98609965
0.9839718397
0.9808048816
0.9774935205
0.9750193966
0.9709445437
1.086742736
1.082017496
1.077667036
1.073363884
1.068565859
1.06341372
1.059731402
1.056183611
1.050984378
1.046346746
1.043470576
1.039811834
1.034601182
1.03023923
1.027723403
1.024610733
1.019629274
1.015765952
1.013731855
1.010448066
1.005943855
1.002762393
1.000226805
0.9972450756
0.9930530295
0.9898559678
0.9872624313
0.9845772312
0.981798415
0.9786281996
0.9742309689
1.091048019
1.086580709
1.081890802
1.077439615
1.073431523
1.06845093
1.063390197
1.059976136
1.056124394
1.050913824
1.046717168
1.043776879
1.040152594
1.034958374
1.030626335
1.028229612
1.024916373
1.019881645
1.016591772
1.01443803
1.011098606
1.006498278
1.003502132
1.001089624
0.9975411769
0.9941955386
0.9906933194
0.9881207277
0.9856671451
0.9824004506
0.9779293917
1.094758382
1.090736088
1.086453423
1.081558202
1.077456981
1.07342991
1.06814587
1.063533983
1.06020238
1.056139064
1.05105906
1.046870896
1.044022738
1.04044459
1.035174157
1.031246759
1.028837947
1.025169206
1.020263676
1.017387743
1.015064346
1.011368391
1.007334659
1.004219808
1.001634297
0.9985567911
0.9945282814
0.9918967457
0.9887465192
0.9858562815
0.9824470553
1.09836268
1.094339187
1.09054514
1.086039466
1.081360438
1.077603
1.073269264
1.067986217
1.06375701
1.060292441
1.056232729
1.051190075
1.047078592
1.044324675
1.040541895
1.035359569
1.031960943
1.029375608
1.025494787
1.02105667
1.017913073
1.015370569
1.011856132
1.007724647
1.005078334
1.002309436
0.9989283191
0.9959640615
0.9916503781
0.9889539562
0.9884370132
1.101863497
1.097915369
1.094118216
1.090251755
1.085586384
1.081344184
1.077584019
1.073059168
1.068158713
1.063844711
1.060295582
1.056259036
1.051218497
1.04743913
1.044637722
1.040601131
1.035786568
1.032435977
1.029758002
1.025982887
1.021548826
1.018480832
1.015698175
1.012174079
1.008574858
1.005386824
1.002936404
0.9993836987
0.9952122365
0.9936650757
0.9977757145
1.105016498
1.101462462
1.097552221
1.093882589
1.089827677
1.085353268
1.081292189
1.077335268
1.073038685
1.068250118
1.063880799
1.060391764
1.056256903
1.051262041
1.047758636
1.044835584
1.040847101
1.036268347
1.032861158
1.029975626
1.026291606
1.022014145
1.01891326
1.01624828
1.012654371
1.009259812
1.005812388
1.002330955
1.000309343
1.000500089
1.013851281
1.107720617
1.104709654
1.101090866
1.097299689
1.093543918
1.089475475
1.085251695
1.081081429
1.077157455
1.073008443
1.068126033
1.063947539
1.060578516
1.05622604
1.051518581
1.047960957
1.044895164
1.041122184
1.036665194
1.033240676
1.030327898
1.026432035
1.022604661
1.019391044
1.016605535
1.013072055
1.009046731
1.006758169
1.007333242
1.010948771
1.039571488
1.109896783
1.107502312
1.104414346
1.100821143
1.097024619
1.093172187
1.089232248
1.085019803
1.080832808
1.077085894
1.072857727
1.068004079
1.064099698
1.060569828
1.056342387
1.05183675
1.048164918
1.044959008
1.041191413
1.036983287
1.033621355
1.030666815
1.026866428
1.02325069
1.019738737
1.016128451
1.013707667
1.014121103
1.01881921
1.032112388
1.071412287
1.111232268
1.109676019
1.107229382
1.104124007
1.100524038
1.096714951
1.092895244
1.088990639
1.084682639
1.080615046
1.076949052
1.072666914
1.068095716
1.064158918
1.060475815
1.056477972
1.052133363
1.048344986
1.045172725
1.041233751
1.037394658
1.033944624
1.030811762
1.027226925
1.023118686
1.020522005
1.021032366
1.025153535
1.041532477
1.067508818
1.098028149
1.11167989
1.111047247
1.109463972
1.106995073
1.103831904
1.100232669
1.096403853
1.092646106
1.088651712
1.08435842
1.080414108
1.076658465
1.07256876
1.068198144
1.064198848
1.060577421
1.05655673
1.052304025
1.04857268
1.045339693
1.041561484
1.03774232
1.03407919
1.030368909
1.027828715
1.02816265
1.033188235
1.048274348
1.074424395
1.104199275
1.115139963
1.111622411
1.111479003
1.110796456
1.109178493
1.106650426
1.103503314
1.099918521
1.096105101
1.092309939
1.088327521
1.084128849
1.08023647
1.076440007
1.07244835
1.068276593
1.064254898
1.0607647
1.056619982
1.052544052
1.048821765
1.045309731
1.041627863
1.037581925
1.034688349
1.035223701
1.040371458
1.055939112
1.085246271
1.108848541
1.122078027
1.121004422
1.110757969
1.111357136
1.111352491
1.110600019
1.108888193
1.10635424
1.103246684
1.099604008
1.095797888
1.091999115
1.088015797
1.084015432
1.080046274
1.076352356
1.072342569
1.068238082
1.064367916
1.060761126
1.056810298
1.052755725
1.048794358
1.044908605
1.042158411
1.042735228
1.047707454
1.065424291
1.092642144
1.116272465
1.131110711
1.130997343
1.126121617
1.109671949
1.111477222
1.111419476
1.111174768
1.110305083
1.108591846
1.106043577
1.102905033
1.099254742
1.095539604
1.09180451
1.087816113
1.083899912
1.079899118
1.076186462
1.072240768
1.06822865
1.064409269
1.060574538
1.056541263
1.052622436
1.049507656
1.050166285
1.056298578
1.073025488
1.101118146
1.127867759
1.134823045
1.135702513
1.134323452
1.129141609
1.110828917
1.111130913
1.110788167
1.110943026
1.110894076
1.110150376
1.108339603
1.105751864
1.102513054
1.099058613
1.095310401
1.091581416
1.087651047
1.083658504
1.079686898
1.075920543
1.072073982
1.068193295
1.064007939
1.060098631
1.057356688
1.058395512
1.064253456
1.083363358
1.112490793
1.132816257
1.146777008
1.146387747
1.141832855
1.136426799
1.129259986
1.107627947
1.108304047
1.109676117
1.111250225
1.111155137
1.110775355
1.109826876
1.108045298
1.105491043
1.102275084
1.098718092
1.094963212
1.091181654
1.087354532
1.083431669
1.079448653
1.075656052
1.071522675
1.067667127
1.065016958
1.066092206
1.073623536
1.092737021
1.118799628
1.146077224
1.149093579
1.149679856
1.148817757
1.146069798
1.141926818
1.132225805
1.088224662
1.102604998
1.110347837
1.111056192
1.110825234
1.110759784
1.110600935
1.109842061
1.108036888
1.105253076
1.101908802
1.098315824
1.094504491
1.090880527
1.08701605
1.083195498
1.079018001
1.074950265
1.072746821
1.074290209
1.082046344
1.102886065
1.131683181
1.151878111
1.162908471
1.161324641
1.155535617
1.150068953
1.146033735
1.14149558
1.132463068
1.066225665
1.095811939
1.10687975
1.108681145
1.110114835
1.110654916
1.110849341
1.110697417
1.109768627
1.107715938
1.104858173
1.101479772
1.09794027
1.094280726
1.090596466
1.086548324
1.082565352
1.080601054
1.082218127
1.091792397
1.114256924
1.139192432
1.161132563
1.165528439
1.165285662
1.164122532
1.160169062
1.153853681
1.14711424
1.141814765
1.133041676
1.037259664
1.069250055
1.08771832
1.102877965
1.109767775
1.110160332
1.110346082
1.110993914
1.110728685
1.109543566
1.10738675
1.104491556
1.101203509
1.097712673
1.093857029
1.089936008
1.088434118
1.090727635
1.101843973
1.124348046
1.152558432
1.1725542
1.178414311
1.175559373
1.169402652
1.164876665
1.161042345
1.155700944
1.149004775
1.143304571
1.134223791
1.013460571
1.034487106
1.066116509
1.096119599
1.105554757
1.107079882
1.109137586
1.111009688
1.110974227
1.110459846
1.109207296
1.107119524
1.10430091
1.100839915
1.096988287
1.096239032
1.099261641
1.111317249
1.136913205
1.164865861
1.17565226
1.181769301
1.181406896
1.17941146
1.174312444
1.167560922
1.161838137
1.156759889
1.151124937
1.145334914
1.135523714
1.00293549
1.011832823
1.036706993
1.06726608
1.08902994
1.101908672
1.109669081
1.110700198
1.110384129
1.110480432
1.110183461
1.109041153
1.107045177
1.103653639
1.103740627
1.107654195
1.122968654
1.14870792
1.17411473
1.193857916
1.193685802
1.189919785
1.184231909
1.180374373
1.176006119
1.169707577
1.163181421
1.157624925
1.151902316
1.146247642
1.136395099
1.000414566
1.002682808
1.0126903
1.033830004
1.068528525
1.092018637
1.106308093
1.108012144
1.109444231
1.1106795
1.110557704
1.110115117
1.108870746
1.1097772
1.116517227
1.133337551
1.158612038
1.186763291
1.192651062
1.197720349
1.197410526
1.194581175
1.188688038
1.18231368
1.176991411
1.171478911
1.165158355
1.158782358
1.152554367
1.147115464
1.137465446
1.000039322
1.000408654
1.002675695
1.012124205
1.035783831
1.064285787
1.09068318
1.102386681
1.109451236
1.110207264
1.109886289
1.110218007
1.113431693
1.12328176
1.145200568
1.172959992
1.194317021
1.209540706
1.208158339
1.203968162
1.19922259
1.195128531
1.190014623
1.183492036
1.177487542
1.17202098
1.166059458
1.159637325
1.153132734
1.147542646
1.13771812
1.000002607
1.000041872
1.000379166
1.002798924
1.011634036
1.034424532
1.067687728
1.08952924
1.106100029
1.107378277
1.108926648
1.115359156
1.130558639
1.1536594
1.178262762
1.202206674
1.209443352
1.212657669
1.212297495
1.20967627
1.204511048
1.198853341
1.193594018
1.187765009
1.181400399
1.17519232
1.169171656
1.162916416
1.156150743
1.15014703
1.14003575
1.000000122
1.000002936
1.000037446
1.000414862
1.002493987
1.012540935
1.032877499
1.064427871
1.092352385
1.103543008
1.116690248
1.135673881
1.159742682
1.189795734
1.208639951
1.219127215
1.218858918
1.216762384
1.213259092
1.208981273
1.203582687
1.197564436
1.191880024
1.186031669
1.1797309
1.17331022
1.167063822
1.16069845
1.153929791
1.147822108
1.137514306
1.000000004
1.000000145
1.000002573
1.000041319
1.000374571
1.002783506
1.011458211
1.035250443
1.06754811
1.099176617
1.132938115
1.165880472
1.186383704
1.206665588
1.217493854
1.224125489
1.223140374
1.219262201
1.21427186
1.209147664
1.203826499
1.198076731
1.192228243
1.186284153
1.180072121
1.173549456
1.167016376
1.160507854
1.153782235
1.147687839
1.137335553
1
1.000000005
1.000000113
1.000002742
1.000036817
1.000413802
1.002763559
1.013524838
1.0422446
1.095466363
1.146627668
1.185917249
1.218795238
1.230147148
1.229403953
1.22787298
1.225186323
1.220911494
1.215114705
1.209206564
1.203788791
1.198325112
1.192560352
1.186601579
1.18048686
1.173961457
1.167205836
1.160541681
1.153826405
1.14780068
1.137443407
)
;

boundaryField
{
    inlet
    {
        type            fixedValue;
        value           nonuniform 0();
    }
    outlet
    {
        type            inletOutlet;
        inletValue      uniform 1;
        value           nonuniform List<scalar> 
71
(
1.006683058
1.006450863
1.006214677
1.006039448
1.005976593
1.005850424
1.005644108
1.005430472
1.005265447
1.005111918
1.004925695
1.004921049
1.005097103
1.004767774
1.001516201
0.9958287537
0.988535314
0.9487262734
0.9067261781
0.8845553098
0.8816817258
0.8840086637
0.887310126
0.8919099031
0.8962786469
0.900065303
0.9035801847
0.9078473239
0.9114166954
0.9148726833
0.9186704207
0.9225070862
0.9264949354
0.9303729296
0.9339269285
0.9376722572
0.9413324502
0.9453063784
0.9493034563
0.952738111
0.9559162743
0.9594746948
0.9635065339
0.9673366156
0.9709492424
0.9742346771
0.9779267612
0.9824460676
0.9884389834
0.9977727065
1.01384744
1.039571736
1.07141094
1.098026734
1.115139002
1.121004319
1.126122694
1.129141968
1.129259675
1.132223744
1.132462928
1.133041576
1.13422417
1.135523149
1.136394641
1.137463585
1.137716109
1.140034217
1.137512452
1.137334139
1.137442531
)
;
    }
    bottom
    {
        type            slip;
    }
    top
    {
        type            slip;
    }
    obstacle
    {
        type            zeroGradient;
    }
    defaultFaces
    {
        type            empty;
    }
    procBoundary35to29
    {
        type            processor;
        value           nonuniform List<scalar> 
33
(
1.007122982
1.007106292
1.007121415
1.007118651
1.007148376
1.007194179
1.007181802
1.007149419
1.007131514
1.007089813
1.007003921
1.006846097
0.8580318742
0.8584203269
0.8598082971
0.8698412584
0.8941622672
0.9378950058
0.9754611285
0.9969309094
0.9995590417
1.005147656
1.006798056
1.006464437
1.006228972