/*--------------------------------*- C++ -*----------------------------------*\
  =========                 |
  \\      /  F ield         | OpenFOAM: The Open Source CFD Toolbox
   \\    /   O peration     | Website:  https://openfoam.org
    \\  /    A nd           | Version:  7
     \\/     M anipulation  |
\*---------------------------------------------------------------------------*/
FoamFile
{
    version     2.0;
    format      ascii;
    class       volVectorField;
    location    "4";
    object      U;
}
// * * * * * * * * * * * * * * * * * * * * * * * * * * * * * * * * * * * * * //

dimensions      [0 1 -1 0 0 0 0];

internalField   nonuniform List<vector> 
2222
(
(3 6.324525125e-15 0)
(3 4.449692778e-15 0)
(3 1.805888703e-15 0)
(3 5.886497373e-16 0)
(3 -9.29542959e-17 0)
(3 2.210517716e-16 0)
(3 1.295628594e-15 0)
(3 3.359097311e-15 0)
(3 5.107602473e-15 0)
(3 4.207273737e-15 0)
(3 3.934970901e-15 0)
(3 3.171108161e-15 0)
(3 7.307719088e-16 0)
(3 -1.464437728e-15 0)
(3 -2.923501291e-15 0)
(3 -3.884970175e-15 0)
(3 -6.500029284e-15 0)
(3 -8.25770676e-15 0)
(3 -8.893000654e-15 0)
(3 -6.247693974e-15 0)
(3 -3.558592142e-15 0)
(3 -2.449827941e-15 0)
(3 3.482365505e-15 0)
(3 9.015546403e-15 0)
(3 1.027511604e-14 0)
(3 8.915805838e-15 0)
(3 6.156330784e-15 0)
(3 2.796061594e-15 0)
(3 9.036048762e-17 0)
(3 -9.902210986e-16 0)
(3 -7.026793501e-16 0)
(3 -3.783342259e-16 0)
(3 -5.202635587e-16 0)
(3 -3.569375289e-16 0)
(3 -6.6159244e-16 0)
(3 -7.300348001e-16 0)
(3 -2.028801695e-15 0)
(3 -2.878830774e-15 0)
(3 -4.519042238e-15 0)
(3 -6.107840523e-15 0)
(3 -5.298609624e-15 0)
(3 -4.872423572e-15 0)
(3 -3.886187254e-15 0)
(3 -2.373546738e-15 0)
(3 -1.313895285e-15 0)
(3 5.598081234e-16 0)
(3 3.14342255e-15 0)
(3 6.253745931e-15 0)
(3 5.652167239e-15 0)
(3 4.860972661e-15 0)
(3 2.198841033e-15 0)
(3 1.363879681e-15 0)
(3 1.387172198e-15 0)
(3 2.159490822e-15 0)
(3 1.146358915e-15 0)
(3 7.974722109e-16 0)
(3 -7.327972632e-16 0)
(3 -1.494689055e-15 0)
(3 -1.399693156e-15 0)
(3 -4.415501532e-16 0)
(3 2.676921786e-15 0)
(3 3.325402798e-15 0)
(3 4.039456329e-15 0)
(3 4.933889158e-15 0)
(3 4.592790768e-15 0)
(3 5.285366144e-15 0)
(3 5.68629238e-15 0)
(3 6.186301413e-15 0)
(3 4.266282691e-15 0)
(3 3.054801725e-15 0)
(3 1.924478099e-15 0)
(3 1.767979862e-15 0)
(3 3.002864432e-15 0)
(3 5.028468894e-15 0)
(3 5.694796273e-15 0)
(3 6.631102681e-15 0)
(3 8.096848525e-15 0)
(3 7.979116911e-15 0)
(3 6.458533695e-15 0)
(3 3.922542863e-15 0)
(3 2.791384309e-15 0)
(3 9.280776559e-16 0)
(3 -2.750897374e-15 0)
(3 -4.476243871e-15 0)
(3 -3.966284976e-15 0)
(3 -2.57202039e-15 0)
(3 -5.963583207e-16 0)
(3 -1.276440106e-15 0)
(3 -1.330641134e-15 0)
(3 6.364783513e-16 0)
(3 2.415632153e-15 0)
(3 3.624942143e-15 0)
(3 3.12937567e-15 0)
(3 1.200979168e-15 0)
(3 5.74726639e-16 0)
(3 5.855598399e-16 0)
(3 1.881194317e-16 0)
(3 -6.708135412e-16 0)
(3 -3.369919925e-16 0)
(3 -1.912849579e-16 0)
(3 8.169862641e-16 0)
(3 -2.249718064e-16 0)
(3 -2.406989648e-16 0)
(3 -5.274463788e-16 0)
(3 -8.204139496e-16 0)
(3 -2.405805119e-15 0)
(3 -2.178058107e-15 0)
(3 -1.59112572e-15 0)
(3 -1.088158205e-15 0)
(3 -1.179320356e-15 0)
(3 -1.614191937e-15 0)
(3 -1.679822882e-15 0)
(3 -1.050583916e-15 0)
(3 -5.524684415e-16 0)
(3 9.213306458e-16 0)
(3 -7.277796075e-17 0)
(3 -9.952643524e-16 0)
(3 -1.70674328e-15 0)
(3 -7.47683669e-16 0)
(3 1.25497244e-15 0)
(3 1.614373985e-15 0)
(3 6.10577247e-16 0)
(3 -3.969124477e-16 0)
(3 -1.408775352e-15 0)
(3 -1.785526999e-15 0)
(3 -2.767383187e-15 0)
(3 -2.020083141e-15 0)
(3 -1.482484054e-15 0)
(3 -2.855255462e-15 0)
(3 -3.840275117e-15 0)
(3 -2.207848429e-15 0)
(3 -1.762805639e-15 0)
(3 5.269503072e-16 0)
(3 3.903138999e-15 0)
(3 6.400366482e-15 0)
(3 5.814877041e-15 0)
(3 4.016743272e-15 0)
(3 1.891928652e-15 0)
(3 2.941638065e-15 0)
(3 2.534950656e-15 0)
(3 2.565398323e-15 0)
(3 2.850528836e-15 0)
(3 2.924195075e-15 0)
(3 3.080544906e-15 0)
(3 3.044677822e-15 0)
(3 2.611999528e-15 0)
(3 2.829878539e-15 0)
(3 3.865173007e-15 0)
(3 4.378115941e-15 0)
(3 3.887472134e-15 0)
(3 1.817238012e-15 0)
(3 2.31913084e-15 0)
(3 1.636478829e-15 0)
(3 1.106353023e-15 0)
(3 -5.147750996e-16 0)
(3 -1.885156154e-15 0)
(3 -2.753138864e-15 0)
(3 -2.028436578e-15 0)
(3 -2.735584557e-15 0)
(3 -2.16676055e-15 0)
(3 -9.663008829e-16 0)
(3 -2.755936916e-16 0)
(3 1.185338853e-15 0)
(3 6.614605609e-16 0)
(3 2.808186109e-16 0)
(3 -1.779984223e-16 0)
(3 -8.100142265e-16 0)
(3 4.654240613e-16 0)
(3 3.491963037e-16 0)
(3 -1.541724614e-16 0)
(3 3.35189415e-16 0)
(3 6.804601513e-16 0)
(3 6.276301037e-16 0)
(3 8.471591455e-16 0)
(3 1.502114773e-15 0)
(3 5.232209534e-16 0)
(3 -4.841060147e-17 0)
(3 -9.755345831e-16 0)
(3 -1.214303879e-15 0)
(3 -1.640486948e-15 0)
(3 -1.97089751e-15 0)
(3 -1.879714825e-15 0)
(3 -2.073204631e-15 0)
(3 -3.091796963e-15 0)
(3 -4.268226071e-15 0)
(3 -4.847886721e-15 0)
(3 -4.097329881e-15 0)
(3 -4.250636498e-15 0)
(3 -3.614160535e-15 0)
(3 -3.267714961e-15 0)
(3 -1.808684813e-15 0)
(3 -1.022542477e-15 0)
(3 -3.956857219e-16 0)
(3 -1.061457517e-15 0)
(3 -2.586375243e-15 0)
(3 -4.723422363e-15 0)
(3 -6.267383365e-15 0)
(3 -6.145371091e-15 0)
(3 -4.32517002e-15 0)
(3 -4.174574032e-15 0)
(3 5.556945142e-16 0)
(3 2.649621099e-15 0)
(3 3.155006924e-15 0)
(3 2.935954008e-15 0)
(3 3.690201136e-15 0)
(3 2.841052619e-15 0)
(3 2.091982856e-15 0)
(3 3.493409686e-16 0)
(3 4.163395652e-16 0)
(3 -1.222665196e-16 0)
(3 -1.335124202e-16 0)
(3 4.951233528e-16 0)
(3 2.633124736e-15 0)
(3 4.428146899e-15 0)
(3 5.41391255e-15 0)
(3 7.384814038e-15 0)
(3 7.613678276e-15 0)
(3 5.199315201e-15 0)
(3 1.082128889e-15 0)
(3 -1.200008564e-15 0)
(3 -1.466692618e-15 0)
(3 -2.675966899e-15 0)
(3 -4.694960086e-15 0)
(3 -5.609163182e-15 0)
(3 -6.440331308e-15 0)
(3 -7.162268661e-15 0)
(3 -7.572607943e-15 0)
(3 -5.295773025e-15 0)
(3 -2.398227988e-15 0)
(3 1.330064352e-15 0)
(3 3.639949894e-15 0)
(3 3.56790117e-15 0)
(3 3.610913258e-15 0)
(3 2.120933046e-15 0)
(3 1.876592448e-16 0)
(3 7.30399018e-17 0)
(3 -1.418069284e-15 0)
(3 -1.226869949e-15 0)
(3 -1.218593549e-15 0)
(3 -1.738310375e-16 0)
(3 1.333922518e-17 0)
(3 -1.053505452e-15 0)
(3 -8.63452298e-16 0)
(3 -3.972013331e-16 0)
(3 -3.566691567e-16 0)
(3 -7.409177334e-16 0)
(3 -2.154231944e-15 0)
(3 -2.64290509e-15 0)
(3 -3.195577013e-15 0)
(3 -2.406331956e-15 0)
(3 -2.179860522e-15 0)
(3 -2.15130629e-15 0)
(3 -2.877017714e-15 0)
(3 -4.660109972e-15 0)
(3 -4.590632066e-15 0)
(3 -4.382700774e-15 0)
(3 -3.928239713e-15 0)
(3 -3.219750772e-15 0)
(3 -3.19609952e-15 0)
(3 -2.294775304e-15 0)
(3 -3.001715486e-15 0)
(3 -3.504682826e-15 0)
(3 -5.821496349e-15 0)
(3 -6.315182111e-15 0)
(3 -8.274901335e-15 0)
(3 -8.531031289e-15 0)
(3 -8.206617377e-15 0)
(3 -6.20865773e-15 0)
(3 -3.412236622e-15 0)
(3 3.58155726e-16 0)
(3 2.067109781e-15 0)
(3 4.883643878e-15 0)
(3 4.081053663e-15 0)
(3 2.573075518e-15 0)
(3 1.853914912e-15 0)
(3 1.143447116e-15 0)
(3 9.646598444e-16 0)
(3 -3.081587629e-16 0)
(3 -8.724083274e-17 0)
(3 7.159369337e-16 0)
(3 2.409720007e-15 0)
(3 5.124479464e-15 0)
(3 6.471894035e-15 0)
(3 6.672930925e-15 0)
(3 7.399642901e-15 0)
(3 5.214257138e-15 0)
(3 3.097621014e-15 0)
(3 -6.048512275e-16 0)
(3 -4.476714921e-15 0)
(3 -4.96072656e-15 0)
(3 -5.698166192e-15 0)
(3 -6.557107893e-15 0)
(3 -6.62081811e-15 0)
(3 -6.651988449e-15 0)
(3 -5.986362474e-15 0)
(3 -3.815998533e-15 0)
(3 1.832887579e-15 0)
(3 5.405932438e-15 0)
(3 5.435173881e-15 0)
(3 5.083274097e-15 0)
(3 4.892898547e-15 0)
(3 3.311063536e-15 0)
(3 -1.727255939e-16 0)
(3 -8.113075154e-16 0)
(3 -1.038904952e-15 0)
(3 -9.076719731e-16 0)
(3 2.929253588e-16 0)
(3 4.753627452e-16 0)
(3 -5.82839132e-17 0)
(3 5.996530278e-16 0)
(3 3.131007016e-16 0)
(3 -4.34883576e-16 0)
(3 -1.439124781e-15 0)
(3 -1.076566726e-15 0)
(3 -9.635790309e-16 0)
(3 -1.190810887e-15 0)
(3 -1.578441712e-15 0)
(3 -6.871627933e-16 0)
(3 5.113364036e-16 0)
(3 4.935270489e-16 0)
(3 -1.522535642e-15 0)
(3 -2.311473025e-15 0)
(3 -3.478512651e-15 0)
(3 -4.189088811e-15 0)
(3 -5.04236457e-15 0)
(3 -4.338104718e-15 0)
(3 -4.470524184e-15 0)
(3 -3.767547982e-15 0)
(3 -3.112268084e-15 0)
(3 -3.552428513e-15 0)
(3 -3.942383463e-15 0)
(3 -4.619083585e-15 0)
(3 -3.997910767e-15 0)
(3 -3.774141299e-15 0)
(3 -4.15684715e-15 0)
(3 -3.611535426e-15 0)
(3 4.909966014e-16 0)
(3 3.936821623e-15 0)
(3 5.65588841e-15 0)
(3 4.753307847e-15 0)
(3 2.162910149e-15 0)
(3 2.050874231e-15 0)
(3 3.042416651e-15 0)
(3 2.718666242e-15 0)
(3 1.696110872e-15 0)
(3 1.742325819e-15 0)
(3 1.926169842e-15 0)
(3 3.473649247e-15 0)
(3 4.340151401e-15 0)
(3 6.307436875e-15 0)
(3 9.424806042e-15 0)
(3 1.07179899e-14 0)
(3 1.008720633e-14 0)
(3 9.090100512e-15 0)
(3 6.007111538e-15 0)
(3 3.152013511e-15 0)
(3 -4.028235118e-16 0)
(3 -3.286610489e-15 0)
(3 -3.451958266e-15 0)
(3 -2.873350623e-15 0)
(3 -2.83714804e-15 0)
(3 -2.656110663e-15 0)
(3 -2.501926155e-15 0)
(3 -2.068003415e-15 0)
(3 2.324626826e-15 0)
(3 5.519256692e-15 0)
(3 5.652337386e-15 0)
(3 5.472266007e-15 0)
(3 3.387086493e-15 0)
(3 5.607470617e-16 0)
(3 2.113399272e-15 0)
(3 1.819536454e-15 0)
(3 9.518107202e-16 0)
(3 1.012567073e-15 0)
(3 2.26180358e-15 0)
(3 2.334955308e-15 0)
(3 2.242415846e-15 0)
(3 2.103147184e-15 0)
(3 2.334526166e-15 0)
(3 2.202392963e-15 0)
(3 2.409918348e-15 0)
(3 1.332043417e-15 0)
(3 3.685252773e-16 0)
(3 8.271351512e-17 0)
(3 -8.732852482e-16 0)
(3 -1.412621317e-15 0)
(3 -1.488661306e-15 0)
(3 -2.091120996e-15 0)
(3 -4.585616557e-15 0)
(3 -5.298162202e-15 0)
(3 -5.147029958e-15 0)
(3 -3.454837845e-15 0)
(3 -2.951210724e-15 0)
(3 -2.293243981e-15 0)
(3 -1.094264082e-15 0)
(3 -1.083780291e-15 0)
(3 -1.001199235e-15 0)
(3 -2.158541497e-15 0)
(3 -1.604558561e-15 0)
(3 -8.055777484e-16 0)
(3 -1.432152918e-15 0)
(3 -1.616296491e-15 0)
(3 -8.742666502e-16 0)
(3 1.16994144e-15 0)
(3 3.485583131e-15 0)
(3 4.771013935e-15 0)
(3 4.071194988e-15 0)
(3 2.077708287e-15 0)
(3 9.746270351e-16 0)
(3 8.60401729e-16 0)
(3 3.397085872e-16 0)
(3 1.158115801e-15 0)
(3 1.43816015e-15 0)
(3 2.404310859e-15 0)
(3 3.262758122e-15 0)
(3 4.063394817e-15 0)
(3 5.829391091e-15 0)
(3 6.267563172e-15 0)
(3 6.828500476e-15 0)
(3 7.645760284e-15 0)
(3 8.021556294e-15 0)
(3 8.094428146e-15 0)
(3 7.044168841e-15 0)
(3 6.515214517e-15 0)
(3 3.741656896e-15 0)
(3 2.601947859e-15 0)
(3 1.065718356e-15 0)
(3 -1.669309805e-16 0)
(3 -6.4307633e-16 0)
(3 -2.029688283e-15 0)
(3 -4.204571798e-15 0)
(3 -2.929137379e-15 0)
(3 6.060218267e-16 0)
(3 1.830566792e-15 0)
(3 2.799487486e-16 0)
(3 -2.426888441e-16 0)
(3 2.641765203e-16 0)
(3 1.921216814e-15 0)
(3 1.499787138e-15 0)
(3 1.53481685e-15 0)
(3 1.625157959e-15 0)
(3 1.852114657e-15 0)
(3 2.079433175e-15 0)
(3 1.843527509e-15 0)
(3 1.866583036e-15 0)
(3 2.502575651e-15 0)
(3 2.301036772e-15 0)
(3 9.6268386e-16 0)
(3 3.196877839e-16 0)
(3 -1.361954162e-15 0)
(3 -1.771720779e-15 0)
(3 -2.208870158e-15 0)
(3 -3.632014356e-15 0)
(3 -4.081386198e-15 0)
(3 -5.319525601e-15 0)
(3 -6.639805734e-15 0)
(3 -6.465587654e-15 0)
(3 -4.349532389e-15 0)
(3 -2.737753741e-15 0)
(3 -1.082794965e-15 0)
(3 -4.615844566e-16 0)
(3 5.118000871e-16 0)
(3 2.859241448e-16 0)
(3 2.905070737e-16 0)
(3 7.468547041e-16 0)
(3 1.586827696e-15 0)
(3 1.589596008e-15 0)
(3 1.568844315e-15 0)
(3 1.73028726e-15 0)
(3 2.311530104e-15 0)
(3 2.723533042e-15 0)
(3 2.835363803e-15 0)
(3 2.703403988e-15 0)
(3 2.569398591e-15 0)
(3 1.62025703e-15 0)
(3 4.239554193e-16 0)
(3 -1.677424068e-15 0)
(3 -2.989109639e-15 0)
(3 -3.866917197e-15 0)
(3 -3.464547875e-15 0)
(3 -2.272628621e-15 0)
(3 -1.884900551e-15 0)
(3 -1.063783514e-15 0)
(3 5.602614127e-16 0)
(3 1.994839303e-15 0)
(3 2.84102029e-15 0)
(3 4.942065792e-15 0)
(3 6.209021461e-15 0)
(3 8.437849238e-15 0)
(3 9.81558121e-15 0)
(3 9.187959323e-15 0)
(3 8.597980033e-15 0)
(3 6.058305272e-15 0)
(3 2.980497344e-15 0)
(3 1.612513638e-15 0)
(3 1.57419761e-16 0)
(3 -1.880302802e-15 0)
(3 -4.481303913e-15 0)
(3 -5.510816731e-15 0)
(3 -5.89911502e-15 0)
(3 -3.266855533e-15 0)
(3 -2.257186396e-15 0)
(3 -1.862953979e-15 0)
(3 -3.797852791e-16 0)
(3 -1.539064421e-16 0)
(3 -4.238870298e-16 0)
(3 6.176498534e-16 0)
(3 3.503659176e-16 0)
(3 -9.626354122e-17 0)
(3 1.864276601e-17 0)
(3 1.157238899e-16 0)
(3 -3.070385296e-18 0)
(3 -7.876327288e-16 0)
(3 -1.73535682e-15 0)
(3 -2.833922555e-15 0)
(3 -3.556784258e-15 0)
(3 -3.215937193e-15 0)
(3 -3.291677792e-15 0)
(3 -1.921795426e-15 0)
(3 -2.017085714e-17 0)
(3 -7.688061614e-16 0)
(3 -1.811489781e-15 0)
(3 -1.82745686e-15 0)
(3 -1.456646937e-15 0)
(3 -5.333931564e-16 0)
(3 3.990269495e-16 0)
(3 7.658170285e-16 0)
(3 -1.204157511e-15 0)
(3 -2.515580254e-15 0)
(3 -2.613295732e-15 0)
(3 -1.313424964e-15 0)
(3 -1.08637445e-15 0)
(3 -9.802020026e-16 0)
(3 -7.74983731e-17 0)
(3 1.298736795e-15 0)
(3 1.533129237e-15 0)
(3 8.797249055e-16 0)
(3 6.892507007e-16 0)
(3 1.337006549e-15 0)
(3 2.473798806e-15 0)
(3 1.935895213e-15 0)
(3 1.214377419e-15 0)
(3 -6.8988607e-16 0)
(3 -1.98013453e-15 0)
(3 -3.209307323e-15 0)
(3 -4.658363103e-15 0)
(3 -4.529598754e-15 0)
(3 -4.759095255e-15 0)
(3 -3.515236431e-15 0)
(3 -2.645226906e-15 0)
(3 -8.658325999e-16 0)
(3 2.758927932e-18 0)
(3 2.907684845e-15 0)
(3 3.570516327e-15 0)
(3 5.796228966e-15 0)
(3 8.849329079e-15 0)
(3 1.079681304e-14 0)
(3 9.692840086e-15 0)
(3 7.446532229e-15 0)
(3 5.522510674e-15 0)
(3 4.26052763e-15 0)
(3 1.970118552e-15 0)
(3 9.719333676e-16 0)
(3 -4.80166789e-16 0)
(3 -2.153837688e-15 0)
(3 -3.629248488e-15 0)
(3 -3.917816401e-15 0)
(3 -1.838876273e-15 0)
(3 1.351887796e-15 0)
(3 1.579880706e-15 0)
(3 5.585554426e-16 0)
(3 -1.568904266e-15 0)
(3 -1.126674408e-15 0)
(3 -1.373223045e-15 0)
(3 -2.307955852e-15 0)
(3 -3.229132417e-15 0)
(3 -3.202873349e-15 0)
(3 -2.789621071e-15 0)
(3 -2.320086794e-15 0)
(3 -3.480934927e-15 0)
(3 -3.624557419e-15 0)
(3 -2.595963854e-15 0)
(3 -2.523881259e-15 0)
(3 -1.786305115e-15 0)
(3 -1.10336254e-15 0)
(3 2.008890717e-15 0)
(3 4.717398405e-15 0)
(3 5.184528561e-15 0)
(3 5.123133572e-15 0)
(3 4.972226611e-15 0)
(3 4.370965358e-15 0)
(3 2.690735966e-15 0)
(3 2.309816174e-15 0)
(3 2.231610597e-15 0)
(3 1.208032686e-15 0)
(3 3.696160068e-16 0)
(3 -1.050436088e-15 0)
(3 -1.041038373e-15 0)
(3 -1.994908885e-15 0)
(3 -2.338695148e-15 0)
(3 -3.824241164e-15 0)
(3 -3.582263651e-15 0)
(3 -3.450572562e-15 0)
(3 -4.351859847e-15 0)
(3 -5.538441582e-15 0)
(3 -4.690134048e-15 0)
(3 -2.415748071e-15 0)
(3 -4.049523869e-16 0)
(3 -3.293160843e-16 0)
(3 -2.895354239e-16 0)
(3 -2.299778346e-15 0)
(3 -3.578565791e-15 0)
(3 -3.186333598e-15 0)
(3 -3.364033142e-15 0)
(3 -3.877157615e-15 0)
(3 -2.317179913e-15 0)
(3 -6.844190866e-16 0)
(3 1.148149229e-15 0)
(3 2.70037163e-15 0)
(3 3.752143148e-15 0)
(3 5.702201445e-15 0)
(3 7.914169143e-15 0)
(3 7.187253591e-15 0)
(3 7.694766232e-15 0)
(3 7.748790422e-15 0)
(3 6.050125601e-15 0)
(3 5.570302208e-15 0)
(3 5.323441043e-15 0)
(3 4.103912334e-15 0)
(3 3.383306642e-15 0)
(3 1.576107361e-15 0)
(3 4.93212864e-16 0)
(3 -3.261360274e-15 0)
(3 -5.000465784e-15 0)
(3 -4.074646722e-15 0)
(3 -2.520961423e-15 0)
(3 -6.386146415e-16 0)
(3 -4.891364826e-16 0)
(3 -1.375542357e-15 0)
(3 -1.867688027e-15 0)
(3 -1.711152139e-15 0)
(3 -1.564859452e-15 0)
(3 -1.875484807e-15 0)
(3 -1.169341265e-15 0)
(3 -8.834918645e-16 0)
(3 -7.574786961e-16 0)
(3 4.435855517e-16 0)
(3 1.185658357e-15 0)
(3 1.363442039e-15 0)
(3 2.328543195e-15 0)
(3 2.359868645e-15 0)
(3 2.867499192e-15 0)
(3 3.391406537e-15 0)
(3 3.789846641e-15 0)
(3 6.261233666e-15 0)
(3 7.643617153e-15 0)
(3 7.075802267e-15 0)
(3 6.653498379e-15 0)
(3 4.765409941e-15 0)
(3 2.477935101e-15 0)
(3 -6.389608218e-16 0)
(3 -2.912226628e-16 0)
(3 -7.074655998e-16 0)
(3 -1.208922258e-15 0)
(3 -2.358494008e-15 0)
(3 -3.414777561e-15 0)
(3 -3.181941462e-15 0)
(3 -3.312688671e-15 0)
(3 -4.723708152e-15 0)
(3 -4.967325953e-15 0)
(3 -5.714957628e-15 0)
(3 -6.891931698e-15 0)
(3 -7.203792576e-15 0)
(3 -6.934071028e-15 0)
(3 -4.51414177e-15 0)
(3 -2.958450604e-15 0)
(3 -4.993927923e-16 0)
(3 -2.811332228e-16 0)
(3 4.043677233e-16 0)
(3 7.149876542e-16 0)
(3 9.557362608e-16 0)
(3 -8.206319784e-16 0)
(3 -2.139875121e-15 0)
(3 -3.276033806e-16 0)
(3 9.086548963e-16 0)
(3 2.08359956e-15 0)
(3 3.967131148e-15 0)
(3 4.351509264e-15 0)
(3 5.594374029e-15 0)
(3 4.028001384e-15 0)
(3 3.727546118e-15 0)
(3 2.504612399e-15 0)
(3 1.747453131e-15 0)
(3 2.377003252e-15 0)
(3 2.708438636e-15 0)
(3 1.74101214e-15 0)
(3 9.423737974e-16 0)
(3 1.69539702e-15 0)
(3 1.447748783e-15 0)
(3 -2.370002924e-16 0)
(3 -7.839403966e-16 0)
(3 -2.202656939e-15 0)
(3 -2.978136309e-15 0)
(3 -2.526734651e-15 0)
(3 5.261904525e-17 0)
(3 8.26655712e-16 0)
(3 2.361383799e-16 0)
(3 7.140069202e-16 0)
(3 1.304075087e-15 0)
(3 1.18425293e-15 0)
(3 1.634886656e-15 0)
(3 1.517318438e-15 0)
(3 1.214564587e-15 0)
(3 3.431201588e-15 0)
(3 3.611760154e-15 0)
(3 3.385558374e-15 0)
(3 2.771836327e-15 0)
(3 2.975184253e-15 0)
(3 4.564591323e-15 0)
(3 4.516232221e-15 0)
(3 3.558046256e-15 0)
(3 1.061513232e-15 0)
(3 1.110765535e-15 0)
(3 1.553520816e-15 0)
(3 2.38494539e-15 0)
(3 3.860606703e-15 0)
(3 3.928184161e-15 0)
(3 -5.766279401e-16 0)
(3 -1.312683084e-15 0)
(3 -1.264547106e-15 0)
(3 -1.287021537e-15 0)
(3 -2.664157745e-15 0)
(3 -3.696509399e-15 0)
(3 -2.961041502e-15 0)
(3 -2.516687175e-15 0)
(3 -3.802958575e-15 0)
(3 -3.807235674e-15 0)
(3 -4.751410096e-15 0)
(3 -5.509044248e-15 0)
(3 -6.848734852e-15 0)
(3 -8.256646855e-15 0)
(3 -7.977140842e-15 0)
(3 -2.444550488e-15 0)
(3 -8.630555552e-16 0)
(3 9.326182037e-16 0)
(3 4.170199835e-15 0)
(3 4.590343548e-15 0)
(3 5.801702265e-15 0)
(3 4.725284165e-15 0)
(3 3.157290758e-15 0)
(3 2.156692026e-15 0)
(3 1.457614801e-15 0)
(3 1.532685438e-15 0)
(3 5.154267487e-16 0)
(3 -1.735356664e-16 0)
(3 2.158938318e-15 0)
(3 2.244457822e-15 0)
(3 1.490225282e-15 0)
(3 6.814222039e-17 0)
(3 -1.210622771e-15 0)
(3 -1.163251958e-15 0)
(3 -8.340129236e-16 0)
(3 -2.059391649e-16 0)
(3 -1.504590786e-16 0)
(3 2.595755244e-15 0)
(3 4.234392849e-15 0)
(3 4.225928812e-15 0)
(3 5.425277545e-15 0)
(3 2.914488608e-15 0)
(3 8.108426096e-16 0)
(3 -1.758870089e-15 0)
(3 3.339169368e-16 0)
(3 2.036429209e-16 0)
(3 4.922188001e-16 0)
(3 7.397868574e-16 0)
(3 1.162891798e-15 0)
(3 1.647299887e-15 0)
(3 1.581627764e-15 0)
(3 1.985682343e-15 0)
(3 2.148245042e-16 0)
(3 -1.20970564e-15 0)
(3 -4.993812995e-16 0)
(3 3.745107364e-16 0)
(3 2.813909677e-16 0)
(3 -1.930121251e-18 0)
(3 6.665581083e-16 0)
(3 8.034276576e-16 0)
(3 -9.222703291e-16 0)
(3 -3.430878942e-15 0)
(3 -3.174056973e-15 0)
(3 -2.148915074e-15 0)
(3 -9.73344771e-16 0)
(3 4.136158544e-16 0)
(3 1.825636143e-15 0)
(3 5.834754136e-16 0)
(3 -2.267990028e-15 0)
(3 -2.152905174e-15 0)
(3 -1.629837486e-15 0)
(3 -2.39741431e-15 0)
(3 -2.737690481e-15 0)
(3 -3.969645681e-15 0)
(3 -4.511279079e-15 0)
(3 -3.25096197e-15 0)
(3 -3.515751032e-15 0)
(3 -3.653651645e-15 0)
(3 -4.221056222e-15 0)
(3 -7.287398702e-15 0)
(3 -1.079776731e-14 0)
(3 -9.706290804e-15 0)
(3 -5.95496339e-15 0)
(3 -1.565308471e-15 0)
(3 4.271412136e-15 0)
(3 7.342338348e-15 0)
(3 7.532367031e-15 0)
(3 8.559773517e-15 0)
(3 8.871271667e-15 0)
(3 7.381964067e-15 0)
(3 3.91998365e-15 0)
(3 -8.519450445e-16 0)
(3 -1.794718612e-15 0)
(3 -8.226460451e-16 0)
(3 -1.426018781e-15 0)
(3 -8.617369945e-16 0)
(3 -4.135556407e-17 0)
(3 -1.602633136e-16 0)
(3 -8.585756494e-16 0)
(3 -1.582465235e-15 0)
(3 -2.336624408e-15 0)
(3 -1.395017699e-15 0)
(3 4.32340861e-17 0)
(3 2.242836556e-15 0)
(3 4.026531021e-15 0)
(3 6.671309075e-15 0)
(3 7.896231586e-15 0)
(3 7.27130945e-15 0)
(3 4.2344804e-15 0)
(3 2.745011421e-15 0)
(3 1.781922149e-15 0)
(3 -2.912543869e-16 0)
(3 -1.026031478e-15 0)
(3 -8.429698265e-16 0)
(3 -9.697940503e-16 0)
(3 -1.20725247e-16 0)
(3 6.170908954e-16 0)
(3 1.207115399e-15 0)
(3 8.836095774e-16 0)
(3 5.519881577e-16 0)
(3 -1.24882897e-16 0)
(3 -9.439982757e-16 0)
(3 -6.981633685e-16 0)
(3 6.776030204e-17 0)
(3 -1.947782605e-16 0)
(3 -1.838327993e-15 0)
(3 -4.133507858e-15 0)
(3 -4.333437485e-15 0)
(3 -3.813440418e-15 0)
(3 -1.895346154e-15 0)
(3 -1.092478778e-15 0)
(3 -6.586797553e-16 0)
(3 -3.717085036e-16 0)
(3 2.682397613e-16 0)
(3 8.001791161e-16 0)
(3 7.304361841e-16 0)
(3 -2.330553957e-16 0)
(3 -1.136010944e-15 0)
(3 -5.367448144e-16 0)
(3 -4.626482423e-16 0)
(3 -9.066773317e-16 0)
(3 -1.767961465e-15 0)
(3 -2.718251673e-15 0)
(3 -3.623226811e-15 0)
(3 -3.881667547e-15 0)
(3 -4.680277493e-15 0)
(3 -8.386926105e-15 0)
(3 -1.199663634e-14 0)
(3 -1.190819425e-14 0)
(3 -9.477412072e-15 0)
(3 -6.635244994e-15 0)
(3 -1.344429117e-15 0)
(3 2.146193793e-15 0)
(3 6.340649344e-15 0)
(3 7.727803258e-15 0)
(3 7.073503531e-15 0)
(3 6.044468572e-15 0)
(3 4.99191941e-15 0)
(3 3.033727297e-15 0)
(3 1.071230826e-15 0)
(3 -6.016640563e-16 0)
(3 -1.127552179e-15 0)
(3 -1.632013558e-15 0)
(3 -1.642896039e-15 0)
(3 -1.00910717e-15 0)
(3 -5.637125782e-16 0)
(3 -5.628699717e-16 0)
(3 -1.043566233e-15 0)
(3 1.451490363e-16 0)
(3 2.040988156e-15 0)
(3 2.781338877e-15 0)
(3 4.208806261e-15 0)
(3 6.448974008e-15 0)
(3 7.642554396e-15 0)
(3 7.45066588e-15 0)
(3 7.19437102e-15 0)
(3 6.995899113e-15 0)
(3 4.807021492e-15 0)
(3 -6.560314292e-16 0)
(3 -7.224410542e-17 0)
(3 3.389018083e-16 0)
(3 1.678448877e-15 0)
(3 1.298289501e-15 0)
(3 2.337216882e-15 0)
(3 1.715079907e-15 0)
(3 7.930232986e-16 0)
(3 1.36071498e-15 0)
(3 1.691087971e-15 0)
(3 1.464306849e-15 0)
(3 1.238414908e-15 0)
(3 1.446916086e-15 0)
(3 1.193892023e-15 0)
(3 -1.512655731e-15 0)
(3 -3.393626135e-15 0)
(3 -1.784351119e-15 0)
(3 -2.65664401e-16 0)
(3 3.690515058e-16 0)
(3 1.255929832e-15 0)
(3 8.518332542e-16 0)
(3 1.122303794e-15 0)
(3 1.167027223e-15 0)
(3 1.838703301e-15 0)
(3 2.30103291e-15 0)
(3 1.64503796e-15 0)
(3 6.077596854e-16 0)
(3 -8.992808187e-16 0)
(3 -1.257724905e-15 0)
(3 5.622666837e-17 0)
(3 1.161761312e-16 0)
(3 -2.442673299e-15 0)
(3 -3.592318693e-15 0)
(3 -4.964498654e-15 0)
(3 -5.707911371e-15 0)
(3 -7.383600713e-15 0)
(3 -7.748785642e-15 0)
(3 -1.030955066e-14 0)
(3 -8.614474302e-15 0)
(3 -7.929537251e-15 0)
(3 -4.862661786e-15 0)
(3 -5.699881101e-16 0)
(3 4.175478634e-15 0)
(3 6.164037061e-15 0)
(3 6.639075935e-15 0)
(3 6.584149639e-15 0)
(3 4.899663291e-15 0)
(3 1.768766494e-15 0)
(3 -1.077370948e-17 0)
(3 -2.019917373e-15 0)
(3 -1.740166094e-15 0)
(3 -1.085970608e-15 0)
(3 -9.978313956e-16 0)
(3 -1.646986223e-15 0)
(3 -1.19922592e-15 0)
(3 3.121214068e-16 0)
(3 1.795051427e-15 0)
(3 1.655294783e-15 0)
(3 2.370534249e-15 0)
(3 3.237633558e-15 0)
(3 4.609781429e-15 0)
(3 5.45911322e-15 0)
(3 6.453911347e-15 0)
(3 6.237849292e-15 0)
(3 4.425715571e-15 0)
(3 2.350507961e-15 0)
(3 1.313667178e-15 0)
(3 -3.093823153e-16 0)
(3 3.276172343e-16 0)
(3 7.858050865e-16 0)
(3 1.217802799e-15 0)
(3 1.369091403e-15 0)
(3 9.081944269e-16 0)
(3 3.043773184e-16 0)
(3 -7.491112236e-16 0)
(3 -4.978596299e-16 0)
(3 4.615858809e-16 0)
(3 9.898127251e-16 0)
(3 6.475243418e-16 0)
(3 3.509048297e-16 0)
(3 -2.37952762e-16 0)
(3 -8.486136597e-16 0)
(3 -1.065792632e-16 0)
(3 -2.65186722e-16 0)
(3 -7.641749174e-17 0)
(3 -3.741348293e-16 0)
(3 -7.842010261e-17 0)
(3 -9.883497097e-16 0)
(3 -1.168085667e-15 0)
(3 -2.488722602e-15 0)
(3 -1.825936337e-15 0)
(3 -1.39014166e-15 0)
(3 -1.457398327e-15 0)
(3 -1.411257477e-15 0)
(3 -1.268073836e-15 0)
(3 -3.087785759e-17 0)
(3 1.523789013e-15 0)
(3 1.383954246e-15 0)
(3 2.434098505e-15 0)
(3 2.370654329e-15 0)
(3 -9.535549834e-16 0)
(3 -4.199408816e-15 0)
(3 -5.274905758e-15 0)
(3 -4.69188437e-15 0)
(3 -5.174326499e-15 0)
(3 -6.70006653e-15 0)
(3 -7.141591603e-15 0)
(3 -6.098499459e-15 0)
(3 -2.646050206e-15 0)
(3 -1.763387e-16 0)
(3 4.912285219e-15 0)
(3 4.970682934e-15 0)
(3 4.874371822e-15 0)
(3 1.900159431e-15 0)
(3 -1.120150131e-15 0)
(3 -2.353130256e-15 0)
(3 -2.835752938e-15 0)
(3 -4.316870395e-15 0)
(3 -4.900773679e-15 0)
(3 -4.832727544e-15 0)
(3 -1.248971371e-15 0)
(3 1.353604337e-15 0)
(3 2.604447576e-15 0)
(3 4.465205825e-15 0)
(3 4.940814296e-15 0)
(3 5.107410606e-15 0)
(3 5.244195192e-15 0)
(3 6.1374661e-15 0)
(3 5.207204329e-15 0)
(3 4.303579611e-15 0)
(3 3.487410141e-15 0)
(3 1.16800685e-15 0)
(3 -2.73205966e-15 0)
(3 -2.170294994e-15 0)
(3 7.390941935e-16 0)
(3 1.095045543e-15 0)
(3 1.495984838e-15 0)
(3 1.255946851e-15 0)
(3 7.037920143e-16 0)
(3 4.040558299e-16 0)
(3 3.034675727e-16 0)
(3 -1.05814954e-16 0)
(3 -6.924185999e-16 0)
(3 -8.926754054e-16 0)
(3 -1.677939602e-15 0)
(3 -1.238309348e-15 0)
(3 -1.835503022e-15 0)
(3 -2.45424784e-15 0)
(3 -5.206094101e-16 0)
(3 4.118369495e-16 0)
(3 -1.164641366e-15 0)
(3 -2.66647156e-15 0)
(3 -3.337069211e-15 0)
(3 -4.543513223e-15 0)
(3 -5.009469322e-15 0)
(3 -6.850367718e-15 0)
(3 -7.162998451e-15 0)
(3 -7.562741663e-15 0)
(3 -5.953032259e-15 0)
(3 -4.839550645e-15 0)
(3 -4.348394152e-15 0)
(3 -2.574792716e-15 0)
(3 1.54279291e-15 0)
(3 2.106936429e-15 0)
(3 3.022872754e-15 0)
(3 4.027710936e-15 0)
(3 3.373077941e-15 0)
(3 1.961841601e-15 0)
(3 -1.436708105e-15 0)
(3 -4.20763173e-16 0)
(3 3.116565161e-16 0)
(3 -9.296960795e-16 0)
(3 -3.64700665e-15 0)
(3 -5.64371194e-15 0)
(3 -3.547655026e-15 0)
(3 -9.757663738e-16 0)
(3 -3.432217431e-16 0)
(3 1.142717588e-15 0)
(3 -7.843803876e-16 0)
(3 -2.374527085e-15 0)
(3 -2.120177362e-15 0)
(3 -2.013452849e-15 0)
(3 -1.176825374e-15 0)
(3 -2.820148906e-15 0)
(3 -4.012436499e-15 0)
(3 -3.787225839e-15 0)
(3 -1.86341553e-15 0)
(3 1.836920323e-15 0)
(3 2.821785365e-15 0)
(3 4.574590822e-15 0)
(3 4.557768557e-15 0)
(3 3.866816002e-15 0)
(3 3.631129344e-15 0)
(3 2.635289661e-15 0)
(3 2.198662216e-15 0)
(3 2.202212504e-15 0)
(3 1.291677337e-15 0)
(3 -1.837574879e-16 0)
(3 -8.611470742e-16 0)
(3 -1.273926495e-15 0)
(3 -1.380987817e-15 0)
(3 1.032413108e-15 0)
(3 1.401230838e-15 0)
(3 1.146900483e-15 0)
(3 4.233529926e-16 0)
(3 4.858238029e-16 0)
(3 9.487157907e-16 0)
(3 1.130318933e-15 0)
(3 1.789695174e-15 0)
(3 1.054778004e-15 0)
(3 -2.409881566e-16 0)
(3 -6.158365734e-16 0)
(3 5.737684673e-16 0)
(3 1.47247801e-15 0)
(3 1.977147471e-15 0)
(3 2.947047071e-15 0)
(3 1.826918911e-15 0)
(3 -5.165979335e-16 0)
(3 -2.585501913e-15 0)
(3 -5.153049429e-15 0)
(3 -5.23590978e-15 0)
(3 -6.033512788e-15 0)
(3 -7.107247761e-15 0)
(3 -7.480977385e-15 0)
(3 -8.338276787e-15 0)
(3 -7.381531724e-15 0)
(3 -5.51259067e-15 0)
(3 -4.36410362e-15 0)
(3 -2.19881432e-15 0)
(3 -6.860765456e-16 0)
(3 -1.521850194e-15 0)
(3 7.803398959e-16 0)
(3 1.126874403e-15 0)
(3 2.640513674e-16 0)
(3 4.512944105e-16 0)
(3 -4.16845738e-17 0)
(3 2.455426219e-16 0)
(3 2.361417304e-15 0)
(3 3.61483994e-15 0)
(3 3.568116011e-15 0)
(3 2.37152647e-15 0)
(3 4.93905891e-16 0)
(3 -6.196725081e-16 0)
(3 -2.979587651e-15 0)
(3 -3.024960494e-15 0)
(3 -3.483064651e-15 0)
(3 -3.008462003e-15 0)
(3 -1.812601746e-15 0)
(3 -2.526287772e-15 0)
(3 -3.235825704e-15 0)
(3 -3.255431643e-15 0)
(3 -1.700138163e-15 0)
(3 -3.659389711e-16 0)
(3 -6.183726406e-16 0)
(3 8.119941634e-16 0)
(3 1.782337335e-15 0)
(3 3.339254727e-15 0)
(3 2.56319867e-15 0)
(3 2.346113899e-15 0)
(3 5.950704705e-16 0)
(3 -5.973940498e-16 0)
(3 -3.329811893e-15 0)
(3 -3.93230096e-15 0)
(3 -3.636048537e-15 0)
(3 -2.06755515e-15 0)
(3 -6.971188235e-16 0)
(3 6.751478637e-16 0)
(3 -1.349318766e-16 0)
(3 -3.452329079e-16 0)
(3 -1.622794073e-15 0)
(3 -2.150752921e-15 0)
(3 -2.235173473e-15 0)
(3 -7.592977515e-16 0)
(3 -7.754209462e-17 0)
(3 -1.198345405e-16 0)
(3 -6.214793217e-16 0)
(3 3.153058156e-17 0)
(3 1.347674435e-15 0)
(3 2.853481691e-15 0)
(3 4.072580697e-15 0)
(3 6.428000089e-15 0)
(3 7.141941156e-15 0)
(3 5.506051367e-15 0)
(3 3.023433701e-15 0)
(3 1.668860972e-15 0)
(3 -5.091743823e-16 0)
(3 -3.464821987e-15 0)
(3 -3.737122425e-15 0)
(3 -3.680461728e-15 0)
(3 -2.948477555e-15 0)
(3 -3.964180871e-15 0)
(3 -3.305014137e-15 0)
(3 -1.498463457e-15 0)
(3 -2.178459238e-16 0)
(3 -3.382706607e-16 0)
(3 -7.125483764e-16 0)
(3 -1.475868674e-15 0)
(3 -3.390082575e-16 0)
(3 -5.040541952e-16 0)
(3 -1.871151595e-15 0)
(3 -3.312144023e-15 0)
(3 -1.861263687e-15 0)
(3 -9.98684651e-16 0)
(3 5.368457211e-17 0)
(3 3.469691587e-15 0)
(3 6.033408374e-15 0)
(3 6.201305564e-15 0)
(3 6.896107499e-15 0)
(3 4.724269588e-15 0)
(3 1.122332002e-15 0)
(3 -8.347769519e-17 0)
(3 -1.240940457e-15 0)
(3 -1.188009506e-15 0)
(3 3.468503885e-16 0)
(3 1.914345963e-15 0)
(3 1.251572436e-15 0)
(3 -1.488680936e-18 0)
(3 3.775275475e-16 0)
(3 2.390262479e-15 0)
(3 2.948842893e-15 0)
(3 2.13090946e-15 0)
(3 -1.763475791e-15 0)
(3 -5.67646093e-15 0)
(3 -4.855582248e-15 0)
(3 -3.148095016e-15 0)
(3 4.542215913e-16 0)
(3 5.755935657e-16 0)
(3 2.55074353e-16 0)
(3 -5.529546657e-16 0)
(3 -3.873815177e-15 0)
(3 -4.257374686e-15 0)
(3 -2.192967906e-15 0)
(3 -1.247532546e-15 0)
(3 -1.505756849e-15 0)
(3 -1.678096325e-15 0)
(3 -4.856549371e-17 0)
(3 -5.373084076e-16 0)
(3 -1.827205744e-15 0)
(3 -1.509601995e-15 0)
(3 -1.304848632e-15 0)
(3 -8.012218483e-16 0)
(3 -9.932013449e-16 0)
(3 -4.604187379e-16 0)
(3 6.029436446e-16 0)
(3 2.289912278e-15 0)
(3 2.982706058e-15 0)
(3 6.104034147e-15 0)
(3 6.998287714e-15 0)
(3 6.068608259e-15 0)
(3 5.573305072e-15 0)
(3 3.760116076e-15 0)
(3 3.516239683e-15 0)
(3 1.728383994e-15 0)
(3 -5.880697334e-16 0)
(3 -2.391926538e-15 0)
(3 -1.756114325e-15 0)
(3 -1.534454475e-15 0)
(3 3.468853657e-16 0)
(3 7.273075131e-16 0)
(3 2.943899718e-15 0)
(3 6.036095603e-15 0)
(3 7.017341899e-15 0)
(3 4.693349535e-15 0)
(3 2.004262207e-15 0)
(3 1.022286852e-15 0)
(3 -2.100685931e-15 0)
(3 -6.261091442e-15 0)
(3 -7.612792791e-15 0)
(3 -7.307957109e-15 0)
(3 -4.827917995e-15 0)
(3 -1.065555518e-15 0)
(3 2.730808395e-15 0)
(3 3.880473587e-15 0)
(3 3.680769196e-15 0)
(3 3.48011981e-15 0)
(3 2.96987928e-15 0)
(3 3.523236441e-15 0)
(3 2.520303845e-15 0)
(3 2.118310781e-15 0)
(3 1.782479558e-15 0)
(3 1.407532399e-15 0)
(3 1.881053089e-15 0)
(3 2.129052767e-15 0)
(3 2.498321152e-15 0)
(3 1.723172571e-15 0)
(3 1.571530161e-15 0)
(3 6.106638126e-16 0)
(3 -3.44781127e-15 0)
(3 -8.905743213e-15 0)
(3 -1.146171275e-14 0)
(3 -1.050662098e-14 0)
(3 -8.357425666e-15 0)
(3 -6.549134973e-15 0)
(3 -2.092386714e-15 0)
(3 -2.982769305e-16 0)
(3 -4.037207507e-16 0)
(3 -9.226686883e-16 0)
(3 -2.178754119e-15 0)
(3 -2.240551993e-15 0)
(3 -1.326477397e-15 0)
(3 -3.217329793e-16 0)
(3 -5.435640987e-16 0)