/*--------------------------------*- C++ -*----------------------------------*\
  =========                 |
  \\      /  F ield         | OpenFOAM: The Open Source CFD Toolbox
   \\    /   O peration     | Website:  https://openfoam.org
    \\  /    A nd           | Version:  7
     \\/     M anipulation  |
\*---------------------------------------------------------------------------*/
FoamFile
{
    version     2.0;
    format      ascii;
    class       volScalarField;
    location    "1.3";
    object      T;
}
// * * * * * * * * * * * * * * * * * * * * * * * * * * * * * * * * * * * * * //

dimensions      [0 0 0 1 0 0 0];

internalField   nonuniform List<scalar> 5(0.9932963412 0.9577795494 0.9775495378 0.9587080036 0.9668481212);

boundaryField
{
    inlet
    {
        type            fixedValue;
        value           nonuniform 0();
    }
    outlet
    {
        type            inletOutlet;
        inletValue      nonuniform 0();
        value           nonuniform 0();
    }
    bottom
    {
        type            slip;
    }
    top
    {
        type            slip;
    }
    obstacle
    {
        type            zeroGradient;
    }
    defaultFaces
    {
        type            empty;
    }
    procBoundary15to4
    {
        type            processor;
        value           uniform 0.9990661004;
    }
    procBoundary15to9
    {
        type            processor;
        value           nonuniform List<scalar> 3(1.017267888 1.052654365 1.052654365);
    }
    procBoundary15to10
    {
        type            processor;
        value           nonuniform List<scalar> 4(1.02413484 0.9911042424 0.9911042424 1.005272084);
    }
    procBoundary15to21
    {
        type            processor;
        value           uniform 0.9750867241;
    }
}


// ************************************************************************* //
