/*--------------------------------*- C++ -*----------------------------------*\
  =========                 |
  \\      /  F ield         | OpenFOAM: The Open Source CFD Toolbox
   \\    /   O peration     | Website:  https://openfoam.org
    \\  /    A nd           | Version:  7
     \\/     M anipulation  |
\*---------------------------------------------------------------------------*/
FoamFile
{
    version     2.0;
    format      ascii;
    class       volVectorField;
    location    "3";
    object      U;
}
// * * * * * * * * * * * * * * * * * * * * * * * * * * * * * * * * * * * * * //

dimensions      [0 1 -1 0 0 0 0];

internalField   nonuniform List<vector> 
138
(
(2.999999987 1.729968235e-08 0)
(2.999999889 1.97976665e-07 0)
(2.999999591 6.175277194e-07 0)
(2.999997785 3.958106469e-06 0)
(2.999993202 1.105660274e-05 0)
(2.999971783 5.11702276e-05 0)
(2.999929942 0.0001863696487 0)
(2.999860575 0.0002822254065 0)
(3 -2.633025621e-12 0)
(3 -5.026297281e-12 0)
(3 -8.386721086e-12 0)
(3 -1.041005626e-11 0)
(3 -1.217785831e-11 0)
(3 -1.979189189e-11 0)
(3 -2.016164142e-11 0)
(3 -1.899728505e-11 0)
(3 -2.397635885e-11 0)
(3 7.176999118e-12 0)
(3 -1.269319983e-10 0)
(3 5.882971745e-10 0)
(2.999999999 6.242754246e-10 0)
(2.999999991 1.585408963e-08 0)
(2.999999954 6.797885314e-08 0)
(2.999999216 1.838023402e-06 0)
(3.000000722 -1.406345751e-06 0)
(3 -2.38554623e-13 0)
(3 -6.225481615e-13 0)
(3 -1.599843626e-12 0)
(3 -2.55837769e-12 0)
(3 -4.811569579e-12 0)
(3 -7.318874031e-12 0)
(3 -1.039792319e-11 0)
(3 -1.398506828e-11 0)
(3 -1.283904861e-11 0)
(3 -1.406375264e-11 0)
(3 -1.376720572e-11 0)
(3 -1.440726857e-11 0)
(3 -1.068179352e-11 0)
(3 -3.968516088e-11 0)
(2.999999998 3.402143606e-09 0)
(3.000000126 -2.177462714e-07 0)
(3 4.604638703e-15 0)
(3 -9.545734849e-16 0)
(3 -2.926639524e-14 0)
(3 -1.278127413e-13 0)
(3 -2.841926911e-13 0)
(3 -6.901933461e-13 0)
(3 -1.40817562e-12 0)
(3 -2.841799706e-12 0)
(3 -4.424464997e-12 0)
(3 -6.031746014e-12 0)
(3 -7.386002788e-12 0)
(3 -9.417695974e-12 0)
(3 -9.434382904e-12 0)
(3 -1.557791248e-11 0)
(3 -1.446296488e-11 0)
(3.000000006 -1.079424868e-08 0)
(3 7.251020131e-15 0)
(3 6.629857836e-15 0)
(3 5.403125591e-15 0)
(3 4.44463578e-15 0)
(3 7.509195163e-16 0)
(3 -7.124018535e-15 0)
(3 -3.628964172e-14 0)
(3 -1.185766244e-13 0)
(3 -3.779249658e-13 0)
(3 -8.569657769e-13 0)
(3 -1.569867519e-12 0)
(3 -2.640484301e-12 0)
(3 -4.021758942e-12 0)
(3 -5.443915981e-12 0)
(3 -6.924633221e-12 0)
(3 -1.302101028e-10 0)
(3 8.84391769e-15 0)
(3 9.778322236e-15 0)
(3 1.142238982e-14 0)
(3 1.209439503e-14 0)
(3 1.150207648e-14 0)
(3 1.020180621e-14 0)
(3 9.413365048e-15 0)
(3 7.350598207e-15 0)
(3 3.202531054e-15 0)
(3 -1.377130275e-14 0)
(3 -6.181983447e-14 0)
(3 -1.718427724e-13 0)
(3 -4.292374092e-13 0)
(3 -7.803191328e-13 0)
(3 -1.263105805e-12 0)
(3 -2.384872582e-12 0)
(3 -1.558714199e-16 0)
(3 1.651150911e-15 0)
(3 4.16428332e-15 0)
(3 5.714285478e-15 0)
(3 5.866129732e-15 0)
(3 5.485239107e-15 0)
(3 6.129289879e-15 0)
(3 7.141682976e-15 0)
(3 7.276023186e-15 0)
(3 6.2839906e-15 0)
(3 6.426298474e-15 0)
(3 6.298999947e-15 0)
(3 1.347288756e-15 0)
(3 -1.559205237e-14 0)
(3 -9.361341077e-14 0)
(3 -8.570891339e-14 0)
(3 5.052193152e-15 0)
(3 4.987731624e-15 0)
(3 5.018634848e-15 0)
(3 3.534824829e-15 0)
(3 2.495394749e-15 0)
(3 2.575854285e-15 0)
(3 2.576058071e-15 0)
(3 3.916193531e-15 0)
(3 4.458542219e-15 0)
(3 5.430633836e-15 0)
(3 5.591235165e-15 0)
(3 5.865776406e-15 0)
(3 4.825998391e-15 0)
(3 5.078507684e-15 0)
(3 2.054152039e-15 0)
(3 4.646899431e-16 0)
(3 4.848297239e-15 0)
(3 3.210826789e-15 0)
(3 4.544472522e-16 0)
(3 -1.611408506e-15 0)
(3 -1.479883142e-15 0)
(3 -2.920150664e-15 0)
(3 -3.677001031e-15 0)
(3 -2.767530421e-15 0)
(3 -1.040332373e-15 0)
(3 1.358207671e-15 0)
(3 3.363677515e-15 0)
(3 3.504089468e-15 0)
(3 2.336418259e-15 0)
(3 1.434978433e-15 0)
(3 -1.208978753e-15 0)
(3 -1.910642834e-15 0)
(3 3.452349568e-15 0)
)
;

boundaryField
{
    inlet
    {
        type            fixedValue;
        value           nonuniform 0();
    }
    outlet
    {
        type            inletOutlet;
        inletValue      nonuniform 0();
        value           nonuniform 0();
    }
    bottom
    {
        type            slip;
    }
    top
    {
        type            slip;
    }
    obstacle
    {
        type            slip;
    }
    defaultFaces
    {
        type            empty;
    }
    procBoundary26to20
    {
        type            processor;
        value           nonuniform List<vector> 
18
(
(2.999987658 2.104748361e-05 0)
(2.999961764 6.365228627e-05 0)
(2.999887016 0.0002010690521 0)
(2.999702525 0.0005182289019 0)
(2.999273895 0.001358678871 0)
(2.998354315 0.003048443547 0)
(2.996715233 0.006622015403 0)
(2.994390614 0.01093743827 0)
(3 -1.94970174e-11 0)
(3 -1.952305582e-11 0)
(3 -1.908362511e-11 0)
(3 -1.932577388e-11 0)
(3 -1.6394899e-11 0)
(3 -7.916706578e-11 0)
(3 5.555084984e-10 0)
(3 -6.321694899e-10 0)
(2.999999996 8.526968973e-09 0)
(2.999999996 8.526968973e-09 0)
)
;
    }
    procBoundary26to25
    {
        type            processor;
        value           nonuniform List<vector> 9((3 -9.236021271e-13 0) (3 -4.955510175e-14 0) (3 -4.955510175e-14 0) (3 3.975753009e-15 0) (3 6.576291154e-15 0) (3 8.94611289e-15 0) (3 2.025241991e-16 0) (3 4.749549893e-15 0) (3 5.293809116e-15 0));
    }
    procBoundary26to27
    {
        type            processor;
        value           nonuniform List<vector> 3((2.99743896 0.006259249657 0) (2.999824173 0.0004178462031 0) (2.999996522 7.728674212e-06 0));
    }
    procBoundary26to31
    {
        type            processor;
        value           uniform (3 3.459019544e-15 0);
    }
    procBoundary26to32
    {
        type            processor;
        value           nonuniform List<vector> 
17
(
(3 3.339611918e-15 0)
(3 3.327194957e-15 0)
(3 3.457396153e-15 0)
(3 2.817627627e-15 0)
(3 8.483365983e-16 0)
(3 4.704035915e-16 0)
(3 -3.772708366e-16 0)
(3 -4.227952235e-16 0)
(3 1.133209241e-16 0)
(3 2.09140145e-15 0)
(3 2.147024607e-15 0)
(3 2.0732496e-15 0)
(3 1.547589782e-15 0)
(3 2.061729253e-15 0)
(3 3.258339249e-15 0)
(3 3.339611918e-15 0)
(3 -5.095219303e-16 0)
)
;
    }
    procBoundary26to33
    {
        type            processor;
        value           nonuniform List<vector> 6((2.999999965 8.143727213e-08 0) (3 1.026224084e-10 0) (3 -2.337923176e-12 0) (3 -1.320579952e-12 0) (3 -5.005047805e-13 0) (3 -1.257867064e-13 0));
    }
}


// ************************************************************************* //
