/*--------------------------------*- C++ -*----------------------------------*\
  =========                 |
  \\      /  F ield         | OpenFOAM: The Open Source CFD Toolbox
   \\    /   O peration     | Website:  https://openfoam.org
    \\  /    A nd           | Version:  7
     \\/     M anipulation  |
\*---------------------------------------------------------------------------*/
FoamFile
{
    version     2.0;
    format      ascii;
    class       volScalarField;
    location    "2";
    object      T;
}
// * * * * * * * * * * * * * * * * * * * * * * * * * * * * * * * * * * * * * //

dimensions      [0 0 0 1 0 0 0];

internalField   nonuniform List<scalar> 
2222
(
1.117091387
1.117169284
1.117447081
1.117796027
1.118241609
1.118795131
1.119413896
1.120083668
1.120878372
1.121838141
1.122500665
1.122632204
1.122545374
1.122276279
1.121978287
1.122139801
1.122363102
1.122616519
1.122781929
1.123013436
1.122877661
1.122912273
1.12423941
1.155536305
1.327766678
1.414416467
1.444272886
1.44909678
1.447895726
1.445717578
1.442623492
1.434194448
1.427754381
1.410785367
1.117261295
1.117383836
1.117756282
1.118213878
1.118539041
1.118902576
1.119374546
1.119918722
1.120572644
1.121624502
1.122436012
1.122602744
1.122600213
1.122361383
1.12219001
1.122345999
1.122485745
1.122743272
1.122971668
1.122955625
1.122709309
1.122454136
1.123520214
1.149966696
1.319005546
1.410551197
1.440766058
1.446960872
1.447244663
1.447002083
1.444528949
1.436585669
1.429170125
1.411313788
1.117357207
1.117563951
1.11796561
1.118433788
1.118817086
1.119031162
1.119390688
1.119846808
1.120432328
1.121298387
1.122250304
1.122639802
1.122636251
1.122520765
1.122384872
1.122414528
1.122524696
1.122726525
1.122984092
1.122891854
1.122577828
1.122168672
1.122957439
1.14492589
1.309141821
1.406269875
1.436926681
1.44521026
1.446904692
1.447825298
1.446639831
1.439336753
1.430416747
1.412009956
1.117315814
1.117602863
1.118084354
1.118586261
1.119007108
1.119477587
1.119828031
1.12011429
1.120558988
1.121236534
1.121967757
1.122440836
1.122550583
1.122627178
1.122366733
1.122080428
1.122149035
1.12237129
1.122770761
1.122798862
1.122504704
1.121999304
1.122610033
1.140723142
1.298728071
1.400391391
1.434015962
1.444459945
1.446922919
1.448162857
1.448103224
1.441483349
1.431630788
1.412894759
1.117341605
1.117532426
1.118028905
1.118647026
1.119209956
1.119703893
1.120203243
1.120627975
1.121049997
1.121428183
1.12192463
1.12221622
1.122273125
1.12224478
1.121933748
1.1214455
1.121221177
1.121460464
1.122074068
1.122448185
1.122308416
1.121761047
1.122250668
1.137313536
1.28700529
1.394929061
1.432888636
1.444357076
1.446799834
1.448507274
1.44897039
1.443120714
1.432692293
1.413961722
1.117505074
1.117633583
1.118009833
1.118619134
1.119335625
1.119950929
1.120503423
1.121047382
1.121643889
1.121990852
1.122141129
1.122272883
1.122287322
1.122084496
1.12168935
1.121184898
1.120724941
1.120539737
1.120768797
1.121358426
1.121611545
1.121413592
1.121872569
1.134492282
1.273839712
1.390220109
1.431612141
1.44466894
1.446626151
1.449139167
1.449106241
1.443555941
1.433728997
1.415101021
1.117716267
1.117866646
1.118173864
1.118680784
1.119406111
1.120180536
1.120811635
1.121387953
1.122097418
1.122591974
1.122612163
1.12251921
1.122511733
1.122172811
1.121618666
1.121024262
1.120442063
1.119937008
1.119663391
1.119696761
1.120217169
1.120971121
1.121750711
1.132150597
1.259129218
1.385113411
1.430646866
1.444849297
1.446571176
1.450104047
1.449352263
1.443980095
1.43455099
1.415953484
1.118061125
1.118364552
1.11860313
1.118914474
1.119532601
1.120297225
1.121038893
1.121685202
1.122415896
1.12293206
1.122979846
1.122880411
1.122799748
1.122336306
1.121630057
1.120922865
1.120231974
1.119559501
1.119131748
1.119010448
1.119124897
1.119772153
1.121286446
1.130087494
1.243630171
1.380528305
1.429809774
1.444441403
1.446547746
1.451575546
1.450052806
1.444647893
1.434698251
1.4164978
1.118387785
1.118737042
1.119144732
1.119367405
1.119773836
1.120441562
1.121096275
1.121725211
1.122539049
1.123119065
1.123270235
1.123275202
1.123086906
1.122593398
1.12178133
1.120883049
1.120031211
1.119321413
1.118927303
1.118880045
1.118851932
1.119093334
1.120269537
1.12806855
1.228285381
1.37568838
1.428485468
1.44339839
1.447123252
1.453970271
1.451480173
1.444726935
1.434675043
1.417530001
1.117997782
1.118428937
1.119073186
1.119526922
1.119932896
1.120177855
1.120698425
1.121200886
1.121616023
1.12216262
1.122967349
1.123483682
1.123546936
1.123282934
1.122577735
1.121675875
1.120740021
1.119900407
1.119321503
1.119092444
1.119146052
1.119188519
1.119290272
1.119817598
1.126151363
1.213433013
1.370811715
1.426947005
1.442148278
1.448087699
1.454700137
1.451767499
1.44460688
1.434743672
1.418904882
1.11809289
1.118387649
1.119151603
1.119885162
1.120345276
1.120793609
1.121126917
1.121475432
1.121739089
1.121948422
1.122391795
1.123245178
1.123562777
1.123306353
1.122716732
1.122061638
1.121307773
1.120513401
1.119926001
1.11968088
1.119723777
1.119647984
1.119656038
1.119875642
1.12472179
1.199583292
1.36456233
1.426013114
1.441287736
1.448003853
1.454553028
1.451469027
1.444223029
1.434725864
1.419785753
1.118387986
1.118600466
1.119137812
1.120065037
1.120734588
1.121318083
1.121653264
1.121769017
1.12193364
1.122033076
1.122159624
1.12255349
1.123170305
1.123262156
1.122976441
1.122427732
1.121794587
1.121216622
1.120741422
1.120427919
1.120339537
1.120136626
1.12009467
1.120242817
1.124041075
1.186885987
1.356950481
1.425469923
1.441027549
1.447798906
1.453751157
1.450426573
1.443665338
1.434201059
1.419881499
1.118854965
1.11897881
1.119332318
1.120093543
1.121060088
1.121768784
1.122222424
1.122450639
1.122321929
1.122298493
1.12230065
1.122294595
1.122468622
1.12275621
1.122931915
1.12276003
1.122319224
1.121977897
1.12165114
1.121256551
1.120954047
1.120688658
1.120632328
1.120849471
1.1238082
1.176183631
1.348331335
1.424986802
1.44028238
1.447248293
1.452631576
1.449562361
1.443190202
1.433075447
1.419354171
1.119257081
1.119360007
1.119691612
1.12026105
1.12125112
1.122180569
1.122731097
1.123006479
1.122998004
1.122934125
1.122724464
1.122584716
1.122343498
1.122194583
1.122363767
1.122777791
1.122837947
1.122595778
1.122455327
1.122165115
1.121670557
1.121300873
1.121124849
1.121323094
1.123636732
1.167355343
1.340255837
1.424040278
1.438481407
1.446601999
1.452291347
1.449125002
1.442897871
1.43225123
1.419507572
1.119589645
1.119935938
1.120291932
1.120622689
1.121424475
1.122519734
1.123188042
1.123576281
1.123659424
1.123620374
1.123476241
1.123086822
1.12270546
1.122283732
1.122045692
1.122305725
1.123033658
1.123245647
1.123291141
1.122999891
1.122303014
1.121767873
1.121520718
1.121597619
1.123345442
1.159741287
1.333329929
1.420321484
1.435492751
1.446833029
1.452277191
1.449292891
1.442542453
1.431523163
1.41995455
1.119990053
1.120471223
1.120827565
1.121110326
1.121715973
1.122747779
1.123692191
1.124161669
1.124344712
1.124367645
1.124188708
1.123758122
1.123215921
1.122581795
1.122156947
1.122055296
1.122592077
1.123675294
1.123868372
1.123621695
1.122942394
1.122177101
1.121778831
1.121747757
1.123014785
1.152825215
1.326022506
1.411738512
1.433769904
1.447809265
1.452500651
1.449689767
1.441620469
1.430698342
1.42049079
1.120500281
1.120929293
1.121314456
1.121640498
1.122102551
1.122960165
1.124136002
1.12482429
1.125041306
1.125084973
1.124864514
1.124375747
1.123755871
1.123168811
1.122655756
1.122369842
1.12243014
1.123143313
1.124026703
1.124084282
1.123530905
1.122856394
1.122223133
1.121962306
1.122819989
1.146678755
1.316038304
1.403258687
1.434460805
1.449456991
1.452294065
1.449218801
1.440234247
1.429625562
1.420568316
1.121137791
1.121339148
1.121783958
1.122204375
1.1226823
1.123378696
1.124371631
1.125273034
1.125683985
1.125699524
1.125444398
1.124990309
1.124378721
1.123890908
1.123367191
1.122854521
1.122675972
1.122878291
1.123472683
1.124095401
1.124075685
1.12348463
1.122733003
1.122390593
1.122918506
1.141703959
1.302363152
1.397403163
1.435967854
1.450903051
1.451618393
1.447956877
1.43849368
1.428299902
1.42028314
1.121650348
1.121866428
1.122279409
1.122819262
1.123393489
1.124013322
1.124693081
1.125338605
1.125838771
1.125872551
1.125669539
1.125358086
1.125033292
1.124601954
1.1240347
1.123477046
1.123220786
1.123248824
1.123351398
1.12382497
1.124309722
1.124074082
1.123458741
1.123020712
1.123286645
1.13796159
1.286177401
1.394411099
1.438891777
1.451654571
1.450595511
1.445980019
1.4364205
1.426783176
1.41984219
1.122653245
1.122829545
1.122945506
1.123412094
1.124137332
1.124802341
1.125325928
1.125644373
1.125797215
1.125710114
1.125404337
1.125178529
1.125183775
1.125105534
1.124755944
1.12420557
1.123824876
1.123518796
1.123539722
1.123787677
1.12427373
1.124554354
1.124216088
1.123810651
1.12407677
1.135186262
1.268943654
1.392300087
1.441736496
1.45199614
1.44946605
1.444164543
1.434281483
1.425343907
1.419577103
1.123589166
1.12377807
1.12379318
1.124116945
1.124839796
1.125618023
1.126197035
1.126237578
1.126218327
1.125988567
1.125536233
1.125174795
1.125039233
1.1250195
1.1250204
1.124780209
1.124309751
1.124120803
1.124122998
1.124264403
1.12443659
1.124740528
1.124760034
1.124579273
1.124827028
1.133129449
1.251285052
1.389659185
1.443973506
1.45205504
1.448702777
1.44328433
1.432472962
1.423806069
1.419472429
1.124456193
1.124756331
1.124879246
1.125018741
1.125510724
1.126299271
1.126908066
1.126916283
1.126792612
1.126477069
1.126086111
1.125709907
1.125377309
1.125084343
1.124825123
1.124715357
1.124785873
1.124918302
1.125031828
1.125072963
1.124999385
1.125009097
1.124930372
1.124821941
1.125037805
1.131571312
1.234137384
1.38546767
1.446048836
1.451607961
1.448390601
1.442377496
1.430340464
1.421979234
1.419688418
1.12535541
1.125783348
1.125908235
1.126029267
1.126278786
1.126687302
1.127219612
1.127460337
1.127458288
1.127223222
1.126854524
1.126449107
1.126046921
1.125532529
1.124996155
1.124744931
1.124917051
1.125544944
1.126000106
1.126054578
1.125930126
1.125654955
1.125293341
1.124941273
1.12504307
1.130418111
1.217775921
1.379238807
1.448413566
1.449780984
1.446795085
1.439189779
1.427408473
1.420291516
1.420145954
1.125307888
1.126073986
1.126686658
1.126910757
1.12703549
1.127120683
1.127255592
1.127425289
1.127777421
1.128137809
1.128078703
1.127803025
1.127497278
1.127060771
1.126339745
1.12567938
1.125389982
1.125408142
1.125807309
1.126636943
1.127050844
1.126962554
1.126637206
1.126031985
1.125585962
1.125491026
1.129882795
1.20221699
1.371119342
1.449453561
1.448372803
1.444031198
1.435481446
1.424220588
1.419371528
1.420085616
1.126278767
1.126676945
1.127239804
1.127606925
1.12786252
1.128010746
1.128054116
1.127975271
1.128018507
1.128348785
1.128583013
1.128618222
1.128419287
1.12793041
1.127223975
1.126593923
1.126221294
1.126175637
1.12644094
1.126962893
1.127554409
1.127794741
1.127539315
1.127127963
1.126611925
1.126284734
1.129859509
1.187812243
1.36165966
1.448885782
1.447960951
1.441829883
1.431972158
1.421408608
1.418467867
1.419534648
1.127118647
1.127509514
1.127899097
1.128179478
1.128479682
1.128837016
1.128886477
1.128680642
1.128455654
1.128376642
1.128510293
1.128623909
1.128513543
1.128009475
1.127518243
1.127288066
1.127218873
1.127290136
1.127467224
1.12772862
1.127905339
1.128084165
1.128220772
1.128037087
1.127631688
1.127356027
1.130095302
1.176749682
1.351601208
1.449752077
1.448880847
1.439820272
1.429156004
1.419446313
1.416998054
1.418995792
1.127617852
1.128385026
1.128747819
1.128893035
1.129069941
1.129424277
1.129418047
1.12922116
1.128903449
1.128644378
1.128625791
1.128644474
1.128460942
1.12792456
1.127523094
1.127578174
1.128027575
1.128513188
1.128738811
1.12873895
1.128626377
1.128519186
1.128548812
1.128537819
1.128406125
1.12825088
1.130342339
1.169539762
1.343264155
1.449957865
1.448992499
1.43937012
1.428176681
1.416776368
1.415789127
1.418955902
1.128339346
1.129108301
1.129533572
1.129670297
1.129856561
1.130021063
1.129942443
1.129761482
1.129360728
1.128947768
1.128811823
1.128767899
1.128639562
1.128316391
1.128023052
1.127981987
1.128316354
1.129152308
1.12979288
1.129799332
1.129550319
1.129202272
1.128977716
1.12897579
1.128953721
1.12884985
1.130430552
1.163960122
1.337894654
1.44931571
1.448421673
1.438766298
1.425800949
1.414267599
1.414704969
1.419251189
1.1294014
1.129834197
1.130177629
1.130453188
1.130785355
1.130825076
1.130791407
1.130596115
1.130036887
1.129250447
1.128789954
1.128623046
1.128795006
1.128993076
1.128827714
1.12864731
1.128765544
1.129220061
1.130055498
1.130612763
1.130532884
1.130170175
1.129849915
1.129749547
1.129562665
1.129244098
1.13040112
1.157942101
1.333373798
1.448142187
1.447060539
1.43660708
1.422992564
1.412369152
1.414019488
1.420138823
1.130616591
1.130740645
1.130913082
1.131245715
1.131687162
1.131816708
1.131869225
1.131656241
1.130947
1.129705457
1.128716437
1.128422704
1.128670814
1.129404932
1.129819706
1.129766223
1.129740993
1.129947679
1.130266848
1.130874787
1.131325288
1.13128258
1.131137473
1.130750824
1.130110228
1.12948558
1.130452182
1.151132379
1.327171015
1.446939921
1.444468361
1.43385983
1.419950985
1.411045601
1.414386338
1.421245952
1.131476459
1.13165841
1.131803999
1.132076937
1.132426748
1.132669191
1.1327262
1.132494252
1.131784588
1.130381714
1.129024749
1.128491616
1.128588901
1.129223656
1.130278925
1.130882425
1.130960708
1.130826004
1.130798956
1.131096355
1.131600686
1.13199439
1.132020408
1.131518598
1.130723569
1.130181074
1.13092155
1.145850384
1.316919553
1.444854082
1.440444148
1.430190812
1.417452725
1.410602885
1.415831754
1.421377878
1.131844138
1.132374167
1.13269612
1.13291778
1.133126173
1.133268184
1.133224729
1.13293967
1.1323624
1.131236946
1.129861808
1.129047578
1.128909446
1.129068184
1.129740759
1.130830558
1.131546787
1.131764918
1.131755639
1.131797312
1.131986487
1.132177798
1.132151096
1.131768951
1.131408217
1.131278018
1.131874258
1.143496199
1.301197137
1.440353371
1.437251184
1.428464116
1.416103109
1.411517568
1.416753925
1.420697809
1.132439391
1.133074514
1.133552389
1.133817692
1.133959948
1.133968593
1.133769916
1.13342979
1.132988351
1.1323013
1.131157513
1.130108314
1.129631909
1.129476726
1.129666413
1.130381957
1.131437786
1.132426041
1.132926318
1.132935043
1.132853361
1.132750362
1.132454627
1.131931673
1.131851495
1.132045638
1.132799503
1.142528332
1.280485339
1.431170128
1.436796404
1.428052104
1.415324185
1.413164854
1.416967301
1.419881041
1.133301426
1.133889782
1.134419657
1.134705231
1.134794625
1.134675291
1.134414987
1.134090522
1.133809842
1.133436721
1.132573031
1.131354994
1.130583217
1.130163605
1.129994975
1.130257356
1.131073737
1.132169638
1.133344034
1.134012002
1.133968686
1.133574775
1.132916662
1.132474412
1.132458211
1.132562629
1.133301884
1.14160427
1.260594295
1.422807479
1.436992
1.428103395
1.415417156
1.414350243
1.417171742
1.419780223
1.134285087
1.134757854
1.135163834
1.135371609
1.135380907
1.135234784
1.135071564
1.134867434
1.134653622
1.134348674
1.13372688
1.132527351
1.131579854
1.131113763
1.130807349
1.130844986
1.131259726
1.132087812
1.13321491
1.134310219
1.134705362
1.134334825
1.133741264
1.133466313
1.133367847
1.133286599
1.133800268
1.140550681
1.246518734
1.419473132
1.437694254
1.428749926
1.416213435
1.415506233
1.418464359
1.421033075
1.134941636
1.135273098
1.135547154
1.135741035
1.135757396
1.135714116
1.135637691
1.135438012
1.135157048
1.134788803
1.134300933
1.133343422
1.132314996
1.131880139
1.131625831
1.131594816
1.131844353
1.13245177
1.13327758
1.134196902
1.134889493
1.134907069
1.134725674
1.134580978
1.13441556
1.134185693
1.134479944
1.139797259
1.236180291
1.417879154
1.438297961
1.429042709
1.416339138
1.41748171
1.420111137
1.421567661
1.135128224
1.135408968
1.135644544
1.135900648
1.135994624
1.136054615
1.135945652
1.135636841
1.135270007
1.134815712
1.134282152
1.13354405
1.132585608
1.132149503
1.132045765
1.132191925
1.132488296
1.132907632
1.133492851
1.134187853
1.134815853
1.135247583
1.135448588
1.135466141
1.135373926
1.135088006
1.135231209
1.139527193
1.226117259
1.415763367
1.438524795
1.428541096
1.416595071
1.419917658
1.420772004
1.421275569
1.134602522
1.134978191
1.135375901
1.135681452
1.135956428
1.136111802
1.136209255
1.13603031
1.135645614
1.135219795
1.134712513
1.134060763
1.133335443
1.132527308
1.132138311
1.132166731
1.132420665
1.13274992
1.13323934
1.133828363
1.134357464
1.134828794
1.135299375
1.135679985
1.135875248
1.135941995
1.135758482
1.135863597
1.139420836
1.214124187
1.411376852
1.437797622
1.42474234
1.415678049
1.421629671
1.420822349
1.420665745
1.134186624
1.134684514
1.135298621
1.135771622
1.136047732
1.136227983
1.136301583
1.136058413
1.1356511
1.135211877
1.134672786
1.133932164
1.133155056
1.132439667
1.132100411
1.132146914
1.132334429
1.132675858
1.133249619
1.133906837
1.134466465
1.134953765
1.13536497
1.135654604
1.135902934
1.136081632
1.13601895
1.136151417
1.139161799
1.200547871
1.401585817
1.434005074
1.420668616
1.417859837
1.422910596
1.420995673
1.420689124
1.133981494
1.134470505
1.135240604
1.135852788
1.13616439
1.136360145
1.136428988
1.1361708
1.135768144
1.13529331
1.134696617
1.133943074
1.133160489
1.132494638
1.132183698
1.132244448
1.132339271
1.132499063
1.132825447
1.13342414
1.134261607
1.135024313
1.135462776
1.135675881
1.135825861
1.135918869
1.135892571
1.136073644
1.138644247
1.189673505
1.384618156
1.426979928
1.419785042
1.421617562
1.425197355
1.421922607
1.42105016
1.133833753
1.134230089
1.134927706
1.135554794
1.13597038
1.136266046
1.136361314
1.136139841
1.135746029
1.135251465
1.134684833
1.134056053
1.133462099
1.132853126
1.132474198
1.132451697
1.132406574
1.13239546
1.132475366
1.132875799
1.13373517
1.1347979
1.135486864
1.135697664
1.135748476
1.135725894
1.135633423
1.135781051
1.137966838
1.182814673
1.367722522
1.42328041
1.420250403
1.42569669
1.428171076
1.423591262
1.421894169
1.133271703
1.133515311
1.134040248
1.134604992
1.13516195
1.135652616
1.135683182
1.1355055
1.135144154
1.134711547
1.134378158
1.134069434
1.133745013
1.133277634
1.132809298
1.132636389
1.132518151
1.132446029
1.132492397
1.1326941
1.133230105
1.134201608
1.135176694
1.135618072
1.135726298
1.13565917
1.135454139
1.135481005
1.137313794
1.17736972
1.357697483
1.423467244
1.422979167
1.430652418
1.430564518
1.425015354
1.422083696
1.132177987
1.132292354
1.132683004
1.13326043
1.133901329
1.134412095
1.134392982
1.134258494
1.133929162
1.133576855
1.133550743
1.133681049
1.133707443
1.133484548
1.13309101
1.132768953
1.132664207
1.132642377
1.132740058
1.132828022
1.133065404
1.133613012
1.134541189
1.135309391
1.135624263
1.135614111
1.135381326
1.135343891
1.136797063
1.171312855
1.349794562
1.425955184
1.427033814
1.434866942
1.431974986
1.425258675
1.421835933
1.130852237
1.130940888
1.131379732
1.132075459
1.132724157
1.133072724
1.133003948
1.132808404
1.132507357
1.132324685
1.132452077
1.132911532
1.133349493
1.133451681
1.133295377
1.132934117
1.132810927
1.132841389
1.133032502
1.13309081
1.13323483
1.133541885
1.134135094
1.134811262
1.135252703
1.135367387
1.135223349
1.135202402
1.136262439
1.164485834
1.339635308
1.430164475
1.431320379
1.436228002
1.431902667
1.425202206
1.421738581
1.12967845
1.129784003
1.130339026
1.131132095
1.131750636
1.131902468
1.131841599
1.131685368
1.131455489
1.131360806
1.131511766
1.132033451
1.132685517
1.133247628
1.13332862
1.13307817
1.132895788
1.133015764
1.133242521
1.133371749
1.133506312
1.13372229
1.134116526
1.134580812
1.134897323
1.135006006
1.13488841
1.134899949
1.135761355
1.158870928
1.32485786
1.432464642
1.435671625
1.436677472
1.431056018
1.424380815
1.422382297
1.128925857
1.129146056
1.129804765
1.130637431
1.131156048
1.13116034
1.131119445
1.13102113
1.130821676
1.130687157
1.13080184
1.131255077
1.131934225
1.132789326
1.133239518
1.133433595
1.133446891
1.133409879
1.133096844
1.133515495
1.133661721
1.133932455
1.134239102
1.134487389
1.134595493
1.134625642
1.134466273
1.134493201
1.135239422
1.155147397
1.304894777
1.429394894
1.439166799
1.435461469
1.430466468
1.424580968
1.423410721
1.128625697
1.12891657
1.129413491
1.13008127
1.130462208
1.130526091
1.130591732
1.130653862
1.130536515
1.130352271
1.130419178
1.130678952
1.131264864
1.13221258
1.13291614
1.133330514
1.133486732
1.133365767
1.133639964
1.133694386
1.133906472
1.134155411
1.13436465
1.13443733
1.134374875
1.134306237
1.134125684
1.134080557
1.134679787
1.152084825
1.283561751
1.416120183
1.439499673
1.435084161
1.431601476
1.425937292
1.424660431
1.12862856
1.128695435
1.12887025
1.129207066
1.129485601
1.12971586
1.129951404
1.130232266
1.130320185
1.130163534
1.130174137
1.13018692
1.130638753
1.131512219
1.132404605
1.133072993
1.133487569
1.133854107
1.134138903
1.134163561
1.134176622
1.134274063
1.134395035
1.134381221
1.134284981
1.134141872
1.133916965
1.133775022
1.134275058
1.14877527
1.267013098
1.40606719
1.441645107
1.436871247
1.434008618
1.427559786
1.425834843
1.128547085
1.128446315
1.12859337
1.128854495
1.129083211
1.12930962
1.129482955
1.129688331
1.129916235
1.129891483
1.129893124
1.129920805
1.130244228
1.130990002
1.132137558
1.133211858
1.133996838
1.134510143
1.134670148
1.134581586
1.134494846
1.134433828
1.134388727
1.134303774
1.134227398
1.13410174
1.133885166
1.133694425
1.134081416
1.145331374
1.255084252
1.403684333
1.446104016
1.440209043
1.436584243
1.429073705
1.426782576
1.128282947
1.128410024
1.128744465
1.129151268
1.129484818
1.129695001
1.129763432
1.129693091
1.129662407
1.129747438
1.129760593
1.129805629
1.13000733
1.130445458
1.131126289
1.132062057
1.133104081
1.134047029
1.134766635
1.135081179
1.134994705
1.134928747
1.134671832
1.134377182
1.134206296
1.134110248
1.134051795
1.133973493
1.133914415
1.134292719
1.143067623
1.244451156
1.40192582
1.450358234
1.44382789
1.438778756
1.430591972
1.427866785
1.12947526
1.129682804
1.130198355
1.130802128
1.131147031
1.13126537
1.131148542
1.130841953
1.130740025
1.130709241
1.130625858
1.130691885
1.131055211
1.131569308
1.132215543
1.132788049
1.133262229
1.133735517
1.134255035
1.134770548
1.135328213
1.135510703
1.135231234
1.134900124
1.134602473
1.134354279
1.134195644
1.134187677
1.134338004
1.134820681
1.1423677
1.232323713
1.399224405
1.454272085
1.446949506
1.440412355
1.432682441
1.429448698
1.132845825
1.13307083
1.133646699
1.134176874
1.134404369
1.134413992
1.134189648
1.133778126
1.133473806
1.133233657
1.133088813
1.133236654
1.133648363
1.134248635
1.134764318
1.134866595
1.134918244
1.135121951
1.135259585
1.135411662
1.135810549
1.136324774
1.136517237
1.136389634
1.135995065
1.135570661
1.135406301
1.135282066
1.135203852
1.135581606
1.142581832
1.217402605
1.393151721
1.457243377
1.449097543
1.442302299
1.435503139
1.431493593
1.139390027
1.139463964
1.139784374
1.140153381
1.140296457
1.140199669
1.139815518
1.139143633
1.138621317
1.138194516
1.137964436
1.137944656
1.138152797
1.138634019
1.139008214
1.139028972
1.138871295
1.138606601
1.138281626
1.138231238
1.138390393
1.138518895
1.138838471
1.139010547
1.138795849
1.138438075
1.138230115
1.137978971
1.137642289
1.137670995
1.143647416
1.204149756
1.380513194
1.456294712
1.450189375
1.444864239
1.438504859
1.433157761
1.149564517
1.149335723
1.14924509
1.149274615
1.149259268
1.149023772
1.148535562
1.147847199
1.146989337
1.146214011
1.145719362
1.14547623
1.145444452
1.145587555
1.145585408
1.145376568
1.144880981
1.144366465
1.143950433
1.143676034
1.143696246
1.143617696
1.14364541
1.143546158
1.143490183
1.143395755
1.143151404
1.142810846
1.142205257
1.141901548
1.146405325
1.198450116
1.359567166
1.449948863
1.451214667
1.447527791
1.441024078
1.434596789
1.163202253
1.162949114
1.162733679
1.16261254
1.162391387
1.161903668
1.161155264
1.16022755
1.159040291
1.157846497
1.15683033
1.156134379
1.155723897
1.155352246
1.154831491
1.154263717
1.153649811
1.153284552
1.153146406
1.153052819
1.152505289
1.152302961
1.152061735
1.151544568
1.151037639
1.150782544
1.150583414
1.15015721
1.149423096
1.148872674
1.15214399
1.198561651
1.347656045
1.44649079
1.453231387
1.449025354
1.442465151
1.435762848
1.180260443
1.180037445
1.179845471
1.179646135
1.179248854
1.178525486
1.177497154
1.176162957
1.174599251
1.173100763
1.171682924
1.170499069
1.169511295
1.168286421
1.167104218
1.166306401
1.165871606
1.165708079
1.165651679
1.165495826
1.165269722
1.16490024
1.164175916
1.163244515
1.162238728
1.161438124
1.160836986
1.160373981
1.159901002
1.15923251
1.161330708
1.201926285
1.346466638
1.447938037
1.455049942
1.448566949
1.442574997
1.436388766
1.199236109
1.199105887
1.199166522
1.199031494
1.198405754
1.197223215
1.195740515
1.194081515
1.19232828
1.190602254
1.188976852
1.187536136
1.186021548
1.184229632
1.182707538
1.181678722
1.18104923
1.180673718
1.180502107
1.180480937
1.18057321
1.180268381
1.179520365
1.178180413
1.176528942
1.175076169
1.17404884
1.173445559
1.173032999
1.172285275
1.173927902
1.207892687
1.348290709
1.449883012
1.454906886
1.447066608
1.443210891
1.438019451
1.217805548
1.21786483
1.218018896
1.217825554
1.217048856
1.215722251
1.213933457
1.211933227
1.210292625
1.208615641
1.207036444
1.205466758
1.203499637
1.201533514
1.199902589
1.198736132
1.197891291
1.197275587
1.196934423
1.196843475
1.196835238
1.196876209
1.19616067
1.194810348
1.192973284
1.190864014
1.189513901
1.188724609
1.188057724
1.186942099
1.188573994
1.215225442
1.353400777
1.452405084
1.451967879
1.446842669
1.445780936
1.440360167
1.23309006
1.233032196
1.233077344
1.232817827
1.232023819
1.230830204
1.229173527
1.227328628
1.226057551
1.224672746
1.223266884
1.221826672
1.220169768
1.218316968
1.216574947
1.215156969
1.214155108
1.213379627
1.212899724
1.21271103
1.212674268
1.212395264
1.211819982
1.210763976
1.209062249
1.207147293
1.205436724
1.204343996
1.203523487
1.202180477
1.20328627
1.224314774
1.360028522
1.453815464
1.448642994
1.4484035
1.448542982
1.442867973
1.243197138
1.243089164
1.243048226
1.242739387
1.242005404
1.241043568
1.239770442
1.238388425
1.237531156
1.236596599
1.235456225
1.234284579
1.233040371
1.231704534
1.23050708
1.229391051
1.228411016
1.227561531
1.226887534
1.226352128
1.225898086
1.225442684
1.224791229
1.223783971
1.22267574
1.221310758
1.220020887
1.218755381
1.217605231
1.216021631
1.21691782
1.235248695
1.362721413
1.453772438
1.449004979
1.450632877
1.451291017
1.445176766
1.247991934
1.248093219
1.248148773
1.247824474
1.247197044
1.24651239
1.24572845
1.244931452
1.244538784
1.244109741
1.243296994
1.242372185
1.241453387
1.240575226
1.239834172
1.239171428
1.238438977
1.237806718
1.237221903
1.23659484
1.23579078
1.234814292
1.23391645
1.233058694
1.232148205
1.231521488
1.23085923
1.230045677
1.228842571
1.227126508
1.227607727
1.244233731
1.359301345
1.456014463
1.452557878
1.45247731
1.453633168
1.447173329
1.24933091
1.249565551
1.249888548
1.250143101
1.249800734
1.249228602
1.248705197
1.248208964
1.247903015
1.247981898
1.248030261
1.247533227
1.246751873
1.245892114
1.245234085
1.244668972
1.244305371
1.243840839
1.2433874
1.242915221
1.242387973
1.241695095
)
;

boundaryField
{
    inlet
    {
        type            fixedValue;
        value           nonuniform 0();
    }
    outlet
    {
        type            inletOutlet;
        inletValue      uniform 1;
        value           nonuniform List<scalar> 
61
(
1.410730635
1.411318538
1.412076388
1.412981582
1.414037861
1.41511736
1.415854169
1.416519495
1.417699229
1.419045489
1.419758789
1.419649976
1.419213077
1.419537686
1.420066041
1.420539796
1.420546147
1.420090966
1.419709149
1.419485804
1.419470645
1.419837636
1.420185305
1.419998894
1.419372493
1.418880706
1.418888879
1.419351763
1.420396252
1.421300863
1.421193335
1.420421924
1.419798821
1.420039001
1.421444532
1.421608944
1.421200749
1.420680092
1.42083327
1.421386458
1.422146054
1.422171161
1.421776881
1.421774479
1.422532767
1.4235677
1.42472905
1.425837187
1.426776098
1.427920232
1.429641516
1.431597849
1.43312714
1.434512889
1.435432664
1.436346069
1.438151034
1.440704627
1.442945382
1.445159021
1.446926404
)
;
    }
    bottom
    {
        type            slip;
    }
    top
    {
        type            slip;
    }
    obstacle
    {
        type            zeroGradient;
    }
    defaultFaces
    {
        type            empty;
    }
    procBoundary17to11
    {
        type            processor;
        value           nonuniform List<scalar> 
34
(
1.116905058
1.116910455
1.117107656
1.117570547
1.118145932
1.118768464
1.11945661
1.120174418
1.120995841
1.121929257
1.122460698
1.122541481
1.122512763
1.122164458
1.12184026
1.121940723
1.122241494
1.12250534
1.122646831
1.122840719
1.123012616
1.123224635
1.124864823
1.161479518
1.335179778
1.418230144
1.447605996
1.45122898
1.448967461
1.445049892
1.440733695
1.432386749
1.426573282
1.410097707
)
;
    }
    procBoundary17to16
    {
        type            processor;
        value           nonuniform List<scalar> 
66
(
1.117321123
1.117395255
1.117298818
1.117251718
1.11739535
1.117627476
1.117798167
1.117975341
1.1180125
1.1180125
1.11795489
1.118115528
1.118389376
1.118870334
1.119276629
1.119422649
1.119722202
1.120290058
1.120997195
1.121592562
1.122414899
1.123186633
1.12387218
1.12451154
1.12451154
1.12504527
1.125843349
1.126256269
1.126895218
1.127905822
1.129261938
1.13048442
1.13095314
1.131038623
1.131749607
1.132795208
1.133871411
1.134642481
1.134855126
1.134855126
1.134168498
1.133927658
1.133864122
1.133798343
1.133372378
1.132274597
1.130996039
1.129816059
1.128990332
1.128613648
1.128599127
1.12854313
1.12854313
1.128150766
1.129416677
1.132838446
1.139475467
1.149802439
1.163527007
1.180724661
1.19985632
1.218393244
1.23369113
1.243626388
1.248102065
1.248102065
)
;
    }
    procBoundary17to22
    {
        type            processor;
        value           uniform 1.249643256;
    }
    procBoundary17to23
    {
        type            processor;