/*--------------------------------*- C++ -*----------------------------------*\
  =========                 |
  \\      /  F ield         | OpenFOAM: The Open Source CFD Toolbox
   \\    /   O peration     | Website:  https://openfoam.org
    \\  /    A nd           | Version:  7
     \\/     M anipulation  |
\*---------------------------------------------------------------------------*/
FoamFile
{
    version     2.0;
    format      ascii;
    class       volVectorField;
    location    "2.8";
    object      U;
}
// * * * * * * * * * * * * * * * * * * * * * * * * * * * * * * * * * * * * * //

dimensions      [0 1 -1 0 0 0 0];

internalField   nonuniform List<vector> 
2222
(
(3 -7.837100097e-15 0)
(3 -7.841152749e-15 0)
(3 -7.568477809e-15 0)
(3 -8.848908901e-15 0)
(3 -1.16496115e-14 0)
(3 -1.109546637e-14 0)
(3 -1.056679631e-14 0)
(3 -8.698945944e-15 0)
(3 -3.707652056e-15 0)
(3 -3.625484116e-16 0)
(3 3.867430316e-17 0)
(3 3.664314e-15 0)
(3 5.289322382e-15 0)
(3 4.023376219e-15 0)
(3 4.093215807e-15 0)
(3 4.854230485e-15 0)
(3 2.384493814e-15 0)
(3 -9.728843153e-18 0)
(3 -1.558676443e-15 0)
(3 -5.520518517e-15 0)
(3 -1.127443284e-14 0)
(3 -1.418921829e-14 0)
(3 -1.556126651e-14 0)
(3 -9.01136175e-16 0)
(3 -3.048346395e-15 0)
(3 -3.280077434e-15 0)
(3 -2.682942483e-15 0)
(3 1.553956863e-15 0)
(3 2.894764475e-15 0)
(3 2.378696219e-15 0)
(3 4.710118368e-16 0)
(3 -1.442534277e-16 0)
(3 -1.550135881e-15 0)
(3 -4.361948006e-15 0)
(3 -9.079275503e-15 0)
(3 -9.533261174e-15 0)
(3 -9.987954973e-15 0)
(3 -1.017846791e-14 0)
(3 -7.292659694e-15 0)
(3 -8.55927501e-15 0)
(3 -7.377028372e-15 0)
(3 -5.58847949e-15 0)
(3 -1.768452054e-15 0)
(3 3.519949616e-15 0)
(3 9.023139834e-15 0)
(3 1.146870084e-14 0)
(3 9.98442895e-15 0)
(3 9.25997973e-15 0)
(3 7.717043069e-15 0)
(3 9.136460343e-15 0)
(3 7.091931423e-15 0)
(3 5.42704487e-15 0)
(3 4.713588036e-15 0)
(3 1.67958211e-15 0)
(3 8.646983046e-16 0)
(3 2.103331471e-16 0)
(3 5.346007932e-16 0)
(3 -1.896106526e-15 0)
(3 -5.952334584e-15 0)
(3 -7.429574893e-15 0)
(3 -1.569049659e-14 0)
(3 -1.907858461e-14 0)
(3 -1.61978573e-14 0)
(3 -1.316827515e-14 0)
(3 -1.179629331e-14 0)
(3 -1.326847175e-14 0)
(3 -1.228254861e-14 0)
(3 -9.666852871e-15 0)
(3 -6.967315758e-15 0)
(3 -8.095980117e-15 0)
(3 -6.134379013e-15 0)
(3 -6.312387176e-15 0)
(3 -1.213514618e-14 0)
(3 -1.421976505e-14 0)
(3 -1.186680969e-14 0)
(3 -3.174082579e-15 0)
(3 4.159024382e-15 0)
(3 5.043251495e-15 0)
(3 6.028899335e-15 0)
(3 4.980168593e-15 0)
(3 2.399984994e-15 0)
(3 -5.46060481e-15 0)
(3 -5.61774435e-15 0)
(3 -6.639338407e-15 0)
(3 -5.447598551e-15 0)
(3 -3.726639663e-15 0)
(3 -3.558748403e-15 0)
(3 -6.97249681e-15 0)
(3 -1.235468918e-14 0)
(3 -1.680138211e-14 0)
(3 4.37665778e-16 0)
(3 -4.025530353e-17 0)
(3 -1.480694221e-15 0)
(3 -1.582555735e-15 0)
(3 -4.713829814e-16 0)
(3 -2.449765738e-16 0)
(3 -1.919163939e-15 0)
(3 -4.241036231e-15 0)
(3 -6.086834907e-15 0)
(3 -6.638168122e-15 0)
(3 -8.522530477e-15 0)
(3 -8.617867295e-15 0)
(3 -1.049418051e-14 0)
(3 -9.694760588e-15 0)
(3 -8.487754309e-15 0)
(3 -9.11335053e-15 0)
(3 -8.043612734e-15 0)
(3 -6.668004755e-15 0)
(3 -6.741547015e-15 0)
(3 -4.924406204e-15 0)
(3 -2.812639124e-16 0)
(3 2.867570449e-15 0)
(3 -7.183138848e-16 0)
(3 -2.031201942e-15 0)
(3 -1.936177893e-15 0)
(3 9.373116671e-16 0)
(3 3.250924816e-15 0)
(3 3.943286012e-15 0)
(3 5.901874478e-15 0)
(3 5.479249768e-15 0)
(3 4.509597998e-15 0)
(3 2.332571975e-15 0)
(3 3.989084222e-15 0)
(3 7.058266202e-15 0)
(3 8.555467641e-15 0)
(3 5.69374078e-15 0)
(3 3.746673622e-15 0)
(3 -1.315679134e-15 0)
(3 -7.680170859e-15 0)
(3 -5.567546776e-15 0)
(3 -4.094144265e-15 0)
(3 -5.095308531e-15 0)
(3 -5.750758376e-15 0)
(3 -8.465886596e-15 0)
(3 -1.04200424e-14 0)
(3 -1.025706328e-14 0)
(3 -7.917226778e-15 0)
(3 -1.567007239e-15 0)
(3 2.220423663e-15 0)
(3 1.059030383e-15 0)
(3 -3.212060421e-16 0)
(3 -2.754802477e-15 0)
(3 -5.256810805e-15 0)
(3 -3.820567082e-15 0)
(3 -2.732090035e-15 0)
(3 -2.156384943e-15 0)
(3 -6.492786409e-15 0)
(3 -8.353442146e-15 0)
(3 -1.558216446e-14 0)
(3 -1.950000461e-14 0)
(3 -2.271139617e-14 0)
(3 -2.070275208e-14 0)
(3 -1.581278285e-14 0)
(3 -8.164203891e-15 0)
(3 -3.638818558e-15 0)
(3 -4.92216143e-15 0)
(3 -1.475316134e-14 0)
(3 1.66587528e-16 0)
(3 2.423091534e-15 0)
(3 2.530227587e-15 0)
(3 2.170122554e-15 0)
(3 8.199923818e-16 0)
(3 -2.931634236e-16 0)
(3 -8.128903118e-16 0)
(3 -1.689594109e-15 0)
(3 -3.054568867e-15 0)
(3 -2.762083418e-15 0)
(3 -1.062842829e-15 0)
(3 -9.152699058e-16 0)
(3 -1.726599063e-15 0)
(3 -2.947806182e-15 0)
(3 -3.435940598e-15 0)
(3 -3.22702741e-15 0)
(3 -2.090151813e-15 0)
(3 -1.197320654e-15 0)
(3 -2.575176132e-15 0)
(3 -3.996473873e-15 0)
(3 -6.448882261e-15 0)
(3 -1.138706521e-14 0)
(3 -1.222814334e-14 0)
(3 -1.309502164e-14 0)
(3 -1.250661311e-14 0)
(3 -1.099165511e-14 0)
(3 -1.348285865e-14 0)
(3 -1.180260227e-14 0)
(3 -9.522925406e-15 0)
(3 -8.022455332e-15 0)
(3 -4.852962404e-15 0)
(3 -2.791430627e-15 0)
(3 -9.757084202e-16 0)
(3 4.012456816e-15 0)
(3 1.027908318e-14 0)
(3 1.338802222e-14 0)
(3 1.464832287e-14 0)
(3 1.326647092e-14 0)
(3 1.185873448e-14 0)
(3 5.647127035e-15 0)
(3 5.920893754e-16 0)
(3 3.731962712e-15 0)
(3 5.386868351e-15 0)
(3 3.135384286e-15 0)
(3 1.603245706e-15 0)
(3 3.204360523e-15 0)
(3 4.790216772e-15 0)
(3 3.007398488e-15 0)
(3 3.997001655e-15 0)
(3 4.74449374e-15 0)
(3 3.711494693e-15 0)
(3 4.033645413e-15 0)
(3 4.606712603e-16 0)
(3 -3.538239335e-15 0)
(3 -8.623726193e-15 0)
(3 -9.887489204e-15 0)
(3 -1.56414055e-14 0)
(3 -2.366828843e-14 0)
(3 -2.56251818e-14 0)
(3 -2.439881767e-14 0)
(3 -2.39215751e-14 0)
(3 -2.324924817e-14 0)
(3 -1.740687334e-14 0)
(3 -1.390159184e-14 0)
(3 -1.281287155e-14 0)
(3 -1.615349245e-14 0)
(3 -2.241315186e-14 0)
(3 -4.954891781e-17 0)
(3 4.132255912e-17 0)
(3 4.856695717e-16 0)
(3 7.972321208e-16 0)
(3 3.591694063e-16 0)
(3 5.246043085e-17 0)
(3 2.780517295e-15 0)
(3 4.110318712e-15 0)
(3 4.664265521e-15 0)
(3 5.044215604e-15 0)
(3 5.480179961e-15 0)
(3 4.812658475e-15 0)
(3 3.962192454e-15 0)
(3 1.672600951e-15 0)
(3 -1.383503658e-15 0)
(3 -1.704181598e-15 0)
(3 -3.642481331e-15 0)
(3 -3.66666147e-15 0)
(3 -3.445237711e-15 0)
(3 -3.062946264e-15 0)
(3 -4.147179297e-15 0)
(3 -6.206855012e-15 0)
(3 -8.503959962e-15 0)
(3 -1.144287055e-14 0)
(3 -1.637971974e-14 0)
(3 -1.99244054e-14 0)
(3 -1.994739505e-14 0)
(3 -1.74987114e-14 0)
(3 -1.413799781e-14 0)
(3 -8.785626416e-15 0)
(3 -3.365142288e-15 0)
(3 3.192908542e-15 0)
(3 4.437351403e-15 0)
(3 5.670274121e-15 0)
(3 8.654073281e-15 0)
(3 1.354627954e-14 0)
(3 1.493643471e-14 0)
(3 1.634882069e-14 0)
(3 1.653198783e-14 0)
(3 1.556566055e-14 0)
(3 1.24432567e-14 0)
(3 1.137876588e-14 0)
(3 1.348122852e-14 0)
(3 1.369623018e-14 0)
(3 1.496016552e-14 0)
(3 1.963718559e-14 0)
(3 1.793003294e-14 0)
(3 1.117446551e-14 0)
(3 4.339800493e-15 0)
(3 2.292883187e-16 0)
(3 -5.029833762e-15 0)
(3 -6.502101779e-15 0)
(3 -1.130898138e-14 0)
(3 -2.069104901e-14 0)
(3 -2.270600264e-14 0)
(3 -2.282307107e-14 0)
(3 -2.137469748e-14 0)
(3 -2.029037143e-14 0)
(3 -1.996585291e-14 0)
(3 -1.924790525e-14 0)
(3 -1.927662506e-14 0)
(3 -1.547089e-14 0)
(3 -1.601308937e-14 0)
(3 -1.899460736e-14 0)
(3 -2.511711461e-14 0)
(3 -2.549875962e-14 0)
(3 -2.321329302e-14 0)
(3 2.482028568e-16 0)
(3 -1.420186912e-15 0)
(3 -1.402797562e-15 0)
(3 -2.125123558e-16 0)
(3 -2.148063548e-16 0)
(3 -1.829616117e-15 0)
(3 9.157751475e-16 0)
(3 4.963456285e-15 0)
(3 6.674512574e-15 0)
(3 7.60749096e-15 0)
(3 8.583250506e-15 0)
(3 7.157188746e-15 0)
(3 6.277481482e-15 0)
(3 5.73961013e-15 0)
(3 3.922740279e-15 0)
(3 4.290277097e-15 0)
(3 2.019289727e-15 0)
(3 8.905668303e-17 0)
(3 -5.390582931e-16 0)
(3 -1.509216564e-15 0)
(3 -2.025054112e-15 0)
(3 -2.821565919e-15 0)
(3 -4.373258913e-15 0)
(3 -5.398794209e-15 0)
(3 -6.834274171e-15 0)
(3 -3.728278392e-15 0)
(3 -3.152402524e-15 0)
(3 -2.215141189e-15 0)
(3 -1.401945865e-15 0)
(3 4.63503411e-16 0)
(3 1.14883654e-15 0)
(3 2.808586382e-15 0)
(3 3.99771829e-15 0)
(3 5.553643882e-15 0)
(3 7.421776022e-15 0)
(3 9.999236565e-15 0)
(3 1.235755395e-14 0)
(3 1.748688572e-14 0)
(3 1.972812772e-14 0)
(3 1.947353439e-14 0)
(3 1.69067118e-14 0)
(3 1.511154894e-14 0)
(3 1.491093686e-14 0)
(3 1.383964058e-14 0)
(3 1.205257468e-14 0)
(3 1.27175786e-14 0)
(3 1.284944666e-14 0)
(3 1.18545606e-14 0)
(3 9.699369357e-15 0)
(3 8.364930662e-15 0)
(3 7.735020698e-15 0)
(3 1.366591381e-15 0)
(3 -6.187090638e-15 0)
(3 -9.937110481e-15 0)
(3 -1.255025826e-14 0)
(3 -1.370044117e-14 0)
(3 -1.406251227e-14 0)
(3 -1.407996262e-14 0)
(3 -1.127919482e-14 0)
(3 -1.336139011e-14 0)
(3 -1.566752237e-14 0)
(3 -1.700510719e-14 0)
(3 -1.947936936e-14 0)
(3 -2.574516452e-14 0)
(3 -3.021634403e-14 0)
(3 -2.692316317e-14 0)
(3 -2.184682431e-14 0)
(3 4.053923134e-17 0)
(3 6.669804114e-16 0)
(3 1.595231196e-15 0)
(3 2.809495721e-15 0)
(3 2.011881485e-15 0)
(3 6.807742908e-16 0)
(3 -6.177401676e-16 0)
(3 -7.560414738e-16 0)
(3 -3.690274886e-16 0)
(3 1.014950795e-15 0)
(3 3.67914221e-15 0)
(3 3.457122906e-15 0)
(3 4.878707777e-15 0)
(3 5.763142634e-15 0)
(3 6.963535526e-15 0)
(3 5.439630629e-15 0)
(3 4.986817703e-15 0)
(3 2.527707399e-15 0)
(3 -4.758590591e-16 0)
(3 -5.131373263e-15 0)
(3 -8.083674804e-15 0)
(3 -7.362952255e-15 0)
(3 -6.75351418e-15 0)
(3 -2.371739275e-15 0)
(3 2.26033717e-15 0)
(3 9.433675988e-15 0)
(3 1.291060796e-14 0)
(3 1.184999058e-14 0)
(3 1.442172329e-14 0)
(3 1.419446543e-14 0)
(3 1.302056873e-14 0)
(3 1.27861137e-14 0)
(3 1.343430449e-14 0)
(3 1.271275113e-14 0)
(3 1.239759747e-14 0)
(3 1.263680118e-14 0)
(3 1.413165585e-14 0)
(3 1.913681638e-14 0)
(3 1.587060701e-14 0)
(3 1.54041811e-14 0)
(3 1.417908814e-14 0)
(3 1.625484208e-14 0)
(3 1.865805217e-14 0)
(3 1.871447572e-14 0)
(3 1.837105347e-14 0)
(3 1.735256006e-14 0)
(3 1.656424031e-14 0)
(3 1.376694169e-14 0)
(3 1.173546186e-14 0)
(3 8.122725931e-15 0)
(3 -1.756925366e-16 0)
(3 -7.423432722e-15 0)
(3 -9.711034054e-15 0)
(3 -9.418442565e-15 0)
(3 -9.884233471e-15 0)
(3 -9.257833648e-15 0)
(3 -9.099493333e-15 0)
(3 -7.078707177e-15 0)
(3 -4.585666957e-15 0)
(3 -3.111895532e-15 0)
(3 -5.702339249e-15 0)
(3 -1.415419216e-14 0)
(3 -1.822266932e-14 0)
(3 -1.89907206e-14 0)
(3 -1.975946736e-14 0)
(3 -2.063086432e-14 0)
(3 -2.134438837e-14 0)
(3 1.844873159e-16 0)
(3 1.220950413e-15 0)
(3 8.267438179e-16 0)
(3 -1.39321938e-15 0)
(3 -1.07192143e-15 0)
(3 -1.035290083e-16 0)
(3 -2.175873982e-15 0)
(3 -4.449044885e-15 0)
(3 -4.606611723e-15 0)
(3 -4.898937342e-15 0)
(3 -6.032126383e-15 0)
(3 -5.903960627e-15 0)
(3 -4.020751227e-15 0)
(3 -2.862321041e-15 0)
(3 -2.670341577e-15 0)
(3 -3.589547163e-15 0)
(3 -3.490758114e-15 0)
(3 -4.599104619e-15 0)
(3 -5.063136637e-15 0)
(3 -3.772621165e-15 0)
(3 -3.240101939e-15 0)
(3 -6.058574817e-15 0)
(3 -1.155175623e-15 0)
(3 3.672076532e-15 0)
(3 6.5054079e-15 0)
(3 6.355639455e-15 0)
(3 7.495375513e-15 0)
(3 9.157421793e-15 0)
(3 1.302107545e-14 0)
(3 1.499027414e-14 0)
(3 1.88972617e-14 0)
(3 1.906889523e-14 0)
(3 2.117060322e-14 0)
(3 2.263031673e-14 0)
(3 2.073824714e-14 0)
(3 1.623642946e-14 0)
(3 1.454404302e-14 0)
(3 1.396520939e-14 0)
(3 1.050640099e-14 0)
(3 1.067760125e-14 0)
(3 1.244521293e-14 0)
(3 1.539157738e-14 0)
(3 1.749330272e-14 0)
(3 2.043193173e-14 0)
(3 2.204346993e-14 0)
(3 1.926308825e-14 0)
(3 1.557326334e-14 0)
(3 7.341837233e-15 0)
(3 2.313921047e-15 0)
(3 -2.171280418e-15 0)
(3 -7.628474001e-15 0)
(3 -1.228588512e-14 0)
(3 -1.409370573e-14 0)
(3 -1.458878399e-14 0)
(3 -1.433647226e-14 0)
(3 -1.203176973e-14 0)
(3 -7.316458154e-15 0)
(3 -3.564076735e-15 0)
(3 1.243594121e-15 0)
(3 6.80399118e-16 0)
(3 -1.856737416e-15 0)
(3 -7.948771414e-15 0)
(3 -1.402238681e-14 0)
(3 -1.497136487e-14 0)
(3 -1.895916893e-14 0)
(3 -2.24153083e-14 0)
(3 -2.114263683e-14 0)
(3 -5.109877061e-16 0)
(3 -1.43162682e-15 0)
(3 -2.12449209e-15 0)
(3 -2.347542071e-15 0)
(3 -1.702970613e-15 0)
(3 -3.231297969e-15 0)
(3 -3.430961193e-15 0)
(3 -1.996239289e-15 0)
(3 -4.411627716e-15 0)
(3 -4.151233942e-15 0)
(3 -5.176246665e-15 0)
(3 -6.249664729e-15 0)
(3 -9.397470908e-15 0)
(3 -1.14200503e-14 0)
(3 -1.120774783e-14 0)
(3 -9.403102347e-15 0)
(3 -6.57824106e-15 0)
(3 -3.096888493e-15 0)
(3 8.364719137e-16 0)
(3 3.861185878e-15 0)
(3 5.013022035e-15 0)
(3 5.182543449e-15 0)
(3 5.662823204e-15 0)
(3 5.089748033e-15 0)
(3 5.439095885e-15 0)
(3 4.24324692e-15 0)
(3 4.187852675e-15 0)
(3 5.610989834e-15 0)
(3 8.886168394e-15 0)
(3 1.396466351e-14 0)
(3 1.43686995e-14 0)
(3 1.128814329e-14 0)
(3 8.447327966e-15 0)
(3 6.319188375e-15 0)
(3 1.595185127e-15 0)
(3 1.404107417e-16 0)
(3 2.37918734e-15 0)
(3 4.064567106e-15 0)
(3 6.089150789e-15 0)
(3 7.922334055e-15 0)
(3 1.16606835e-14 0)
(3 1.437302263e-14 0)
(3 1.65707534e-14 0)
(3 1.870132466e-14 0)
(3 1.937370816e-14 0)
(3 1.332441193e-14 0)
(3 9.689854236e-15 0)
(3 3.413230147e-15 0)
(3 -4.30306832e-15 0)
(3 -1.150615025e-14 0)
(3 -1.573220134e-14 0)
(3 -2.048060454e-14 0)
(3 -2.097488919e-14 0)
(3 -2.159712374e-14 0)
(3 -2.047665332e-14 0)
(3 -2.067097564e-14 0)
(3 -1.828544574e-14 0)
(3 -1.163131186e-14 0)
(3 -2.540162944e-15 0)
(3 6.051461224e-16 0)
(3 -6.762180646e-16 0)
(3 -4.851525506e-15 0)
(3 -8.438151318e-15 0)
(3 -7.737028751e-15 0)
(3 -9.794301935e-15 0)
(3 -1.351904724e-14 0)
(3 -1.589395924e-14 0)
(3 -9.170322045e-16 0)
(3 -2.337502866e-15 0)
(3 -6.492015414e-16 0)
(3 8.367715256e-16 0)
(3 7.800757337e-16 0)
(3 -2.543885983e-16 0)
(3 2.302317386e-16 0)
(3 -7.881918216e-16 0)
(3 1.262402468e-16 0)
(3 -4.084942708e-16 0)
(3 -2.082681778e-15 0)
(3 -3.111364829e-15 0)
(3 -3.786204619e-15 0)
(3 -7.159366793e-15 0)
(3 -7.201401975e-15 0)
(3 -4.725322672e-15 0)
(3 -3.760459997e-15 0)
(3 8.590017458e-16 0)
(3 5.133840504e-15 0)
(3 6.941350445e-15 0)
(3 8.384130019e-15 0)
(3 1.072234164e-14 0)
(3 8.689973698e-15 0)
(3 7.016200993e-15 0)
(3 7.518225297e-15 0)
(3 1.031399233e-14 0)
(3 1.294116244e-14 0)
(3 1.23202187e-14 0)
(3 9.598300087e-15 0)
(3 8.490167065e-15 0)
(3 8.641934868e-15 0)
(3 1.145539761e-14 0)
(3 1.093124633e-14 0)
(3 6.53601712e-15 0)
(3 3.279977831e-15 0)
(3 6.899802617e-16 0)
(3 8.038600903e-16 0)
(3 5.242517237e-15 0)
(3 8.871886708e-15 0)
(3 1.142926464e-14 0)
(3 1.360568538e-14 0)
(3 1.661111134e-14 0)
(3 1.897160856e-14 0)
(3 1.757650254e-14 0)
(3 1.147562435e-14 0)
(3 8.700236175e-15 0)
(3 3.498888568e-15 0)
(3 1.699467365e-15 0)
(3 1.381602026e-15 0)
(3 1.44243311e-15 0)
(3 -3.034721468e-15 0)
(3 -4.368847035e-15 0)
(3 -7.297499033e-16 0)
(3 -1.391973464e-15 0)
(3 -4.889245277e-15 0)
(3 -5.341312399e-15 0)
(3 -5.06041476e-15 0)
(3 -3.948440027e-15 0)
(3 -2.795158421e-15 0)
(3 -3.941824907e-15 0)
(3 -7.162128352e-15 0)
(3 -1.244571965e-14 0)
(3 -1.16378397e-14 0)
(3 -6.499832657e-15 0)
(3 -2.533406739e-15 0)
(3 6.750465584e-16 0)
(3 -4.972142539e-15 0)
(3 -4.747045847e-16 0)
(3 1.515718487e-16 0)
(3 4.258025454e-16 0)
(3 -1.341839396e-16 0)
(3 7.601294074e-16 0)
(3 3.402067761e-15 0)
(3 3.667618362e-15 0)
(3 2.837122722e-15 0)
(3 1.122435866e-15 0)
(3 -7.013832679e-16 0)
(3 -3.889651042e-15 0)
(3 -5.291410243e-15 0)
(3 -2.405117051e-15 0)
(3 1.432669899e-15 0)
(3 4.159758685e-15 0)
(3 4.740215018e-15 0)
(3 4.635995079e-15 0)
(3 5.956783255e-15 0)
(3 6.731563706e-15 0)
(3 9.890503389e-15 0)
(3 1.241957323e-14 0)
(3 1.307445462e-14 0)
(3 1.242378051e-14 0)
(3 9.782581223e-15 0)
(3 5.44100508e-15 0)
(3 6.577525967e-15 0)
(3 8.56718686e-15 0)
(3 8.25537409e-15 0)
(3 5.87949575e-15 0)
(3 7.227401405e-16 0)
(3 8.077344708e-16 0)
(3 1.385732295e-15 0)
(3 6.648472795e-16 0)
(3 4.68695485e-16 0)
(3 1.621100625e-15 0)
(3 1.700909233e-15 0)
(3 9.84888644e-16 0)
(3 3.119960639e-15 0)
(3 5.41748533e-15 0)
(3 6.105065538e-15 0)
(3 8.548310139e-15 0)
(3 1.102406434e-14 0)
(3 8.265851381e-15 0)
(3 4.889703676e-15 0)
(3 6.379867118e-15 0)
(3 6.9917552e-15 0)
(3 6.668532251e-15 0)
(3 4.227903678e-15 0)
(3 8.23137127e-15 0)
(3 8.515072674e-15 0)
(3 6.927064571e-15 0)
(3 4.956657457e-15 0)
(3 8.987566127e-15 0)
(3 6.1045499e-15 0)
(3 3.870013948e-15 0)
(3 4.325477959e-15 0)
(3 5.371678769e-16 0)
(3 -3.101902034e-15 0)
(3 -7.16589954e-15 0)
(3 -1.27502865e-14 0)
(3 -1.560779442e-14 0)
(3 -1.466601032e-14 0)
(3 -1.316854685e-14 0)
(3 -9.567541646e-15 0)
(3 -2.518339967e-15 0)
(3 6.690679225e-15 0)
(3 8.891534884e-15 0)
(3 6.551944687e-16 0)
(3 5.278295744e-16 0)
(3 4.075114763e-17 0)
(3 1.366237075e-15 0)
(3 3.129162992e-15 0)
(3 5.837439007e-15 0)
(3 6.232390508e-15 0)
(3 6.147198456e-15 0)
(3 1.520438829e-15 0)
(3 1.391147052e-16 0)
(3 1.582587298e-16 0)
(3 1.195328495e-15 0)
(3 4.428739091e-15 0)
(3 9.713458377e-15 0)
(3 1.277728695e-14 0)
(3 1.302191315e-14 0)
(3 1.185396477e-14 0)
(3 9.416069127e-15 0)
(3 1.109390078e-14 0)
(3 1.040772342e-14 0)
(3 1.08579708e-14 0)
(3 1.000629276e-14 0)
(3 6.48732732e-15 0)
(3 1.358624056e-15 0)
(3 -1.22187194e-16 0)
(3 -1.031183382e-16 0)
(3 -1.968339374e-15 0)
(3 -2.52299946e-15 0)
(3 -3.904047928e-15 0)
(3 -5.584575497e-15 0)
(3 -6.008634863e-15 0)
(3 -6.119580625e-15 0)
(3 -3.847826073e-15 0)
(3 -2.513119396e-15 0)
(3 -7.369199605e-16 0)
(3 2.49761936e-15 0)
(3 2.248112494e-15 0)
(3 1.114416411e-15 0)
(3 8.989521187e-16 0)
(3 -7.536129442e-16 0)
(3 -2.321552171e-15 0)
(3 -4.627739205e-15 0)
(3 -8.614669552e-15 0)
(3 -7.815397472e-15 0)
(3 -5.894952572e-15 0)
(3 -1.086984904e-15 0)
(3 1.155504971e-15 0)
(3 5.712871018e-15 0)
(3 7.065047427e-15 0)
(3 7.962975876e-15 0)
(3 8.390436819e-15 0)
(3 9.842403833e-15 0)
(3 7.895348604e-15 0)
(3 4.511284675e-15 0)
(3 3.026648598e-15 0)
(3 -2.77955816e-16 0)
(3 -5.440131261e-15 0)
(3 -1.528584914e-14 0)
(3 -1.925889823e-14 0)
(3 -1.927837149e-14 0)
(3 -1.47719821e-14 0)
(3 -9.587879851e-15 0)
(3 -7.513554499e-15 0)
(3 -3.370927183e-15 0)
(3 6.158315608e-15 0)
(3 1.409708365e-14 0)
(3 1.914834117e-14 0)
(3 1.010204082e-15 0)
(3 7.721270868e-16 0)
(3 1.969172261e-15 0)
(3 3.11495793e-15 0)
(3 4.015375589e-15 0)
(3 3.359273656e-15 0)
(3 2.714036624e-15 0)
(3 2.138199349e-15 0)
(3 2.114973087e-15 0)
(3 3.207344528e-15 0)
(3 7.456821858e-15 0)
(3 1.216061883e-14 0)
(3 1.278563857e-14 0)
(3 1.109582453e-14 0)
(3 1.126159207e-14 0)
(3 8.818700012e-15 0)
(3 9.648437055e-15 0)
(3 1.150584296e-14 0)
(3 1.196947358e-14 0)
(3 8.654271758e-15 0)
(3 6.567920202e-15 0)
(3 7.596085338e-16 0)
(3 -3.634095282e-15 0)
(3 -6.220680131e-15 0)
(3 -5.891538166e-15 0)
(3 -4.577080589e-15 0)
(3 -7.194164266e-15 0)
(3 -7.675866319e-15 0)
(3 -1.240584707e-14 0)
(3 -1.18319695e-14 0)
(3 -1.279999436e-14 0)
(3 -1.211375797e-14 0)
(3 -1.073250394e-14 0)
(3 -9.959390141e-15 0)
(3 -7.257953938e-15 0)
(3 -3.430529421e-15 0)
(3 -2.133684016e-15 0)
(3 -6.307651982e-16 0)
(3 -4.869048508e-16 0)
(3 -3.275275807e-15 0)
(3 -7.365377976e-15 0)
(3 -1.284516842e-14 0)
(3 -1.502244414e-14 0)
(3 -1.323240713e-14 0)
(3 -1.12401482e-14 0)
(3 -9.030724545e-15 0)
(3 -7.427030296e-15 0)
(3 6.096786272e-16 0)
(3 4.47928201e-15 0)
(3 6.766382997e-15 0)
(3 9.594626713e-15 0)
(3 1.16118654e-14 0)
(3 8.405307584e-15 0)
(3 6.10150132e-15 0)
(3 1.080330835e-15 0)
(3 -7.37536129e-15 0)
(3 -1.916195789e-14 0)
(3 -2.338328696e-14 0)
(3 -2.218118818e-14 0)
(3 -1.76871426e-14 0)
(3 -1.363581981e-14 0)
(3 -1.047894949e-14 0)
(3 -4.200621656e-15 0)
(3 4.095155885e-15 0)
(3 1.56973187e-14 0)
(3 2.072483982e-14 0)
(3 2.058819483e-14 0)
(3 1.032497878e-16 0)
(3 1.431570093e-15 0)
(3 1.32103631e-15 0)
(3 -7.767062246e-16 0)
(3 -1.470799122e-15 0)
(3 -4.232601528e-15 0)
(3 -6.124097045e-15 0)
(3 -5.883463849e-15 0)
(3 -5.078939034e-15 0)
(3 -4.516340971e-15 0)
(3 -3.782667404e-15 0)
(3 -1.028029777e-15 0)
(3 8.320290663e-16 0)
(3 2.315306247e-15 0)
(3 1.580920656e-15 0)
(3 1.619937579e-15 0)
(3 1.58528256e-15 0)
(3 2.811393849e-15 0)
(3 -2.106363655e-15 0)
(3 -2.922089519e-15 0)
(3 -4.696847167e-15 0)
(3 -7.007155979e-15 0)
(3 -7.791400604e-15 0)
(3 -6.005860823e-15 0)
(3 -6.755193999e-15 0)
(3 -8.648934e-15 0)
(3 -1.263190889e-14 0)
(3 -1.793182201e-14 0)
(3 -1.986162357e-14 0)
(3 -2.042062098e-14 0)
(3 -2.012946385e-14 0)
(3 -1.886800844e-14 0)
(3 -1.705578427e-14 0)
(3 -1.480117673e-14 0)
(3 -1.130135561e-14 0)
(3 -8.303583735e-15 0)
(3 -3.551852903e-15 0)
(3 4.488621056e-16 0)
(3 1.014982111e-15 0)
(3 1.045476465e-15 0)
(3 -1.101873578e-15 0)
(3 -5.761406792e-15 0)
(3 -9.294414728e-15 0)
(3 -9.97663381e-15 0)
(3 -9.232259192e-15 0)
(3 -8.085017252e-15 0)
(3 -7.758511942e-15 0)
(3 -3.637168874e-15 0)
(3 -1.214069922e-15 0)
(3 2.610192184e-15 0)
(3 7.933623334e-15 0)
(3 1.170937792e-14 0)
(3 6.911764771e-15 0)
(3 -4.517919875e-17 0)
(3 -6.194144498e-15 0)
(3 -1.321907485e-14 0)
(3 -1.937353138e-14 0)
(3 -2.27879263e-14 0)
(3 -2.415004957e-14 0)
(3 -1.622449969e-14 0)
(3 -1.019117855e-14 0)
(3 3.34570876e-16 0)
(3 7.130941347e-15 0)
(3 1.052116402e-14 0)
(3 1.411994336e-14 0)
(3 1.448707157e-14 0)
(3 1.443282194e-14 0)
(3 -1.162184017e-16 0)
(3 -2.726970114e-16 0)
(3 -2.009563929e-15 0)
(3 -2.664802511e-15 0)
(3 -5.421201243e-15 0)
(3 -5.916106563e-15 0)
(3 -5.515867049e-15 0)
(3 -4.733102912e-15 0)
(3 -4.131623156e-15 0)
(3 -4.980355776e-15 0)
(3 -4.896984002e-15 0)
(3 -4.886062798e-15 0)
(3 -5.95646858e-15 0)
(3 -3.201006639e-15 0)
(3 -2.950460092e-15 0)
(3 -2.762352737e-15 0)
(3 -5.767626306e-15 0)
(3 -1.084208684e-14 0)
(3 -1.238254361e-14 0)
(3 -1.224043889e-14 0)
(3 -1.0768412e-14 0)
(3 -7.8294652e-15 0)
(3 -7.162871522e-15 0)
(3 -6.963023917e-15 0)
(3 -8.104870657e-15 0)
(3 -1.087707984e-14 0)
(3 -1.201536867e-14 0)
(3 -1.361381992e-14 0)
(3 -1.415074076e-14 0)
(3 -1.746235976e-14 0)
(3 -1.768326325e-14 0)
(3 -1.7398691e-14 0)
(3 -1.497786652e-14 0)
(3 -1.202102746e-14 0)
(3 -9.91248627e-15 0)
(3 -4.510168835e-15 0)
(3 3.589174552e-16 0)
(3 4.234149007e-15 0)
(3 7.203821257e-15 0)
(3 9.219473664e-15 0)
(3 7.407107061e-15 0)
(3 3.986094177e-15 0)
(3 4.915863871e-15 0)
(3 1.750260242e-15 0)
(3 1.569198875e-16 0)
(3 -1.376436951e-15 0)
(3 -2.542732532e-15 0)
(3 -5.574494682e-15 0)
(3 -2.780719449e-15 0)
(3 8.512124491e-16 0)
(3 1.385779409e-15 0)
(3 -7.42030666e-16 0)
(3 -3.060904223e-15 0)
(3 -6.592880802e-15 0)
(3 -1.271784406e-14 0)
(3 -1.698164044e-14 0)
(3 -1.71812024e-14 0)
(3 -1.978920965e-14 0)
(3 -2.144351457e-14 0)
(3 -1.397512677e-14 0)
(3 -1.651476199e-15 0)
(3 8.219191083e-15 0)
(3 1.039233449e-14 0)
(3 1.545220548e-14 0)
(3 1.695361598e-14 0)
(3 2.018861873e-14 0)
(3 2.228690423e-14 0)
(3 -5.271259729e-17 0)
(3 -8.933381873e-16 0)
(3 -3.006517203e-16 0)
(3 -2.269317294e-17 0)
(3 -1.378575926e-16 0)
(3 -1.305010737e-16 0)
(3 1.583609808e-15 0)
(3 1.941931667e-15 0)
(3 2.796178926e-15 0)
(3 2.809539753e-15 0)
(3 2.528608563e-15 0)
(3 -1.93591839e-16 0)
(3 -4.19289067e-15 0)
(3 -7.125918118e-15 0)
(3 -8.552626609e-15 0)
(3 -9.698408021e-15 0)
(3 -1.058228239e-14 0)
(3 -1.134656205e-14 0)
(3 -8.456278262e-15 0)
(3 -6.084111211e-15 0)
(3 -3.139650847e-15 0)
(3 -3.360368296e-15 0)
(3 -4.166245259e-15 0)
(3 -5.274062115e-15 0)
(3 -8.314553872e-15 0)
(3 -9.995551527e-15 0)
(3 -9.554712575e-15 0)
(3 -7.739947018e-15 0)
(3 -8.968607408e-15 0)
(3 -9.429725095e-15 0)
(3 -9.693489882e-15 0)
(3 -1.086681475e-14 0)
(3 -1.133508697e-14 0)
(3 -1.100274703e-14 0)
(3 -1.004435374e-14 0)
(3 -5.479368458e-15 0)
(3 -6.017731603e-15 0)
(3 -3.745638156e-15 0)
(3 7.633711473e-16 0)
(3 6.084827286e-15 0)
(3 7.291817401e-15 0)
(3 5.992751739e-15 0)
(3 4.859016176e-15 0)
(3 2.805021804e-15 0)
(3 -8.53360284e-17 0)
(3 -4.769280549e-15 0)
(3 -6.254943374e-15 0)
(3 -6.024549759e-15 0)
(3 -5.097804767e-15 0)
(3 -4.895124079e-15 0)
(3 -9.335528083e-15 0)
(3 -1.12710751e-14 0)
(3 -7.769355518e-15 0)
(3 -6.323541599e-15 0)
(3 -9.752845054e-15 0)
(3 -1.35654236e-14 0)
(3 -1.343654859e-14 0)
(3 -1.352122744e-14 0)
(3 -9.601736428e-15 0)
(3 -1.962890155e-15 0)
(3 8.409509724e-15 0)
(3 9.067176912e-15 0)
(3 1.073280338e-14 0)
(3 1.21719812e-14 0)
(3 1.175890909e-14 0)
(3 1.424886287e-14 0)
(3 1.731165983e-14 0)
(3 -3.950973117e-16 0)
(3 1.600256953e-15 0)
(3 1.685568766e-15 0)
(3 1.573530839e-15 0)
(3 1.325573475e-15 0)
(3 1.574679765e-15 0)
(3 2.080089794e-15 0)
(3 2.542020429e-15 0)
(3 1.72656331e-15 0)
(3 1.773381288e-15 0)
(3 4.799360873e-16 0)
(3 -1.721106557e-15 0)
(3 -4.89684288e-15 0)
(3 -9.066074485e-15 0)
(3 -1.122961141e-14 0)
(3 -1.103452349e-14 0)
(3 -9.039486553e-15 0)
(3 -5.643720882e-15 0)
(3 -2.199194194e-15 0)
(3 -1.144008372e-15 0)
(3 5.822040435e-16 0)
(3 -1.569710538e-15 0)
(3 -3.545041207e-15 0)
(3 -3.957537496e-15 0)
(3 -4.061756415e-15 0)
(3 -5.293120823e-15 0)
(3 -4.666881358e-15 0)
(3 -2.958115124e-15 0)
(3 -2.00933408e-15 0)
(3 -3.447730508e-15 0)
(3 -6.632470642e-15 0)
(3 -7.542111357e-15 0)
(3 -7.185595124e-15 0)
(3 -7.046927419e-15 0)
(3 -6.439991366e-15 0)
(3 -7.258647953e-15 0)
(3 -1.044704646e-14 0)
(3 -8.848482597e-15 0)
(3 -4.215824566e-15 0)
(3 3.665619468e-15 0)
(3 7.327291125e-15 0)
(3 3.529422159e-15 0)
(3 -6.405414618e-16 0)
(3 -4.6853368e-15 0)
(3 -8.406890983e-15 0)
(3 -1.206484356e-14 0)
(3 -1.100667885e-14 0)
(3 -8.970992428e-15 0)
(3 -8.056414708e-15 0)
(3 -7.166106491e-15 0)
(3 -6.599587348e-15 0)
(3 -5.541421236e-15 0)
(3 -5.171166642e-15 0)
(3 -3.510661262e-15 0)
(3 -1.115248712e-15 0)
(3 -3.389265842e-15 0)
(3 -4.375966151e-15 0)
(3 -4.998122666e-15 0)
(3 -4.484634012e-15 0)
(3 -1.420450344e-15 0)
(3 2.357738161e-15 0)
(3 6.326976328e-15 0)
(3 8.778116199e-15 0)
(3 7.438639893e-15 0)
(3 9.013182035e-15 0)
(3 8.96889532e-15 0)
(3 8.957752351e-15 0)
(3 7.993970582e-17 0)
(3 1.594031552e-15 0)
(3 1.679738735e-15 0)
(3 1.476940874e-15 0)
(3 1.59683909e-15 0)
(3 1.973415842e-15 0)
(3 9.907090427e-17 0)
(3 -2.242331222e-15 0)
(3 -5.662046632e-15 0)
(3 -6.262577825e-15 0)
(3 -7.044906629e-15 0)
(3 -6.199478359e-15 0)
(3 -5.445364012e-15 0)
(3 -5.23034149e-15 0)
(3 -5.743891802e-15 0)
(3 -5.282494353e-15 0)
(3 -3.72308885e-15 0)
(3 -2.23867727e-15 0)
(3 -3.415277073e-15 0)
(3 -6.932464252e-15 0)
(3 -9.001798394e-15 0)
(3 -1.107733074e-14 0)
(3 -8.611783029e-15 0)
(3 -5.860119885e-15 0)
(3 -4.769193093e-16 0)
(3 2.10643449e-15 0)
(3 2.400380201e-15 0)
(3 6.435877645e-16 0)
(3 8.692530227e-16 0)
(3 -5.259083373e-16 0)
(3 -8.973436184e-17 0)
(3 -3.083930053e-15 0)
(3 -1.396217585e-15 0)
(3 -4.458664549e-15 0)
(3 -7.476907167e-15 0)
(3 -7.392820039e-15 0)
(3 -6.220112676e-15 0)
(3 -3.003432681e-15 0)
(3 -6.300081811e-16 0)
(3 1.828833878e-15 0)
(3 5.776736748e-15 0)
(3 1.453853469e-15 0)
(3 -2.362566578e-15 0)
(3 -7.14237881e-15 0)
(3 -9.328977646e-15 0)
(3 -1.129128293e-14 0)
(3 -1.000005604e-14 0)
(3 -8.573925736e-15 0)
(3 -8.999484446e-15 0)
(3 -7.553742089e-15 0)
(3 -6.709186907e-15 0)
(3 -5.992822501e-15 0)
(3 -6.884446861e-15 0)
(3 -6.688425371e-15 0)
(3 -5.941777723e-15 0)
(3 -2.585938174e-15 0)
(3 3.196512828e-15 0)
(3 5.676012137e-15 0)
(3 6.242215568e-15 0)
(3 6.351841179e-15 0)
(3 2.667647993e-15 0)
(3 1.523858735e-15 0)
(3 -2.521697591e-15 0)
(3 -4.746095655e-15 0)
(3 -6.69402163e-15 0)
(3 -5.227553585e-15 0)
(3 -1.101822527e-15 0)
(3 -2.028353073e-16 0)
(3 1.841947052e-16 0)
(3 6.308625121e-16 0)
(3 4.340818216e-16 0)
(3 -1.601253853e-15 0)
(3 -3.128850637e-15 0)
(3 -6.267898187e-15 0)
(3 -8.151300565e-15 0)
(3 -8.177726236e-15 0)
(3 -7.377336883e-15 0)
(3 -5.095278833e-15 0)
(3 -2.935285585e-15 0)
(3 -2.077499679e-15 0)
(3 -5.913205609e-16 0)
(3 -2.85162701e-16 0)
(3 -8.707354491e-16 0)
(3 -1.938058454e-15 0)
(3 -2.434191018e-15 0)
(3 -5.026344967e-15 0)
(3 -6.144364517e-15 0)
(3 -7.637844398e-15 0)
(3 -1.152701171e-14 0)
(3 -1.218618226e-14 0)
(3 -1.128677675e-14 0)
(3 -1.004282265e-14 0)
(3 -7.071960339e-15 0)
(3 -4.657558535e-15 0)
(3 -3.781667952e-15 0)
(3 -4.516789971e-15 0)
(3 -1.953945643e-15 0)
(3 3.484315772e-15 0)
(3 2.514267207e-15 0)
(3 3.514151313e-15 0)
(3 3.630569219e-16 0)
(3 -4.78649431e-16 0)
(3 -4.507361064e-15 0)
(3 -7.032744223e-15 0)
(3 -7.82242874e-15 0)
(3 -8.490508123e-15 0)
(3 -1.232473289e-14 0)
(3 -7.939503117e-15 0)
(3 2.313385913e-15 0)
(3 3.213078118e-15 0)
(3 -2.053739426e-15 0)
(3 -5.224919547e-15 0)
(3 -3.694554245e-15 0)
(3 -3.768029873e-16 0)
(3 6.10236325e-18 0)
(3 1.677085414e-15 0)
(3 2.279426955e-15 0)
(3 1.420312126e-15 0)
(3 2.456561328e-15 0)
(3 4.033761488e-15 0)
(3 6.391320682e-15 0)
(3 7.977944226e-15 0)
(3 1.034419547e-14 0)
(3 1.15849066e-14 0)
(3 1.245258835e-14 0)
(3 1.180472407e-14 0)
(3 8.89431261e-15 0)
(3 5.315137566e-15 0)
(3 6.593818098e-16 0)
(3 -5.783437347e-15 0)
(3 -1.226290403e-14 0)
(3 -1.528435525e-14 0)
(3 -1.512597336e-14 0)
(3 -9.925301254e-15 0)
(3 3.775515273e-16 0)
(3 -1.149842578e-15 0)
(3 -1.744340519e-15 0)
(3 -3.547483775e-15 0)
(3 -5.214126148e-15 0)
(3 -5.469392478e-15 0)
(3 -5.293106736e-15 0)
(3 -4.300024267e-15 0)
(3 -2.398712447e-15 0)
(3 -9.837601195e-16 0)
(3 8.663505641e-16 0)
(3 2.324264208e-15 0)
(3 4.879719846e-15 0)
(3 4.19887887e-15 0)
(3 3.132104334e-15 0)
(3 -1.843893019e-15 0)
(3 -3.519673381e-15 0)
(3 -5.786476244e-15 0)
(3 -4.9274911e-15 0)
(3 -4.966167357e-15 0)
(3 -3.581369853e-15 0)
(3 -3.084992038e-15 0)
(3 -4.710871588e-15 0)
(3 -9.72768462e-15 0)
(3 -1.613971088e-14 0)
(3 -1.649333996e-14 0)
(3 -1.472408716e-14 0)
(3 -1.238098993e-14 0)
(3 -1.086562814e-14 0)
(3 -7.507012779e-15 0)
(3 -8.817272186e-16 0)
(3 6.619650544e-15 0)
(3 6.99321185e-15 0)
(3 7.891317422e-15 0)
(3 8.639290522e-15 0)
(3 7.011954856e-15 0)
(3 7.554829769e-16 0)
(3 -5.992306193e-15 0)
(3 -1.293084549e-14 0)
(3 -1.490935669e-14 0)
(3 -1.508850891e-14 0)
(3 -1.004517507e-14 0)
(3 -2.462669053e-15 0)
(3 1.022529654e-15 0)
(3 3.109835503e-15 0)
(3 5.109106478e-15 0)
(3 5.23627108e-15 0)
(3 4.863818388e-15 0)
(3 5.978058175e-15 0)
(3 7.996236197e-15 0)
(3 9.447822728e-15 0)
(3 1.103769839e-14 0)
(3 1.543993097e-14 0)
(3 2.03243676e-14 0)
(3 1.982406358e-14 0)
(3 1.637766395e-14 0)
(3 1.4714967e-14 0)
(3 1.428779359e-14 0)
(3 1.389624753e-14 0)
(3 1.183386652e-14 0)
(3 1.134301492e-14 0)
(3 9.078775004e-15 0)
(3 7.008170871e-15 0)
(3 3.917868881e-15 0)
(3 -4.129766035e-15 0)
(3 -9.153874571e-15 0)
(3 -1.17821932e-14 0)
(3 1.706765014e-16 0)
(3 1.97978358e-16 0)
(3 2.878750427e-17 0)
(3 -1.151497262e-15 0)
(3 -8.301465493e-16 0)
(3 -1.4567636e-15 0)
(3 1.588731311e-15 0)
(3 1.943891059e-15 0)
(3 1.590839963e-15 0)
(3 1.656485712e-15 0)