/*--------------------------------*- C++ -*----------------------------------*\
  =========                 |
  \\      /  F ield         | OpenFOAM: The Open Source CFD Toolbox
   \\    /   O peration     | Website:  https://openfoam.org
    \\  /    A nd           | Version:  7
     \\/     M anipulation  |
\*---------------------------------------------------------------------------*/
FoamFile
{
    version     2.0;
    format      ascii;
    class       volScalarField;
    location    "4.7";
    object      T;
}
// * * * * * * * * * * * * * * * * * * * * * * * * * * * * * * * * * * * * * //

dimensions      [0 0 0 1 0 0 0];

internalField   nonuniform List<scalar> 
2222
(
1.215573487
1.265016507
1.626198166
1.628957485
0.7223236105
0.9381243927
1.174388262
1.210100703
1.21131643
1.203141201
1.192102364
1.193000436
1.201587249
1.206458003
1.202581516
1.202767031
1.207614486
1.20988689
1.208487829
1.209564587
1.21250163
1.213582902
1.213939903
1.214709367
1.215185743
1.214416287
1.211041429
1.21019129
1.211022339
1.212818294
1.214173265
1.215688542
1.217389389
1.217853807
1.217441732
1.260228242
1.628857462
1.631507351
0.7181964614
0.7567944037
1.10301844
1.20885535
1.211021825
1.206135044
1.193812431
1.192691188
1.198319995
1.208880737
1.208151818
1.202972908
1.205404503
1.209748053
1.20966264
1.208975168
1.211103154
1.213278737
1.213757387
1.214197278
1.21584343
1.216771785
1.215798823
1.213338163
1.212766204
1.213662989
1.214807337
1.21531211
1.215917378
1.21744511
1.21899932
1.219141145
1.254520234
1.631553443
1.633336292
0.7163769079
0.9620059171
1.184071313
1.212629307
1.207323569
1.19484722
1.193209714
1.196630664
1.207146412
1.210817977
1.207077956
1.204998222
1.208732481
1.210986324
1.209624878
1.210715053
1.213704585
1.214959334
1.214595621
1.214697429
1.215881069
1.217196345
1.216864266
1.215354885
1.215319833
1.216492343
1.217595214
1.217289596
1.217092313
1.217716984
1.218761885
1.220189385
1.248106584
1.634638507
1.633543554
0.772272817
1.114449522
1.204576479
1.208048976
1.19670557
1.193022398
1.19705942
1.20747533
1.211805031
1.210758184
1.204811595
1.206995622
1.211043799
1.211092764
1.210910497
1.213392403
1.216650951
1.216813636
1.21572588
1.215663746
1.216275352
1.216873724
1.217382778
1.217416351
1.217627451
1.21888768
1.219901542
1.219406362
1.218690342
1.218766563
1.219065077
1.220360334
1.242193341
1.63759584
1.633073131
0.9877610572
1.170556186
1.201096435
1.197587892
1.195682162
1.19746701
1.207013173
1.213349182
1.21330542
1.208001828
1.205209933
1.209654118
1.212523349
1.211624634
1.213030334
1.216717724
1.218562459
1.217987591
1.216750642
1.217104739
1.216987082
1.216585115
1.216987979
1.218299809
1.21908378
1.220406864
1.221437861
1.220714294
1.219791864
1.21928658
1.219759309
1.220643927
1.237880393
1.639502768
1.632721937
1.124609198
1.207278582
1.199184436
1.197978788
1.201625234
1.210564391
1.215968942
1.213703016
1.210508033
1.204076328
1.207006783
1.212759661
1.213163027
1.21303349
1.215294973
1.218946808
1.219614548
1.21851406
1.21877303
1.218931764
1.21780678
1.217105439
1.21722062
1.217833909
1.21947479
1.221335437
1.221896429
1.221278414
1.220200317
1.220539348
1.220959172
1.221364965
1.235171239
1.639832318
1.633182008
1.170860175
1.218664519
1.203780892
1.202886695
1.212911308
1.219455163
1.21827396
1.213777365
1.206065436
1.205056505
1.209958885
1.214387946
1.213620519
1.214373122
1.217744464
1.219674495
1.219394249
1.219495606
1.220664212
1.220379617
1.218814589
1.218219216
1.218193165
1.218058812
1.218563977
1.220390901
1.221623187
1.221753388
1.222028043
1.22262383
1.222604793
1.222387093
1.233683526
1.639540208
1.634533803
1.204525281
1.220560814
1.214493527
1.215575675
1.222066334
1.221382366
1.217585185
1.208772453
1.205258059
1.20819191
1.214997849
1.215562319
1.214719566
1.21607008
1.218657568
1.219360131
1.218773571
1.22041935
1.222108819
1.221383695
1.219957277
1.220040326
1.219766007
1.21889474
1.218412447
1.219279748
1.221394388
1.223125486
1.224028337
1.224604833
1.224604851
1.223856115
1.23308186
1.638828326
1.637505371
1.221767734
1.220983836
1.220867528
1.223133887
1.224142692
1.221559202
1.213647357
1.207182811
1.20801044
1.213784934
1.217946696
1.216816375
1.216381245
1.218257312
1.220033814
1.219228623
1.218781277
1.220692507
1.22250367
1.22209201
1.221674118
1.221879641
1.221562278
1.220137838
1.219147452
1.219567743
1.221123916
1.223971156
1.226006554
1.226705403
1.226655682
1.226009076
1.233005345
1.637185958
1.216365271
1.226381284
1.219220558
1.224051836
1.225091017
1.222914933
1.215489078
1.209477463
1.21050724
1.214387607
1.219920106
1.219780311
1.217510614
1.218456724
1.220896684
1.221374335
1.219849974
1.220233964
1.221655715
1.222133002
1.222647143
1.22359487
1.223841368
1.223195379
1.221725242
1.220897233
1.221066023
1.22237504
1.224557314
1.226833305
1.228465424
1.228714212
1.228033781
1.233269126
1.633683434
1.229584244
1.228059101
1.214563887
1.222725975
1.223789652
1.217357354
1.210848173
1.211875995
1.214879353
1.221554341
1.222715777
1.22064971
1.219109561
1.221569156
1.223697068
1.222606733
1.221663122
1.223001227
1.223421328
1.222545901
1.223061927
1.225077091
1.22572471
1.225125507
1.224290918
1.223467735
1.223493028
1.224432279
1.225493441
1.226620309
1.228670392
1.230273519
1.229851273
1.233678369
1.62733008
1.234396021
1.227341166
1.215999867
1.219824144
1.218539886
1.214654855
1.213785676
1.215912158
1.223240664
1.224208475
1.223174584
1.219993376
1.221685081
1.224748285
1.22562606
1.224675617
1.225253815
1.226217278
1.225332834
1.223911507
1.224331613
1.225844075
1.227242703
1.227335906
1.226867493
1.226284142
1.226435546
1.227454737
1.227734962
1.227931834
1.22869592
1.230448987
1.231175747
1.234186567
1.617685742
1.232949792
1.218832646
1.221052724
1.223414984
1.219382821
1.218177283
1.218959289
1.223919401
1.226454728
1.226007536
1.222288455
1.2212826
1.224318696
1.226857314
1.226844109
1.227427328
1.228789581
1.228906578
1.227126272
1.226366825
1.226634624
1.227101161
1.228190846
1.229563359
1.229666443
1.229228302
1.22931113
1.230435142
1.230901247
1.230321605
1.230065219
1.230533272
1.231808424
1.234826125
1.606268499
1.224924748
1.217861341
1.228198144
1.228549081
1.224746046
1.224822651
1.228086282
1.230211173
1.228631077
1.224784824
1.221315347
1.223490034
1.22662836
1.227736337
1.227659047
1.229475667
1.231474032
1.230773921
1.229266517
1.229343456
1.229347601
1.22906472
1.229496793
1.231150771
1.232193648
1.232226542
1.232193519
1.233336119
1.233546353
1.232678717
1.231703562
1.231411433
1.232296959
1.235711523
1.595036629
1.217035519
1.2194298
1.235379653
1.234269695
1.231629917
1.233783508
1.235259856
1.233413139
1.228027618
1.222838412
1.223476652
1.225935436
1.228278036
1.228111161
1.228088041
1.230201215
1.232234138
1.231990718
1.232037784
1.232516018
1.232126274
1.231477415
1.231631351
1.232766938
1.233785796
1.234265518
1.234555424
1.235434794
1.235358385
1.234269919
1.233170175
1.233009867
1.233477901
1.23675051
1.583564398
1.21523899
1.225229399
1.236346515
1.235941877
1.236836955
1.237864408
1.237252673
1.232528939
1.225331978
1.224287154
1.226400218
1.229361126
1.229537048
1.227903023
1.228611488
1.230625072
1.231739117
1.233255571
1.234721042
1.235124191
1.234665561
1.23396182
1.234108311
1.234950921
1.235281102
1.235361829
1.235884578
1.236709766
1.236741659
1.235961905
1.235346855
1.235566488
1.235696255
1.237973111
1.571742238
1.210556989
1.216423654
1.23155915
1.233396947
1.233879723
1.236109113
1.237495628
1.235410363
1.228515415
1.226918605
1.227622665
1.230302372
1.231363176
1.229713088
1.227935845
1.229341436
1.230834406
1.231328962
1.233839652
1.236857346
1.237278092
1.236662285
1.236244931
1.236766228
1.237323415
1.236967261
1.236239191
1.236301705
1.23732166
1.238482493
1.238365528
1.238098697
1.238405577
1.238022724
1.239422245
1.558456439
1.207960531
1.221324655
1.230472818
1.227584913
1.228474469
1.231695742
1.232578825
1.228703484
1.227371552
1.228031315
1.231015501
1.232836312
1.231736921
1.228758695
1.229253666
1.230578838
1.230865372
1.232071732
1.234369245
1.237196771
1.238541758
1.238331126
1.238578701
1.23929559
1.239382277
1.238571394
1.237418459
1.236968494
1.237754285
1.239740775
1.240935902
1.241122536
1.241026869
1.240545233
1.241218553
1.54353288
1.210824456
1.224669657
1.226317793
1.219601967
1.221572379
1.224690483
1.225085722
1.225528726
1.226962826
1.230729082
1.233596341
1.233281281
1.231589585
1.230594537
1.232013732
1.232587018
1.232005019
1.233076264
1.235303067
1.236986441
1.238469277
1.239689095
1.240344263
1.240897264
1.240902021
1.240222371
1.238890725
1.23837242
1.238781108
1.240085338
1.242416513
1.243534352
1.243643009
1.243155904
1.243048495
1.526885497
1.218222712
1.223825024
1.221292016
1.217186282
1.220008231
1.222114933
1.222715716
1.224158805
1.228867986
1.233059437
1.233241847
1.232177614
1.230249945
1.231307489
1.23392716
1.23442223
1.234275275
1.235073956
1.236354103
1.237102381
1.238090192
1.240252549
1.241468489
1.241913286
1.241865307
1.241502537
1.240906083
1.240022039
1.240021173
1.240777474
1.242849018
1.245131627
1.245605344
1.244964509
1.244519102
1.509178387
1.222315482
1.222994025
1.216310821
1.219231962
1.222474314
1.222782846
1.222986051
1.225839107
1.231163619
1.231845129
1.230974384
1.228812371
1.229427448
1.232183945
1.234754753
1.235269679
1.236026464
1.237207145
1.237527936
1.237499121
1.238316225
1.239874727
1.24153008
1.24223471
1.242845827
1.243114133
1.242650258
1.241852588
1.241222406
1.241862614
1.243113163
1.245025518
1.246589282
1.246368826
1.245726828
1.491783587
1.224324789
1.220401348
1.217894533
1.224509059
1.228078385
1.227511852
1.228157654
1.231119206
1.231322364
1.230531655
1.2278925
1.226982279
1.22943706
1.233024555
1.234882313
1.235816061
1.237375508
1.238572337
1.23865677
1.238509556
1.238959003
1.239790519
1.240641141
1.241691003
1.243366953
1.243871048
1.243468977
1.242870937
1.242843905
1.243399991
1.244195884
1.245069739
1.24661655
1.246939364
1.246135552
1.476599759
1.223803914
1.21892022
1.222061834
1.232397366
1.234466855
1.233598014
1.233588286
1.233607389
1.232712461
1.228819601
1.226734983
1.226974394
1.228725662
1.231402851
1.233533638
1.236184045
1.23838588
1.239412645
1.239537691
1.239790928
1.240184355
1.240380585
1.240294167
1.240908902
1.242506959
1.243493544
1.243537005
1.243493169
1.244072048
1.24519896
1.245574378
1.245480476
1.245839997
1.246764228
1.246553878
1.228192373
1.221116416
1.221588293
1.229819404
1.236470884
1.237037087
1.236447352
1.236288662
1.235026612
1.231081211
1.228342927
1.227748293
1.22854469
1.230047906
1.23073317
1.231583579
1.235261062
1.239238464
1.240222625
1.240754381
1.241289508
1.241606571
1.241174688
1.240761754
1.241267069
1.241890028
1.242141238
1.242830879
1.244025875
1.244870155
1.246075476
1.246396423
1.245610785
1.245188322
1.245845935
1.247043547
1.226525963
1.220184158
1.225289554
1.235618689
1.237646844
1.238024584
1.238084911
1.237646295
1.235534912
1.233133657
1.23157581
1.231495764
1.231831658
1.231678216
1.230439541
1.231350494
1.234698932
1.239034212
1.241314248
1.242248914
1.242774844
1.242756353
1.241733395
1.241559908
1.242131777
1.242220295
1.241824835
1.24209483
1.243619812
1.245182824
1.246380643
1.245983336
1.244749814
1.24416204
1.244714667
1.246903415
1.222264017
1.222931726
1.23033485
1.236006089
1.236333578
1.236379226
1.237107423
1.236964849
1.235764131
1.23519408
1.235556374
1.235771305
1.234690829
1.231879189
1.230992937
1.232373216
1.23533182
1.238068941
1.241454675
1.24351772
1.244058044
1.24355005
1.243181931
1.243422458
1.243476277
1.242659828
1.242393923
1.242508131
1.243008932
1.244547941
1.245755473
1.245402392
1.244279522
1.244153661
1.244410901
1.246072625
1.222305108
1.227523737
1.235654879
1.236693151
1.233445768
1.234501217
1.236650725
1.237352997
1.237550807
1.238077597
1.239726881
1.238805638
1.236464747
1.234046313
1.233808384
1.235171728
1.236959755
1.238431314
1.240660912
1.24357093
1.24481321
1.244348819
1.244489015
1.244817932
1.244678181
1.244532508
1.243989545
1.243516956
1.243335387
1.243866232
1.245190828
1.245528548
1.245262794
1.24482869
1.244983355
1.245675694
1.225913324
1.234049034
1.238107053
1.234971254
1.233679386
1.235775031
1.237486297
1.237957524
1.239123498
1.241066443
1.241497266
1.240138019
1.237384635
1.236263377
1.237042059
1.238698226
1.239511429
1.239696185
1.24093097
1.242859865
1.244335989
1.244989431
1.245687104
1.245970819
1.245987354
1.246212428
1.246095946
1.245372814
1.244364405
1.244336649
1.245180242
1.246423423
1.246683178
1.246650958
1.246153181
1.246119034
1.230875451
1.238733209
1.23809216
1.233792882
1.235792074
1.238345327
1.239327701
1.239293842
1.239109644
1.240334343
1.240635753
1.239408833
1.238143083
1.23861129
1.240402931
1.241702188
1.241585228
1.241719905
1.242218307
1.243018627
1.243570638
1.244599583
1.245711851
1.246482061
1.247321268
1.247862239
1.247822982
1.247264859
1.245865658
1.245333765
1.246010637
1.247808268
1.248734099
1.249008447
1.2484198
1.247343217
1.229463222
1.237587941
1.240074836
1.238522819
1.23718236
1.240367661
1.243200091
1.242955482
1.242194434
1.24161052
1.241003362
1.239489115
1.238243015
1.239057809
1.240907124
1.243274653
1.243834351
1.243448251
1.243742943
1.244025368
1.243523597
1.243588717
1.244508379
1.245136636
1.245681106
1.247211626
1.249276856
1.249531516
1.248866193
1.247463889
1.246942217
1.247440001
1.249569367
1.251149878
1.25157359
1.251012744
1.249269939
1.236055309
1.239441849
1.239912979
1.238646341
1.240903334
1.245206885
1.246650939
1.245915573
1.245142918
1.244335641
1.241342903
1.238795024
1.238523691
1.239639281
1.242584047
1.244644364
1.24526404
1.245316242
1.245609243
1.244767016
1.244176923
1.244590336
1.245422171
1.245555307
1.245734364
1.246756312
1.249219551
1.250698354
1.250286717
1.249136598
1.248643907
1.249006666
1.250618194
1.252946545
1.253623183
1.253118784
1.251299441
1.236321671
1.237675082
1.23714623
1.240440513
1.245923258
1.248202715
1.248474238
1.247774692
1.246457617
1.244015678
1.241304563
1.240004169
1.239930388
1.240527446
1.24179954
1.24353818
1.245575662
1.247197207
1.247236284
1.246839595
1.246532853
1.246810911
1.246883964
1.246594249
1.246731775
1.247583259
1.249183641
1.250912704
1.251188211
1.250564559
1.249961348
1.250144845
1.251078436
1.253132283
1.254802531
1.254618941
1.252857354
1.236731309
1.234979737
1.234777015
1.242673985
1.248247656
1.249645764
1.248921123
1.248127762
1.247546891
1.246527554
1.244777095
1.243537614
1.243230867
1.24317613
1.243033128
1.243062026
1.244827825
1.248004689
1.248800618
1.248603552
1.248402095
1.24856285
1.248573282
1.248473295
1.248566029
1.249080003
1.250251188
1.251536898
1.252202688
1.251988554
1.251437283
1.251339209
1.25171377
1.252333643
1.254121356
1.255430922
1.254157762
1.234917488
1.232535295
1.2355496
1.241666804
1.247220063
1.248415618
1.248011955
1.248471649
1.249327011
1.248953981
1.248261291
1.247676877
1.24689738
1.246118612
1.244501759
1.243707077
1.244589955
1.247131087
1.249247498
1.249883518
1.249965568
1.25005585
1.250290764
1.250925136
1.251230419
1.25137671
1.251937018
1.252989893
1.253809573
1.253826484
1.253333669
1.252988023
1.252975443
1.252771358
1.252937941
1.254778361
1.255700566
1.233953882
1.234664155
1.238664445
1.242784074
1.245316035
1.246279724
1.247579126
1.248999967
1.250366242
1.251856876
1.25220523
1.251387669
1.249740703
1.247383798
1.245130453
1.244857132
1.245745134
1.246793922
1.248218772
1.250029254
1.250970767
1.251451964
1.252171664
1.252998042
1.253553703
1.253717649
1.254063568
1.254882208
1.255849607
1.255972803
1.255562132
1.254988775
1.254249265
1.253093184
1.252678331
1.253847103
1.256319587
1.238861725
1.240202399
1.244052079
1.245886343
1.24496256
1.246151513
1.248148855
1.248854174
1.249722588
1.251852449
1.254011678
1.253767276
1.251704421
1.248879893
1.247742376
1.247693759
1.247981274
1.24801616
1.24842351
1.249725721
1.251010582
1.251787109
1.253134614
1.255049387
1.255815644
1.255874276
1.256106743
1.256937815
1.25800556
1.258193781
1.257602687
1.256433532
1.254850842
1.253668462
1.253630835
1.254346163
1.256204359
1.247203349
1.245912139
1.247405876
1.249067385
1.248508678
1.246260569
1.24833622
1.250629416
1.250921346
1.250961108
1.25166837
1.253149391
1.253825209
1.252856453
1.251389164
1.250823931
1.250778561
1.250673405
1.2500248
1.249963993
1.250831365
1.251784948
1.252369593
1.253519486
1.255918796
1.257583291
1.257827457
1.258084591
1.258510867
1.258974324
1.259545637
1.259226012
1.258002173
1.257261178
1.256325248
1.255571995
1.255726715
1.254069095
1.253519701
1.253568107
1.252492775
1.249317124
1.250501227
1.252691781
1.255042444
1.255055095
1.254200022
1.253758171
1.253365765
1.253016971
1.253295695
1.2541946
1.254228008
1.253886271
1.253070797
1.251993605
1.252184453
1.253017479
1.253908666
1.254442768
1.255253675
1.256731968
1.258592068
1.259436669
1.259864996
1.259915501
1.259452249
1.259371698
1.259936338
1.260163098
1.259723492
1.25922836
1.258638338
1.258100559
1.257550548
1.257421517
1.256852644
1.254431416
1.253987402
1.255952353
1.258442677
1.259948495
1.259661305
1.25821177
1.256370002
1.254900628
1.253942093
1.253838445
1.255427869
1.256977669
1.256559479
1.255303925
1.255021569
1.255479338
1.256173486
1.256743646
1.257179924
1.257736293
1.25878067
1.260470913
1.261648893
1.262166507
1.262143536
1.26122943
1.26032939
1.26013098
1.261624017
1.262359652
1.26223993
1.262036287
1.261478175
1.256597729
1.258594619
1.25790625
1.256886253
1.258801963
1.261224465
1.26334792
1.263629142
1.261479222
1.259693589
1.258211182
1.257025788
1.256122285
1.255621736
1.256288688
1.257982748
1.258358113
1.257838334
1.258287018
1.258853195
1.25944443
1.260047435
1.260646549
1.261111622
1.261662735
1.262933279
1.264625267
1.265357724
1.26508563
1.263665425
1.261976146
1.261275528
1.261924775
1.264330858
1.265227993
1.265274256
1.264728448
1.254493105
1.25411466
1.255156653
1.258740908
1.263227603
1.265576292
1.266769456
1.265887419
1.26470538
1.264189266
1.2629583
1.261264722
1.260032629
1.259103552
1.258854917
1.258953452
1.259576911
1.260571924
1.261367486
1.26191984
1.262508633
1.263506707
1.264290467
1.264565029
1.264778981
1.265470397
1.267544348
1.26855096
1.268110812
1.266596477
1.264655642
1.263322759
1.263064252
1.264680505
1.267496577
1.268034709
1.267482252
1.253222893
1.252300711
1.253531679
1.258401161
1.263829033
1.266586676
1.267191575
1.268274344
1.269326097
1.269054674
1.267907296
1.266040808
1.264572091
1.263519282
1.262063125
1.261041425
1.261685404
1.263238517
1.26390699
1.264055803
1.264427762
1.265762566
1.267214778
1.267377332
1.267233409
1.267498153
1.268722187
1.270400144
1.270665452
1.269762157
1.267992082
1.265950805
1.265105506
1.265575116
1.267681503
1.269693865
1.269553286
1.257597082
1.25530941
1.25470561
1.255926266
1.259476636
1.263279239
1.264371413
1.265143687
1.2688287
1.272999268
1.274063187
1.273077993
1.271112021
1.269216476
1.266960226
1.264458547
1.263590897
1.264805673
1.266714088
1.267197721
1.267037799
1.266912587
1.267680294
1.269112649
1.269762809
1.269949428
1.270110447
1.270359864
1.271115156
1.272332352
1.27233593
1.271040263
1.268879621
1.26759497
1.267290678
1.268112989
1.270408719
1.271253673
1.263611381
1.261275311
1.26039852
1.261533505
1.264145239
1.265424059
1.264655932
1.265129605
1.268385256
1.273138292
1.276420653
1.27662162
1.275188827
1.272592053
1.26956181
1.26726097
1.267276674
1.268748394
1.270810432
1.271159688
1.270668423
1.270369963
1.270891206
1.272114941
1.27322795
1.273783133
1.2738652
1.273413191
1.273466165
1.274397552
1.274743901
1.273913388
1.272097818
1.270298933
1.269402537
1.26952648
1.270836386
1.273095151
1.270727871
1.268879289
1.268130093
1.269101289
1.270080415
1.268523806
1.266880364
1.267529988
1.270357394
1.273606283
1.276557151
1.27778484
1.277041509
1.274327469
1.271755225
1.270859256
1.271348276
1.272574806
1.274359357
1.274889059
1.274355901
1.274141035
1.274376519
1.275350442
1.277398323
1.278569189
1.278418228
1.277503505
1.277165923
1.277591431
1.277874362
1.277194653
1.275524559
1.273482384
1.272122324
1.271682557
1.272042325
1.274559883
1.277620467
1.276172054
1.274978354
1.275000995
1.272638015
1.270917209
1.271034215
1.27270261
1.275057997
1.276508133
1.278070423
1.278981961
1.278403686
1.276243487
1.274682369
1.274576475
1.274878257
1.275639182
1.276730986
1.277878542
1.277876976
1.277834478
1.277772643
1.278376784
1.280670527
1.28280592
1.28258445
1.281496114
1.280895962
1.280799341
1.280842878
1.280505184
1.279076508
1.277182929
1.275714563
1.274876003
1.274789594
1.276090035
1.281787959
1.280767298
1.279497256
1.277737855
1.275444045
1.275923015
1.277537888
1.279444996
1.280813185
1.2804846
1.280314975
1.280223986
1.279698062
1.278899415
1.278565154
1.278649306
1.278636688
1.278601892
1.278807115
1.280139786
1.281153544
1.281199221
1.280877072
1.281078523
1.282392415
1.284587957
1.285140829
1.284396756
1.283581329
1.283095551
1.283031805
1.283289615
1.282629983
1.281128821
1.279778719
1.278748561
1.278145121
1.278506968
1.282235291
1.281833476
1.280574305
1.278635986
1.279098656
1.281160003
1.283404228
1.285148444
1.284554302
1.28343957
1.282351391
1.282331906
1.282245629
1.282709558
1.283158448
1.283228278
1.282717614
1.281852923
1.281435427
1.282453575
1.284079542
1.284191308
1.283832652
1.283767186
1.284131379
1.285173042
1.286491192
1.286348007
1.285592626
1.284847822
1.284623862
1.285192202
1.285482779
1.284796958
1.283767623
1.2828759
1.282118435
1.282084007
1.278169813
1.278867798
1.279535724
1.2799763
1.28275698
1.286530779
1.288643285
1.28853894
1.286894282
1.286017387
1.28579315
1.285522285
1.285653339
1.286721485
1.287592539
1.287457808
1.286281726
1.284874148
1.28413156
1.285069006
1.286763405
1.287003265
1.286782151
1.286480674
1.286289511
1.28660924
1.287957708
1.288638645
1.288089625
1.287154538
1.286590522
1.286701869
1.287264848
1.287658491
1.287516199
1.28709944
1.28663941
1.27705828
1.276270654
1.277723265
1.280111081
1.282351147
1.285524116
1.290318596
1.292429259
1.290890306
1.289337205
1.290384597
1.290782499
1.289862385
1.289536132
1.289952928
1.290549639
1.290520877
1.289701719
1.288447428
1.287894209
1.288193338
1.289235982
1.289843845
1.28985328
1.289521812
1.289022291
1.289081648
1.290295366
1.291343397
1.290746493
1.289799641
1.289108868
1.288616352
1.288556406
1.289266614
1.290515898
1.291074517
1.29127334
1.279745384
1.27824712
1.280080813
1.2834648
1.286382997
1.289267513
1.29293249
1.294808852
1.293821996
1.293562085
1.295318918
1.295742337
1.294390295
1.293290444
1.292623606
1.292240146
1.292421524
1.293288267
1.293061103
1.292117986
1.291182885
1.291141104
1.292182718
1.292846381
1.292778561
1.292467662
1.292618644
1.293526082
1.294550767
1.294153633
1.293347485
1.292374137
1.291126348
1.290038529
1.290015591
1.291694857
1.293851786
1.29502471
1.286267481
1.285145518
1.288284656
1.292618238
1.295385864
1.297214461
1.298549649
1.298870776
1.299372579
1.300287347
1.300803242
1.300477082
1.298734397
1.297083557
1.29554137
1.294618307
1.294652745
1.296072266
1.297254936
1.295796553
1.293544772
1.292574318
1.293482212
1.294919019
1.295523561
1.295826798
1.296158951
1.296693532
1.297670969
1.297962823
1.297389971
1.296034607
1.294038381
1.292199454
1.291572792
1.292597275
1.295211044
1.297228003
1.296968683
1.297047214
1.302678149
1.307999806
1.3098662
1.30992801
1.308507176
1.308180109
1.309680655
1.310229622
1.308515698
1.305712266
1.30351067
1.301582234
1.300002087
1.299407368
1.299672728
1.300700046
1.301895181
1.30029287
1.296862293
1.295280865
1.295587936
1.297074955
1.298467279
1.299066927
1.299318218
1.29939022
1.299924835
1.300993381
1.300969338
1.299876807
1.297978169
1.295986131
1.295125885
1.295483738
1.297264582
1.299305798
1.310296471
1.312757575
1.321823508
1.328628145
1.329285832
1.327702523
1.324746679
1.324456743
1.325560339
1.32424391
1.319067393
1.312804429
1.309522922
1.308395581
1.308178394
1.308580387
1.309316786
1.309536001
1.309201007
1.306746082
1.302527938
1.301078569
1.301214648
1.302565501
1.304367393
1.305103389
1.305008243
1.304258194
1.304073528
1.305022999
1.305480453
1.304855165
1.303639231
1.301991539
1.300915315
1.300826718
1.301422435
1.302320085
1.326046338
1.33444427
1.348031169
1.356634641
1.35633159
1.352875969
1.349378575
1.348806973
1.348030181
1.343350933
1.333488163
1.323288578
1.318851447
1.319286879
1.320816648
1.322420113
1.323343513
1.322710339
1.320363412
1.316458994
1.312014471
1.311054392
1.311271896
1.312797321
1.315038273
1.315728172
1.315172913
1.313320541
1.311606379
1.311471939
1.311826217
1.311883861
1.311368401
1.310249548
1.309120501
1.308486497
1.3081516
1.3080243
1.336915443
1.345516134
1.36000612
1.377850302
1.387296601
1.386919781
1.383213174
1.379540355
1.377753871
1.374552999
1.366555199
1.353163057
1.339625377
1.33403107
1.335011234
1.33817243
1.340768803
1.341271923
1.339566162
1.335114389
1.329963057
1.32587635
1.32509338
1.325442471
1.327409064
1.330077407
1.330721717
1.329775228
1.326760707
1.323150519
1.321255298
1.321198702
1.321712797
1.32189602
1.32138583
1.320437426
1.319328566
1.318257298
1.317666073
1.357937972
1.369249859
1.386450896
1.405740137
1.415224922
1.416423439
1.414801252
1.411861334
1.407531214
1.401058125
1.391145082
1.377058368
1.362286968
1.35541201
1.356253634
1.360192433
1.363613774
1.363562474
1.36052873
1.353988788
1.347889699
1.344100365
1.343107751
1.343470983
1.345985647
1.349125031
1.349925634
1.348660786
1.344474257
1.338892902
1.33520741
1.334388119
1.334827923
1.335615512
1.335896788
1.33530237
1.334109327
1.332863825
1.332054199
1.381570349
1.394038115
1.408638665
1.428177025
1.437806583
1.442333939
1.442422587
1.439667033
1.432457024
1.423363216
1.41404644
1.402621497
1.388664302
1.381151285
1.381332698
1.384583923
1.388219211
1.387699778
1.383623303
1.376043955
1.369022189
1.365035073
1.363839934
1.364457991
1.367526942
1.370810857
1.371895929
1.370912608
1.366076061
1.359099672
1.354154034
1.352563255
1.352617775
1.353229644
1.354000324
1.353831656
1.352978855
1.351934153
1.350688092
1.404943112
1.414083992
1.427560446
1.444902993
1.45344712
1.458847049
1.460645593
1.45647313
1.446933252
1.439458057
1.434119687
1.426266565
1.414808455
1.407555999
1.407133136
1.408845844
1.410969374
1.40963293
1.404984668
1.39817741
1.390922986
1.3867946
1.385899453
1.386608689
1.389921905
1.393431088
1.394566456
1.393608216
1.389131469
1.381857284
1.376313244
1.373992977
1.373580695
1.373619697
1.374055283
1.374468652
1.37428667
1.373831666
1.372323739
1.419955212
1.427652262
1.438814004
1.45355301
1.461267552
1.46668786
1.467975684
1.461200559
1.454350207
1.450303728
1.446806227
1.443066472
1.434173229
1.428258355
1.426891866
1.426946708
1.427099372
1.426723496
1.424124425
1.418353463
1.41056669
1.406287356
1.405562659
1.406621829
1.410212038
1.413260338
1.413783289
1.4130229
1.409772145
1.404187586
1.398910156
1.396126749
1.394978136
1.39447224
1.394512344
1.394957713
1.395438055
1.395347377
1.394083279
1.42711677
1.435381364
1.445128014
1.45804594
1.464016776
1.466607863
1.466669403
1.463481601
1.459642475
1.455735722
1.453533107
1.450212305
1.443728963
1.439248192
1.43723195
1.437026029
1.438049309
1.438501704
1.436495578
1.43108398
1.423584783
1.420462947
1.421306437
1.423317401
)
;

boundaryField
{
    inlet
    {
        type            fixedValue;
        value           nonuniform 0();
    }
    outlet
    {
        type            inletOutlet;
        inletValue      nonuniform 0();
        value           nonuniform 0();
    }
    bottom
    {
        type            slip;
    }
    top
    {
        type            slip;
    }
    obstacle
    {
        type            zeroGradient;
    }
    defaultFaces
    {
        type            empty;
    }
    procBoundary16to10
    {
        type            processor;
        value           nonuniform List<scalar> 
35
(
1.213522886
1.269572215
1.624110403
1.628063227
0.7226464832
0.7557569335
1.084268559
1.202285304
1.208871217
1.207036005
1.199457505
1.191217446
1.194240918
1.204151083
1.203331396
1.200700417
1.203999095
1.209124775
1.209277412
1.208477279
1.210665519
1.212744286
1.212600042
1.212724058
1.213049104
1.212509887
1.209973793
1.208261057
1.209297865
1.211372972
1.213549936
1.214961227
1.215918305
1.215907507
1.215907507
)
;
    }
    procBoundary16to15
    {
        type            processor;
        value           nonuniform List<scalar> 
70
(
0.7203183151
0.7203183151
0.7160493766
0.7124947675
0.7104623664
0.7112827977
0.7883702309
1.007565616
1.120645482
1.18050553
1.18050553
1.132101565
1.193069588
1.225367015
1.234407884
1.235980093
1.230763901
1.219159122
1.219159122
1.223498294
1.212414166
1.204560555
1.204443111
1.210262252
1.220200808
1.225615157
1.225615157
1.228994683
1.231432531
1.230761621
1.224806873
1.222600127
1.224667771
1.224667771
1.226480468
1.233103786
1.234693793
1.2370721
1.236928494
1.235991361
1.240898364
1.240898364
1.248100321
1.254343857
1.256619218
1.255237622
1.255314317
1.25546847
1.25546847
1.262210768
1.267648568
1.27416755
1.279123499
1.2820084
1.280871448
1.277827018
1.277827018
1.277907736
1.282012155
1.289580895
1.298623096
1.309765641
1.321806615
1.321806615
1.336342514
1.355971338
1.377988333
1.400232834
1.41548633
1.425837375
)
;
    }
    procBoundary16to17
    {
        type            processor;
        value           nonuniform List<scalar> 
66
(
1.617864779
1.618041052
1.618917488
1.619566224
1.61972324
1.620385509
1.62045626
1.623187659
1.62856476
1.642947792
1.642947792
1.650430156
1.658861549
1.667495133
1.675891733
1.684080732
1.692498382
1.700217473
1.706437012
1.710855123
1.711636235
1.710360569
1.705079992
1.699505974
1.463552094
1.463552094
1.450805626
1.436628358
1.418870826
1.396915885
1.374249204
1.356214101
1.343927851
1.333948501
1.323842037
1.313036891
1.302867626
1.294499637
1.287528379
1.256563644
1.256563644
1.258041564
1.260355636
1.262979522
1.265364339
1.267574364
1.269994732
1.273038485
1.276079074
1.277801657
1.279328937
1.281950344
1.286294669
1.286294669
1.290991985
1.295127424
1.297621308
1.299968264
1.302939993
1.308360312
1.317547395
1.33151919