/*--------------------------------*- C++ -*----------------------------------*\
  =========                 |
  \\      /  F ield         | OpenFOAM: The Open Source CFD Toolbox
   \\    /   O peration     | Website:  https://openfoam.org
    \\  /    A nd           | Version:  7
     \\/     M anipulation  |
\*---------------------------------------------------------------------------*/
FoamFile
{
    version     2.0;
    format      ascii;
    class       volScalarField;
    location    "0.4";
    object      T;
}
// * * * * * * * * * * * * * * * * * * * * * * * * * * * * * * * * * * * * * //

dimensions      [0 0 0 1 0 0 0];

internalField   nonuniform List<scalar> 
2223
(
0.8806479952
0.88068862
0.8806731859
0.8806901512
0.8807457919
0.8808061289
0.8809376723
0.8812201544
0.8816346671
0.8825246748
0.8841770722
0.8864264939
0.8888980627
0.8915568042
0.8928945227
0.8929800488
0.8927186641
0.8918774391
0.8904965998
0.8887607544
0.8867244131
0.8843849169
0.8800703415
0.8796365011
0.8793665302
0.8793091425
0.8793441078
0.8794691384
0.8796315601
0.8797867613
0.8799388859
0.8801282161
0.8803478259
0.880514181
0.8806085925
0.8807334455
0.8808027087
0.8808618961
0.881118089
0.8815079407
0.8821900432
0.8836526124
0.885800555
0.8882754563
0.8913749205
0.8942336893
0.8947742568
0.894746477
0.8943972496
0.8936271277
0.8924620155
0.8908802038
0.8889530341
0.8802418051
0.8795827692
0.879374127
0.8794743089
0.8796871944
0.8796481619
0.8795580018
0.8794783308
0.8795221063
0.8796669486
0.8798593195
0.8800839272
0.8802753259
0.8804834024
0.8807234739
0.8808246966
0.8810147073
0.8814095379
0.8819633034
0.8830994338
0.8851051649
0.8875876482
0.8906351563
0.8944249299
0.8960183207
0.8963938669
0.8963592385
0.8960620102
0.8954422114
0.8944658943
0.8930307597
0.8812503064
0.8805903274
0.8804812815
0.8804796237
0.880227841
0.8796537754
0.8793808024
0.8794232628
0.8795080741
0.8795877134
0.8796240057
0.8796684158
0.879765511
0.8799331074
0.88019258
0.8804857214
0.880729881
0.8811929856
0.8817864996
0.8826985795
0.8844686822
0.8870070373
0.8897081219
0.8934403427
0.8963762091
0.8976786935
0.8979946912
0.8979147348
0.8976542815
0.8971186349
0.8961680319
0.8849554619
0.8838218296
0.8822725695
0.8813349006
0.8803235255
0.879680199
0.8795277531
0.8796540803
0.8798666931
0.8798073962
0.8796969995
0.8795761457
0.8795334867
0.8795586635
0.8796780658
0.8799122915
0.8802017035
0.8806274168
0.8813812526
0.8822897402
0.8836975649
0.8862239743
0.8887950351
0.8921825742
0.8960181376
0.8984136967
0.8991014412
0.8992985119
0.8992615231
0.8990657535
0.8985416049
0.8877094081
0.8861687569
0.883949962
0.882659608
0.8819258083
0.8810101549
0.8808290067
0.8807567644
0.8804072259
0.8799247445
0.8796511435
0.8796055028
0.8795683261
0.8795401579
0.8795631106
0.8796289646
0.8797890221
0.8801374887
0.8807633983
0.881681885
0.8828500043
0.8849695792
0.8877479817
0.8907557029
0.8951774024
0.8984603494
0.8996494099
0.9002650719
0.9004147768
0.9003716794
0.9001455528
0.8918043173
0.8902190156
0.8887557155
0.8865773283
0.8855278176
0.8840428868
0.8825145947
0.8815383558
0.8805902644
0.8799371812
0.8798457969
0.8799760208
0.8798943125
0.8797683231
0.8798243048
0.8798582283
0.8798562203
0.8799258167
0.8802519666
0.8809613945
0.8820212726
0.8836706281
0.8864723099
0.889406906
0.8933759543
0.8975503357
0.8997123855
0.9007720769
0.9012855782
0.9012912187
0.901206816
0.89911063
0.895635278
0.8935798171
0.8903411102
0.8878151359
0.8865570363
0.8846272178
0.8833391686
0.8825269694
0.881223299
0.8809766711
0.8806680431
0.8802308459
0.8800582295
0.880161249
0.8801358512
0.8799816339
0.8799523842
0.8800969919
0.8805262286
0.8813621442
0.8827171928
0.885020302
0.8880468926
0.8914296949
0.8960596853
0.8992830659
0.9009801458
0.9017801668
0.9019439659
0.9019208506
0.904352761
0.9006684168
0.898024061
0.895977154
0.8926504123
0.8910935126
0.8892548399
0.887179885
0.885898311
0.8842835096
0.8826528543
0.8817868619
0.8807491633
0.8801919673
0.8802304257
0.8800681804
0.8798250946
0.8798515573
0.8800506199
0.8804978393
0.8811636787
0.88217979
0.8838938435
0.8865130548
0.8895719678
0.8936843005
0.8982395924
0.9006587817
0.9019879199
0.9023514026
0.9024336122
0.9104460648
0.9076803716
0.9042022218
0.9020812558
0.8991866259
0.8960337707
0.8937209983
0.8903782932
0.8878828257
0.8866743381
0.8846955539
0.8842121175
0.8834963637
0.8820923063
0.8809979572
0.8804117926
0.8800276408
0.8800471328
0.8803274536
0.8808026439
0.8813676606
0.8821125458
0.8832937817
0.8852858977
0.8879962024
0.8915041176
0.8960609909
0.8993957024
0.9012882833
0.9025467335
0.9027858691
0.9160790693
0.9132501998
0.909785871
0.9065662315
0.9039845111
0.9006920937
0.8986232123
0.896599066
0.8932992112
0.8914036468
0.8894828509
0.8873638377
0.886201194
0.8844617235
0.8828214275
0.8823436704
0.8816689648
0.8810924796
0.881108909
0.8813333804
0.881656456
0.8821317506
0.8830531751
0.8845850396
0.8868846718
0.8898800018
0.8938877851
0.8977988127
0.9003139599
0.902305456
0.9030765084
0.9223633337
0.9192314703
0.916246659
0.9130346623
0.9103074146
0.9071330775
0.9038721124
0.901901549
0.8992326725
0.8962680261
0.8939081389
0.8905539531
0.8885683752
0.8871189646
0.8853947571
0.8847540695
0.8838272679
0.8821823805
0.8814321288
0.881501643
0.8816820835
0.8821102901
0.8830005117
0.8844446863
0.8863511516
0.8888023932
0.8919260931
0.895804256
0.8991493832
0.9016537204
0.9032306985
0.9288300509
0.9252388919
0.9220254416
0.9185391002
0.9154523879
0.9128121952
0.9095329542
0.9062798993
0.9036471146
0.9006282854
0.8987085085
0.8964783433
0.8937663758
0.8921059623
0.889744303
0.8875334052
0.8862839183
0.8845679123
0.8829546472
0.8828696184
0.8828105731
0.8829821769
0.8835798742
0.8846640944
0.8863001903
0.8882683462
0.8907498385
0.8940357117
0.8975647615
0.9003161937
0.9026090842
0.9345446912
0.9310458195
0.9279573085
0.9246602016
0.9211575652
0.9183892935
0.9157895807
0.9127198901
0.9099333028
0.9068749205
0.9040929767
0.9018458031
0.8988969446
0.8961979105
0.893597358
0.890717232
0.889569125
0.8887428082
0.886884441
0.8855515532
0.8846271895
0.8841303258
0.884333384
0.8850100431
0.8862635225
0.8879756212
0.890159484
0.8929823817
0.8961084299
0.8989392497
0.9014687311
0.9407062114
0.9370571016
0.933678341
0.9306864578
0.9272141042
0.9237700875
0.920760088
0.9178027926
0.9149947395
0.912095754
0.9088883827
0.9061492303
0.9035712648
0.9012012811
0.8992818109
0.8967872553
0.8939357427
0.8920137118
0.8896479967
0.8877286403
0.8868736141
0.885955577
0.8855893353
0.8859278055
0.8867200196
0.8880782478
0.8900436564
0.8925929052
0.8952491901
0.8978360036
0.9004130876
0.9464390067
0.9430614955
0.9392462419
0.9358831477
0.9328537863
0.9296751379
0.9265916195
0.9234841114
0.9203635237
0.9178191754
0.9149964396
0.9121650431
0.9093955539
0.9064670288
0.9040375054
0.9016306589
0.8989574624
0.8964293528
0.8939266681
0.8915357749
0.8906006741
0.8896409395
0.8886451166
0.888463076
0.8887467288
0.8895037136
0.8908212123
0.8927210861
0.8950259823
0.8974526292
0.8999444309
0.9522570481
0.9489771275
0.9455860024
0.941916374
0.9385127696
0.9352880676
0.93213256
0.9290793439
0.9257656757
0.9228042186
0.9200555944
0.9171510934
0.9143278848
0.9114278164
0.9084993533
0.9058682963
0.9037005647
0.9016740861
0.8997291826
0.8969586573
0.894469336
0.8926807835
0.8909322567
0.8899786161
0.8899520124
0.8904999107
0.8915368832
0.89298495
0.8948962273
0.8972461799
0.8996951427
0.9582494075
0.954349967
0.9508680577
0.947443063
0.9440746295
0.9406913606
0.9374591979
0.9344372122
0.9314538205
0.9282184739
0.9251953941
0.9223534441
0.9197074608
0.9172435292
0.9145841903
0.9116324525
0.9088446185
0.9060533836
0.9039034807
0.9015935633
0.8991994938
0.8975082029
0.8956178795
0.8939246418
0.8929191084
0.8926588979
0.8930507224
0.893915914
0.8954759397
0.8976283257
0.8996473862
0.9643013261
0.9604834631
0.9567693433
0.9531710858
0.9498068078
0.9464945607
0.9430937875
0.9398474433
0.9368514378
0.9337714838
0.9306778493
0.9275017118
0.9245574187
0.9217912089
0.9191912264
0.9165498396
0.9137519685
0.9110019542
0.9084077522
0.906213824
0.9039857422
0.9021606171
0.9004602893
0.8984716768
0.8969213464
0.8959611739
0.8956371592
0.8959834611
0.8968244626
0.8981793571
0.8998279972
0.9699082146
0.966209464
0.9624255555
0.9588695865
0.9552138781
0.9518023061
0.9484215876
0.9450934935
0.9419073759
0.9387986381
0.9358531135
0.9329394625
0.9299035889
0.9269344305
0.9239928329
0.9215223915
0.9191389998
0.9166993841
0.9140778226
0.9113985444
0.9087209669
0.906295732
0.9044010742
0.9025266379
0.9008469495
0.8997856734
0.8989212721
0.8984387202
0.8986871256
0.8993982297
0.9008218595
0.9757291177
0.9719523663
0.9681712941
0.9644454819
0.9609574219
0.9573962371
0.9540592262
0.9507173078
0.9473848997
0.9442462485
0.9410525112
0.9382003773
0.9352220104
0.9321820327
0.9292207913
0.9262136385
0.9235281868
0.9210198894
0.9184586057
0.9160427648
0.9135134124
0.9111249193
0.9092743381
0.907388123
0.9056199395
0.9042380263
0.9031251883
0.902246369
0.9019059076
0.9020746933
0.902659362
0.981321696
0.9775001365
0.9738730046
0.9701060284
0.9664071322
0.9628247738
0.9592971171
0.9559203739
0.952646019
0.9493097126
0.9461010181
0.9429348068
0.9400389216
0.9371825766
0.9344241642
0.9316057963
0.9286061892
0.9257238513
0.923148401
0.9209204094
0.9187516929
0.9163875865
0.9140429936
0.9118283353
0.9096882134
0.9078057013
0.9065282152
0.9056659035
0.9051651224
0.9051439483
0.9052932697
0.9863729426
0.9829351082
0.9792182141
0.9756507514
0.9719774558
0.9683786972
0.9648009573
0.9613142019
0.9579676166
0.9547936985
0.9515745463
0.9483210019
0.9451653142
0.9421509623
0.9392665229
0.9366006201
0.9338199168
0.9308797575
0.9280027803
0.9252273718
0.9228191889
0.9205615025
0.918441503
0.9165816726
0.9147650074
0.9129227628
0.9113226862
0.9099736248
0.9088957373
0.9084422802
0.9083379938
0.9908832298
0.9877979058
0.9844749448
0.9809157893
0.9773408781
0.9737434531
0.970208585
0.966657192
0.9631504432
0.959773102
0.9565487626
0.9534186297
0.9502456794
0.9470925739
0.9439632106
0.9410115743
0.938321706
0.9357166845
0.9331285365
0.9304649327
0.9277718228
0.9252108841
0.9229206325
0.9209530951
0.9191208252
0.9174318448
0.9159696096
0.9146052276
0.91317194
0.9117147077
0.9107952183
0.9945212777
0.9920123743
0.9891196931
0.9859247348
0.9825384768
0.9790076723
0.9754810273
0.971998752
0.9685313895
0.9650494746
0.9616753083
0.9584642328
0.9554322098
0.9524078684
0.9493127934
0.9461491774
0.9431304489
0.9403007239
0.9376822573
0.9352062558
0.9325830916
0.9299539123
0.9274446224
0.9251379581
0.9230890692
0.9212158313
0.9198212918
0.9187655368
0.9176860515
0.9165190605
0.9154270502
0.9971322671
0.9953512393
0.993055858
0.9903444351
0.9872952927
0.9840541833
0.9806204117
0.9771594568
0.9736954277
0.970304522
0.9668933425
0.9634716925
0.9601605257
0.9570297343
0.9540222904
0.9510918822
0.9481411406
0.9451884059
0.9422355432
0.9394073196
0.9368212833
0.9344054952
0.9322044506
0.9301751858
0.9282090099
0.9262445039
0.9242773965
0.9225413871
0.9210511501
0.9198659282
0.9189420915
0.9987431973
0.997655183
0.9960831266
0.9940108367
0.9914867447
0.9885981901
0.9854838935
0.9821588728
0.9787791559
0.9753539776
0.9720203319
0.9687286916
0.9653674789
0.9620491628
0.9588773663
0.9558594099
0.953041896
0.950222807
0.9473185127
0.9443758662
0.9415599771
0.9389223002
0.9364494857
0.934174572
0.9321191734
0.9302893047
0.9286250207
0.9270463845
0.925564544
0.9241240277
0.9228977614
0.9995547714
0.9990200135
0.9981048971
0.9967251329
0.9948659721
0.9925392937
0.9898240146
0.9868512496
0.9836411465
0.9803280989
0.9769523068
0.9736261537
0.9703975231
0.9671462167
0.963862263
0.9606234711
0.9574924145
0.9545788216
0.9517724259
0.9490070247
0.9462691125
0.9435903057
0.9410282568
0.9386325493
0.9364129786
0.934372442
0.9326162873
0.9312154679
0.9299885233
0.928702429
0.9273013897
0.9998783898
0.9996713376
0.9992438359
0.9984845554
0.9972905445
0.9956302572
0.9935009896
0.9909561656
0.9881323788
0.9850702564
0.9818534671
0.978529463
0.9751877603
0.9719835728
0.9688694566
0.9657278055
0.9625395205
0.9593665024
0.9563856276
0.9536045699
0.9509744338
0.9483651721
0.9457338278
0.9432242552
0.9408988355
0.9387352474
0.9367299193
0.9349747556
0.9335590308
0.932374659
0.9312681841
0.999975163
0.999915681
0.9997608986
0.9994237348
0.9987995494
0.9977808157
0.9963120113
0.9943810252
0.9920129665
0.9893212483
0.9863933839
0.9833139259
0.9801046716
0.9767791407
0.9735026101
0.9703701184
0.9673317233
0.9642969009
0.9611926235
0.9581139927
0.95520346
0.9525380827
0.9500123637
0.9475308779
0.9451669019
0.9430157931
0.9411216093
0.939418544
0.9377960941
0.9362481277
0.9348957178
0.9999963875
0.9999839819
0.9999424255
0.9998284676
0.9995670089
0.9990593894
0.9981993791
0.9969133182
0.9951766106
0.9929994788
0.990452221
0.9876329849
0.9846612239
0.9815910562
0.9783924079
0.9751180432
0.9718969759
0.9688478724
0.9659548372
0.9630520871
0.9600888447
0.9571667622
0.954435143
0.9519360742
0.949601003
0.9473625348
0.9452528831
0.9434002256
0.9418286279
0.9404184394
0.9390482904
0.9999996358
0.9999978452
0.999989853
0.9999613459
0.9998786599
0.9996791
0.9992723455
0.9985542273
0.9974385597
0.9958873981
0.99390306
0.9915267299
0.9888291735
0.985930545
0.9829478862
0.9798937262
0.9767445774
0.9735238741
0.970360501
0.9673840181
0.9645600946
0.9617835982
0.9589956834
0.9562535329
0.9537089056
0.9514313577
0.9493308248
0.947336521
0.9455372739
0.9440892449
0.9429308247
0.9999999755
0.9999998009
0.9999987397
0.9999936859
0.9999744991
0.9999154805
0.9997653167
0.9994440833
0.9988526754
0.9978960961
0.9965183802
0.9947162354
0.9925240762
0.9899866426
0.9871762003
0.9842293039
0.9812584289
0.9782556786
0.9751721059
0.9720317994
0.9689592312
0.9660964099
0.9634366472
0.9608489188
0.9582770506
0.9558253473
0.9535983491
0.9515926897
0.9497763423
0.9481141551
0.9465702077
0.9999999989
0.9999999878
0.9999998934
0.9999992775
0.9999961416
0.9999834619
0.9999420751
0.999830831
0.999580459
0.9990992541
0.9982910979
0.9970821368
0.9954473258
0.9934236876
0.9910628341
0.9884074679
0.9855293049
0.9825530539
0.9795978762
0.9766625422
0.9736756119
0.9706456503
0.9676982594
0.9649522745
0.9624158339
0.9600220991
0.957712206
0.9555125417
0.9535839323
0.9519990308
0.9506203811
1
0.9999999995
0.999999994
0.9999999441
0.9999995941
0.9999976861
0.999989458
0.9999609324
0.9998798866
0.9996877039
0.9993005165
0.998624677
0.9975795243
0.996117315
0.9942475653
0.9920339676
0.9895431866
0.9868144652
0.9839049438
0.9809339992
0.9780232491
0.9751764868
0.9723245991
0.9694576257
0.9666787539
0.9641460727
0.9618860232
0.9597909223
0.9578000689
0.9559648774
0.9543533644
1
1
0.9999999998
0.9999999972
0.9999999713
0.9999997765
0.999998639
0.999993401
0.9999740821
0.9999159907
0.9997708453
0.9994638216
0.9989041863
0.9980079914
0.9967182221
0.9950184846
0.9929442717
0.9905785016
0.9879945269
0.9852287933
0.9823301501
0.9793991523
0.9765536595
0.9738251203
0.9711506387
0.9685046768
0.9659563188
0.9636190096
0.9615718406
0.9597913517
0.9581942813
1
1
1
0.9999999999
0.9999999987
0.9999999856
0.9999998796
0.9999992157
0.9999959477
0.9999831079
0.9999421647
0.9998342525
0.9995945556
0.9991374922
0.9983761531
0.9972459489
0.9957182767
0.9938056501
0.991567225
0.9890930295
0.9864580192
0.9836983217
0.9808463593
0.9779907931
0.9752536413
0.9726885354
0.9702667223
0.9679413629
0.9657233648
0.9637046599
0.9619557909
1
1
1
1
1
0.9999999994
0.999999993
0.9999999367
0.9999995578
0.9999975615
0.9999891973
0.9999608631
0.9998819235
0.9996976115
0.9993297568
0.9986909463
0.9977092113
0.9963462328
0.9946010022
0.9925094944
0.9901462561
0.987609869
0.9849714191
0.9822667955
0.9795278971
0.9768070302
0.9742097818
0.9718259818
0.9696513496
0.9676544427
0.9658224854
1
1
1
1
1
1
0.9999999997
0.9999999966
0.9999999675
0.9999997566
0.9999985643
0.9999932286
0.9999740022
0.9999172605
0.9997776973
0.9994860416
0.9989576687
0.9981137173
0.9969062963
0.995327084
0.9933981321
0.9911706662
0.9887263498
0.9861690752
0.9835807726
0.9809919538
0.9784278702
0.9759345344
0.9735761152
0.9714290468
0.9695320889
1
1
1
1
1
1
1
0.9999999999
0.9999999985
0.9999999838
0.9999998695
0.9999991746
0.9999958462
0.9999830686
0.9999430691
0.9998391605
0.9996112456
0.9991807404
0.9984659811
0.9974056797
0.9959813013
0.9942152167
0.9921502833
0.9898442193
0.9873748552
0.9848448219
0.9823495043
0.9799337882
0.97761255
0.9754105879
0.9733646423
1
1
1
1
1
1
1
1
1
0.9999999993
0.9999999922
0.999999932
0.9999995382
0.9999975139
0.9999892134
0.9999616055
0.9998857577
0.9997105647
0.9993644109
0.9987679461
0.9978526695
0.9965808598
0.9949626825
0.9930509013
0.9909065655
0.9885907753
0.986174962
0.9837413066
0.9813892835
0.9791878676
0.9771534731
0.9752873587
1
1
1
1
1
1
1
1
1
1
0.9999999997
0.9999999964
0.9999999659
0.9999997501
0.9999985559
0.9999933086
0.9999747041
0.9999205403
0.9997886419
0.9995150445
0.9990233727
0.9982437528
0.9971299859
0.9956712011
0.993899823
0.9918910838
0.9897306197
0.9874804862
0.9852025954
0.9829651891
0.9808268783
0.9788526676
1
1
1
1
1
1
1
1
1
1
1
0.9999999999
0.9999999984
0.9999999837
0.9999998706
0.9999991931
0.9999959896
0.9999838305
0.9999461584
0.999849174
0.999637766
0.9992402284
0.9985843714
0.9976192477
0.996327642
0.9947261015
0.9928652245
0.9908254044
0.988705702
0.98658993
0.9845237059
0.9825492455
1
1
1
1
1
1
1
1
1
1
1
1
1
0.9999999994
0.9999999928
0.999999937
0.9999995731
0.9999977077
0.9999900832
0.9999648046
0.999895619
0.9997364735
0.9994229257
0.9988836237
0.9980600265
0.9969261077
0.9954959222
0.9938131479
0.9919407617
0.9899584779
0.9879523872
0.9860066809
1
1
1
1
1
1
1
1
1
1
1
1
1
1
0.9999999998
0.9999999971
0.999999972
0.9999997912
0.999998776
0.9999942641
0.9999781271
0.9999308417
0.9998152459
0.999575172
0.9991436009
0.9984591318
0.9974844291
0.9962202562
0.9947071757
0.9930124434
0.9912092231
0.989368842
1
1
1
1
1
1
1
1
1
1
1
1
1
1
1
0.9999999999
0.999999999
0.9999999891
0.9999999088
0.9999994074
0.9999969513
0.9999873568
0.9999569371
0.9998772028
0.9997011495
0.9993675646
0.9988151904
0.9980010561
0.996913757
0.9955782037
0.9940531537
0.992417373
1
1
1
1
1
1
1
1
1
1
1
1
1
1
1
1
1
0.9999999997
0.9999999964
0.9999999659
0.9999997502
0.999998564
0.9999934167
0.9999754821
0.9999243853
0.9998030759
0.9995584023
0.9991311115
0.9984733145
0.9975651148
0.9964215641
0.9950880571
1
1
1
1
1
1
1
1
1
1
1
1
1
1
1
1
1
1
0.9999999999
0.9999999991
0.9999999897
0.999999913
0.9999994287
0.9999970433
0.9999877228
0.9999583123
0.9998819479
0.9997155977
0.9994055655
0.9989016087
0.9981740642
0.9972258273
1
1
1
1
1
1
1
1
1
1
1
1
1
1
1
1
1
1
1
1
0.9999999998
0.9999999977
0.9999999766
0.9999998195
0.9999989184
0.999994871
0.9999803867
0.9999383308
0.9998373323
0.9996327336
0.9992761496
0.998731067
1
1
1
1
1
1
1
1
1
1
1
1
1
1
1
1
1
1
1
1
1
1
0.9999999996
0.9999999955
0.999999958
0.9999997004
0.9999983321
0.999992622
0.9999735715
0.9999218064
0.9998050035
0.999581787
1
1
1
1
1
1
1
1
1
1
1
1
1
1
1
1
1
1
1
1
1
1
1
1
0.9999999994
0.9999999934
0.9999999425
0.9999996132
0.9999979618
0.9999914354
0.999970756
0.9999172388
1
1
1
1
1
1
1
1
1
1
1
1
1
1
1
1
1
1
1
1
1
1
1
1
1
1
0.9999999994
0.9999999931
0.9999999425
0.9999996282
0.9999981119
0.9999923331
1
1
1
1
1
1
1
1
1
1
1
1
1
1
1
1
1
1
1
1
1
1
1
1
1
1
1
1
0.9999999995
0.9999999952
0.9999999606
0.9999997517
1
1
1
1
1
1
1
1
1
1
1
1
1
1
1
1
1
1
1
1
1
1
1
1
1
1
1
1
1
1
0.9999999998
0.9999999979
1
1
1
1
1
1
1
1
1
1
1
1
1
1
1
1
1
1
1
1
1
1
1
1
1
1
1
1
1
1
1
1
1
1
1
1
1
1
1
1
1
1
1
1
1
1
1
1
1
1
1
1
1
1
1
1
1
1
1
1
1
1
1
1
1
1
1
1
1
1
1
1
1
1
1
1
1
1
1
1
1
1
1
1
1
1
1
1
1
1
1
1
1
1
1
1
1
1
1
1
1
1
1
1
1
1
1
1
1
1
1
1
1
1
1
1
1
1
1
1
1
1
1
1
1
1
1
1
1
1
1
1
1
1
1
1
1
1
1
1
1
1
1
1
1
1
1
1
1
1
1
1
1
1
1
1
1
1
1
1
1
1
1
1
1
1
1
1
1
1
1
1
1
1
1
1
1
1
1
1
1
1
1
1
1
1
1
1
1
1
1
1
1
1
1
1
1
1
1
1
1
1
1
1
1
1
1
1
1
1
1
1
1
1
1
1
1
1
1
1
1
1
1
1
1
1
1
1
1
1
1
1
1
1
1
1
1
1
1
1
1
1
1
1
1
1
1
1
1
1
1
1
1
1
1
1
1
1
1
1
1
1
1
1
1
1
1
1
1
1
1
1
1
1
1
1
1
1
1
1
1
1
1
1
1
1
1
1
1
1
1
1
1
1
1
1
1
1
1
1
1
1
1
1
1
1
1
1
1
1
1
1
1
1
1
1
1
1
1
1
1
1
1
1
1
1
1
1
1
1
1
1
1
1
1
1
1
1
1
1
1
1
1
1
1
1
1
1
1
1
1
1
1
1
1
1
1
1
1
1
1
1
1
1
1
1
1
1
1
1
1
1
1
1
1
1
1
1
1
1
1
1
1
1
1
1
1
1
1
1
1
1
1
1
1
1
1
1
1
1
1
1
1
1
1
1
1
1
1
1
1
1
1
1
1
1
1
1
1
1
1
1
1
1
1
1
1
1
1
1
1
1
1
1
1
1
1
1
1
1
1
1
1
1
1
1
1
1
1
1
1
1
1
1
1
1
1
1
1
1
1
1
1
1
1
1
1
1
1
1
1
1
1
1
1
1
1
1
1
1
1
1
1
1
1
1
1
1
1
1
1
1
1
1
1
1
1
1
1
1
1
1
1
1
1
1
1
1
1
1
1
1
1
1
1
1
1
1
1
1
1
1
1
1
1
1
1
1
1
1
1
1
1
1
1
1
1
1
1
1
1
1
1
1
)
;

boundaryField
{
    inlet
    {
        type            fixedValue;
        value           nonuniform 0();
    }
    outlet
    {
        type            inletOutlet;
        inletValue      nonuniform 0();
        value           nonuniform 0();
    }
    bottom
    {
        type            slip;
    }
    top
    {
        type            slip;
    }
    obstacle
    {
        type            zeroGradient;
    }
    defaultFaces
    {
        type            empty;
    }
    procBoundary34to27
    {
        type            processor;
        value           nonuniform List<scalar> 9(0.8802932041 0.8812207907 0.8820418788 0.8857336374 0.89035117 0.8952932008 0.9020775861 0.9067781368 0.9130839301);
    }
    procBoundary34to28
    {
        type            processor;
        value           nonuniform List<scalar> 
32
(
0.8808222863
0.8808358958
0.8808168752
0.8808231392
0.8808366236
0.8808747798
0.8810132015
0.8812857842
0.881766457
0.8827702205
0.88443983
0.8866503819
0.8887403454
0.890235651
0.8906558907
0.8904396088
0.8896645626
0.8881909239
0.8862343372
0.8839504294
0.8814765791
0.8788044961
0.8795352763
0.8795663435
0.8794981275
0.8794356508
0.8795004582
0.8796974651
0.8800404138
0.8803432335
0.8805401449
0.8805401449
)
;
    }
    procBoundary34to29
    {
        type            processor;
        value           uniform 0.8818986944;
    }
    procBoundary34to33
    {
        type            processor;
        value           nonuniform List<scalar> 
61
(
0.9198943157
0.9262254369
0.9322629973
0.9377181352
0.944173384
0.9500379826
0.9560391387
0.9621211319
0.9679124288
0.9738431109
0.9796530698
0.9848468436
0.9896513917
0.993603417
0.9965240443
0.9984061156
0.9994052967
0.9998270902
0.999962165
0.9999940569
0.9999993479
0.9999999521
0.9999999977
0.9999999999
1
1
1
1
1
1
1
1
1
1
1
1
1
1
1
1
1
1
1
1
1
1
1
1
1
1
1
1
1
1
1
1
1
1
1
1
1
)
;
    }
    procBoundary34to35
    {
        type            processor;
        value           nonuniform List<scalar> 
71
(
0.8867667082
0.8912546473
0.8947868517
0.8976479944
0.8996265069
0.9009690347
0.9018315137
0.9024206895
0.9028502975
0.9031873402
0.9034870022
0.9036666261
0.9033974627
0.9027475166
0.9022957014
0.9019683382
0.9017493191
0.9017997354
0.9026054969
0.903518892
0.9057897862
0.9084267324
0.9106154704
0.9146996881
0.9181330384
0.9220276522
0.925951197
0.9301940494
0.9338369135
0.9376599368
0.9418682448
0.9451761607
0.9493182024
0.9529820779
0.9567051327
0.9604382728
0.9641472162
0.9678543726
0.9715074428
0.9715074428
0.9735904899
0.9770831886
0.9807126843
0.9841856714
0.9875639275
0.9907508511
0.9936304822
0.9960928295
0.9979868988
0.999213364
0.9998019195
0.9999746298
0.9999987672
0.9999999833
1
1
1
1
1
1
1
1
1
1
1
1
1
1
1
1
1
)
;
    }
}


// ************************************************************************* //
