/*--------------------------------*- C++ -*----------------------------------*\
  =========                 |
  \\      /  F ield         | OpenFOAM: The Open Source CFD Toolbox
   \\    /   O peration     | Website:  https://openfoam.org
    \\  /    A nd           | Version:  7
     \\/     M anipulation  |
\*---------------------------------------------------------------------------*/
FoamFile
{
    version     2.0;
    format      ascii;
    class       volScalarField;
    location    "2.5";
    object      T;
}
// * * * * * * * * * * * * * * * * * * * * * * * * * * * * * * * * * * * * * //

dimensions      [0 0 0 1 0 0 0];

internalField   nonuniform List<scalar> 
555
(
1.105059952
1.104728194
1.10432639
1.10736016
1.107494403
1.107473287
1.107354616
1.107022459
1.106621037
1.106321296
1.106116458
1.106041243
1.106081323
1.106247622
1.106310081
1.106283114
1.105984753
1.105669438
1.105337229
1.104806826
1.104251941
1.103906021
1.106989247
1.107022127
1.107025094
1.106722048
1.106334755
1.106028257
1.10584261
1.105879331
1.105940757
1.105939292
1.105991253
1.105998693
1.105955733
1.105683003
1.105293326
1.104886419
1.104511779
1.103909085
1.103368604
1.105892198
1.10592889
1.10594693
1.105586832
1.105237803
1.105093299
1.105102461
1.105061802
1.104890212
1.104836972
1.104938206
1.104973902
1.104880793
1.104634747
1.104235453
1.103857581
1.103570343
1.103313334
1.102605149
1.104301701
1.104033158
1.103903659
1.103539062
1.10331291
1.103350985
1.103348827
1.103254395
1.103147428
1.102968634
1.102899993
1.102843489
1.10267542
1.102446804
1.102279582
1.10208868
1.101924518
1.101958479
1.10148118
1.101753217
1.101240761
1.100795679
1.100523311
1.100406451
1.100465564
1.100419419
1.100258061
1.100032287
1.099807252
1.099629879
1.099526764
1.099512781
1.099558949
1.09953727
1.099525081
1.099521325
1.099673015
1.099519574
1.097148488
1.096677767
1.096171031
1.096059017
1.096087754
1.096152981
1.0961395
1.095775086
1.095388977
1.095231021
1.095133039
1.095111418
1.095270645
1.095534696
1.095778714
1.095970622
1.096117192
1.096293992
1.09620579
1.090821516
1.090447386
1.090071623
1.090083634
1.090211059
1.090305621
1.090175881
1.089977829
1.089709842
1.089631112
1.089499667
1.089552094
1.089799689
1.09026381
1.090736164
1.091095769
1.091288429
1.091323046
1.091351787
1.08336076
1.083085327
1.082873471
1.082977883
1.083128406
1.083153245
1.083035079
1.08287919
1.082910745
1.083035643
1.083107306
1.083187958
1.083418318
1.083972873
1.084541556
1.084757274
1.08478377
1.084831569
1.08507318
1.075163843
1.075052059
1.075181668
1.075251884
1.075186041
1.075039202
1.075078047
1.07525253
1.075488784
1.075781067
1.076051067
1.076345567
1.076774254
1.077018141
1.077000951
1.076956085
1.0770457
1.077649209
1.06702845
1.067061496
1.067083769
1.066972988
1.066897752
1.066857991
1.066975635
1.067187677
1.067475692
1.067849101
1.0682305
1.068508758
1.068609045
1.068552467
1.068484567
1.068360539
1.068421668
1.069250117
1.059122746
1.059165035
1.058978952
1.058742824
1.058738658
1.058884919
1.05901201
1.059098319
1.059295453
1.059583251
1.059854031
1.060047857
1.060031224
1.059805412
1.059593019
1.059541418
1.059814676
1.060597922
1.050932027
1.051152132
1.051031463
1.05083927
1.050944238
1.051334112
1.051405475
1.051140739
1.050999114
1.051094973
1.051256415
1.051424803
1.051308669
1.051000423
1.050766954
1.050988015
1.051297117
1.051997589
1.043090265
1.043161343
1.043186546
1.043251874
1.043551041
1.04377408
1.043655043
1.043410645
1.043021633
1.042820886
1.042778332
1.042698684
1.042583246
1.042477852
1.042529404
1.042874158
1.043268518
1.043678295
1.035607426
1.035459896
1.035552574
1.035724227
1.035977995
1.036061917
1.035912377
1.035626672
1.035428389
1.035101039
1.034789482
1.034519909
1.034387012
1.034521962
1.034722692
1.035171071
1.035533807
1.035613272
1.028295499
1.028009747
1.028040555
1.028249769
1.028389972
1.02831998
1.028218731
1.028132513
1.027943009
1.027800591
1.027397366
1.026947499
1.026831435
1.026951751
1.027335041
1.027733794
1.027868881
1.027888214
1.021232593
1.020876619
1.020836525
1.020927195
1.020891181
1.020699174
1.020630785
1.020703722
1.020901011
1.020956991
1.02059562
1.020106685
1.019974138
1.020239558
1.020376245
1.020323064
1.020337893
1.020274738
1.014451365
1.014115489
1.014087499
1.014028174
1.013843621
1.013742057
1.013699648
1.013721384
1.013904978
1.014291521
1.014229309
1.013923765
1.013787648
1.013663176
1.013449574
1.01296994
1.012495221
1.012730774
1.008030137
1.007799526
1.007807549
1.007645245
1.007608668
1.007635815
1.007617763
1.007603746
1.007663489
1.007867627
1.008150862
1.008246166
1.008032562
1.007682972
1.007298884
1.006438953
1.005902366
1.006310614
1.002405165
1.002227808
1.002176939
1.002109362
1.002312003
1.002451315
1.00245347
1.002361766
1.002283188
1.002362372
1.002682169
1.003091627
1.002959485
1.002376285
1.001832236
1.001027058
1.000874025
1.001515045
0.997874472
0.9977252765
0.9975638194
0.9976033627
0.9979143705
0.9981653816
0.9982287278
0.9981377388
0.9979740771
0.997932696
0.9980706681
0.9983680385
0.9983347886
0.9978008438
0.9972769787
0.9970139723
0.9972272873
0.9979075926
0.9943965502
0.9942617487
0.9940368639
0.9940789842
0.9943824339
0.9946979696
0.9948625582
0.9948523601
0.9946126454
0.9943939846
0.9943685678
0.9943236552
0.9942309757
0.9942129561
0.9942152469
0.9945554384
0.9949473137
0.9956426999
0.9919738121
0.9918267549
0.9917389132
0.9917349553
0.991858852
0.9920187368
0.9920777574
0.9920938284
0.9918804126
0.9917903237
0.9916861509
0.991557474
0.9916620215
0.9921237904
0.9925406921
0.9931409094
0.9937757085
0.9943628877
0.9904930949
0.990451169
0.9903239031
0.9901477654
0.9898984887
0.9897724227
0.9899683784
0.9899901482
0.9901598942
0.9901990917
0.9902976423
0.9905414224
0.9910782209
0.9917788943
0.9925091361
0.9932866442
0.9935380267
0.9897727569
0.9896581298
0.9893678208
0.9888980918
0.9884444967
0.9882578916
0.9885947268
0.9890687915
0.9894543418
0.9896955133
0.9898941168
0.9902350837
0.9908209286
0.9916930506
0.9925031371
0.9930729501
0.9929564224
0.9891442126
0.9890155743
0.9886976945
0.988298787
0.9879996363
0.988010084
0.9882361612
0.9889319432
0.9893732551
0.9895889479
0.9897787256
0.9903167322
0.9909316128
0.9915552462
0.992287318
0.9924122922
0.9915807984
0.9886587671
0.988606
0.988453839
0.9883804575
0.9882861505
0.9882689737
0.9884283925
0.9890413911
0.9895288575
0.9897582556
0.9900228083
0.9905380262
0.9910469252
0.9914909605
0.9914869236
0.9908767115
0.9900789164
0.9886361011
0.9886799314
0.9886581557
0.9887346824
0.9887659181
0.9888213258
0.9888597852
0.9888755774
0.9895583755
0.9904056745
0.990762554
0.9910605246
0.9912583037
0.9911309355
0.9902922235
0.9891613929
0.9893390544
0.9887616317
0.9888094016
0.9888715642
0.9889761611
0.9891455835
0.9893966547
0.9894796119
0.9895719246
0.9899434899
0.990645487
0.991130541
0.991336329
0.9912296292
0.9904129163
0.9891909366
0.9886914817
0.9892672963
0.9888439496
0.988795092
0.9887164208
0.9888393422
0.9892660989
0.9896716378
0.9900282341
0.990299528
0.9903974444
0.9906208408
0.9908520301
0.9908369368
0.9904679488
0.9896027005
0.9894414438
0.989183222
0.9897410099
0.989114438
0.9888905107
0.9886644071
0.9886617414
0.9891262737
0.9897588826
0.9901510592
0.9903641909
0.9906737099
0.9906536422
0.9903902127
0.9898804238
0.9895967739
0.9899246466
0.9901720897
0.9902246282
0.9907327059
0.9894958871
0.9893651008
0.9892740015
0.9892331255
0.9893517743
0.9896572237
0.9900895746
0.9902709368
0.9903715757
0.990076153
0.9896317286
0.9894374216
)
;

boundaryField
{
    inlet
    {
        type            fixedValue;
        value           nonuniform 0();
    }
    outlet
    {
        type            inletOutlet;
        inletValue      uniform 1;
        value           nonuniform List<scalar> 
31
(
1.103893565
1.103368997
1.102575214
1.101415426
1.099485146
1.096179683
1.091330115
1.085072089
1.077720802
1.069447856
1.060654861
1.051995735
1.04357172
1.035484796
1.027755067
1.02021481
1.0129728
1.006472466
1.001582234
0.9979614737
0.995636674
0.9942674705
0.993489165
0.992683104
0.9913399586
0.990180616
0.9895519566
0.9894627898
0.9899112487
0.9908104155
1.104329157
)
;
    }
    bottom
    {
        type            slip;
    }
    top
    {
        type            slip;
    }
    obstacle
    {
        type            zeroGradient;
    }
    defaultFaces
    {
        type            empty;
    }
    procBoundary23to17
    {
        type            processor;
        value           nonuniform List<scalar> 
20
(
1.104647887
1.104541969
1.104404681
1.107630837
1.107650895
1.107783596
1.107682745
1.107346547
1.106996396
1.106610317
1.106363022
1.106114216
1.105953917
1.105843292
1.105745427
1.105621535
1.105473415
1.10537255
1.105229698
1.105229698
)
;
    }
    procBoundary23to22
    {
        type            processor;
        value           nonuniform List<scalar> 
32
(
1.107766721
1.107233157
1.106000879
1.104475661
1.101928846
1.097197615
1.090848376
1.083423586
1.075240747
1.075240747
1.067029375
1.058735871
1.050777244
1.043260716
1.035904534
1.028687426
1.021584928
1.01465787
1.00817781
1.002563352
0.9979913786
0.9944857465
0.9920011574
0.9905976042
0.9905976042
0.9897891584
0.9890738639
0.9885611125
0.9884936524
0.988680598
0.9889031108
0.9892121242
)
;
    }
    procBoundary23to28
    {
        type            processor;
        value           uniform 0.9896203686;
    }
    procBoundary23to29
    {
        type            processor;
        value           nonuniform List<scalar> 
18
(
0.9897106344
0.9906021636
0.9912403944
0.9914454334
0.9917813047
0.990827254
0.990932823
0.9908248379
0.9906985525
0.9906408412
0.990419652
0.990418098
0.9906036506
0.9906005155
0.9904439649
0.990356169
0.9897106344
0.9904688884
)
;
    }
}


// ************************************************************************* //
