/*--------------------------------*- C++ -*----------------------------------*\
  =========                 |
  \\      /  F ield         | OpenFOAM: The Open Source CFD Toolbox
   \\    /   O peration     | Website:  https://openfoam.org
    \\  /    A nd           | Version:  7
     \\/     M anipulation  |
\*---------------------------------------------------------------------------*/
FoamFile
{
    version     2.0;
    format      ascii;
    class       volScalarField;
    location    "0.9";
    object      T;
}
// * * * * * * * * * * * * * * * * * * * * * * * * * * * * * * * * * * * * * //

dimensions      [0 0 0 1 0 0 0];

internalField   nonuniform List<scalar> 5(1.015705672 1.014831214 1.010795823 0.9958617753 0.9992357607);

boundaryField
{
    inlet
    {
        type            fixedValue;
        value           nonuniform 0();
    }
    outlet
    {
        type            inletOutlet;
        inletValue      nonuniform 0();
        value           nonuniform 0();
    }
    bottom
    {
        type            slip;
    }
    top
    {
        type            slip;
    }
    obstacle
    {
        type            zeroGradient;
    }
    defaultFaces
    {
        type            empty;
    }
    procBoundary4to3
    {
        type            processor;
        value           nonuniform List<scalar> 2(1.005919051 1.011650628);
    }
    procBoundary4to5
    {
        type            processor;
        value           nonuniform List<scalar> 3(1.01981423 1.013513342 1.002091947);
    }
    procBoundary4to9
    {
        type            processor;
        value           nonuniform List<scalar> 2(1.016870877 1.017266341);
    }
    procBoundary4to10
    {
        type            processor;
        value           uniform 1.024096792;
    }
    procBoundary4to11
    {
        type            processor;
        value           nonuniform List<scalar> 2(0.9936385554 1.006630426);
    }
    procBoundary4to15
    {
        type            processor;
        value           uniform 0.9932150584;
    }
}


// ************************************************************************* //
