/*--------------------------------*- C++ -*----------------------------------*\
  =========                 |
  \\      /  F ield         | OpenFOAM: The Open Source CFD Toolbox
   \\    /   O peration     | Website:  https://openfoam.org
    \\  /    A nd           | Version:  7
     \\/     M anipulation  |
\*---------------------------------------------------------------------------*/
FoamFile
{
    version     2.0;
    format      ascii;
    class       volScalarField;
    location    "4.7";
    object      p;
}
// * * * * * * * * * * * * * * * * * * * * * * * * * * * * * * * * * * * * * //

dimensions      [1 -1 -2 0 0 0 0];

internalField   nonuniform List<scalar> 
2222
(
1.815257019
1.707311292
1.626990761
1.552332657
1.478213622
1.406450055
1.352767111
1.302145817
1.251496402
1.198855216
1.161239037
1.126499911
1.090422929
1.051255484
1.020779198
0.9957238393
0.9725883332
4.721332409
4.799648482
4.856149587
4.857149543
4.830500209
4.747174941
4.583633
4.357347963
4.102322264
3.802113855
3.507257491
3.265601395
3.030111332
2.78578053
2.596428367
2.430865349
2.266560383
2.102486789
1.980694386
1.870043062
1.76197695
1.657162792
1.578676483
1.506724735
1.435828707
1.365715084
1.314032884
1.265388791
1.217291107
1.16631971
1.129122784
1.095886716
1.061385556
1.023107658
0.9943575231
0.9692710411
0.9469300364
4.74720867
4.761967295
4.781179033
4.813677212
4.810235392
4.766734581
4.621325685
4.36352295
4.075811447
3.75088924
3.435716415
3.180294616
2.940038018
2.696784967
2.511613159
2.354168708
2.199478544
2.040565555
1.921052067
1.814113078
1.709821356
1.607168276
1.530092794
1.460763237
1.393411111
1.325626741
1.275190787
1.22869336
1.182626794
1.133735551
1.097275609
1.065748054
1.033265728
0.9967874269
0.9692237971
0.9453732295
0.9226983578
4.768397498
4.750033846
4.751462741
4.765436572
4.770406325
4.719032827
4.57760955
4.346612858
4.049449487
3.712299312
3.383744012
3.113358654
2.864376375
2.614892038
2.424156537
2.271991135
2.12741074
1.977160631
1.860795392
1.758286344
1.657811413
1.557827422
1.482049159
1.415551466
1.3513121
1.285738815
1.236799145
1.192617857
1.148813473
1.102430209
1.066532173
1.03595265
1.00453156
0.9691579679
0.9417061572
0.9194709161
0.8968084957
4.75291688
4.748103989
4.750396351
4.746387907
4.725965246
4.661574778
4.51121036
4.269511198
3.990804465
3.669731739
3.334442388
3.054152793
2.802006981
2.548740765
2.348283483
2.192818254
2.050278389
1.906821028
1.796649568
1.701665984
1.607008946
1.509932543
1.434937454
1.370475328
1.309186008
1.246811251
1.198803933
1.156642131
1.114643306
1.070384934
1.035751583
1.006711785
0.9770364575
0.9438632122
0.916784825
0.8958053673
0.8733503476
4.74210886
4.752220595
4.751542613
4.741522559
4.70549459
4.61297009
4.430925348
4.173048349
3.895507846
3.586023647
3.269545939
2.995509167
2.74510147
2.49207454
2.283629646
2.122916759
1.977291306
1.836781726
1.729338526
1.641876715
1.55486513
1.463025669
1.389345936
1.326814111
1.267807746
1.207732772
1.160870441
1.12097597
1.081418267
1.039481647
1.00596333
0.9774189244
0.9487785371
0.9169505392
0.8900738015
0.8703636228
0.8494583188
4.750891242
4.754720154
4.750601402
4.737865962
4.690090576
4.574488977
4.363598161
4.077202333
3.784883423
3.483257619
3.176769327
2.914176191
2.677754292
2.437309444
2.226988348
2.062590213
1.912961319
1.770291814
1.661324784
1.57964986
1.500751551
1.415248955
1.344330989
1.284378411
1.227408183
1.170040586
1.124077439
1.085965305
1.048327278
1.008423813
0.9765314076
0.9492845415
0.9220319471
0.8917889707
0.865537457
0.8466336548
0.8269469365
4.758329831
4.753019526
4.749084666
4.733949103
4.674485865
4.537331001
4.300063677
3.987360791
3.680607106
3.373194405
3.06561888
2.817133332
2.599157822
2.37432558
2.168536589
2.00525472
1.855400417
1.711949471
1.598605905
1.51798229
1.444208617
1.365861359
1.299280503
1.242983167
1.18791268
1.132353201
1.087258534
1.050607626
1.014881251
0.9769776325
0.9459716284
0.9200447978
0.8941668426
0.8659652689
0.8404400563
0.8224290138
0.8043750444
4.753850162
4.750854206
4.748333199
4.728527697
4.655033085
4.495676563
4.234396383
3.90108299
3.581226867
3.267830272
2.956297351
2.710543489
2.503329143
2.298254023
2.104910499
1.947951682
1.802497019
1.660630125
1.544017397
1.460280576
1.386906811
1.313883639
1.2519331
1.20065779
1.149156297
1.096608874
1.051941581
1.016948693
0.9833599376
0.9476263136
0.9177718051
0.8932168688
0.8679969366
0.8416288296
0.8169292436
0.7999823545
0.7838427954
4.748208981
4.751136668
4.747341125
4.721117412
4.631009848
4.447527422
4.163285949
3.812042182
3.483503479
3.167715452
2.851494931
2.604938833
2.403296242
2.211240746
2.029430061
1.883781185
1.748357659
1.613107734
1.496200563
1.409031385
1.332402801
1.262372256
1.203786246
1.157768586
1.110926266
1.060706293
1.016443628
0.9819880626
0.9493974921
0.9157540941
0.8870897044
0.8644244561
0.8410076211
0.8168268731
0.7934086224
0.7779497779
0.7639352377
4.749970562
4.752112743
4.745348676
4.711380354
4.601704548
4.392314008
4.085341405
3.718596612
3.383630651
3.068669651
2.752675225
2.504350895
2.303968479
2.119540152
1.945783441
1.811257318
1.688995313
1.565037726
1.451587932
1.363504446
1.283938251
1.212980133
1.154929403
1.113066866
1.071034716
1.025526485
0.9838541634
0.9507201537
0.9192557954
0.8873041909
0.8594413984
0.8381331767
0.8164003977
0.793895038
0.7723615804
0.758277569
0.746445468
4.753935701
4.75151361
4.742455165
4.699043732
4.566503103
4.329363979
4.001023596
3.620269538
3.279728648
2.967973982
2.65574962
2.407869517
2.210089691
2.029099131
1.858469208
1.733164492
1.623631916
1.512907333
1.405782682
1.320235646
1.240253201
1.16847165
1.109339206
1.069458203
1.031272169
0.9892771682
0.9489723337
0.9168017258
0.8866630551
0.8566794477
0.8303147215
0.8109647843
0.7916257677
0.7713676327
0.7514016546
0.7403776664
0.730713987
4.753769511
4.750088156
4.739045052
4.683396037
4.524574411
4.2589073
3.909840415
3.516770075
3.172705911
2.864366024
2.557985854
2.313004687
2.119713995
1.943149287
1.774410724
1.652802644
1.552964404
1.455243614
1.357616177
1.276965257
1.200616189
1.128382332
1.066952051
1.027136948
0.9914562534
0.9533844032
0.9159990411
0.8862355538
0.8576745891
0.8292256941
0.8035662309
0.7857804104
0.7695219591
0.7516082995
0.7334633993
0.7254781077
0.7166243597
4.750920741
4.749336048
4.734749926
4.663496175
4.475312131
4.180122746
3.812380147
3.408797471
3.061510758
2.758074718
2.459097447
2.21784399
2.030692214
1.860467007
1.694925173
1.575810963
1.48123929
1.393223227
1.304193606
1.230569395
1.160274945
1.090797312
1.030010615
0.9878013668
0.9509062616
0.9146678478
0.880208695
0.853478272
0.8278295144
0.8014434134
0.7764212842
0.7613764363
0.7489655474
0.7335827681
0.7178751575
0.7126186411
0.7050707716
4.750348282
4.749595129
4.728730264
4.638389041
4.417923396
4.093335424
3.708206991
3.295933819
2.947590902
2.649049835
2.358229222
2.122254843
1.942015034
1.779466754
1.619760651
1.502563861
1.410483967
1.328783239
1.247662337
1.181831123
1.119015839
1.055436826
0.9969931706
0.9541695916
0.9148621966
0.8794627065
0.8466126927
0.8228687865
0.800586834
0.7763803787
0.7521898482
0.7406438462
0.731085984
0.7173945197
0.7038859619
0.7003291693
0.6942781935
4.752098148
4.748988467
4.720253199
4.60731763
4.35176575
3.998053665
3.597591205
3.178840948
2.830389177
2.537943567
2.256658641
2.025839884
1.853016886
1.698887674
1.546461308
1.433503636
1.344255894
1.265563793
1.189211934
1.129664841
1.074067734
1.016694022
0.9620098437
0.9191877427
0.8785733153
0.8432056102
0.8116194313
0.7913480907
0.7736645707
0.7523180976
0.7296715535
0.7227969489
0.7159047905
0.7038100423
0.6924422514
0.6901584972
0.6853551801
4.752976728
4.747197716
4.708844777
4.568944021
4.276102867
3.893865774
3.480619525
3.057787477
2.710690158
2.424930958
2.153608642
1.929456956
1.764293738
1.618747729
1.474943991
1.365624903
1.280794314
1.204559495
1.131314037
1.076370753
1.029264529
0.9805194435
0.930943161
0.8893283657
0.8489513427
0.8130209007
0.7822207427
0.7638802989
0.7499896601
0.7314983248
0.7123886635
0.7074084365
0.7014798929
0.6896901371
0.6795632388
0.6787363546
0.6755377838
4.752480907
4.7451268
4.693773186
4.521926091
4.190196309
3.781530964
3.357124504
2.932415597
2.588946358
2.310955712
2.05040539
1.833177425
1.675599718
1.53886588
1.403249424
1.299357516
1.220719412
1.148664145
1.076065929
1.022135021
0.9794184322
0.9370914503
0.8930344426
0.8552154895
0.8182581686
0.784954691
0.753537704
0.7382490451
0.7288470583
0.7144583025
0.7000280553
0.6957823814
0.6901657877
0.6783444241
0.6689022892
0.6689046935
0.6670590623
4.752707662
4.743045535
4.673397947
4.465329479
4.093991956
3.659386012
3.227663069
2.804063016
2.465193686
2.195783392
1.946484949
1.737477623
1.588379316
1.459953916
1.333078933
1.234191274
1.161039917
1.092944446
1.024144849
0.9732224317
0.9344701235
0.897344658
0.8583790833
0.8242450642
0.7920686409
0.7624931307
0.7323991235
0.7197972431
0.7113982972
0.6993642068
0.6866744144
0.6826646491
0.6775660755
0.6670559442
0.6586004967
0.6587944898
0.6578459329
4.753726214
4.7406447
4.646488185
4.397831013
3.98634106
3.529858537
3.09170201
2.671029552
2.340269715
2.080398534
1.843276012
1.642859739
1.501749548
1.38092549
1.26306771
1.170708686
1.103330536
1.039249
0.973840542
0.9225056097
0.8857106931
0.8533434593
0.8194116352
0.7903449379
0.7660752753
0.7418681313
0.716537971
0.7060542881
0.6978326869
0.6870696192
0.6753454377
0.6721981344
0.668066554
0.6592321492
0.6508946793
0.6506584498
0.6497783099
4.75454059
4.732396279
4.610781155
4.318712432
3.867971024
3.390431752
2.949967654
2.536296551
2.213329162
1.964644914
1.740077591
1.548778286
1.416859316
1.304813687
1.195441442
1.107872775
1.046946556
0.9885615674
0.9284842889
0.8795515421
0.8440443811
0.8154537502
0.7839893787
0.7623761023
0.7452625421
0.7248111108
0.7036136772
0.6941758881
0.6858219563
0.676391206
0.6650344129
0.6625122968
0.6590418308
0.6513506536
0.6431438538
0.6426026027
0.6418127815
4.753653512
4.722261942
4.5656796
4.225689042
3.737460678
3.244527168
2.802745982
2.396986944
2.0857221
1.849358531
1.637828949
1.456462876
1.332975472
1.230146709
1.127880177
1.044977049
0.9872476012
0.9338245004
0.8790439087
0.83359382
0.8026114205
0.7782146726
0.7489906545
0.7372087844
0.7270144206
0.7109348134
0.6934669779
0.6858459556
0.6767595481
0.6665817713
0.6547015696
0.6526942912
0.6503345615
0.6443306929
0.6374652134
0.636935428
0.6363719267
4.753173568
4.707276481
4.508090109
4.118995965
3.596059924
3.089099213
2.651096808
2.25698537
1.957846311
1.733186272
1.53545969
1.365544182
1.251861706
1.157006188
1.064590434
0.9880826955
0.9359559724
0.887257879
0.8362725774
0.7956360823
0.7709255713
0.75027958
0.7237034646
0.7160909823
0.7099511826
0.6972692746
0.6830254734
0.6770338284
0.6685785344
0.6573426853
0.6459017435
0.64440243
0.6433182598
0.6386728658
0.6327548682
0.632022476
0.6313152486
4.753765618
4.685910158
4.437665427
3.997247067
3.442316188
2.928222542
2.495151688
2.113121985
1.828937035
1.617727534
1.435796386
1.278362709
1.173403127
1.08418868
0.9968511548
0.9232931562
0.8768804907
0.8360103436
0.7907858104
0.7572756623
0.7426158953
0.7268522911
0.7056688131
0.700624801
0.6972402539
0.6868859336
0.6738973319
0.6687177506
0.6619087648
0.6504069255
0.639010251
0.6368228384
0.6368505468
0.633332794
0.6288252904
0.628314663
0.6278548116
4.753891809
4.65596246
4.353429232
3.861303108
3.277957333
2.759079468
2.334973996
1.969532157
1.699031851
1.505039136
1.336449987
1.188318458
1.095346613
1.018048087
0.9397676549
0.8718995864
0.8301055368
0.7974515128
0.7522580501
0.7299201147
0.7232381178
0.7101524309
0.6918185332
0.6833643187
0.6813775427
0.6742898849
0.664707273
0.6608222712
0.6556392373
0.6451918429
0.6338638
0.6300361129
0.6307519546
0.6282732295
0.6259938879
0.6260293239
0.6257131291
4.750043505
4.616124289
4.254013111
3.707567431
3.102623588
2.582830321
2.170884934
1.822444384
1.570161591
1.39318859
1.240301972
1.103931855
1.017486495
0.9465939596
0.8757334733
0.811912776
0.7820815189
0.7594780592
0.7213475961
0.7080778695
0.7070073219
0.697956737
0.6805049233
0.6714050042
0.6710003898
0.6666317115
0.6589980001
0.6551480357
0.650620479
0.6411363735
0.6305140864
0.626532484
0.6254969237
0.6234805807
0.6231962277
0.6238805773
0.6246027201
4.741028594
4.565405159
4.135607779
3.537563368
2.912498579
2.397368446
2.002044143
1.677941527
1.444593715
1.279458179
1.143976606
1.025313961
0.9494346611
0.8877638354
0.8228646648
0.7667715858
0.7504329438
0.7323079424
0.7021951473
0.6888506053
0.6894141904
0.6839761434
0.6692994531
0.6615506838
0.6614921889
0.6582806889
0.6521938842
0.6491549586
0.6454605104
0.6376297777
0.6291039595
0.6259428453
0.6222775854
0.6204582115
0.6207731862
0.6222083952
0.6237956427
4.729803804
4.504562709
3.996315407
3.346353681
2.706895624
2.207019611
1.829906802
1.530772017
1.317830732
1.171851432
1.047308375
0.9389581005
0.8720489932
0.8248598662
0.7689116737
0.7277146756
0.7240014739
0.7116214763
0.6861885185
0.6746779886
0.6757533067
0.672438471
0.6589583765
0.6517472867
0.6512676572
0.649076022
0.6453668252
0.6444273685
0.6421038262
0.6369668391
0.6300877769
0.6270231352
0.621982747
0.6194042899
0.6194571585
0.6211766306
0.6370664307
4.714101199
4.423183251
3.83055386
3.132470701
2.488162042
2.007046901
1.658256366
1.380788079
1.192739288
1.075850563
0.9663742042
0.8677033955
0.8154334382
0.7811279756
0.7333049227
0.7040466126
0.7038337533
0.6945190527
0.6738743047
0.6632043694
0.6630336217
0.6605117877
0.6490450108
0.6444266736
0.6443231049
0.6429631738
0.6399367134
0.6402517123
0.6391887413
0.6356859739
0.6313323176
0.6283628947
0.6235808428
0.6195991919
0.6211301601
0.637004281
0.7066430346
4.697780199
4.321397665
3.633665653
2.893159696
2.263223005
1.79914691
1.488486745
1.237715803
1.071029423
0.9652686865
0.8728355146
0.7851177853
0.7613865957
0.7427278585
0.707346983
0.688376412
0.6899646901
0.6836169871
0.666730091
0.6549293185
0.6527932639
0.6499983336
0.6410157272
0.6376482617
0.6377833952
0.6367904078
0.6349203662
0.6359367588
0.6360830345
0.63408858
0.631531084
0.6292181535
0.6257757032
0.6245903318
0.6427210119
0.7081233739
0.8436611751
4.67350086
4.188535831
3.40033321
2.63504636
2.02430154
1.589155285
1.312388543
1.110747079
0.9709147546
0.8848137837
0.8064909111
0.7312007305
0.728929065
0.718276504
0.6904713581
0.6740373744
0.6752808007
0.6708244094
0.6573585749
0.6474664615
0.6456446638
0.6426281009
0.6352138591
0.6326829549
0.6329061103
0.6317941774
0.6306654923
0.631633933
0.6325611482
0.6322780152
0.6314937596
0.6301336192
0.6315403684
0.6484294007
0.7281675336
0.8480260739
0.9356419102
4.631586391
4.011758172
3.133723988
2.355728299
1.770248499
1.397468366
1.147310721
0.9672066659
0.8466687095
0.7981326549
0.7421270149
0.6963965718
0.7028872265
0.6992093797
0.6775459019
0.663735596
0.6656080513
0.6628178653
0.6528266503
0.6441328786
0.6411753193
0.6376629795
0.6313045333
0.6292959016
0.6295417865
0.6284824027
0.627682222
0.6284904562
0.6299643279
0.6309201734
0.6310367313
0.6337316565
0.6588252401
0.7378712413
0.87368592
0.9823761036
1.008235955
4.572794051
3.78182905
2.833533975
2.054989828
1.507944436
1.205531249
1.020384116
0.8541530349
0.7818531514
0.7510062634
0.7081831173
0.6800060539
0.6817946845
0.6793367706
0.6626018039
0.6533191069
0.6556253751
0.6545032324
0.6470045148
0.6393147515
0.6372249034
0.6340458888
0.6288934046
0.6271931561
0.6276242298
0.6272159917
0.6264688726
0.6266825817
0.6277234963
0.6289042257
0.634713518
0.6639604382
0.7595784221
0.8996258431
0.9584311061
1.011920135
1.028941434
4.480262738
3.495169376
2.475699462
1.734756972
1.266922708
1.003149922
0.8701430253
0.7426290859
0.7247492585
0.7157641258
0.6869989427
0.6686638176
0.6684115409
0.6659168129
0.652093734
0.6445851314
0.646335168
0.645869448
0.640447654
0.6348769485
0.6344129366
0.6323710899
0.6281049112
0.6265010554
0.6269548254
0.6267998862
0.6259262031
0.6260456549
0.6273902505
0.634179801
0.6710067673
0.7678229221
0.9089362851
1.013257863
1.021801887
1.04004781
1.039403707
4.326526596
3.145996054
2.059184561
1.410747147
1.061903973
0.8795323882
0.78159661
0.6994739153
0.6931125629
0.6914794368
0.6728871405
0.6572484977
0.6574475805
0.6553673404
0.6443215615
0.6382898466
0.6396808172
0.6394719169
0.6350906746
0.6310085034
0.6317027629
0.6308105826
0.6277824811
0.6265156683
0.6269226955
0.626983821
0.6261725841
0.6268119743
0.6339898964
0.6703289352
0.7818919617
0.9235662925
0.9832206838
1.027762397
1.040261644
1.045867037
1.044874687
4.089988993
2.700241677
1.615727604
1.091747915
0.8068958867
0.7591138632
0.7141993876
0.6741965
0.6778408752
0.6789224949
0.6662403032
0.6518202126
0.6507808945
0.6485259043
0.6398138248
0.6337984028
0.6347081747
0.6344549389
0.6307904062
0.6284733237
0.6295234585
0.629406405
0.6278664551
0.6270666999
0.627557701
0.6278955847
0.6285600637
0.6348892456
0.677924068
0.7835828362
0.9202588102
1.023787854
1.032988531
1.047411997
1.047585713
1.047558591
1.0470352
3.744829834
2.049446897
1.241908345
0.8923175776
0.7144615721
0.7025403939
0.6812446182
0.6611656793
0.6640877932
0.6657438206
0.6562307749
0.6455525528
0.6444477864
0.642048011
0.635261891
0.6303531148
0.6302039627
0.6301629505
0.6280277699
0.6275253282
0.6282187837
0.6284771598
0.6278656336
0.6273579701
0.6278762189
0.6294523844
0.6374803509
0.680237446
0.794160474
0.9392190434
0.985747705
1.031147373
1.044407048
1.052339085
1.055256213
1.053100657
1.050089651
3.184451798
1.351470243
0.828106442
0.6965646953
0.671474642
0.6813173208
0.6765971609
0.6618702958
0.6581086194
0.657667579
0.6508751837
0.6449183497
0.6429024234
0.6396884016
0.634153764
0.6307636807
0.6294655262
0.6290976063
0.6279130213
0.627843884
0.6282051499
0.6281369463
0.6276947103
0.627623675
0.6297688603
0.6403369363
0.6894086712
0.8088127442
0.9412063992
1.020064117
1.021392265
1.031301804
1.04439401
1.052181617
1.056761398
1.056024364
1.053363739
1.925189294
0.9247244176
0.712794198
0.6643165778
0.6596066257
0.6657387482
0.6671978606
0.6573335371
0.6491223643
0.6451935656
0.640773721
0.6362476133
0.6342764215
0.6328747396
0.6305655395
0.6288875681
0.6279631441
0.627833175
0.6275724206
0.6277108226
0.6276325308
0.6273292939
0.627668744
0.6308878895
0.6475759106
0.6991756803
0.8296278732
0.9474700393
0.9953452296
1.039224226
1.035991622
1.03574453
1.04044355
1.047990213
1.054306883
1.05443989
1.052504907
0.6507592018
0.7117693931
0.7292647365
0.6665953026
0.6570278551
0.6610729641
0.6604734022
0.6530626534
0.6449609763
0.6394146571
0.6348004141
0.6316026867
0.6335548451
0.6329159223
0.6313032615
0.6298891921
0.6293308483
0.6293467478
0.6296448963
0.629330463
0.6281154819
0.6276620879
0.6296037685
0.6391886727
0.6764935347
0.7731867562
0.9400095101
1.00724566
1.01515526
1.040935444
1.039271012
1.038801704
1.041559673
1.049152709
1.053576569
1.053578098
0.6502804968
0.7208111383
0.7277345622
0.665690876
0.6565652209
0.6597841857
0.6586453111
0.6501703781
0.6421981786
0.6370347493
0.6338018334
0.6324007136
0.6333159828
0.6324181616
0.6307966605
0.6293494224
0.6290313161
0.6295761346
0.6300242001
0.629125536
0.6277301311
0.6278449427
0.6312839989
0.6459581678
0.6985746361
0.8090242638
0.9670328284
1.019578449
1.021175676
1.041655867
1.039986349
1.039106744
1.042284958
1.049891143
1.053557327
1.053288117
0.6615862775
0.7273927391
0.7206147715
0.6634564049
0.6566465637
0.6592256953
0.6574612657
0.6485182671
0.6407843159
0.6360451733
0.6332705269
0.632753733
0.632967041
0.6320488375
0.6304780089
0.6291981818
0.6290771039
0.6297968783
0.6301608008
0.6289128939
0.6275610507
0.628194877
0.6329548397
0.6521017424
0.7160900945
0.8402168276
0.9863307976
1.026729079
1.022743777
1.043262691
1.039754523
1.039831897
1.043308529
1.050379543
1.053300824
1.052870893
0.6711680211
0.7311835835
0.7132811034
0.6621822779
0.6565617538
0.6586456381
0.6557656506
0.6468856603
0.6392587907
0.6350388894
0.6327393228
0.6327165038
0.6326439717
0.631737812
0.6301999674
0.6290181084
0.6292070294
0.6300896668
0.6301627807
0.6285746006
0.6274634308
0.6286874784
0.635512635
0.6611706038
0.7377845908
0.8863589011
1.009920588
1.030311635
1.025149708
1.043510424
1.040290938
1.040412044
1.044179335
1.051116823
1.053356426
1.052462665
0.6809895643
0.7340453687
0.7044074127
0.6608738385
0.656343585
0.6580127299
0.6540037827
0.6451171248
0.637841711
0.6340937578
0.6322640246
0.6322912064
0.6323986098
0.6314724506
0.6299354831
0.6289073687
0.6293840373
0.630370656
0.6300493119
0.6282471135
0.6274602973
0.6295655106
0.6385427996
0.6724912797
0.7703219505
0.9189471465
1.024229821
1.029168147
1.027307403
1.043922399
1.040451141
1.040915963
1.044921407
1.051681554
1.053333756
1.052328672
0.6891388909
0.7349714582
0.6967909777
0.6600959475
0.6567486517
0.6574867479
0.6517933613
0.6420934935
0.6361654943
0.6331988937
0.631223287
0.6318911907
0.6321369958
0.6312111633
0.6296707975
0.6288792198
0.6295557133
0.6305318888
0.6297940894
0.6278792673
0.6275646091
0.6305503038
0.6428283787
0.6869065518
0.8013173174
0.9326959875
1.028503451
1.032257279
1.029511424
1.044106495
1.040703412
1.041078515
1.045100706
1.051632752
1.053488644
1.052696742
0.6967819867
0.7342054254
0.6895834444
0.6577406005
0.657086125
0.6571716221
0.650405171
0.6395741619
0.6348117251
0.6324703199
0.6308445069
0.6319205994
0.631835253
0.6309899253
0.6294923686
0.6288790551
0.629797522
0.6307477935
0.6295161908
0.6275985062
0.6278195769
0.6317824058
0.6487901104
0.706471658
0.8213810963
0.9512247066
1.03521719
1.033603256
1.03109655
1.044180982
1.040897165
1.041156625
1.045312522
1.051342503
1.053211431
1.052598279
0.7025303458
0.7310173571
0.6837650692
0.6555730325
0.6575693078
0.6563937135
0.6492042783
0.6383651669
0.6342030585
0.6318197573
0.6304796205
0.6318599544
0.631693019
0.6307501896
0.6292638556
0.628955392
0.630144107
0.6309851205
0.6291780655
0.6273962325
0.6281758434
0.6339727725
0.6566210035
0.7251097349
0.851121057
0.9799149752
1.040565226
1.034734851
1.032122066
1.044639818
1.041181079
1.041502949
1.045530555
1.050961829
1.052439835
1.051660111
0.7071039074
0.7255257752
0.6798993913
0.6543519711
0.6584960257
0.654697497
0.6469891043
0.6368535826
0.6337386305
0.6312211219
0.6302101016
0.6317937714
0.6315275348
0.6304970474
0.6290867835
0.6290838721
0.6305583123
0.6310875224
0.6288290745
0.627279649
0.6288349614
0.6369305952
0.6665827071
0.7470961728
0.8952665274
1.003205109
1.043468281
1.03520166
1.033390381
1.044886569
1.041762147
1.042056478
1.0461579
1.050856518
1.051643428
1.050400458
0.7100054522
0.7199870039
0.6760335529
0.6541163973
0.6581846751
0.6524598053
0.6437933847
0.634398936
0.6328457543
0.6306509953
0.6299752762
0.6318076788
0.6312904496
0.630217291
0.6289109073
0.6292381709
0.6308431465
0.6310475479
0.6284807085
0.6272920475
0.6298751939
0.6405866458
0.678253269
0.7827395762
0.9279839274
1.015749763
1.045096074
1.035844173
1.035465281
1.045253515
1.042352219
1.042651699
1.047303376
1.050928419
1.051075651
0.7116247003
0.7139828261
0.6724738149
0.6537596031
0.6580724221
0.6510245351
0.6420969263
0.6326904169
0.6316709234
0.6301117154
0.6297648551
0.6318706442
0.6311043221
0.6299598721
0.6287581879
0.6294291029
0.6311340061
0.6309319936
0.6280720631
0.6274778394
0.6309554668
0.645518714
0.695844572
0.8171089741
0.949603246
1.023408353
1.044847611
1.036119903
1.036057594
1.045437463
1.0429392
1.043365598
1.048530392
1.051313728
1.051135755
0.7122232486
0.7081324082
0.6690916037
0.6537577204
0.6571232178
0.649676954
0.6412521988
0.6320374131
0.6307091693
0.6295185811
0.6295740473
0.6318459278
0.6308738471
0.6296962108
0.6286962594
0.6297004797
0.6314857522
0.6308023391
0.627886446
0.6277639697
0.6324862382
0.6523800217
0.7186865752
0.8416909575
0.9705266225
1.028480371
1.042878222
1.035665249
1.036588513
1.04542554
1.043335685
1.044009286
1.049284004
1.051960265
1.051709627
0.7119024533
0.7021573024
0.6664661962
0.6541302329
0.6555906262
0.6478565966
0.6398135683
0.6312914128
0.6300340372
0.6288158995
0.629469557
0.6318365948
0.6306869712
0.6294678099
0.6286869734
0.6299758804
0.6316444479
0.6306317905
0.6278864171
0.6282815338
0.6351298946
0.661986156
0.7381985977
0.8737184339
0.9924985095
1.033317428
1.041538807
1.035523559
1.03698341
1.04540138
1.043452835
1.044112571
1.049525568
1.052227122
1.051876099
0.7113015506
0.6960126358
0.6645230601
0.6543399017
0.6537404269
0.6457172987
0.6378362917
0.6302315531
0.6294502729
0.6279887019
0.6293778742
0.6317787911
0.6305400124
0.6292931655
0.6287651459
0.6302635696
0.6316640818
0.6304019167
0.6278452535
0.6290225618
0.6385073984
0.6732433855
0.7619269106
0.9089397993
1.00436301
1.037918448
1.041865263
1.035703474
1.037214061
1.045659177
1.043672258
1.043858786
1.048845632
1.051891393
1.051819184
0.7104916746
0.6905027305
0.6626541199
0.6540978727
0.6520097876
0.6440205332
0.6363004419
0.6291929877
0.628862549
0.6272301246
0.6295057964
0.6317521335
0.6303463616
0.6291458266
0.6289244626
0.6306222308
0.6318245768
0.6301330035
0.6277301082
0.630119315
0.6429413689
0.6866242663
0.7980127503
0.9333509234
1.011474
1.039984119
1.042797985
1.036677502
1.038375949
1.046210726
1.044074439
1.043776095
1.048313641
1.050440455
1.050259612
0.7080869814
0.6856937112
0.6607762198
0.6537049342
0.6503534032
0.6426986557
0.6350409551
0.62804609
0.6281692158
0.626760256
0.6297450796
0.6316304656
0.6300829688
0.6290402125
0.6291634822
0.6310167605
0.6319061401
0.6298182058
0.6277695197
0.6314272953
0.6489959867
0.70816504
0.8308316538
0.959087284
1.021858275
1.040892564
1.043346182
1.037512328
1.039427468
1.046937087
1.044666248
1.044137173
1.048432842
1.049333662
1.048570574
0.7055037784
0.6814144335
0.6588065153
0.6529102996
0.6485520436
0.6412423865
0.633502781
0.6267438905
0.627393667
0.6266206819
0.6301148833
0.6314668357
0.6298105341
0.6289175165
0.6294970133
0.6315187427
0.6318575214
0.6295224443
0.6281057496
0.6334602655
0.6576311589
0.7326248886
0.8603530442
0.9855928159
1.030837707
1.041050063
1.043005203
1.038029204
1.040412547
1.047334268
1.045341973
1.044730171
1.049046515
1.049321051
1.047991097
0.7023585284
0.677500976
0.6567227286
0.6514604344
0.6466755739
0.6394918328
0.631657359
0.625274833
0.6267180863
0.6265286385
0.6305133476
0.6313105179
0.6295663257
0.6288896179
0.6299587681
0.6320181728
0.6315896446
0.6293034165
0.6286758195
0.6366865271
0.6693820119
0.7543980743
0.8961768763
1.003659457
1.033838561
1.040014566
1.041885151
1.038149104
1.04079069
1.047560728
1.04576217
1.045682459
1.049768423
1.049732837
0.6990597394
0.6742251721
0.6548722988
0.6505341503
0.6451551519
0.638312087
0.6305332164
0.6244418494
0.6260865158
0.6259672933
0.6307318481
0.6311102301
0.629420893
0.6289601001
0.6304019079
0.6320987979
0.6312177567
0.6292330906
0.629603641
0.6406229544
0.6821462171
0.7832146576
0.928154401
1.012483703
1.034077456
1.040369098
1.04021216
1.038169786
1.041057026
1.047576428
1.045907833
1.046297201
1.050210891
1.050201996
0.6957401222
0.6717086473
0.653428325
0.6498506567
0.6436087831
0.6373706802
0.6299704006
0.6246661151
0.6260729139
0.6260802744
0.6308963713
0.6308890322
0.6293307265
0.6290845126
0.6307804794
0.6320282065
0.630859492
0.629299273
0.630786178
0.6459577834
0.69794961
0.8194223609
0.9462286047
1.015044531
1.035895263
1.041167784
1.039120165
1.038399667
1.041449768
1.047379854
1.04563554
1.046085226
1.049951158
1.050269518
0.6926374598
0.6696757727
0.6521222517
0.6486297799
0.6412170006
0.6353029033
0.6289917367
0.6252668644
0.6265814522
0.6264802227
0.631039587
0.6305596095
0.6292486746
0.6293017279
0.631097769
0.6318105991
0.6304601655
0.6294446669
0.6323005695
0.6535582142
0.7220549981
0.8468877002
0.9633065772
1.022096314
1.037718157
1.041935958
1.039944467
1.039621122
1.042921866
1.047377566
1.045305551
1.045469714
1.048740896
1.048986699
0.6896042862
0.6675762547
0.6505080829
0.6471237858
0.6390422366
0.6325174716
0.62681607
0.6255578851
0.6274764169
0.6272954623
0.6310632631
0.6301833712
0.6292131361
0.6295380022
0.6312089487
0.6314557049
0.6299668656
0.6293918728
0.6351085443
0.6641009736
0.7454868533
0.8754035285
0.9875200378
1.030754042
1.038587048
1.042418644
1.040602439
1.040343352
1.044382945
1.047721369
1.045470852
1.045512178
1.047885886
1.047725289
0.6864713785
0.6651225119
0.6485204117
0.6456027228
0.6378474828
0.6315838381
0.6258305986
0.6253051955
0.6283833521
0.6283831598
0.6311411339
0.6299945564
0.6291391164
0.6297577
0.631193827
0.6309056845
0.6293633593
0.6299049969
0.6392753554
0.6768292572
0.7686626018
0.913460337
1.011761757
1.035122654
1.038985962
)
;

boundaryField
{
    inlet
    {
        type            fixedValue;
        value           nonuniform 0();
    }
    outlet
    {
        type            zeroGradient;
    }
    bottom
    {
        type            slip;
    }
    top
    {
        type            slip;
    }
    obstacle
    {
        type            zeroGradient;
    }
    defaultFaces
    {
        type            empty;
    }
    procBoundary9to3
    {
        type            processor;
        value           nonuniform List<scalar> 
38
(
1.867475089
1.758103273
1.676457964
1.599250436
1.521036848
1.447142787
1.391837209
1.339629987
1.286700448
1.232556349
1.194003509
1.157102831
1.119176545
1.078639796
1.046316753
1.022019829
0.9966691577
4.833423212
4.879264915
4.884171279
4.856209148
4.770969365
4.664717973
4.539437331
4.370749454
4.152762695
3.878705466
3.603041592
3.362457233
3.119455635
2.868457493
2.673162775
2.501108018
2.32915725
2.163631516
2.041921606
1.928359291
1.928359291
)
;
    }
    procBoundary9to4
    {
        type            processor;
        value           nonuniform List<scalar> 9(0.942783252 0.9190919018 0.8973718137 0.8739426605 0.8513503312 0.8279104877 0.8059763963 0.7846672396 0.7649359263);
    }
    procBoundary9to8
    {
        type            processor;
        value           nonuniform List<scalar> 
12
(
4.725150107
4.687394003
4.760400158
4.789589732
4.749765882
4.728083896
4.749753825
4.766380954
4.755587502
4.742285272
4.746331931
4.755832597
)
;
    }
    procBoundary9to10
    {
        type            processor;
        value           nonuniform List<scalar> 
55
(
0.7459930829