/*--------------------------------*- C++ -*----------------------------------*\
  =========                 |
  \\      /  F ield         | OpenFOAM: The Open Source CFD Toolbox
   \\    /   O peration     | Website:  https://openfoam.org
    \\  /    A nd           | Version:  7
     \\/     M anipulation  |
\*---------------------------------------------------------------------------*/
FoamFile
{
    version     2.0;
    format      ascii;
    class       volScalarField;
    location    "3";
    object      rho;
}
// * * * * * * * * * * * * * * * * * * * * * * * * * * * * * * * * * * * * * //

dimensions      [1 -3 0 0 0 0 0];

internalField   nonuniform List<scalar> 
2222
(
0.5559393438
0.5557734776
0.5558658859
0.5585044043
0.840647109
1.143940498
1.254014534
0.4758329655
0.4933914702
0.5131731168
0.5631310643
0.5900835159
0.5876217985
0.5745731757
0.559756565
0.5538433196
0.5508634899
0.5490584893
0.5482798677
0.5492647055
0.5497270002
0.5502657154
0.551394635
0.5528271252
0.5544810324
0.5547821966
0.5554859362
0.5555714994
0.5553531617
0.5554676278
0.5552760387
0.5548443236
0.5548750765
0.555698355
0.5563018064
0.5562609132
0.5562597584
0.5725632329
0.9695573313
1.201461407
1.285258899
0.4777641889
0.4932344033
0.5179539038
0.5655613823
0.5895715422
0.5866418739
0.5742286305
0.5610037194
0.554919067
0.5513218193
0.549159622
0.5489757924
0.5491918206
0.5493927099
0.5501736703
0.5516601318
0.5534240492
0.5551324242
0.5552563796
0.5556565156
0.5556595856
0.5556821625
0.5556862485
0.5555823667
0.5552494447
0.5551443457
0.556085341
0.5565624509
0.5564061499
0.5569521464
0.6774806073
1.049844914
1.273095509
1.289352299
0.4863708768
0.4902955463
0.5208027625
0.5684900533
0.5885384506
0.5850156405
0.5735487504
0.5628742436
0.5556191372
0.5514350946
0.5493456583
0.5496025018
0.5492060191
0.5492621082
0.5502676213
0.5518221136
0.5536827857
0.555433612
0.5557203368
0.5557302243
0.5557431856
0.5557457798
0.5557739049
0.555842291
0.5557431962
0.5557159579
0.5564263495
0.556854312
0.556734636
0.5584729083
0.8258075918
1.184254911
1.286832062
0.4917840451
0.4899287582
0.5216585989
0.5687967076
0.5870866317
0.5831319892
0.5723093225
0.5637422998
0.5563749067
0.5521980062
0.5493565569
0.5497116559
0.5493435495
0.5494627333
0.5504505961
0.5519239109
0.5537611079
0.5555970874
0.5559406729
0.5558833861
0.5558472687
0.5558159347
0.5559247263
0.5559490772
0.5559201634
0.5561458752
0.5566391702
0.5569452042
0.5569318383
0.5872922707
0.9821467291
1.264639087
1.28756379
0.4914315615
0.4905904084
0.5218526245
0.5684145101
0.5852979231
0.581552514
0.5705767401
0.5642650371
0.5579853969
0.552250518
0.5492095768
0.5496117407
0.5495847409
0.5498030303
0.5506679629
0.5521073761
0.5538797591
0.5556410277
0.5561685981
0.5561438435
0.5561068722
0.5560284043
0.5562332002
0.5560987867
0.5560959005
0.5563691878
0.5569155315
0.5572206154
0.5573069688
0.6928421836
1.154317191
1.274372405
1.270657687
0.4906432531
0.4926439032
0.5203733552
0.5677561077
0.5832967394
0.5797722948
0.5702587013
0.565111867
0.558527115
0.5521791258
0.5491418074
0.5494174817
0.5498029009
0.5500871983
0.5508986383
0.5524317454
0.5542538734
0.55582719
0.5565568404
0.5567098619
0.5565937571
0.5564876596
0.5567185269
0.556458247
0.5563931481
0.5566915132
0.5574239873
0.5575791464
0.5630775567
0.8947998839
1.227355082
1.254995958
1.258458312
0.4897022336
0.4981584865
0.5203852994
0.5669069257
0.580851029
0.5771271758
0.5707686052
0.5668448276
0.5586187106
0.5522031831
0.549450086
0.5494597068
0.5500384464
0.5503219033
0.5512244147
0.5531288026
0.5551072203
0.5563001924
0.5570583298
0.5571519921
0.5569721611
0.5569365713
0.5571492288
0.5571294779
0.5570082086
0.5573055173
0.5581465488
0.5581122746
0.6014343644
1.058782999
1.213146457
1.248977373
1.26171047
0.486925477
0.5016898522
0.5213483404
0.5658091856
0.5777967924
0.5762671208
0.5733104176
0.5680781871
0.55877873
0.552433454
0.5498165441
0.5495578713
0.550158389
0.5504881476
0.5516018095
0.5535821402
0.5554532823
0.5569965741
0.5573204826
0.5572910218
0.557105497
0.557130557
0.5573278809
0.5574764904
0.557632721
0.558204361
0.5582763506
0.5596619004
0.7677659487
1.116095034
1.234739944
1.262317541
1.278167778
0.4806880315
0.5027728966
0.5226968576
0.5650847861
0.5755671865
0.5763702555
0.5749949387
0.5685362576
0.5589714489
0.5527720227
0.5503322898
0.5497702507
0.5497479447
0.5506072775
0.5518708534
0.55380283
0.5558139714
0.5573092566
0.5574499593
0.5573826955
0.5571545795
0.5571585559
0.5573671418
0.5576016835
0.5578742662
0.5583898598
0.558690035
0.5672067814
0.9258355846
1.189115282
1.276568339
1.285437285
1.287705165
0.4789616469
0.503313032
0.5249662486
0.5649598695
0.5743705096
0.5762917722
0.5752255142
0.5689217239
0.5592292784
0.5530049703
0.5510313655
0.5500851143
0.549926969
0.550539816
0.5521155999
0.5541410396
0.5561211511
0.5576159342
0.5577596029
0.5577072424
0.5574466053
0.5573419077
0.5574737409
0.5577283384
0.5580253139
0.5585319435
0.5588711615
0.6432007584
1.034672916
1.273512271
1.288278238
1.288028377
1.288367155
0.4797174887
0.5035401723
0.5296348527
0.564852715
0.5734036931
0.5758896613
0.5750474488
0.5693756947
0.5594138055
0.5531572851
0.5515166848
0.5506666756
0.5504057808
0.5507381298
0.5524908002
0.5549370204
0.5567804666
0.5582985846
0.5583980838
0.5582362024
0.5580279039
0.5579311942
0.5579511207
0.5580842434
0.5583137037
0.5588055926
0.560351562
0.7866890729
1.192400733
1.289219245
1.287070307
1.284244885
0.4845641001
0.5025204578
0.5320723318
0.5639903723
0.5721522406
0.5759316623
0.575274745
0.5696810887
0.5592766535
0.553223012
0.5517734741
0.5510844011
0.5508254301
0.5510172735
0.5529236632
0.555607263
0.5577159757
0.5589246915
0.5590241296
0.5584600505
0.5582249013
0.558524123
0.5588977191
0.5589991352
0.5590030574
0.5591799934
0.5816795288
0.9995534102
1.262936037
1.287847767
1.280410098
1.274578552
0.489487412
0.4997504293
0.5327649111
0.5625188925
0.5712907902
0.5766944505
0.575978989
0.5698903502
0.5595118741
0.5534134808
0.5519815644
0.5512472226
0.5510825488
0.5513845497
0.553252252
0.555903711
0.5580244624
0.559196278
0.5592755738
0.5586952413
0.5583607788
0.5586363229
0.5593334135
0.5597711562
0.5598345977
0.5604706899
0.6989493028
1.157083746
1.272401076
1.271012434
1.267275715
1.269681278
0.4910345935
0.4995341237
0.5330365396
0.5610955724
0.5715818479
0.5786527676
0.57718674
0.569918936
0.5598886828
0.553832968
0.5521342327
0.5513727698
0.5512795706
0.5519585767
0.5536602156
0.556195925
0.5580680582
0.5592609633
0.5593972373
0.5591064138
0.5587265091
0.5587540051
0.5593893235
0.5599616898
0.5599949621
0.5655852796
0.912174954
1.180808068
1.253455072
1.263227604
1.268473185
1.272677505
0.491793244
0.5004411224
0.5303337759
0.5602269059
0.5720632984
0.5791326725
0.5780251038
0.5699638311
0.5603319392
0.5542832152
0.5523403785
0.5514119799
0.5512553601
0.5526549132
0.5545523211
0.5567764783
0.5582429951
0.5592946476
0.5594393646
0.5594000486
0.5594318364
0.5592102791
0.559495262
0.5599064473
0.5605081955
0.614301136
1.009173986
1.213527964
1.25621465
1.267362433
1.275722424
1.282096851
0.4921097662
0.5059564691
0.527752269
0.5597343221
0.5725040015
0.5798563941
0.5783214548
0.5698618586
0.5606844136
0.5547953227
0.5526063963
0.5516435295
0.5514358983
0.5529274897
0.5553182873
0.5573790422
0.5587526911
0.5595347889
0.5596460647
0.5595924584
0.5597465232
0.5599928624
0.560168885
0.5600466834
0.5609768227
0.7572220072
1.119776409
1.268524521
1.277303156
1.282238848
1.285370279
1.287451784
0.4921091747
0.5121563433
0.5276635799
0.5594058238
0.5726551879
0.5797403118
0.5783231336
0.5697183919
0.5609823362
0.5551664137
0.55314764
0.5521165448
0.5519041331
0.5531475175
0.5555227142
0.5576715371
0.559436175
0.5601679027
0.5601122575
0.5598398185
0.559886179
0.5602594587
0.5606512289
0.5603832982
0.5742529104
0.9312423877
1.25750222
1.290354791
1.289585915
1.287265878
1.28636831
1.287981573
0.4909908933
0.5142956627
0.5279220729
0.558805156
0.5722636392
0.5799378677
0.5782688087
0.5695433857
0.5610557034
0.5554159625
0.5533196486
0.5524324254
0.5525181174
0.5535084248
0.5557016698
0.5577246774
0.5596535244
0.5609029386
0.5609229291
0.5602988414
0.5601096831
0.5603576913
0.5607530212
0.5610526069
0.660281748
1.123774008
1.286316673
1.292047567
1.289962215
1.286779521
1.284153467
0.4889592401
0.5154266545
0.5284494411
0.5572142175
0.5721255729
0.5795532043
0.578124645
0.5697722916
0.5611557727
0.5555935734
0.5535652552
0.5527482587
0.5529541922
0.5543446865
0.5561737814
0.5576886663
0.5596356437
0.5610380288
0.5613821601
0.5611050976
0.5605637922
0.5605999776
0.5607396261
0.5649261962
0.8691375639
1.206638757
1.284137398
1.287319177
1.283977527
1.278323442
1.27604525
0.4897389627
0.5159685951
0.530314525
0.5562171574
0.5715835571
0.579455578
0.5778562546
0.5698589369
0.5613883679
0.5556886932
0.5538607215
0.5532893738
0.5532132855
0.5554298907
0.5570313577
0.5579842343
0.5595304301
0.5610003875
0.5614436647
0.5615937045
0.5614017409
0.5611410574
0.5612329825
0.5990041465
0.9959899939
1.213277384
1.264433219
1.271664289
1.272004542
1.271533926
1.273438295
0.4928594613
0.516072129
0.5318804223
0.5560918155
0.5715594212
0.5793023479
0.5772253553
0.5700225107
0.5616541687
0.555816423
0.5542089895
0.5538389345
0.5535895787
0.5558864289
0.5576453432
0.5586062041
0.5596019978
0.560678364
0.5613801732
0.561638182
0.5618256816
0.5616763533
0.5616990354
0.7257804363
1.08623539
1.247266849
1.265781194
1.270391983
1.271416385
1.273192917
1.27599653
0.4991913491
0.5151113313
0.5322780524
0.5560280718
0.5711399223
0.5787108207
0.5765406828
0.5701978389
0.5620786605
0.5559630992
0.5544079634
0.5541426323
0.5543593294
0.556028789
0.5578520794
0.5591657115
0.560004632
0.5605090301
0.5610571906
0.5615524666
0.5618254902
0.5617524242
0.5705313637
0.8850728148
1.217818532
1.287944635
1.281624775
1.278098978
1.278047057
1.280632699
1.282853418
0.5055072506
0.512221195
0.5322247801
0.5555864221
0.5706592875
0.5783610847
0.5762894927
0.5703583335
0.5625127219
0.5562689311
0.5546785887
0.554465303
0.5552047727
0.5563105149
0.5576987785
0.5593324822
0.5606369449
0.560718422
0.5609999773
0.5612184309
0.561644283
0.5617570066
0.6353069414
1.08653682
1.274396281
1.295422621
1.29507004
1.291720232
1.288493837
1.286743738
1.285238324
0.5084937809
0.5117835515
0.5315151262
0.5547548798
0.5697882242
0.5776182577
0.5760995369
0.5707139036
0.5628425901
0.5568309491
0.5550599544
0.5548995882
0.5553477409
0.5568840405
0.5576521908
0.5592560956
0.5607751883
0.5613558184
0.5612542963
0.5612882049
0.5613986003
0.5645739887
0.8272340601
1.191946815
1.279942564
1.295120992
1.295825642
1.293678719
1.29015969
1.287610454
1.285843939
0.5090176671
0.5134905564
0.5286392117
0.5538082421
0.568749811
0.576682144
0.57609866
0.5711014171
0.5633852054
0.5576702132
0.556019051
0.5555709683
0.555358048
0.5572933803
0.5577278507
0.5588528253
0.5607484167
0.5616553507
0.5620464058
0.5618331525
0.5618414741
0.5896914425
0.9668615433
1.201067824
1.261911012
1.280796572
1.286141591
1.289011142
1.287733516
1.285733528
1.283876144
0.5088379646
0.5168620794
0.5256293927
0.5530394849
0.5674544518
0.5753300166
0.5757161056
0.5714000591
0.5638561402
0.5585646904
0.5571238968
0.556653255
0.5555859704
0.5572947343
0.5578808254
0.5582203249
0.5605780873
0.5617032238
0.5623918338
0.5623423704
0.5623024209
0.6941067524
1.067907356
1.234286346
1.255974288
1.267529451
1.274020569
1.279558494
1.28125378
1.281201616
0.5080280931
0.5175918547
0.524598131
0.5520315537
0.5668384101
0.575012555
0.5756294082
0.5712219696
0.5642262168
0.5591710129
0.5576111749
0.5572347207
0.5565254665
0.5573774622
0.5579936338
0.5580288159
0.5601100154
0.5617159838
0.5624763086
0.5624736846
0.5688940143
0.8685005586
1.21182767
1.278305846
1.26656545
1.268529658
1.272545925
1.276588537
1.278958592
1.281325644
0.5053972735
0.5174846074
0.5236975821
0.550588507
0.5661690263
0.5748621927
0.5760476838
0.571434174
0.5645554692
0.5596132119
0.5584667686
0.5572069536
0.5573674679
0.5576128557
0.5578961767
0.5581420807
0.5598467014
0.561626819
0.5624464862
0.5626821351
0.6223072198
1.066073555
1.271680711
1.291167659
1.288384845
1.279207818
1.276311794
1.278390956
1.280229708
1.283358588
0.5020201314
0.5168068472
0.5231500695
0.5480625721
0.5653961773
0.5747646962
0.5760502912
0.5719336102
0.5648017406
0.5598821268
0.5588034252
0.5571984165
0.5575135916
0.557591523
0.5576677282
0.5587368673
0.5597883139
0.5616107168
0.5621302408
0.5649583772
0.7964079583
1.152551883
1.27728395
1.292484205
1.292433448
1.288448186
1.28475964
1.284448758
1.285088034
1.286817477
0.5011454098
0.5148536816
0.523121569
0.5461766352
0.5650400441
0.5747350759
0.5758042565
0.5726812449
0.5650948266
0.5602693702
0.5587992531
0.5577502664
0.5575421499
0.5575522151
0.5574115415
0.5588311533
0.5598634925
0.5616827439
0.5620568577
0.5841023455
0.9313162928
1.186495105
1.259073264
1.2819984
1.289586957
1.288738487
1.286561078
1.286355826
1.286796993
1.287219962
0.5013954753
0.5095835866
0.5237457071
0.5462519149
0.5655333991
0.5750167228
0.5758956688
0.5735397296
0.5657551501
0.5613262779
0.5592950602
0.5578489571
0.5576897889
0.557522506
0.5572139979
0.5586356211
0.5601891089
0.561388293
0.5619072221
0.6729560732
1.060167914
1.242254684
1.254550526
1.268236516
1.278668
1.283818761
1.284921107
1.285537613
1.286516229
1.286372054
0.5037578756
0.5051211061
0.5246160637
0.5467681046
0.5659150661
0.575422396
0.5761108524
0.5739970931
0.5668616907
0.5618835712
0.5600586289
0.5579433086
0.5578021501
0.5574154614
0.5570704805
0.5579911137
0.5602568818
0.5607722377
0.5677314775
0.8725480045
1.217829755
1.278152231
1.265814161
1.267096301
1.273265024
1.275993732
1.278976571
1.281621858
1.283841688
1.283508205
0.5053540591
0.5047443534
0.5249244609
0.5469325881
0.565642901
0.5757966336
0.5763996554
0.5739470715
0.5674154467
0.5621362576
0.5605142544
0.558127334
0.5577731374
0.5571756643
0.5569295204
0.5576556091
0.5598873332
0.5608071027
0.6204062322
1.054706235
1.25924463
1.281461422
1.283229648
1.274050994
1.273995909
1.275304758
1.276869695
1.278961296
1.281351418
0.5058138801
0.5049016803
0.5235257463
0.5461426629
0.5648809603
0.5762186094
0.577048335
0.5737555625
0.5676754586
0.5629839783
0.560578076
0.5582255345
0.5576962275
0.5569169474
0.5568003528
0.557659524
0.558857905
0.5618995569
0.7712118786
1.117542124
1.255937948
1.279822218
1.284865314
1.285290502
1.280852943
1.278081498
1.278507041
1.279684881
1.281467148
0.5060986503
0.5056746211
0.5188258784
0.5441527255
0.564625395
0.5768505968
0.5779400768
0.5739677809
0.5682633959
0.5643267796
0.5603616342
0.5581562866
0.5576066218
0.5566489493
0.5566454619
0.5577185003
0.5586249085
0.5791605291
0.909581324
1.188244995
1.246944685
1.26568107
1.281160095
1.28623251
1.285744529
1.283425033
1.282205758
1.282468042
1.283533467
0.5061832883
0.5085425009
0.5175059357
0.5425974544
0.5642781936
0.5768057813
0.5784127723
0.5754239883
0.5697250213
0.5644266242
0.5602064206
0.5579359768
0.5572945888
0.5560465912
0.5564150403
0.5574009596
0.5587094712
0.6747404167
1.105832005
1.267936097
1.255830624
1.259805645
1.269232369
1.280913241
1.284845437
1.284407753
1.283706829
1.284129345
1.284825226
0.5047562575
0.5102178853
0.5176829768
0.5422379098
0.5639293641
0.5763263458
0.578135925
0.5760935869
0.5705057775
0.5643523232
0.5604340356
0.5573340655
0.5565516305
0.5551791469
0.5559784965
0.5568524218
0.5654440252
0.8933099218
1.223452688
1.27826053
1.276656498
1.262395977
1.265318336
1.271678155
1.27889682
1.282455861
1.283219058
1.284082845
1.283998782
0.502368385
0.5106804719
0.5182712821
0.5421103687
0.5634358728
0.5754127164
0.5773640608
0.5756237069
0.5703384421
0.5645835798
0.5606798158
0.5570481322
0.5561171112
0.555008756
0.555611355
0.5564072294
0.6235943132
1.026768254
1.237876197
1.276423022
1.277417517
1.272726805
1.265098721
1.270082888
1.272856647
1.276687038
1.279924766
1.28215332
1.282066042
0.5020593834
0.5108270987
0.5200241076
0.542032111
0.5630012926
0.5744073731
0.5761996182
0.5746802458
0.5699741982
0.5658094257
0.5606594041
0.5570950819
0.5557871053
0.5551048316
0.5543139062
0.5569609398
0.7613869521
1.114313019
1.235980036
1.262187027
1.27748138
1.275998485
1.271641881
1.270499556
1.272397508
1.274157955
1.276503719
1.279429081
1.279835923
0.5024503017
0.5094011664
0.5221853451
0.541936529
0.563169767
0.57397205
0.5757093273
0.5738372317
0.569942607
0.566519038
0.560666207
0.5569445116
0.5555209748
0.5552939221
0.554109322
0.5793961365
0.9576961556
1.230583402
1.255245664
1.25578126
1.26799101
1.274646413
1.276115006
1.275606921
1.273988368
1.274465822
1.276184002
1.278695858
0.5047027195
0.5056028852
0.5225511882
0.5420938543
0.5638081428
0.5746401122
0.5762028936
0.5736044418
0.570290746
0.5669086493
0.5605741577
0.5564142645
0.5549738009
0.5547810033
0.5546937992
0.7095208899
1.142174569
1.270960745
1.277818019
1.258297677
1.25907024
1.266303943
1.274916313
1.278038001
1.277200496
1.2766486
1.277268137
1.27870193
0.506587628
0.5046531934
0.5224841492
0.5417969926
0.5634356063
0.5754210708
0.5773741596
0.5741502255
0.5712076818
0.5672293213
0.5600968884
0.5553059628
0.5544008741
0.5535686099
0.5650803308
0.9032158762
1.197116218
1.273324528
1.280033847
1.270699731
1.259355085
1.260308291
1.269093496
1.27689809
1.278288944
1.277999562
1.278590344
1.279051076
0.5066719846
0.5045422334
0.5206483176
0.5414083091
0.5627825196
0.57499959
0.5774962508
0.5754411825
0.5724521273
0.5673202738
0.5595778095
0.5552559913
0.5536524194
0.5522970368
0.63906283
1.021441421
1.216684301
1.258385832
1.272599673
1.270545667
1.263400685
1.260465922
1.263917449
1.27127243
1.276537767
1.277666454
1.278426471
1.278872178
0.5064201236
0.5047378499
0.5177622219
0.5410024862
0.5622077146
0.5744380622
0.5772761433
0.5754193693
0.5730982894
0.5673416167
0.5590886025
0.5553562821
0.5531970728
0.5560291528
0.8134486526
1.17052974
1.253049434
1.248084822
1.261390152
1.266828528
1.265379831
1.262577364
1.263967899
1.267182373
1.27155167
1.274558024
1.276083055
1.276858504
0.5047096802
0.5068860786
0.5170667958
0.5406680581
0.5615899909
0.5737766066
0.5769460688
0.5751548613
0.5733263762
0.5668881805
0.558133429
0.5549052467
0.5533446455
0.602301934
1.026387447
1.258025012
1.279026889
1.255249322
1.254173201
1.259191141
1.265529669
1.265343317
1.265350741
1.267708487
1.269382893
1.271798964
1.273861215
1.274777753
0.5028771336
0.5082466167
0.5170055588
0.5401164459
0.5608744622
0.5725331296
0.5761021962
0.5747446434
0.5736737467
0.5662334616
0.557004367
0.5537805139
0.5549178163
0.7602490412
1.121258616
1.268946537
1.282341793
1.2706543
1.256390433
1.254358055
1.262772466
1.266573038
1.268146352
1.269986962
1.270352204
1.272122646
1.273992968
0.5025864434
0.5081747063
0.5173464817
0.5395950478
0.5607714213
0.5718707263
0.575385764
0.5744891586
0.5738169847
0.5649923033
0.5569232078
0.5526212483
0.5741111052
0.8979390538
1.170207759
1.251942391
1.278292546
1.273851092
1.262166226
1.255880929
1.258362738
1.264744752
1.270236681
1.272465914
1.272040774
1.273383905
1.274897384
0.5024391258
0.5072750205
0.5184501151
0.5397496108
0.5611016876
0.5718933766
0.5751874855
0.5743639648
0.5737233357
0.5645392213
0.5551897786
0.5526338965
0.6681350813
1.059169404
1.238356016
1.242172446
1.260260932
1.269439946
1.264880525
1.258709162
1.258115101
1.261584579
1.269471674
1.273407123
1.273197783
1.27428462
1.275602799
0.502509251
0.5040703323
0.5195024811
0.5400540295
0.5618336802
0.5721621365
0.5750397062
0.5743084989
0.5732091396
0.5640579948
0.5544636641
0.5615109617
0.8798353279
1.212576063
1.271551427
1.25069631
1.250566646
1.256326978
1.263799391
1.260764739
1.259491746
1.261134147
1.266645137
1.271500688
1.272220778
1.273691894
1.275259106
0.5023093236
0.5016293098
0.5192631998
0.5402862805
0.5619894943
0.5726322098
0.5750090412
0.5739651488
0.5723474032
0.5626722358
0.5538457783
0.6319079154
1.039716991
1.250557507
1.27748425
1.271557724
1.253146705
1.250072229
1.256753499
1.261124787
1.26225519
1.26362223
1.266486518
1.269193057
1.27060225
1.272645469
1.274425514
0.5019034711
0.5012049798
0.5179867633
0.539998992
0.5613124101
0.5730502328
0.5755063809
0.5737712664
0.5709692098
0.5600724913
0.5581249128
0.777801036
1.106949771
1.234731441
1.27734248
1.27802152
1.263269782
1.253189936
1.253142671
1.25899459
1.264564078
1.267117178
1.269010713
1.270182493
1.271141641
1.272920661
1.274184592
0.5014352562
0.5010350443
0.5166073612
0.5393861477
0.5601348112
0.5726716147
0.575771887
0.5736873952
0.5696268504
0.5588172772
0.5877976046
0.9312553156
1.196933274
1.242232958
1.264579244
1.277384602
1.270320605
1.259848243
1.256276591
1.257846234
1.266311685
1.270178798
1.272530092
1.273220612
1.273851402
1.275434093
1.276001793
0.5012909242
0.5013965138
0.5161331009
0.5384905917
0.5591572316
0.5719771794
0.5753157641
0.5742602338
0.5675678207
0.5601095281
0.718141443
1.116460637
1.264132125
1.265908408
1.262556328
1.270154475
1.271445175
1.267618619
1.262820007
1.262521299
1.266289188
1.27247641
1.275721974
1.276511378
1.277342628
1.279126691
0.5013938839
0.5034978615
0.5159154714
0.5376569753
0.5585919196
0.5707314982
0.5747644041
0.5743987689
0.5668854133
0.5811490456
0.919139271
1.2094847
1.275301519
1.28274394
1.266451455
1.264855537
1.268482658
1.271177686
1.270240324
1.268983956
1.270026288
1.27341945
1.277964595
1.279420116
1.280673879
1.282832704
0.5015981103
0.5048291385
0.5158088164
0.5374204859
0.5581282064
0.5690322506
0.5737560427
0.5738270349
0.5663678746
0.6571994094
1.027226307
1.221179206
1.273927907
1.284136528
1.279119534
1.267652618
1.264907764
1.271143225
1.274500561
1.276006766
1.275392641
1.276538899
1.278969109
1.281442899
1.283654733
1.286671408
0.5016700665
0.5049387877
0.5163307492
0.537138376
0.5574445736
0.5681228368
0.5726222304
0.5715746303
0.574838052
0.8341482285
1.150172608
1.250096135
1.262895165
1.285788838
1.28634541
1.273170502
1.268641607
1.270336984
1.277138181
1.280995837
1.283025953
1.281914155
1.282798196
1.284664106
1.287107684
1.289947429
0.5018772932
0.5048704746
0.5178393436
0.5363598186
0.5571876694
0.5688156523
0.571092425
0.570472751
0.6367595942
1.051028284
1.273120188
1.288903558
1.270354204
1.279555381
1.289496499
1.282825909
1.27511906
1.274471384
1.278862357
1.285213106
1.289152473
1.289769138
1.289496936
1.290462686
1.292300077
1.294611323
0.5022095742
0.5040394105
0.5180302913
0.5358448963
0.5569948247
0.5686037314
0.5685212398
0.5720477592
0.7817252708
1.140179324
1.29396311
1.305602877
1.286076874
1.2821325
1.285630884
1.288065766
1.286669221
1.282918062
1.284548747
1.288431046
1.293294719
1.29583037
1.296714626
1.296986617
1.298031123
1.299122836
0.5025450389
0.5029627994
0.5178627923
0.5354347154
0.5562406165
0.5673094876
0.5669613054
0.5960790709
0.9272137494
1.204313941
1.286112889
1.306200823
1.303206749
1.288802965
1.286923852
1.290112285
1.291839869
1.292826026
1.290770353
1.291471893
1.294941402
1.298243937
1.300636436
1.301649399
1.303102303
0.502981648
0.5026391651
0.5172134976
0.5349093879
0.5550882567
0.5643237038
0.5673545197
0.7239664314
1.127833622
1.281025971
1.27281617
1.297241646
1.303752883
1.297729236
1.288689381
1.287329636
1.29130284
1.295728219
1.297781357
1.295758203
1.296381452
1.298256723
1.301031458
1.302829408
1.304906573
0.5039353883
0.5028935392
0.5162188538
0.5341873865
0.5538461133
0.5600376169
0.5822489378
0.9388363976
1.241436672
1.296690145
1.278863076
1.284863528
1.298200422
1.30097643
1.292837213
1.287211801
1.289928401
1.294627658
1.299053382
1.300253249
1.298715458
1.298726133
1.300311107
1.302282342
1.304582024
0.5044721269
0.5032915514
0.5149523506
0.5334937779
0.5516357859
0.5585599078
0.6799106476
1.068093827
1.255689815
1.293696496
1.294843057
1.280052999
1.287682911
1.297519758
1.296620224
1.290824387
1.290299554
1.293425633
1.297757168
1.300347183
1.300855003
1.300264923
1.30085079
1.302373555
1.304249404
0.5038336462
0.5028033391
0.5136431026
0.5328387565
0.5458446104
0.5648977223
0.8494634809
1.210496744
1.27568779
1.293790716
1.303504958
1.28571333
1.282578961
1.291668868
1.295290961
1.294108078
1.293063592
1.294116504
1.29656261
1.299178684
1.301137099
1.30146305
1.301828222
1.302957159
1.304241995
0.5029033716
0.5020899555
0.5123407826
0.530487612
0.5417728942
0.6361433411
1.076071073
1.296679088
1.302230169
1.288984014
1.300403903
1.295672133
1.283667605
1.286100648
1.290414982
1.293648003
1.294884354
1.294791129
1.295274676
1.29692974
1.299486601
1.30063793
1.301511932
1.302733217
1.303906179
0.5017849625
0.5010035702
0.5106449398
0.5253754977
0.5481912686
0.8331793721
1.208530293
1.296360206
1.301977569
1.284759015
1.289379189
1.29246781
1.286778815
1.282423538
1.284005002
1.28862602
1.292926067
1.294237431
1.292984901
1.293086792
1.294975924
1.297029325
1.299088409
1.300853894
1.302084942
0.4995148339
0.4988507374
0.5126911059
0.5207616629
0.5991407984
1.017500585
1.215692032
1.270499018
1.284853035
1.282106223
1.270435832
1.280501278
1.284648819
1.279773146
1.277178171
1.279760485
1.285162382
1.288648051
1.289588431
1.287869475
1.288652616
1.290405838
1.292771099
1.295016015
0.4963701459
0.4965806748
0.5104047091
0.5237171815
0.7866281624
1.104001528
1.235131847
1.248080324
1.256439235
1.263385805
1.253575364
1.260049983
1.272806326
1.276005398
1.270765062
1.270490813
1.273563531
1.278073663
1.280948117
1.281409731
1.281150739
1.281955333
1.283672235
1.28544041
0.4955248932
0.4964702586
0.5050765315
0.5767687946
0.9475773325
1.201649039
1.259576214
1.242512163
1.233615285
1.245600895
1.240552085
1.242504847
1.256410002
1.263670804
1.263560358
1.261075731
1.26220469
1.264834936
1.268695861
1.270865411
1.272185223
1.2718434
1.272628321
1.273360612
0.496677639
0.4982696185
0.5201530223
0.7582856271
1.090195287
1.273586519
1.268396372
1.250169481
1.22458895
1.229659514
1.2358408
1.229806657
1.238746675
1.2487544
1.250033789
1.251604866
1.25069394
1.252009252
1.254782083
1.257416993
1.259112623
1.259580994
1.260048231
1.260110618
0.5149499762
0.5297526339
0.6190977622
0.905384301
1.214703299
1.270444787
1.261845932
1.246840077
1.222033996
1.216719215
1.225451655
1.222363296
1.22512333
1.230986936
1.234528243
1.23809566
1.239787013
1.239684845
1.24041955
1.241781699
1.243871771
1.244055425
1.244795909
1.245362391
0.5469018674
0.5874965255
0.7422205924
1.067543445
1.229073519
1.249176696
1.24536955
1.234263422
1.217985209
1.204752259
1.21039717
1.215608507
1.214670244
1.214982455
1.217665389
1.223650308
1.227069787
1.226630059
1.2255359
1.225209991
1.227168095
1.228438205
1.230244541
1.231475506
0.6086620385
0.6542895771
0.8951896037
1.176858907
1.214049012
1.20736797
1.207066024
1.201208777
1.198851522
1.190781255
1.191024345
1.201699349
1.202566028
1.201929623
1.20244099
1.208204516
1.21242206
1.212586577
1.211481542
1.211211017
1.212850299
1.214658877
1.216788956
0.6492031385
0.7615994928
1.037523432
1.198202125
1.187661299
1.179158712
1.174898227
1.169735532
1.179301414
1.180486444
1.175837736
1.187379085
1.1941426
1.193605302
1.19149738
1.193451529
1.197620174
1.200203754
1.201503273
1.202350778
1.202610435
1.202605382
1.20382698
0.6868742896
0.8853823426
1.112457323
1.185270124
1.188791076
1.176763778
1.159896334
1.152537419
1.162042212
1.172458383
1.167371988
1.171164112
1.184674716
1.187342332
1.185677959
1.184638593
1.185888239
1.189247232
1.193956759
1.196622738
1.196490914
1.195215373
1.194242938
0.7187168547
0.953397127
1.148936065
1.193425125
1.19758916
1.184261933
1.164174805
1.154058811
1.151789668
1.162882603
1.16739366
1.1675448
1.171590658
1.177467728
1.181569275
1.184537753
1.18481843
1.184771116
1.185956129
1.189072653
1.191689012
1.192515777
1.192874029
0.7424411985
1.018361486
1.166473968
1.195614297
1.201409622
1.188061445
1.169546959
1.159574092
1.150502267
1.154150734
1.168071876
1.169114144
1.168378654
1.169679049
1.177164955
1.185241147
1.185868601
1.184325743
1.183329837
1.184146225
1.186712919
1.190559755
1.192981936
0.7794578966
1.09361843
1.17831996
1.198548053
1.197386575
1.178435494
1.164563296
1.156710989
1.152015356
1.155239268
1.166153556
1.170797322
1.169264066
1.170531301
1.175193145
1.182945697
1.18524365
1.183435765
1.183752972
1.184265563
1.186218959
1.188488296
1.191917328
0.7183760632
1.119898995
1.180142211
1.195584024
1.189615667
1.173757511
1.152664469
1.145281587
1.151189288
1.162553289
1.161683698
1.168311669
1.173486694
1.176934586
1.177893354
1.179226959
1.180502291
1.181950428
1.184109543
1.186285166
1.188854137
1.189705946
1.190351333
0.7449553368
1.027758077
1.18258754
1.18400894
1.17434663
)
;

boundaryField
{
    inlet
    {
        type            calculated;
        value           nonuniform 0();
    }
    outlet
    {
        type            calculated;
        value           nonuniform 0();
    }
    bottom
    {
        type            calculated;
        value           nonuniform 0();
    }
    top
    {
        type            calculated;
        value           nonuniform 0();
    }
    obstacle
    {
        type            calculated;
        value           nonuniform List<scalar> 
79
(
0.7183760632
0.7449553368
0.4758329655
0.4777641889
0.4863708768
0.4917840451
0.4914315615
0.4906432531
0.4897022336
0.486925477
0.4806880315
0.4789616469
0.4797174887
0.4845641001
0.489487412
0.4910345935
0.491793244
0.4921097662
0.4921091747
0.4909908933
0.4889592401
0.4897389627
0.4928594613
0.4991913491
0.5055072506
0.5084937809
0.5090176671
0.5088379646
0.5080280931
0.5053972735
0.5020201314
0.5011454098
0.5013954753
0.5037578756
0.5053540591
0.5058138801
0.5060986503
0.5061832883
0.5047562575
0.502368385
0.5020593834
0.5024503017
0.5047027195
0.506587628
0.5066719846
0.5064201236
0.5047096802
0.5028771336
0.5025864434
0.5024391258
0.502509251
0.5023093236
0.5019034711
0.5014352562
0.5012909242
0.5013938839
0.5015981103
0.5016700665
0.5018772932
0.5022095742
0.5025450389
0.502981648
0.5039353883
0.5044721269
0.5038336462
0.5029033716
0.5017849625
0.4995148339
0.4963701459
0.4955248932
0.496677639
0.5149499762
0.5469018674
0.6086620385
0.6492031385
0.6868742896
0.7187168547
0.7424411985
0.7794578966
)
;
    }
    defaultFaces
    {