/*--------------------------------*- C++ -*----------------------------------*\
  =========                 |
  \\      /  F ield         | OpenFOAM: The Open Source CFD Toolbox
   \\    /   O peration     | Website:  https://openfoam.org
    \\  /    A nd           | Version:  7
     \\/     M anipulation  |
\*---------------------------------------------------------------------------*/
FoamFile
{
    version     2.0;
    format      ascii;
    class       volScalarField;
    location    "4.6";
    object      p;
}
// * * * * * * * * * * * * * * * * * * * * * * * * * * * * * * * * * * * * * //

dimensions      [1 -1 -2 0 0 0 0];

internalField   nonuniform List<scalar> 
2222
(
1.453889394
1.450384352
1.44982701
1.450575491
1.450508982
1.449204054
1.448691663
1.437088217
1.436396772
1.436971791
1.438172894
1.438438271
1.438646879
1.439435706
1.441292867
1.444085065
1.446977937
1.449367367
1.451593057
1.453957965
1.455899972
1.456750542
1.457327254
1.457575174
1.457575817
1.457267087
1.456418962
1.455363358
1.454162774
1.453730094
1.453622105
1.453617221
1.453768773
1.4370884
1.436396523
1.436971219
1.438172672
1.438438533
1.438647221
1.439435873
1.441292848
1.444084978
1.446977878
1.449367341
1.451593046
1.453957865
1.45590001
1.456750639
1.457327223
1.457575058
1.457575665
1.457267068
1.456419061
1.455363602
1.454162978
1.453730087
1.453622066
1.453617112
1.453768587
1.453989468
1.454093789
1.454087965
1.454043037
1.453907747
1.453769024
1.453754663
1.453895954
1.454323152
1.454797276
1.454866107
1.454750284
1.454494725
1.45415943
1.454005096
1.453951576
1.453963743
1.454212824
1.454398588
1.454328612
1.454140681
1.453900103
1.453762651
1.45372816
1.453721877
1.453826987
1.454055933
1.454086699
1.453992654
1.453831354
1.453681152
1.453626881
1.453603626
1.453613609
1.453736263
1.45387807
1.453877953
1.453833913
1.453777852
1.453752515
1.453743689
1.4538897
1.450384579
1.449826641
1.450575123
1.450509176
1.449204581
1.44869175
1.449063398
1.449930389
1.450331674
1.450236353
1.450196103
1.450127784
1.449613137
1.449033974
1.448689019
1.448927468
1.450062307
1.451573301
1.452155428
1.452053871
1.451997555
1.452124981
1.452442928
1.452777761
1.453226152
1.453984014
1.454675032
1.454809028
1.454785302
1.454594203
1.454121948
1.453769621
1.453710122
1.453745111
1.453999466
1.454227977
1.454248417
1.454197967
1.453987632
1.453729798
1.453663388
1.453660575
1.453762434
1.45398608
1.454095233
1.454083935
1.454031778
1.45390376
1.453742101
1.453699268
1.453708871
1.453808338
1.453920504
1.45391277
1.453861624
1.453782235
1.453687052
1.453652004
1.453648284
1.45368546
1.45379699
1.453930741
1.453982294
1.453973415
1.453952274
1.453936507
1.468803275
1.466620289
1.463468565
1.460638443
1.45898494
1.457047668
1.453509135
1.450819208
1.449969148
1.448531015
1.446702061
1.445319025
1.444548897
1.443458926
1.442453983
1.442581858
1.443332117
1.445360066
1.448498216
1.451457671
1.453340415
1.454172864
1.454534994
1.454587328
1.454416601
1.454330262
1.454436122
1.454594679
1.454507439
1.454219448
1.453835528
1.45338618
1.453065879
1.453025664
1.45308836
1.453341991
1.453686233
1.453850199
1.453928672
1.453974546
1.45394481
1.453869408
1.453853793
1.453864803
1.453914233
1.454013141
1.454053442
1.454068003
1.454040935
1.45390677
1.453767083
1.453742972
1.453755577
1.453793776
1.453863505
1.453910572
1.453925609
1.453925586
1.453903313
1.453899207
1.453913518
1.453944441
1.45401828
1.45408932
1.454098236
1.454102688
1.454081388
1.486755072
1.487216072
1.48650453
1.484535424
1.482029825
1.478929421
1.474041654
1.468272073
1.463999976
1.460079261
1.455998075
1.452286149
1.450646245
1.449662822
1.448063598
1.446705762
1.446445611
1.44680025
1.448158354
1.44947802
1.449889357
1.45029326
1.450413539
1.450338528
1.450722676
1.451242016
1.451897513
1.452662701
1.452864398
1.452863594
1.452976593
1.453262584
1.453457844
1.453589541
1.453798866
1.454064496
1.45422729
1.454243307
1.454227711
1.454171789
1.454069394
1.45393835
1.453812748
1.453733996
1.453686026
1.453671862
1.453688523
1.453722265
1.453753178
1.453754737
1.4537137
1.453746793
1.453816866
1.453895052
1.453998579
1.454074588
1.454103937
1.454117339
1.45409014
1.454024901
1.454014848
1.454051357
1.454089062
1.45411476
1.454117641
1.454122094
1.45410171
1.485085022
1.486504435
1.486043426
1.484816947
1.48229762
1.477073356
1.469909722
1.466075668
1.463827432
1.464136463
1.463748653
1.462799041
1.461138336
1.460165754
1.45878469
1.456652878
1.454536218
1.452547654
1.450541394
1.449199588
1.447814328
1.44744036
1.44730684
1.447162053
1.447215834
1.447582275
1.44849705
1.449667556
1.450644194
1.451259604
1.451825827
1.452536097
1.452893034
1.453005457
1.453172698
1.453410734
1.453602788
1.453642311
1.453689214
1.453788346
1.453805992
1.453775894
1.453712436
1.45363107
1.453593931
1.453622914
1.453722481
1.453874166
1.45396705
1.45400351
1.454020861
1.454017331
1.454060145
1.454130063
1.454205528
1.454236843
1.454233499
1.454207817
1.454173091
1.454147722
1.454141357
1.454101331
1.454025318
1.453963368
1.453940087
1.45391646
1.45390142
1.424275116
1.441092032
1.446592143
1.452280554
1.45769415
1.461061483
1.4654078
1.471724148
1.475715755
1.476010154
1.476517772
1.477690433
1.477434076
1.476454649
1.475104267
1.472947297
1.469412427
1.465102567
1.460880057
1.456322484
1.452039386
1.449685734
1.449437854
1.449281311
1.449046244
1.448907533
1.44884389
1.448960161
1.44934464
1.450115322
1.451018898
1.451975608
1.452426977
1.452465436
1.452291584
1.452112211
1.452232071
1.45236049
1.452501392
1.452853133
1.453229304
1.453305711
1.45333505
1.453403235
1.45350769
1.453651127
1.453852976
1.454093159
1.454190188
1.454205909
1.454194649
1.454144667
1.454125112
1.454134992
1.45411789
1.454102828
1.454108492
1.454109917
1.454077119
1.45399504
1.453893074
1.453919113
1.453971461
1.453989527
1.454004818
1.45399618
1.453976176
1.292869187
1.341316994
1.374737053
1.398949581
1.427497146
1.448073829
1.459381618
1.472529499
1.476759676
1.475740486
1.47678491
1.476855835
1.475918253
1.474443925
1.471689929
1.467956091
1.46462467
1.462936953
1.46174856
1.461189664
1.460141919
1.459561664
1.45922375
1.458806259
1.457810627
1.455773444
1.453892497
1.452818754
1.451964317
1.450930899
1.450316578
1.450154654
1.449995302
1.449693853
1.449333704
1.449217591
1.449414242
1.449847724
1.45060539
1.451666055
1.452701151
1.453377761
1.453629832
1.45372457
1.453785287
1.45384368
1.453940688
1.454161516
1.454375814
1.454399543
1.454358624
1.454166097
1.453867207
1.453651784
1.453616777
1.453633432
1.453695646
1.453769689
1.453796198
1.453805749
1.453792118
1.453809751
1.453861908
1.453938745
1.454048418
1.454131855
1.454137957
1.095267106
1.132179191
1.181308011
1.222559031
1.267004521
1.309794727
1.342052324
1.381414965
1.403308506
1.416144675
1.43313686
1.438962291
1.443568873
1.449162091
1.453048172
1.457688238
1.464626746
1.47038206
1.470815141
1.471374528
1.472725165
1.47352003
1.472956913
1.471703833
1.469713584
1.466269976
1.462436499
1.45815984
1.454853143
1.451704511
1.450368245
1.450559512
1.450733551
1.450644209
1.450357868
1.450117962
1.450094199
1.450302288
1.450832469
1.451748919
1.452450567
1.452596936
1.452538648
1.4523475
1.452190031
1.452219028
1.452354928
1.452651927
1.453140566
1.453506429
1.453590315
1.453618429
1.453564356
1.453520632
1.453543323
1.453643203
1.453873392
1.454097591
1.454138136
1.454116087
1.454053744
1.453975466
1.453960407
1.453986058
1.454063479
1.454188396
1.454239085
1.009599389
1.017686
1.032108408
1.051761361
1.077002738
1.11396216
1.152854717
1.196316511
1.243957327
1.283227103
1.328924298
1.365317247
1.390489986
1.418285068
1.437697052
1.4484563
1.462022309
1.468317458
1.467418556
1.468523738
1.470565478
1.470165109
1.469499665
1.467030302
1.463377361
1.459575634
1.458536564
1.459307779
1.4591513
1.458305028
1.457297953
1.457079694
1.457602727
1.457558407
1.4563051
1.454873356
1.453979333
1.453274921
1.452704496
1.452183701
1.451666615
1.451029568
1.450427607
1.450261448
1.450294743
1.450391165
1.450560405
1.450949464
1.451668887
1.452266565
1.45274117
1.453108143
1.453296962
1.453398944
1.45351571
1.453734293
1.454093854
1.454363936
1.454379792
1.454320816
1.454155703
1.453909122
1.453755775
1.453739886
1.453789978
1.453974414
1.454137242
1.000196563
1.000534932
1.001359057
1.003181206
1.006561885
1.013043004
1.023710023
1.03920167
1.06417065
1.093181411
1.127055248
1.174372641
1.216368662
1.259949264
1.303037128
1.333451083
1.370405502
1.394211099
1.406984214
1.424539451
1.433729571
1.437402658
1.443541919
1.447697803
1.451283403
1.457342679
1.463410589
1.466873512
1.468201795
1.469891688
1.470246814
1.469590901
1.468460812
1.466705861
1.463983223
1.460776608
1.458404217
1.455693801
1.453115101
1.451536435
1.451271196
1.450906793
1.450603572
1.450651804
1.450746456
1.450849823
1.451148837
1.451770836
1.452467681
1.452775547
1.452691618
1.452492298
1.452358409
1.452283127
1.452347729
1.452555124
1.452889483
1.453312619
1.453518596
1.453553055
1.453570767
1.453567842
1.453593711
1.45366737
1.453804997
1.453981216
1.454083309
1.000000605
1.000002605
1.000010041
1.000035869
1.000112633
1.000322212
1.000869382
1.002044397
1.004554506
1.009416903
1.017163592
1.030953812
1.050639597
1.074995553
1.110549121
1.148874837
1.190243552
1.238098736
1.277365767
1.31970673
1.357867542
1.382526462
1.408163215
1.43167813
1.441750192
1.451773268
1.462455671
1.462671211
1.463129449
1.465982281
1.465987739
1.465366625
1.463391061
1.460207638
1.456598543
1.455553025
1.456120897
1.457205832
1.456962195
1.456430324
1.45658525
1.456552727
1.456479439
1.456307865
1.455544882
1.454409392
1.453676522
1.453157932
1.452514346
1.452034472
1.451542939
1.45107751
1.451044133
1.451080803
1.451162107
1.451301843
1.451551283
1.451971227
1.452396979
1.452663457
1.453018761
1.453402349
1.453562946
1.453635123
1.453717173
1.453855669
1.45394388
1
1.000000001
1.000000009
1.000000054
1.00000028
1.000001279
1.000005286
1.000019409
1.000064043
1.000196037
1.000532232
1.001335566
1.003144066
1.006505994
1.012790063
1.023413204
1.038447013
1.06249283
1.092383499
1.124387181
1.16977041
1.213308902
1.25207326
1.297439278
1.329162806
1.359742387
1.390880068
1.402345876
1.415216981
1.429720401
1.432538791
1.437561824
1.443183892
1.447415065
1.452138226
1.457526203
1.463220921
1.465309943
1.466648771
1.466884999
1.466370246
1.465633262
1.464494147
1.462628246
1.45995381
1.457665209
1.455200768
1.453140843
1.451620064
1.45123009
1.451071803
1.451079805
1.451188456
1.451530645
1.451756748
1.45198039
1.452278327
1.452524663
1.452775386
1.452863369
1.452726696
1.452701505
1.452778894
1.452768599
1.452709137
1.452782901
1.453056357
1
1
1
1
1
1.000000001
1.000000004
1.000000024
1.000000129
1.000000625
1.000002689
1.000010278
1.000036513
1.000115192
1.000325604
1.000874714
1.002069326
1.00452832
1.009463675
1.017204074
1.030206195
1.050408911
1.074197808
1.107749204
1.148036798
1.186771808
1.232903567
1.274650704
1.311628864
1.353299683
1.379095744
1.399298997
1.424960317
1.43813419
1.445326575
1.456536027
1.460137349
1.459657977
1.461312437
1.462442654
1.461773992
1.460118338
1.457744902
1.455020899
1.453621074
1.45406605
1.455528458
1.455730231
1.455430615
1.455642869
1.456020215
1.455941187
1.455922079
1.455586152
1.454854023
1.454179029
1.453418983
1.452567465
1.452072914
1.451791167
1.451566002
1.451642019
1.451773521
1.45181465
1.45178503
1.45186994
1.45218156
1
1
1
1
1
1
1
1
1
1
1.000000001
1.00000001
1.000000058
1.000000299
1.000001353
1.000005541
1.000020332
1.000066554
1.000202179
1.000550453
1.001353278
1.003180592
1.006649783
1.012753526
1.023591735
1.038804149
1.061053609
1.092480827
1.124224569
1.16496551
1.21276824
1.249528665
1.292159485
1.327609481
1.352391703
1.385910294
1.401161626
1.410231695
1.424610949
1.430184024
1.433227572
1.438438965
1.444265622
1.449038211
1.453663605
1.459427355
1.463065736
1.464140444
1.464289725
1.463860681
1.463365232
1.462568054
1.460997555
1.458870668
1.456941117
1.454856898
1.453116044
1.451794868
1.451248971
1.451261987
1.451474325
1.451867532
1.452357467
1.452547848
1.452676355
1.452783201
1.452894909
1
1
1
1
1
1
1
1
1
1
1
1
1
1
1.000000001
1.000000004
1.000000026
1.000000141
1.000000678
1.000002905
1.000011019
1.000038575
1.000122707
1.000341913
1.000902839
1.002166444
1.004613098
1.00955206
1.017778371
1.030127979
1.050577565
1.075559996
1.106086999
1.14780235
1.187311805
1.229887967
1.2741342
1.308186399
1.347388808
1.378118143
1.397404238
1.4183509
1.435419
1.442337806
1.450108738
1.457476548
1.458037916
1.458381444
1.459558713
1.459186793
1.457842604
1.455572384
1.452626761
1.452088256
1.452716283
1.454108202
1.454673575
1.455049402
1.455119958
1.455144722
1.455381402
1.455801692
1.455623178
1.455034909
1.454417612
1.4536602
1.452737058
1
1
1
1
1
1
1
1
1
1
1
1
1
1
1
1
1
1
1
1.000000002
1.000000011
1.000000067
1.000000338
1.000001507
1.000006075
1.000022148
1.000071942
1.000214005
1.000588572
1.001428127
1.003276088
1.006979337
1.013126575
1.023838432
1.040196738
1.061231157
1.092789256
1.127398742
1.16322998
1.210831992
1.25214846
1.290216681
1.326182317
1.351964535
1.379676046
1.399021842
1.408530848
1.420745174
1.427996001
1.431414344
1.436037496
1.441549726
1.446580537
1.451368221
1.457194788
1.461814385
1.46199679
1.462440537
1.462142453
1.461488596
1.460591397
1.459350384
1.457823193
1.45624755
1.454249068
1.452869688
1.451669853
1
1
1
1
1
1
1
1
1
1
1
1
1
1
1
1
1
1
1
1
1
1
1
1.000000001
1.000000005
1.000000031
1.000000164
1.000000773
1.000003293
1.00001239
1.000042257
1.000133916
1.000374765
1.000951959
1.002320452
1.004907978
1.00982904
1.01865966
1.031287712
1.05111731
1.077977619
1.10835015
1.147873726
1.189275013
1.231968972
1.274429348
1.3085126
1.344903314
1.376680882
1.396773435
1.41736485
1.433962112
1.439450083
1.446334646
1.455393291
1.456787471
1.456462417
1.457276671
1.457316762
1.456176242
1.453563739
1.45104768
1.451078968
1.451437963
1.452677544
1.454006167
1.454505388
1
1
1
1
1
1
1
1
1
1
1
1
1
1
1
1
1
1
1
1
1
1
1
1
1
1
1
1
1.000000002
1.000000014
1.000000079
1.000000398
1.00000176
1.000006938
1.00002511
1.000081001
1.000236876
1.000641979
1.001570942
1.003506715
1.007402601
1.013998418
1.025110237
1.041425177
1.063586527
1.095346367
1.130561295
1.166497424
1.212414608
1.253484232
1.291582968
1.329584235
1.353626811
1.375008893
1.399583072
1.409219919
1.417673401
1.42617469
1.430893158
1.434694553
1.439999875
1.445515815
1.450212124
1.454719263
1.460246848
1.461421286
1.461216102
1
1
1
1
1
1
1
1
1
1
1
1
1
1
1
1
1
1
1
1
1
1
1
1
1
1
1
1
1
1
1
1
1.000000001
1.000000006
1.000000038
1.000000201
1.000000929
1.000003877
1.000014621
1.000048543
1.000151798
1.000422761
1.001069523
1.002508494
1.005389643
1.010675512
1.019740453
1.033250608
1.053701717
1.081360907
1.111989739
1.151203901
1.193940874
1.236147335
1.277836815
1.312151412
1.345017271
1.377149589
1.398289761
1.417138054
1.434262333
1.438525213
1.442846708
1.450906322
1.456002519
1.456105912
1.455883781
1
1
1
1
1
1
1
1
1
1
1
1
1
1
1
1
1
1
1
1
1
1
1
1
1
1
1
1
1
1
1
1
1
1
1
1
1
1.000000003
1.000000018
1.0000001
1.000000493
1.000002157
1.000008412
1.000029623
1.000095285
1.000275735
1.000728663
1.001780375
1.003909328
1.008147546
1.015237299
1.027091971
1.044284956
1.067236546
1.09934384
1.136769511
1.172908972
1.215891462
1.258757325
1.294125632
1.335980462
1.35832391
1.375047874
1.395148726
1.41235658
1.416957668
1.425115553
1
1
1
1
1
1
1
1
1
1
1
1
1
1
1
1
1
1
1
1
1
1
1
1
1
1
1
1
1
1
1
1
1
1
1
1
1
1
1
1
1
1.000000001
1.000000009
1.000000051
1.000000259
1.000001187
1.000004828
1.000017995
1.000059062
1.000180965
1.000495126
1.001247832
1.002852986
1.006121133
1.011814878
1.021882514
1.036045414
1.057853728
1.08654557
1.119259917
1.156690355
1.200612654
1.244891653
1.282274746
1.319754157
1.347960773
1.378851864
1
1
1
1
1
1
1
1
1
1
1
1
1
1
1
1
1
1
1
1
1
1
1
1
1
1
1
1
1
1
1
1
1
1
1
1
1
1
1
1
1
1
1
1
1
1.000000001
1.000000004
1.000000025
1.000000135
1.000000654
1.000002795
1.00001083
1.000036947
1.000118841
1.00033057
1.000883553
1.002062858
1.004633965
1.009110874
1.017579523
1.029676338
1.048977241
1.073043977
1.106547189
1.143450626
1.18403212
1.223996019
1
1
1
1
1
1
1
1
1
1
1
1
1
1
1
1
1
1
1
1
1
1
1
1
1
1
1
1
1
1
1
1
1
1
1
1
1
1
1
1
1
1
1
1
1
1
1
1
1
1
1.000000002
1.000000013
1.000000072
1.000000362
1.000001598
1.000006491
1.000023227
1.000077179
1.000223981
1.000626574
1.001486397
1.003510655
1.007034481
1.014144801
1.024192517
1.042565098
1.059910989
1
1
1
1
1
1
1
1
1
1
1
1
1
1
1
1
1
1
1
1
1
1
1
1
1
1
1
1
1
1
1
1
1
1
1
1
1
1
1
1
1
1
1
1
1
1
1
1
1
1
1
1
1
1
1.000000001
1.000000006
1.000000038
1.000000199
1.00000092
1.000003974
1.00001448
1.000051427
1.000150594
1.000449907
1.001055805
1.003035248
1.004319503
1
1
1
1
1
1
1
1
1
1
1
1
1
1
1
1
1
1
1
1
1
1
1
1
1
1
1
1
1
1
1
1
1
1
1
1
1
1
1
1
1
1
1
1
1
1
1
1
1
1
1
1
1
1
1
1
1
1
1
1.000000003
1.00000002
1.000000114
1.00000053
1.000002521
1.000008447
1.000066375
1.000028866
1
1
1
1
1
1
1
1
1
1
1
1
1
1
1
1
1
1
1
1
1
1
1
1
1
1
1
1
1
1
1
1
1
1
1
1
1
1
1
1
1
1
1
1
1
1
1
1
1
1
1
1
1
1
1
1
1
1
1
1
1
1
1
1.000000002
1.000000009
1.000000353
0.9999999146
1
1
1
1
1
1
1
1
1
1
1
1
1
1
1
1
1
1
1
1
1
1
1
1
1
1
1
1
1
1
1
1
1
1
1
1
1
1
1
1
1
1
1
1
1
1
1
1
1
1
1
1
1
1
1
1
1
1
1
1
1
1
1
1
1
1
0.9999999821
1
1
1
1
1
1
1
1
1
1
1
1
1
1
1
1
1
1
1
1
1
1
1
1
1
1
1
1
1
1
1
1
1
1
1
1
1
1
1
1
1
1
1
1
1
1
1
1
1
1
1
1
1
1
1
1
1
1
1
1
1
1
1
1
1
1
0.9999999993
1
1
1
1
1
1
1
1
1
1
1
1
1
1
1
1
1
1
1
1
1
1
1
1
1
1
1
1
1
1
1
1
1
1
1
1
1
1
1
1
1
1
1
1
1
1
1
1
1
1
1
1
1
1
1
1
1
1
1
1
1
1
1
1
1
1
1
1
1
1
1
1
1
1
1
1
1
1
1
1
1
1
1
1
1
1
1
1
1
1
1
1
1
1
1
1
1
1
1
1
1
1
1
1
1
1
1
1
1
1
1
1
1
1
1
1
1
1
1
1
1
1
1
1
1
1
1
1
1
1
1
1
1
1
1
1
1
1
1
1
1
1
1
1
1
1
1
1
1
1
1
1
1
1
1
1
1
1
1
1
1
1
1
1
1
1
1
1
1
1
1
1
1
1
1
1
1
1
1
1
1
1
1
1
1
1
1
1
1
1
1
1
1
1
1
1
1
1
1
1
1
1
1
1
1
1
1
1
1
1
1
1
1
1
1
1
1
1
1
1
1
1
1
1
1
1
1
1
1
1
1
1
1
1
1
1
1
1
1
1
1
1
1
1
1
1
1
1
1
1
1
1
1
1
1
1
1
1
1
1
1
1
1
1
1
1
1
1
1
1
1
1
1
1
1
1
1
1
1
1
1
1
1
1
1
1
1
1
1
1
1
1
1
1
1
1
1
1
1
1
1
1
1
1
1
1
1
1
1
1
1
1
1
)
;

boundaryField
{
    inlet
    {
        type            fixedValue;
        value           nonuniform 0();
    }
    outlet
    {
        type            zeroGradient;
    }
    bottom
    {
        type            slip;
    }
    top
    {
        type            slip;
    }
    obstacle
    {
        type            zeroGradient;
    }
    defaultFaces
    {
        type            empty;
    }
    procBoundary20to13
    {
        type            processor;
        value           nonuniform List<scalar> 2(1.456977139 1.44021951);
    }
    procBoundary20to14
    {
        type            processor;
        value           nonuniform List<scalar> 
28
(
1.468803666
1.466620228
1.463467989
1.460638316
1.458984964
1.457047406
1.453508282
1.449063513
1.449063513
1.449930582
1.450331813
1.450236448
1.450196237
1.450127735
1.449612865
1.449033666
1.448688947
1.44892763
1.450062805
1.451573615
1.452155259
1.452053599
1.451997316
1.45212482
1.452442844
1.452777766
1.453226323
1.453989587
)
;
    }
    procBoundary20to19
    {
        type            processor;
        value           nonuniform List<scalar> 
33
(
1.44021987
1.45697688
1.469612653
1.486098428
1.484947704
1.411745926
1.251779655
1.066397046
1.004673624
1.000063931
1.000000124
1
1
1
1
1
1
1
1
1
1
1
1
1
1
1
1
1
1
1
1
1
1
)
;
    }
    procBoundary20to25
    {
        type            processor;
        value           nonuniform List<scalar> 2(1 1);
    }
    procBoundary20to26
    {
        type            processor;
        value           nonuniform List<scalar> 
69
(
1
1
1
1
1
1
1
1
1
1
1
1
1
1
1
1
1
1
1
1
1
1
1
1
1
1
1
1
1
1
1
1
1
1
1
1
1
1
1
1
1
1
1
1
1
1
1
1
1
1
1
1
1
1
1
1
1
1
1
1
1
1
1
1
1
1
1
1
1
)
;
    }
    procBoundary20to27
    {
        type            processor;
        value           nonuniform List<scalar> 
31
(
1.089333955
1.385576262
1.446651976
1.453320571
1.453763494
1.45397788
1.454053805
1.454123841
1.454050715
1.453982729
1.453849501
1.453451566
1.453377445
1.453104004
1.451968894
1.451677473
1.454963842
1.459153901
1.450900199
1.432787825
1.415260351
1.309942986
1.165997254
1.046397842
1.005859701
1.000335062
1.000008597
1.000000092
1
1
1
)
;
    }
}


// ************************************************************************* //
