/*--------------------------------*- C++ -*----------------------------------*\
  =========                 |
  \\      /  F ield         | OpenFOAM: The Open Source CFD Toolbox
   \\    /   O peration     | Website:  https://openfoam.org
    \\  /    A nd           | Version:  7
     \\/     M anipulation  |
\*---------------------------------------------------------------------------*/
FoamFile
{
    version     2.0;
    format      ascii;
    class       volScalarField;
    location    "1";
    object      T;
}
// * * * * * * * * * * * * * * * * * * * * * * * * * * * * * * * * * * * * * //

dimensions      [0 0 0 1 0 0 0];

internalField   nonuniform List<scalar> 
2222
(
1.065671156
1.065849404
1.065704804
1.065568001
1.065586471
1.065799402
1.065877281
1.065815701
1.065627057
1.06543084
1.065468754
1.06548017
1.065437646
1.065467953
1.065723454
1.066111633
1.066584383
1.066881384
1.067066305
1.067147371
1.06722554
1.067285478
1.067232165
1.067020144
1.066872039
1.066767704
1.066630687
1.066552538
1.06659976
1.066967406
1.068032827
1.064131551
1.064411974
1.064919177
1.065591567
1.065754782
1.065585106
1.065354885
1.065237478
1.065443708
1.065714475
1.065772981
1.065644347
1.065547628
1.065671284
1.065775668
1.065805178
1.06584402
1.066210914
1.066681063
1.066971144
1.067022331
1.06704101
1.067101353
1.067115636
1.067018121
1.066976783
1.066967843
1.066861955
1.066751679
1.066753519
1.066989767
1.067445095
1.067949788
1.068216809
1.064192158
1.064501876
1.065041904
1.065750177
1.065823107
1.065573451
1.06526557
1.065053181
1.065134413
1.065444075
1.06559977
1.065718892
1.065851903
1.066151873
1.066323294
1.066313205
1.066349375
1.06667528
1.066992874
1.067058713
1.067068193
1.067070206
1.067026128
1.066918472
1.066855997
1.066891465
1.066944635
1.066966265
1.066986943
1.067214002
1.067701462
1.068212511
1.068437208
1.068407661
1.064349624
1.064719816
1.065260821
1.065891029
1.065873186
1.065611117
1.065240212
1.064923999
1.064989096
1.065270397
1.065570745
1.066005594
1.066419053
1.066679595
1.066645733
1.066561406
1.066586411
1.066787967
1.067078934
1.067122131
1.06703567
1.066973009
1.066942854
1.066920238
1.066895271
1.066954897
1.066981379
1.067020622
1.067229578
1.067568711
1.067970466
1.068291878
1.06850681
1.068498724
1.064707909
1.065016442
1.065437211
1.065956818
1.065925979
1.065554468
1.065081779
1.064938454
1.065026695
1.065273459
1.065697376
1.066579897
1.066916653
1.066825195
1.066678921
1.066612055
1.066637514
1.06682449
1.067105171
1.06710579
1.067120363
1.067131885
1.067092492
1.067094789
1.067131544
1.067222435
1.067168731
1.067129121
1.067219545
1.067520349
1.067917325
1.068269401
1.068462697
1.068255641
1.064960665
1.06513814
1.065493331
1.065904416
1.065786262
1.065275455
1.065178352
1.065118627
1.06518002
1.06545382
1.066115002
1.066752833
1.066946681
1.066811328
1.066655581
1.066588921
1.066636254
1.066770789
1.066970702
1.067042337
1.067174331
1.067304671
1.067351872
1.067424877
1.067590614
1.067523401
1.067318895
1.067161029
1.067201849
1.067384244
1.06772141
1.068033498
1.068066994
1.067626419
1.065059101
1.065210475
1.065503125
1.06559255
1.065439441
1.065285491
1.065299052
1.065389411
1.065501122
1.06585059
1.066507857
1.0669911
1.067080921
1.066889644
1.066700564
1.066601047
1.0666101
1.066680438
1.066797133
1.067006152
1.06729942
1.067557633
1.067753199
1.067938951
1.068013125
1.067750913
1.067389753
1.067186809
1.067178662
1.067289947
1.067471525
1.067505524
1.067378008
1.067213187
1.065221913
1.065354559
1.065267225
1.065357101
1.065420001
1.065507202
1.065678102
1.065843877
1.066234855
1.066835096
1.067292133
1.067235937
1.066967204
1.066736791
1.066605078
1.066559482
1.066510745
1.066628171
1.067066658
1.067467601
1.068040541
1.068266051
1.068340235
1.068166358
1.067868568
1.067450613
1.067171569
1.067056009
1.067056528
1.06698883
1.066830832
1.066784271
1.06705047
1.065178613
1.065196526
1.065124321
1.065268226
1.065505415
1.065656429
1.065877673
1.066094141
1.066493967
1.06707674
1.067487023
1.067337217
1.067002065
1.066722512
1.066592244
1.066517907
1.066477598
1.066620604
1.067097166
1.067757498
1.06801067
1.068381305
1.068451185
1.068249015
1.067781434
1.067275197
1.066874279
1.066696034
1.066621246
1.066571072
1.066609201
1.066739858
1.067121202
1.065260419
1.065234405
1.065128763
1.065105903
1.065340847
1.065671076
1.06598923
1.066257675
1.066660506
1.067241483
1.067600517
1.067417688
1.067044454
1.066778754
1.06668063
1.06666059
1.066619778
1.066772009
1.067162644
1.067535086
1.067769231
1.068078227
1.068264047
1.068077099
1.067439305
1.067034602
1.066939654
1.066849371
1.066807742
1.066738207
1.066760028
1.066886793
1.067294815
1.065490965
1.06544741
1.065356786
1.065233558
1.065249837
1.065509172
1.065920618
1.066326309
1.066828522
1.067448844
1.067741664
1.067524246
1.067138204
1.066932236
1.066888272
1.066887942
1.066984473
1.067219137
1.067499262
1.067646831
1.067691527
1.067799926
1.067875528
1.067564955
1.067168699
1.067111436
1.06709883
1.067021169
1.067038172
1.067119906
1.067267611
1.067442391
1.067928025
1.06580844
1.065760744
1.065710615
1.065513585
1.065312682
1.065393684
1.065705911
1.066271636
1.066997446
1.067701797
1.067917386
1.067721183
1.067375821
1.067170424
1.067152115
1.067247292
1.067492199
1.067793192
1.06788079
1.067799206
1.067732545
1.067615104
1.067356353
1.066984076
1.067017454
1.067212953
1.067322725
1.067285548
1.067306742
1.067484112
1.067832545
1.068327753
1.068736857
1.066110348
1.066076831
1.065986205
1.065750399
1.0653724
1.065272472
1.065445665
1.066156551
1.067188207
1.067974507
1.068204753
1.067998106
1.0676823
1.067578904
1.067646514
1.067841811
1.068061959
1.068238317
1.068164572
1.067869054
1.06758123
1.067249476
1.066947571
1.066794974
1.066939035
1.067373637
1.06756616
1.067695864
1.067840015
1.06819103
1.068755676
1.069183365
1.069169367
1.06634178
1.066287604
1.066115026
1.065699642
1.065263304
1.06517223
1.065495622
1.06620122
1.067228615
1.068075471
1.068480799
1.068291491
1.068230737
1.068258926
1.068205824
1.068277481
1.068409927
1.068496614
1.068083925
1.067645478
1.067431288
1.067277428
1.067076156
1.066925974
1.067092495
1.067593468
1.068070676
1.068286687
1.068548596
1.06895314
1.069339196
1.069511951
1.06939461
1.066434623
1.066340336
1.06606436
1.065725676
1.065580423
1.065492643
1.065735804
1.066405613
1.067222441
1.068044045
1.068459929
1.068706356
1.068663025
1.068511864
1.068477061
1.068543129
1.068651132
1.068595743
1.068394752
1.068049637
1.067823688
1.067636613
1.067446192
1.067356224
1.067473933
1.067875602
1.068325038
1.068790299
1.069057107
1.069289953
1.069514598
1.069671043
1.069538247
1.066321718
1.066124583
1.065937532
1.065923276
1.065875227
1.065903889
1.066182947
1.066705985
1.067389484
1.06800913
1.068576083
1.068755189
1.068744159
1.068645632
1.068630592
1.068729234
1.068830706
1.068791038
1.068753062
1.068659283
1.068493291
1.068292822
1.068070383
1.067992489
1.068066336
1.06827274
1.068504657
1.068851879
1.069230338
1.06946253
1.069643241
1.069698294
1.069446062
1.065936012
1.065747077
1.065908086
1.066133885
1.066218931
1.066295304
1.066548948
1.067036624
1.067645443
1.068224041
1.068686245
1.068894278
1.06885167
1.068731618
1.068667059
1.068760263
1.068861781
1.069050547
1.069217263
1.069256657
1.069157578
1.069012364
1.068799876
1.068675118
1.068642299
1.068555617
1.068646379
1.068942817
1.06929683
1.069525301
1.069582432
1.069518937
1.069293704
1.065489175
1.065633163
1.065861365
1.06612254
1.066413795
1.066584039
1.0668305
1.06730922
1.067910486
1.068516261
1.068927651
1.069079288
1.069000775
1.068827481
1.068655418
1.068722409
1.068903112
1.069247791
1.069625403
1.069822762
1.069848499
1.069783958
1.069573775
1.069281975
1.068943265
1.068750526
1.068711205
1.068916793
1.06924769
1.069350514
1.069261509
1.06934131
1.069417661
1.065579914
1.065795903
1.065968914
1.066099674
1.066357333
1.066725403
1.067030119
1.067536609
1.068281498
1.06883185
1.069121818
1.069196285
1.069091848
1.068842574
1.068605847
1.068685276
1.068994455
1.069493637
1.070019843
1.070431016
1.070495769
1.070412929
1.070137325
1.069640848
1.069151578
1.068672331
1.068427891
1.068597523
1.068961686
1.069155579
1.069305225
1.069532861
1.069630389
1.065843411
1.066105981
1.066210925
1.06625592
1.066377223
1.066660646
1.067064722
1.067705706
1.068486833
1.069039748
1.069163891
1.069178291
1.069040343
1.068728493
1.068567152
1.068701322
1.069090756
1.069692878
1.070370517
1.070725092
1.070763444
1.070667718
1.070374081
1.069868724
1.069033645
1.068154519
1.068059161
1.068444222
1.069012175
1.069421927
1.069639599
1.069827326
1.069876231
1.066243071
1.06653355
1.066527726
1.066487405
1.066515649
1.066659972
1.067000168
1.067717897
1.068543613
1.06909014
1.06918214
1.069169301
1.069005918
1.068744239
1.068658808
1.068785214
1.069196649
1.06970642
1.070451524
1.070844165
1.070866657
1.070762456
1.070438612
1.069751755
1.068704895
1.068342385
1.068321068
1.068619672
1.069226477
1.069781128
1.070121782
1.070324257
1.070219253
1.066654002
1.066823463
1.066778828
1.066766127
1.066697012
1.066779098
1.067063039
1.06765993
1.068513716
1.069077278
1.069201809
1.069229108
1.069142873
1.068932872
1.068851757
1.068954127
1.069388357
1.069820383
1.070346452
1.070663329
1.070687848
1.070522579
1.070108712
1.069418196
1.068865057
1.068585891
1.06861624
1.068841682
1.069431528
1.070075194
1.070666367
1.070798107
1.070586167
1.066901508
1.066967412
1.066934211
1.066935781
1.067076214
1.067119669
1.067228029
1.067769704
1.068486717
1.069075697
1.069295358
1.069355038
1.069332032
1.069213576
1.069115843
1.069211386
1.069636151
1.070025968
1.07037715
1.070495393
1.070363037
1.070021042
1.069700881
1.069356733
1.069103655
1.068920577
1.068922036
1.069107452
1.069716348
1.070538276
1.070992923
1.071020291
1.070812216
1.066990768
1.066969724
1.067054565
1.067328482
1.067530353
1.06762802
1.067917653
1.068506146
1.069067032
1.069435139
1.069533636
1.06948711
1.069426043
1.069457692
1.06962336
1.069986116
1.070211814
1.070309152
1.070167916
1.06982154
1.069567669
1.069473654
1.069459516
1.06937492
1.069311571
1.069398963
1.069727425
1.07001308
1.070381339
1.070773931
1.070957586
1.070831424
1.066622526
1.066773575
1.06723804
1.067619455
1.067838582
1.067955706
1.068165669
1.068472984
1.069139708
1.069668422
1.069805708
1.06975324
1.069740844
1.069826723
1.06993808
1.070220319
1.070293814
1.070222618
1.069962258
1.069630922
1.069506072
1.069467596
1.069551317
1.069772903
1.070048468
1.070233926
1.070368928
1.070456192
1.070601507
1.070739729
1.070753848
1.07062563
1.066171872
1.066552303
1.067261723
1.067860579
1.068186637
1.068297075
1.068440199
1.068699528
1.069354192
1.069950359
1.0701197
1.070077333
1.070042627
1.070141176
1.070262414
1.070380402
1.070318613
1.070101712
1.069995244
1.069827798
1.069733563
1.069683608
1.069693931
1.069883548
1.070344043
1.070604548
1.070708349
1.070847238
1.070926398
1.070897456
1.070683833
1.070577192
1.066038248
1.06652233
1.067169252
1.067755779
1.068284516
1.068586479
1.068840306
1.06909357
1.069606187
1.070149859
1.070368474
1.070400238
1.070403564
1.070503987
1.070631147
1.070661433
1.070524379
1.07031742
1.070318222
1.070268045
1.070189681
1.070174866
1.070200949
1.070451819
1.070811532
1.071099187
1.071190094
1.071199372
1.071185903
1.071042841
1.070817997
1.07087867
1.066192743
1.066726242
1.067263054
1.067714607
1.068143651
1.068587522
1.069045535
1.0694705
1.069941415
1.070434305
1.070645752
1.070731417
1.070842561
1.070993235
1.071160115
1.071173391
1.071057474
1.070932942
1.070900855
1.070839038
1.070761554
1.070809408
1.070919646
1.071176353
1.071466383
1.071646036
1.07172373
1.07167513
1.071623443
1.071487617
1.071388713
1.071533294
1.066728025
1.067266706
1.067699119
1.068073665
1.068422685
1.068816103
1.069343311
1.070026615
1.070513859
1.070816731
1.07105076
1.071215075
1.071398802
1.071620342
1.071886493
1.071990482
1.071948132
1.071890874
1.071839608
1.071727957
1.071620611
1.071595741
1.071687352
1.071941526
1.072136074
1.072260425
1.072409811
1.072467683
1.072493863
1.072452441
1.072417682
1.072503533
1.067699135
1.068192293
1.068552812
1.068878411
1.069211958
1.06960632
1.070156316
1.070807085
1.071184631
1.071390256
1.071639634
1.071961088
1.072227042
1.072537751
1.072889842
1.073091806
1.073150299
1.073133188
1.073019753
1.072841009
1.072761721
1.072756251
1.072820131
1.072941412
1.072921208
1.073058945
1.073418128
1.073694171
1.073833838
1.073884989
1.073872231
1.073867307
1.069091099
1.069549865
1.069875227
1.070154402
1.070450098
1.070823197
1.07128082
1.071806164
1.072028275
1.072185856
1.072584718
1.073064558
1.073403104
1.073757627
1.074165056
1.074468593
1.074613287
1.074561381
1.07430622
1.074012826
1.073965271
1.073992531
1.073981637
1.073917332
1.073931427
1.074260025
1.074795113
1.075173863
1.075389469
1.075475514
1.075477838
1.075366425
1.0708862
1.071333488
1.071674459
1.071926616
1.072135822
1.07241914
1.072785643
1.073152491
1.073316028
1.073527302
1.074014692
1.074509972
1.074883086
1.075260581
1.075687741
1.076038637
1.076295144
1.076218676
1.075724061
1.075259192
1.075219719
1.075292387
1.075271665
1.075208935
1.07534731
1.075815166
1.076294489
1.076627209
1.076896243
1.076983973
1.076938218
1.076750408
1.072852786
1.073224016
1.073531665
1.073784934
1.074004889
1.074220475
1.07443431
1.074663606
1.074887144
1.075210571
1.07572065
1.076249321
1.076671874
1.076974131
1.077308756
1.077584331
1.077829756
1.077702936
1.077038046
1.076557297
1.07655464
1.076665996
1.076671377
1.076610836
1.076898021
1.077349139
1.077655944
1.077866815
1.078101006
1.078199032
1.078095035
1.077861186
1.074720919
1.074937919
1.075171029
1.075454256
1.07579717
1.076042194
1.076120189
1.076220342
1.07647348
1.076998542
1.077584238
1.078044867
1.078351027
1.078494637
1.0787716
1.078912103
1.079102331
1.078928024
1.078173609
1.077694572
1.077703314
1.07778566
1.077801055
1.077903337
1.078381681
1.078661857
1.07879793
1.078846755
1.078876826
1.078860526
1.078721569
1.078520428
1.076061333
1.076123632
1.076303313
1.076747985
1.077247082
1.077552223
1.077605456
1.077640137
1.077982454
1.078527271
1.078884108
1.079258503
1.079552663
1.079770322
1.080053414
1.08007726
1.080017229
1.079646824
1.078847143
1.078459071
1.078488389
1.078639167
1.078806521
1.078990629
1.07944055
1.079589043
1.079541261
1.079416388
1.079264489
1.079090061
1.078980243
1.078993407
1.076575458
1.076597081
1.076946372
1.077636827
1.078179412
1.078514065
1.078669004
1.07870626
1.078905707
1.079249398
1.079858258
1.080467601
1.080733146
1.080789286
1.080880528
1.080796381
1.080422663
1.079942633
1.079397214
1.079045173
1.079074567
1.079281686
1.079471596
1.079668813
1.079995705
1.080071895
1.079860591
1.079536666
1.079269567
1.079167408
1.079147894
1.079275826
1.076908086
1.077035318
1.077480348
1.078213433
1.078767486
1.079117218
1.079287952
1.079363876
1.079491431
1.079650612
1.080231691
1.081053991
1.08147708
1.081475979
1.08134322
1.081040101
1.080609924
1.080164572
1.079726406
1.079411083
1.079416542
1.079618658
1.079880728
1.080016408
1.08012734
1.080027607
1.07981757
1.079576989
1.079386222
1.079273504
1.079208965
1.079353005
1.077142936
1.077261546
1.077690447
1.078380883
1.078933147
1.079286689
1.07955162
1.079605643
1.079673546
1.07972798
1.080254234
1.081053179
1.081565728
1.081569963
1.081546074
1.081361009
1.08089818
1.080269314
1.079848306
1.079617852
1.079632724
1.079779501
1.080016916
1.080140896
1.080215
1.080157819
1.080029219
1.079863467
1.079628111
1.079347445
1.079186707
1.079308105
1.07737633
1.077481677
1.077831785
1.078340015
1.078838843
1.079160952
1.079393764
1.07945026
1.079517189
1.079528514
1.079978923
1.080663539
1.081199813
1.081327793
1.081383528
1.081327113
1.081072573
1.08048143
1.079904011
1.079591452
1.079545645
1.079625108
1.079784844
1.079914382
1.079939988
1.079937548
1.079923678
1.079881418
1.079796857
1.079625557
1.079376207
1.07928121
1.074484014
1.0745703
1.074748337
1.074938633
1.075113868
1.075237899
1.075220869
1.075256322
1.075347317
1.075577124
1.075914129
1.076326145
1.076748086
1.077030969
1.077117624
1.077134868
1.077084101
1.07693008
1.076687043
1.076414134
1.076355593
1.07636164
1.076393871
1.076380197
1.076260695
1.076288447
1.07634423
1.076388025
1.076398123
1.076356468
1.076220082
1.0760071
1.067175537
1.067224505
1.067249784
1.067251721
1.067235008
1.067264318
1.067263422
1.067328342
1.067495326
1.067652918
1.067775308
1.06781819
1.0678449
1.067866021
1.067888104
1.068057617
1.068428466
1.068899311
1.069397835
1.069805284
1.069959824
1.069931436
1.069750865
1.069309011
1.068817995
1.06854787
1.068458699
1.068482282
1.068661582
1.068920656
1.069176447
1.069360287
1.059150895
1.059093535
1.058962327
1.05889524
1.05883784
1.058847822
1.05891605
1.059028283
1.059214529
1.059446008
1.059593909
1.059646832
1.059652883
1.059674033
1.059690346
1.059794623
1.060153062
1.060705865
1.061369419
1.061957079
1.062252737
1.062241285
1.062064823
1.061649028
1.061176201
1.060908234
1.060860174
1.060927764
1.061201519
1.061589691
1.061982289
1.062255436
1.051000317
1.050911748
1.050927715
1.051195322
1.051520098
1.051726547
1.051867064
1.051927195
1.051931404
1.051968647
1.052011458
1.052150327
1.052228688
1.052343885
1.052521638
1.052806555
1.053194489
1.053640898
1.054094208
1.054501846
1.054613395
1.054560353
1.05444846
1.054266345
1.054156637
1.054183638
1.054348656
1.054638751
1.054914938
1.055103285
1.055245288
1.055279296
1.044640186
1.044604077
1.044789333
1.045376483
1.046070667
1.046476903
1.046576623
1.046496171
1.046246787
1.045990218
1.045981086
1.046160186
1.04643698
1.046762845
1.047141376
1.047529201
1.047940209
1.048283582
1.048537438
1.048618884
1.048548519
1.048350966
1.048291366
1.048327463
1.048487244
1.048805604
1.049207915
1.049561225
1.049639885
1.049612089
1.049497171
1.049323249
1.040509058
1.040632127
1.040980462
1.041635688
1.042341832
1.042621127
1.042614809
1.042381639
1.042003725
1.041759905
1.041740675
1.041903081
1.042233982
1.042639177
1.043088379
1.043602192
1.044077209
1.044526917
1.044628117
1.04451054
1.044283838
1.044006329
1.04382195
1.043858227
1.044005191
1.044251954
1.044539616
1.044785893
1.044966997
1.045004527
1.044992413
1.045019852
1.038746775
1.038696986
1.038722895
1.038987678
1.039273182
1.039307747
1.039285293
1.039001997
1.038827709
1.038967769
1.039191323
1.039421824
1.039685442
1.039933583
1.040160186
1.040470312
1.040796349
1.041176533
1.041410869
1.041433684
1.041388911
1.041242399
1.041038837
1.041033952
1.041077431
1.041176967
1.041297891
1.041410437
1.041526457
1.041588193
1.041671174
1.041981956
1.038524451
1.037925563
1.037329458
1.037018137
1.03682905
1.036714147
1.036631621
1.036453176
1.036595126
1.037108792
1.037675361
1.03798598
1.038173413
1.038247069
1.038145073
1.038184068
1.038374091
1.03865399
1.038976156
1.039279652
1.039449218
1.039452109
1.039418015
1.039418169
1.039474119
1.039600372
1.039702304
1.039715075
1.03970052
1.039655713
1.039673312
1.039915731
1.037315113
1.036589263
1.035839584
1.035376816
1.035149822
1.035022857
1.034782621
1.034765432
1.035009042
1.035583422
1.036173116
1.036517789
1.036658667
1.036651228
1.036497381
1.036506612
1.036681504
1.036961185
1.037230064
1.0374351
1.037611564
1.037813373
1.038057464
1.038324888
1.038615739
1.038843961
1.038902216
1.038920745
1.038897509
1.038772318
1.038577765
1.038347363
1.035165446
1.034685025
1.034283363
1.034441124
1.034681885
1.034654279
1.034342729
1.033888306
1.033734477
1.033965525
1.034387631
1.034667882
1.034765343
1.034779139
1.034896109
1.035109054
1.035408438
1.035662671
1.035750848
1.035722594
1.035742635
1.035909226
1.036215063
1.036617185
1.037051564
1.037447038
1.037737824
1.037829078
1.037791259
1.037629302
1.037350756
1.03690842
1.031739259
1.032500454
1.033277273
1.034189475
1.034595269
1.034441557
1.033947296
1.033025018
1.032303453
1.032263163
1.032403461
1.032564883
1.032691576
1.032859523
1.033270933
1.03375992
1.034075717
1.034141418
1.034123244
1.034013197
1.033951108
1.034090444
1.034416796
1.034843511
1.035236808
1.035569186
1.03581874
1.035907145
1.035884915
1.035801099
1.035667664
1.035473313
1.030413736
1.031629371
1.032495844
1.033187032
1.033391788
1.033085864
1.032409089
1.031424048
1.03087571
1.030968946
1.031227745
1.031405421
1.031438183
1.031477207
1.031671556
1.032047347
1.032291722
1.032278606
1.03220438
1.032136985
1.032214699
1.032499757
1.033027174
1.033489269
1.033705284
1.033783082
1.033761094
1.033720797
1.033701232
1.033712251
1.033777881
1.033914799
1.032051501
1.031396118
1.030996353
1.03050352
1.030153791
1.030174122
1.030068171
1.029789922
1.030026647
1.030576646
1.031106262
1.031097121
1.030752077
1.030309343
1.029943097
1.029965924
1.030084443
1.030087178
1.030104179
1.030219723
1.030492492
1.030933777
1.03151832
1.031975895
1.032049725
1.032037584
1.031907453
1.031788171
1.031786498
1.031838717
1.031972964
1.032262559
1.031810452
1.030023262
1.027983781
1.026593775
1.02671541
1.027539833
1.028296669
1.028872715
1.029363114
1.029834617
1.029974017
1.02979601
1.029322156
1.028649809
1.028201919
1.028079785
1.028167856
1.028261166
1.028399476
1.028598856
1.02891812
1.029339667
1.029790867
1.030205471
1.030343401
1.030366334
1.030325969
1.030330248
1.030366336
1.030412708
1.030481294
1.030684405
1.02383325
1.024395718
1.024421811
1.02457288
1.025481047
1.027335608
1.028209194
1.028213747
1.028254554
1.028345257
1.028339266
1.028167005
1.027674972
1.027052626
1.027181795
1.027472715
1.027667645
1.027705135
1.027579269
1.027445964
1.027551556
1.027840415
1.02813204
1.028492558
1.028801559
1.028953002
1.029020098
1.029114825
1.029221876
1.029297709
1.029353526
1.029425249
0.9998860822
1.019198879
1.022724815
1.026453135
1.028461463
1.029380184
1.02864274
1.027200497
1.025897474
1.025246813
1.025368502
1.025656981
1.025850528
1.026290357
1.02686324
1.027311327
1.02730822
1.027128975
1.02675298
1.026340493
1.026315316
1.026500742
1.026777921
1.027113788
1.027438646
1.027677014
1.027829078
1.027955779
1.028091993
1.028192015
1.028360985
1.028456519
0.9508490859
1.006198359
1.015958552
1.022275939
1.028266549
1.028628103
1.027339512
1.025056379
1.023522576
1.023386977
1.023762481
1.024450085
1.025227757
1.025822507
1.026081689
1.026332766
1.026228826
1.025908502
1.025379475
1.025257243
1.025415479
1.025739747
1.02606997
1.026236387
1.02631688
1.026326336
1.026410569
1.026586404
1.026856437
1.027190415
1.027629025
1.027747168
0.8388111568
0.9020648213
0.9585529974
0.996313689
1.023688277
1.021014569
1.022138492
1.022384421
1.022835084
1.02365367
1.02475037
1.025324401
1.025169277
1.025125546
1.024813333
1.024285251
1.024087132
1.02399249
1.024129117
1.024519524
1.024960621
1.025359447
1.025497155
1.02545448
1.025296228
1.025094272
1.025107566
1.025304442
1.025674932
1.026144837
1.026649252
1.027043233
0.7981349763
0.8101260682
0.8615436274
0.9242294638
0.9841011552
1.000306738
1.019191402
1.021662818
1.024101849
1.02613266
1.02656094
1.0261973
1.025084789
1.023681233
1.022786031
1.022426323
1.022494252
1.022752529
1.023379618
1.023919009
1.024346134
1.024604399
1.024595825
1.024438567
1.024195994
1.024098637
1.024212608
1.024518126
1.024889181
1.025249072
1.025568857
1.026009729
0.7982754205
0.7986058627
0.8028737325
0.8252797493
0.8793864254
0.9542462518
1.00806483
1.015204562
1.020026802
1.025097755
1.025351545
1.023924213
1.022883443
1.022451112
1.021993284
1.022101728
1.0223576
1.022736129
1.022986617
1.022994708
1.023026078
1.023095004
1.023202844
1.02314838
1.023223187
1.023475106
1.02377577
1.024100989
1.024330603
1.024490551
1.024653703
1.024934914
0.8047779943
0.8021618928
0.8027747042
0.803390186
0.810178213
0.8495086837
0.9121132801
0.9627630034
0.9949027657
1.01915334
1.016753058
1.018956865
1.020670144
1.022494888
1.023627733
1.023907339
1.023766531
1.023262543
1.022393408
1.02166295
1.021369911
1.021481902
1.021841622
1.02225337
1.022688076
1.023010827
1.023306303
1.023476975
1.023629466
1.023822315
1.023908304
1.024057091
0.8111825314
0.8084029151
0.8071468925
0.8056212305
0.8050125447
0.8071747393
0.8214656796
0.8750012568
0.9349028205
0.9895324298
1.002417206
1.018733264
1.021096928
1.023081144
1.025039248
1.025088045
1.024533649
1.023324257
1.021634173
1.020805543
1.020774175
1.021060829
1.021607954
1.022238666
1.022507645
1.022601655
1.02265804
1.022714464
1.022918947
1.023140025
1.023231963
1.023362218
0.816880786
0.8146534223
0.8130491684
0.8115616023
0.8083607769
0.8077553887
0.808344089
0.8137197331
0.8382291557
0.8932862437
0.9629780976
1.01016252
1.015347764
1.019945452
1.023985026
1.023365785
1.021712062
1.021315285
1.020927234
1.021399072
1.022121393
1.022654621
1.023009665
1.022715182
1.022306202
1.021753908
1.021530225
1.021608333
1.022035256
1.02249436
1.022757353
1.022996986
0.8224263974
0.820192431
0.8189092034
0.8174989189
0.8150874771
0.8122807177
0.810898937
0.8109558113
0.8117506381
0.8211464989
0.863801421
0.924759442
0.9682021031
0.9973012758
1.01670624
1.015004323
1.018185109
1.020155086
1.021613691
1.022920754
1.023659459
1.023682617
1.023555268
1.022816983
1.021690087
1.020984664
1.020882425
1.02104682
1.021580654
1.022211203
1.022437244
1.022574302
0.8277167956
0.8250900368
0.8238058852
0.8227441449
0.8209797476
0.8187875669
0.8168457531
0.8152895243
0.8127845287
0.8129495681
0.8164509747
0.8335263622
0.889309422
0.9467509883
0.9960975352
1.006028491
1.02141972
1.021385596
1.022050623
1.02306399
1.023705523
1.023409142
1.022657487
1.021827669
1.021161148
1.021185665
1.021510075
1.021913261
1.022343019
1.022425277
1.022126027
1.021843066
0.8333939864
0.8310406068
0.8293677999
0.8281176923
0.8262469926
0.8237136582
0.8222224195
0.820717677
0.8182725975
0.8157371575
0.8164217809
0.8171165547
0.8243253274
0.8513689778
0.9079724989
0.9720079837
1.013938915
1.015825144
1.019364294
1.020293965
1.018826491
1.019157962
1.020863207
1.021380336
1.021815166
1.022349506
1.022748167
1.022988952
1.022857402
1.022517205
1.021773846
1.021313584
0.8388597124
0.8362338975
0.8346692981
0.8333701659
0.8317976299
0.8293948177
0.8279031603
0.8264366405
0.8245619192
0.8216642512
0.8202762721
0.8191247116
0.8185522994
0.8199780991
0.8328913816
0.8793760616
0.9393897352
0.9756504566
1.003039087
1.0141342
1.013315061
1.017179789
1.020615493
1.022196226
1.022546713
1.022420478
1.022433926
1.022554565
1.022501696
1.022131505
1.021446539
1.021326615
0.8442387077
0.8415537504
0.8398496769
0.8385443444
0.8367521777
0.8342491202
0.8325074084
0.8313856104
0.8296587895
0.8276144395
0.825853527
0.8243397501
0.8214892601
0.8206555496
0.8212982826
0.8265694301
0.8472957229
0.9062293786
0.9629023244
1.004028634
1.010760139
1.021700397
1.022631397
1.02257788
1.021954163
1.020304964
1.020307709
1.020877116
1.021628967
1.021698653
1.021762455
1.021768596
0.8499323613
0.8471955925
0.8453414945
0.8439424472
0.8421415951
0.8394958616
0.8375650344
0.8360914109
0.8343487673
0.8319403161
0.830763176
0.829436053
0.8274002165
0.8246502123
0.8236013851
0.8232522735
0.8238509464
0.8348738854
0.8654412179
0.9258949955
0.9815672026
1.016017965
1.01717673
1.019651874
1.017980923
1.01582114
1.017615814
1.020524388
1.021581119
1.021844263
1.021736294
1.021624902
0.8551865129
0.8522085115
0.8503350218
0.8489318155
0.8472196675
0.8446447226
0.8428003901
0.8413124013
0.8396138559
0.8370475629
0.8355359216
0.8343203922
0.8325747608
0.8304274514
0.8283574155
0.8266618618
0.8239873031
0.824119089
0.8267267301
)
;

boundaryField
{
    inlet
    {
        type            fixedValue;
        value           nonuniform 0();
    }
    outlet
    {
        type            inletOutlet;
        inletValue      uniform 1;
        value           nonuniform List<scalar> 
68
(
1.075985646
1.069366106
1.062256553
1.055268004
1.049313798
1.045021201
1.041991137
1.039923236
1.038341617
1.036895913
1.035466421
1.033914855
1.032265718
1.030685855
1.029425261
1.028458926
1.027751585
1.027045697
1.026012676
1.024933335
1.024048905
1.023350939
1.022996475
1.022578022
1.021847279
1.021306094
1.021301929
1.021759789
1.0216337
1.068098096
1.068200025
1.068328921
1.068435721
1.068107005
1.06749635
1.067197019
1.06709543
1.06718513
1.067394171
1.068053132
1.068769828
1.06915181
1.069367212
1.069465491
1.069340682
1.069252483
1.069438918
1.069650733
1.06988955
1.070208748
1.07056135
1.070800538
1.070821417
1.07062412
1.070588283
1.070907003
1.071563454
1.072513785
1.073858393
1.075340557
1.076710414
1.077806956
1.078474498
1.079019809
1.079337833
1.079417083
1.0793856
1.079325437
)
;
    }
    bottom
    {
        type            slip;
    }
    top
    {
        type            slip;
    }
    obstacle
    {
        type            zeroGradient;
    }
    defaultFaces
    {
        type            empty;
    }
    procBoundary29to23
    {
        type            processor;
        value           nonuniform List<scalar> 
35
(
1.065894466
1.066146604
1.066071921
1.065963315
1.065918141
1.065874359
1.065823787
1.065744801
1.065600061
1.065383019
1.065364548
1.065281995
1.06511566
1.065208767
1.065519642
1.065815138
1.066091795
1.066388057
1.066794469
1.067149954
1.067301115
1.067465422
1.067539416
1.067375235
1.067123742
1.066868929
1.066634778
1.066432116
1.066212771
1.06617854
1.067320652
1.06410846
1.064344541
1.064895679
1.064895679
)
;
    }
    procBoundary29to28
    {
        type            processor;
        value           nonuniform List<scalar> 
69
(
1.063974639
1.064016683
1.064107566
1.064412518
1.064740941
1.064845484
1.065107778
1.065107778
1.065101425
1.065086718
1.06529565
1.065616585
1.066019299
1.066281626
1.066406121
1.066320446
1.066138628
1.065663977
1.065379262
1.065544054
1.065859706
1.066170817
1.06661725
1.066953539
1.066953539
1.066677992
1.066194438
1.0658801
1.065907172
1.066342283
1.067268669
1.068607353
1.070368222
1.072373537
1.074444344
1.076053727
1.076818556
1.076979784
1.077199034
1.077419104
1.074514365
1.067090386
1.058943209
1.050899599
1.044631946
1.040496468
1.038706835
1.038784658
1.037921456
1.035483141
1.03109936
1.028711493
1.030970998
1.032125862
1.028268277
0.9830729276
0.8708828697
0.8003952092
0.7967049178
0.8012292099