/*--------------------------------*- C++ -*----------------------------------*\
  =========                 |
  \\      /  F ield         | OpenFOAM: The Open Source CFD Toolbox
   \\    /   O peration     | Website:  https://openfoam.org
    \\  /    A nd           | Version:  7
     \\/     M anipulation  |
\*---------------------------------------------------------------------------*/
FoamFile
{
    version     2.0;
    format      ascii;
    class       volScalarField;
    location    "4";
    object      rho;
}
// * * * * * * * * * * * * * * * * * * * * * * * * * * * * * * * * * * * * * //

dimensions      [1 -3 0 0 0 0 0];

internalField   nonuniform List<scalar> 8(1.3530153 1.349958548 1.431847998 1.395462441 1.450116068 1.444401667 1.453489267 1.471229555);

boundaryField
{
    inlet
    {
        type            calculated;
        value           nonuniform 0();
    }
    outlet
    {
        type            calculated;
        value           nonuniform 0();
    }
    bottom
    {
        type            calculated;
        value           nonuniform 0();
    }
    top
    {
        type            calculated;
        value           nonuniform List<scalar> 2(1.453489267 1.471229555);
    }
    obstacle
    {
        type            calculated;
        value           nonuniform 0();
    }
    defaultFaces
    {
        type            empty;
    }
    procBoundary34to28
    {
        type            processor;
        value           nonuniform List<scalar> 2(1.331029889 1.354268345);
    }
    procBoundary34to33
    {
        type            processor;
        value           nonuniform List<scalar> 4(1.4409764 1.457095296 1.441478716 1.420713421);
    }
    procBoundary34to35
    {
        type            processor;
        value           nonuniform List<scalar> 4(1.369982189 1.395661841 1.422615784 1.457282023);
    }
}


// ************************************************************************* //
