/*--------------------------------*- C++ -*----------------------------------*\
  =========                 |
  \\      /  F ield         | OpenFOAM: The Open Source CFD Toolbox
   \\    /   O peration     | Website:  https://openfoam.org
    \\  /    A nd           | Version:  7
     \\/     M anipulation  |
\*---------------------------------------------------------------------------*/
FoamFile
{
    version     2.0;
    format      ascii;
    class       volVectorField;
    location    "3.4";
    object      U;
}
// * * * * * * * * * * * * * * * * * * * * * * * * * * * * * * * * * * * * * //

dimensions      [0 1 -1 0 0 0 0];

internalField   nonuniform List<vector> 
2222
(
(3 -1.369245441e-16 0)
(3 1.187618224e-15 0)
(3 2.44758247e-15 0)
(3 3.084137415e-15 0)
(3 2.292396899e-15 0)
(3 6.546361265e-16 0)
(3 7.766072151e-16 0)
(3 -3.282984069e-16 0)
(3 -5.490155265e-16 0)
(3 -5.26194819e-16 0)
(3 -6.997207351e-16 0)
(3 -1.11085956e-15 0)
(3 -1.660934435e-15 0)
(3 -2.683084118e-15 0)
(3 -3.363236572e-15 0)
(3 -4.622416445e-15 0)
(3 -2.439854666e-15 0)
(3 -1.305918159e-15 0)
(3 -4.335599835e-16 0)
(3 -1.134389034e-15 0)
(3 -1.107274029e-15 0)
(3 2.184890563e-16 0)
(3 2.428269497e-15 0)
(3 1.446023122e-15 0)
(3 8.56835618e-16 0)
(3 2.355085465e-16 0)
(3 -9.269745718e-16 0)
(3 -1.875192612e-15 0)
(3 -1.134585107e-15 0)
(3 -6.93071811e-16 0)
(3 -4.537695947e-16 0)
(3 7.257645247e-16 0)
(3 6.044560457e-16 0)
(3 1.712052657e-16 0)
(3 -5.575911817e-16 0)
(3 -1.453405038e-15 0)
(3 -1.502419197e-15 0)
(3 -1.354232314e-15 0)
(3 -3.239884412e-15 0)
(3 -2.832754267e-15 0)
(3 -7.415256445e-16 0)
(3 -9.121650307e-16 0)
(3 -1.32544383e-15 0)
(3 -1.014693468e-15 0)
(3 -1.170183901e-15 0)
(3 -8.481220823e-16 0)
(3 -1.79982112e-15 0)
(3 -1.451460045e-15 0)
(3 -7.287743758e-16 0)
(3 2.520788283e-16 0)
(3 1.254685773e-15 0)
(3 2.026406729e-16 0)
(3 1.927026887e-15 0)
(3 2.63292437e-15 0)
(3 3.846933502e-15 0)
(3 2.744210088e-15 0)
(3 2.271482854e-15 0)
(3 2.430051758e-15 0)
(3 2.55575824e-15 0)
(3 2.527259522e-15 0)
(3 4.774590338e-16 0)
(3 -6.962579624e-16 0)
(3 5.463879517e-16 0)
(3 2.771502353e-15 0)
(3 5.450511483e-15 0)
(3 6.174324496e-15 0)
(3 -6.323850501e-16 0)
(3 -7.068569548e-16 0)
(3 7.904838249e-16 0)
(3 6.723092246e-16 0)
(3 6.058708626e-16 0)
(3 -4.99186782e-16 0)
(3 2.847308536e-16 0)
(3 -4.492426606e-16 0)
(3 -6.67784342e-16 0)
(3 -8.574802578e-16 0)
(3 -1.512338957e-15 0)
(3 -1.031988599e-15 0)
(3 -1.264800616e-15 0)
(3 -2.950471221e-15 0)
(3 -2.690808018e-15 0)
(3 -3.039235237e-15 0)
(3 -1.654299108e-15 0)
(3 2.635283915e-16 0)
(3 1.122393894e-15 0)
(3 -6.043986452e-16 0)
(3 2.607740708e-16 0)
(3 2.676426117e-15 0)
(3 4.317911744e-15 0)
(3 3.850340117e-15 0)
(3 3.888898797e-15 0)
(3 1.671726728e-15 0)
(3 -4.530737818e-16 0)
(3 -3.554763067e-15 0)
(3 -2.936798879e-15 0)
(3 -2.468353768e-15 0)
(3 -2.233969437e-15 0)
(3 -4.98786716e-16 0)
(3 -1.772476449e-15 0)
(3 -1.851359778e-15 0)
(3 -2.404242031e-15 0)
(3 -2.608369899e-15 0)
(3 -1.214109261e-15 0)
(3 -2.398218028e-15 0)
(3 -3.669591347e-15 0)
(3 -2.64448731e-15 0)
(3 2.986183911e-16 0)
(3 -1.163800841e-16 0)
(3 -6.611675861e-16 0)
(3 -2.123925118e-15 0)
(3 -3.350487006e-15 0)
(3 -3.382574797e-15 0)
(3 -2.728987495e-15 0)
(3 -6.916429028e-16 0)
(3 2.214161395e-15 0)
(3 3.3888168e-15 0)
(3 5.723351001e-15 0)
(3 5.157632264e-15 0)
(3 6.740867576e-15 0)
(3 7.47991021e-15 0)
(3 9.55998483e-15 0)
(3 8.982787434e-15 0)
(3 7.603153005e-15 0)
(3 6.166717918e-15 0)
(3 3.136347258e-15 0)
(3 2.727193847e-16 0)
(3 -2.041005538e-15 0)
(3 -1.050858842e-15 0)
(3 8.464503762e-16 0)
(3 5.449610461e-15 0)
(3 7.65934192e-15 0)
(3 7.914948562e-15 0)
(3 3.545573917e-16 0)
(3 -1.854021816e-15 0)
(3 -3.110475987e-15 0)
(3 -2.42747382e-15 0)
(3 -2.645814912e-15 0)
(3 -1.373341744e-15 0)
(3 1.464614163e-15 0)
(3 2.687466803e-15 0)
(3 2.493768895e-15 0)
(3 3.272674898e-15 0)
(3 3.024272062e-15 0)
(3 2.404984343e-15 0)
(3 2.624960896e-15 0)
(3 1.293625113e-15 0)
(3 -8.673399593e-16 0)
(3 -1.45561195e-15 0)
(3 -2.292290577e-15 0)
(3 -1.051468306e-15 0)
(3 1.271035465e-16 0)
(3 2.293673525e-15 0)
(3 3.594605254e-15 0)
(3 6.51445634e-15 0)
(3 6.806935844e-15 0)
(3 5.620116888e-15 0)
(3 1.654534623e-15 0)
(3 1.730317622e-16 0)
(3 -1.088698702e-15 0)
(3 -1.988645778e-15 0)
(3 -1.523664727e-15 0)
(3 -3.031291835e-15 0)
(3 -4.989826517e-15 0)
(3 -5.725011123e-15 0)
(3 -5.286916422e-15 0)
(3 -3.946950954e-15 0)
(3 -1.556232015e-15 0)
(3 -5.209776465e-16 0)
(3 6.98022995e-16 0)
(3 -5.249001991e-16 0)
(3 1.340834682e-15 0)
(3 7.643920911e-16 0)
(3 -3.700561019e-16 0)
(3 -4.159002177e-16 0)
(3 -4.299718888e-15 0)
(3 -4.274582123e-15 0)
(3 -4.529638684e-15 0)
(3 -5.701995075e-15 0)
(3 -5.243500527e-15 0)
(3 -4.287366846e-15 0)
(3 -1.194018604e-15 0)
(3 4.192901683e-15 0)
(3 1.094244397e-14 0)
(3 1.361163086e-14 0)
(3 1.233941511e-14 0)
(3 9.329335499e-15 0)
(3 8.884371927e-15 0)
(3 8.232459824e-15 0)
(3 4.805434001e-15 0)
(3 7.898417658e-16 0)
(3 -2.400542274e-15 0)
(3 -1.542510481e-15 0)
(3 8.226416734e-16 0)
(3 4.913613383e-15 0)
(3 5.948721907e-15 0)
(3 5.309143115e-15 0)
(3 6.07383095e-15 0)
(3 6.371675582e-15 0)
(3 3.903188339e-16 0)
(3 -1.428042841e-15 0)
(3 -2.040651984e-15 0)
(3 -1.643195618e-15 0)
(3 -8.836690843e-16 0)
(3 5.626871027e-16 0)
(3 1.531863295e-15 0)
(3 9.928347281e-16 0)
(3 1.609501468e-15 0)
(3 1.838873208e-15 0)
(3 2.715646944e-15 0)
(3 2.922301127e-15 0)
(3 4.182663889e-15 0)
(3 5.188907367e-15 0)
(3 1.842121646e-15 0)
(3 3.319267923e-16 0)
(3 -1.090001771e-15 0)
(3 -4.464566341e-16 0)
(3 1.133371374e-15 0)
(3 4.255789624e-15 0)
(3 5.858856486e-15 0)
(3 9.258560242e-15 0)
(3 1.096787609e-14 0)
(3 6.561203651e-15 0)
(3 3.739888194e-15 0)
(3 1.185762221e-15 0)
(3 2.676561763e-15 0)
(3 2.698505165e-15 0)
(3 1.264518599e-15 0)
(3 4.177526107e-16 0)
(3 -2.038194172e-15 0)
(3 -4.182582661e-15 0)
(3 -3.370866434e-15 0)
(3 -2.300068229e-15 0)
(3 -3.391471429e-16 0)
(3 9.962552814e-16 0)
(3 -4.613513063e-16 0)
(3 2.761312848e-15 0)
(3 5.116713533e-15 0)
(3 3.693992628e-15 0)
(3 -1.684714856e-15 0)
(3 -6.362925318e-15 0)
(3 -8.105468098e-15 0)
(3 -8.62109597e-15 0)
(3 -8.345877562e-15 0)
(3 -9.069584961e-15 0)
(3 -9.211730095e-15 0)
(3 -7.291153899e-15 0)
(3 -6.396094716e-16 0)
(3 1.317167097e-15 0)
(3 6.93901406e-15 0)
(3 9.763882806e-15 0)
(3 9.129253584e-15 0)
(3 8.182005284e-15 0)
(3 8.283250308e-15 0)
(3 5.544318292e-15 0)
(3 3.556482327e-15 0)
(3 1.782417395e-15 0)
(3 1.605655644e-15 0)
(3 3.138138651e-15 0)
(3 4.930036627e-15 0)
(3 7.949190148e-15 0)
(3 8.892898303e-15 0)
(3 8.159911344e-15 0)
(3 6.984625407e-15 0)
(3 7.490207873e-15 0)
(3 -1.766415675e-16 0)
(3 -4.025246387e-17 0)
(3 -7.002358486e-16 0)
(3 -1.310957245e-15 0)
(3 1.171318563e-16 0)
(3 6.969569828e-16 0)
(3 5.765328991e-16 0)
(3 -8.357095314e-16 0)
(3 -1.152661604e-16 0)
(3 -7.200524853e-16 0)
(3 -9.821269257e-16 0)
(3 1.588604635e-15 0)
(3 5.089427072e-15 0)
(3 6.056795081e-15 0)
(3 6.818564742e-15 0)
(3 4.360131507e-15 0)
(3 1.770866917e-15 0)
(3 1.532057754e-15 0)
(3 1.760253183e-15 0)
(3 5.185202982e-15 0)
(3 5.557001049e-15 0)
(3 5.421147568e-15 0)
(3 3.389392688e-15 0)
(3 4.388357925e-15 0)
(3 4.681162078e-15 0)
(3 3.879092865e-15 0)
(3 2.31967974e-15 0)
(3 1.876151514e-15 0)
(3 8.253007896e-16 0)
(3 1.321429251e-15 0)
(3 2.132592286e-15 0)
(3 1.563058821e-15 0)
(3 3.426306763e-16 0)
(3 -1.294400171e-15 0)
(3 -1.74158469e-15 0)
(3 -1.480371663e-15 0)
(3 -3.135463725e-15 0)
(3 -1.078767218e-15 0)
(3 -5.540386285e-16 0)
(3 1.249005358e-15 0)
(3 1.465271578e-16 0)
(3 -1.653001794e-16 0)
(3 -3.120883091e-15 0)
(3 -8.245042852e-15 0)
(3 -9.842446069e-15 0)
(3 -8.649688055e-15 0)
(3 -7.652382398e-15 0)
(3 -4.109920714e-15 0)
(3 -1.206361991e-15 0)
(3 6.306410872e-16 0)
(3 1.566700899e-15 0)
(3 1.697522068e-15 0)
(3 2.012034239e-15 0)
(3 2.195924957e-15 0)
(3 2.516322503e-15 0)
(3 1.67342383e-17 0)
(3 -5.270504288e-16 0)
(3 3.700277517e-16 0)
(3 8.945222907e-16 0)
(3 1.221547517e-15 0)
(3 2.060958323e-15 0)
(3 4.074776081e-15 0)
(3 5.293260193e-15 0)
(3 4.990873863e-15 0)
(3 6.161285849e-15 0)
(3 9.970766191e-15 0)
(3 6.730356301e-16 0)
(3 1.357556601e-15 0)
(3 -5.596558584e-16 0)
(3 -8.131038509e-16 0)
(3 -1.006412201e-15 0)
(3 1.828192662e-16 0)
(3 7.785512958e-16 0)
(3 1.097094182e-15 0)
(3 2.864517449e-16 0)
(3 7.826058322e-16 0)
(3 1.846496764e-15 0)
(3 2.573039927e-15 0)
(3 3.684161172e-15 0)
(3 2.768720082e-15 0)
(3 2.858764084e-15 0)
(3 1.662281494e-15 0)
(3 1.38249604e-15 0)
(3 2.131517966e-15 0)
(3 1.748348237e-15 0)
(3 3.067630889e-15 0)
(3 4.580628465e-15 0)
(3 2.422781178e-15 0)
(3 -1.927685296e-16 0)
(3 3.461146545e-16 0)
(3 4.890765783e-16 0)
(3 2.876474524e-15 0)
(3 2.598978343e-15 0)
(3 8.266534761e-17 0)
(3 -1.0610817e-15 0)
(3 -5.223626072e-16 0)
(3 5.335159388e-16 0)
(3 7.020732187e-16 0)
(3 -1.86464032e-16 0)
(3 -1.987267105e-15 0)
(3 -4.037542416e-15 0)
(3 -3.65415465e-15 0)
(3 -3.608800145e-15 0)
(3 -3.673923427e-15 0)
(3 -4.791652654e-15 0)
(3 -4.382838526e-15 0)
(3 1.871530976e-15 0)
(3 3.001788113e-15 0)
(3 9.377140872e-16 0)
(3 -9.898989742e-16 0)
(3 -3.039179398e-15 0)
(3 -1.890310358e-15 0)
(3 -1.219722984e-15 0)
(3 -2.374989414e-15 0)
(3 -2.417377966e-15 0)
(3 -2.851439685e-16 0)
(3 -8.349773642e-16 0)
(3 -2.553068041e-15 0)
(3 -2.604579858e-15 0)
(3 -2.089982636e-15 0)
(3 -3.46751843e-15 0)
(3 -2.179610658e-15 0)
(3 -2.414990217e-15 0)
(3 -2.139705341e-15 0)
(3 -7.708199547e-16 0)
(3 -7.277770862e-16 0)
(3 7.693605213e-16 0)
(3 2.479296118e-15 0)
(3 4.377644359e-15 0)
(3 4.136677803e-15 0)
(3 5.855491765e-15 0)
(3 7.101939698e-15 0)
(3 3.013571667e-16 0)
(3 3.956295519e-16 0)
(3 9.869033034e-16 0)
(3 2.06014932e-15 0)
(3 2.22209197e-15 0)
(3 2.199722462e-15 0)
(3 1.530099984e-15 0)
(3 1.771731737e-15 0)
(3 1.976018767e-15 0)
(3 2.511727826e-15 0)
(3 2.716870287e-15 0)
(3 1.279571303e-15 0)
(3 8.789895717e-16 0)
(3 -5.211492032e-16 0)
(3 -1.29263702e-15 0)
(3 -1.350372511e-16 0)
(3 3.057169126e-15 0)
(3 4.593883709e-15 0)
(3 3.68218783e-15 0)
(3 1.892375833e-15 0)
(3 1.747854398e-15 0)
(3 8.621068777e-17 0)
(3 7.533276881e-17 0)
(3 5.801004788e-16 0)
(3 1.443585163e-15 0)
(3 4.224679238e-15 0)
(3 4.258739446e-15 0)
(3 2.792168535e-15 0)
(3 1.997801155e-15 0)
(3 1.118568703e-15 0)
(3 -5.404248427e-16 0)
(3 -1.772049551e-15 0)
(3 -1.449296979e-15 0)
(3 -1.958482306e-15 0)
(3 -2.545810223e-15 0)
(3 -2.47103415e-15 0)
(3 -3.002570282e-15 0)
(3 -6.322051736e-15 0)
(3 -8.418093668e-15 0)
(3 -6.533961597e-15 0)
(3 -3.397557324e-15 0)
(3 1.772258219e-16 0)
(3 1.115032093e-15 0)
(3 1.898493225e-15 0)
(3 1.792723684e-15 0)
(3 3.188520725e-15 0)
(3 2.783673468e-15 0)
(3 3.325159946e-17 0)
(3 -4.692150485e-16 0)
(3 -1.503517532e-15 0)
(3 -1.338551783e-15 0)
(3 -3.550113057e-15 0)
(3 -4.814473906e-15 0)
(3 -3.57821477e-15 0)
(3 -2.072227342e-15 0)
(3 1.108324542e-15 0)
(3 2.610670487e-15 0)
(3 2.30298064e-15 0)
(3 1.711650788e-15 0)
(3 1.511887665e-15 0)
(3 2.160607752e-15 0)
(3 3.341813093e-15 0)
(3 5.203404295e-15 0)
(3 7.00290341e-15 0)
(3 5.845510959e-15 0)
(3 5.570995714e-15 0)
(3 1.671585182e-16 0)
(3 1.622496446e-15 0)
(3 2.878826794e-15 0)
(3 3.29939658e-15 0)
(3 3.797863043e-15 0)
(3 3.046698012e-15 0)
(3 3.366354186e-15 0)
(3 5.146702535e-15 0)
(3 5.338610996e-15 0)
(3 3.789679839e-15 0)
(3 -1.780558315e-16 0)
(3 -1.94750014e-15 0)
(3 -8.351158562e-16 0)
(3 1.103846899e-15 0)
(3 9.501853415e-16 0)
(3 2.031924041e-15 0)
(3 3.383064407e-15 0)
(3 5.712647814e-15 0)
(3 3.520876716e-15 0)
(3 6.453958417e-16 0)
(3 -3.074050932e-15 0)
(3 -2.589822402e-15 0)
(3 -1.971563772e-15 0)
(3 4.755442773e-16 0)
(3 3.745992154e-15 0)
(3 3.682533686e-15 0)
(3 2.854753836e-15 0)
(3 1.732005878e-15 0)
(3 1.208238612e-15 0)
(3 1.212345913e-15 0)
(3 -1.109382511e-15 0)
(3 -8.869124307e-16 0)
(3 -5.881710053e-16 0)
(3 7.941670101e-16 0)
(3 1.461598311e-15 0)
(3 -5.47349008e-16 0)
(3 -3.032876331e-15 0)
(3 -7.084907981e-15 0)
(3 -6.981992819e-15 0)
(3 -5.96957521e-15 0)
(3 -4.956760415e-15 0)
(3 -1.649334171e-15 0)
(3 6.408241088e-16 0)
(3 1.092187192e-15 0)
(3 3.784210664e-15 0)
(3 6.359197104e-15 0)
(3 6.568419272e-15 0)
(3 5.046047221e-15 0)
(3 3.300702835e-15 0)
(3 -2.909802803e-16 0)
(3 -2.599070589e-15 0)
(3 -4.356931058e-15 0)
(3 -4.411309167e-15 0)
(3 -2.250245717e-15 0)
(3 2.884140501e-15 0)
(3 3.73964536e-15 0)
(3 4.63814393e-15 0)
(3 4.533049241e-15 0)
(3 3.626570331e-15 0)
(3 2.551767423e-15 0)
(3 7.08229429e-16 0)
(3 -5.995769561e-16 0)
(3 2.206361803e-15 0)
(3 8.7612297e-15 0)
(3 8.480377926e-15 0)
(3 8.085523831e-15 0)
(3 -2.46646188e-16 0)
(3 1.299507719e-16 0)
(3 4.457744837e-16 0)
(3 1.56029982e-16 0)
(3 1.13516941e-15 0)
(3 1.14816527e-15 0)
(3 2.678379664e-15 0)
(3 3.757162762e-15 0)
(3 3.122817888e-15 0)
(3 2.18067051e-15 0)
(3 1.913050863e-15 0)
(3 1.06630288e-15 0)
(3 -4.147693105e-16 0)
(3 1.087126757e-15 0)
(3 2.738513273e-15 0)
(3 2.376910452e-15 0)
(3 3.555050908e-16 0)
(3 5.695977193e-16 0)
(3 -1.107755315e-15 0)
(3 -6.065224275e-16 0)
(3 -6.046252975e-16 0)
(3 -1.765238663e-16 0)
(3 -7.427561803e-16 0)
(3 -4.546985755e-17 0)
(3 5.656460156e-16 0)
(3 -1.300480972e-15 0)
(3 -1.162775111e-15 0)
(3 2.915663657e-16 0)
(3 -3.161295826e-16 0)
(3 -9.246659119e-16 0)
(3 -1.828989917e-15 0)
(3 2.157442063e-16 0)
(3 -1.449176612e-16 0)
(3 9.689357208e-16 0)
(3 -3.391917714e-18 0)
(3 -2.894968312e-15 0)
(3 -5.989078504e-15 0)
(3 -6.818644541e-15 0)
(3 -7.193921601e-15 0)
(3 -6.661212418e-15 0)
(3 -4.772549216e-15 0)
(3 -1.381504866e-15 0)
(3 5.927799639e-16 0)
(3 2.223159055e-15 0)
(3 4.150960973e-15 0)
(3 6.353782422e-15 0)
(3 7.151607836e-15 0)
(3 6.978527272e-15 0)
(3 3.220464996e-15 0)
(3 -1.089918366e-15 0)
(3 -3.422816903e-15 0)
(3 -2.474611846e-15 0)
(3 -9.729806002e-16 0)
(3 2.051362171e-15 0)
(3 4.213044275e-15 0)
(3 3.811466714e-15 0)
(3 2.221538495e-15 0)
(3 1.348835458e-15 0)
(3 7.917722346e-16 0)
(3 4.619658128e-16 0)
(3 1.028055655e-15 0)
(3 2.0806046e-15 0)
(3 5.418064494e-15 0)
(3 6.424048242e-15 0)
(3 7.477071281e-15 0)
(3 6.691151019e-15 0)
(3 -6.554143918e-17 0)
(3 -3.198355185e-16 0)
(3 -4.368676427e-16 0)
(3 -1.955115127e-16 0)
(3 1.099448937e-17 0)
(3 2.425179028e-16 0)
(3 4.643817132e-16 0)
(3 -4.213391497e-16 0)
(3 -1.791206471e-16 0)
(3 3.298930287e-16 0)
(3 2.470595423e-15 0)
(3 4.679771128e-15 0)
(3 3.954722213e-15 0)
(3 3.078718988e-15 0)
(3 2.410466033e-15 0)
(3 1.652728266e-15 0)
(3 -7.880821337e-16 0)
(3 -2.235682854e-15 0)
(3 -2.324422543e-15 0)
(3 -1.647703785e-15 0)
(3 1.317093446e-15 0)
(3 2.069695015e-15 0)
(3 1.806066235e-15 0)
(3 1.752389832e-15 0)
(3 -8.263076879e-16 0)
(3 -1.691737847e-15 0)
(3 -1.155557731e-15 0)
(3 9.916639029e-16 0)
(3 3.614972063e-16 0)
(3 -1.477744857e-15 0)
(3 -8.307532901e-16 0)
(3 -3.761698359e-16 0)
(3 -8.392624325e-16 0)
(3 -1.88920942e-15 0)
(3 -1.268527194e-15 0)
(3 -3.959049258e-15 0)
(3 -5.468738098e-15 0)
(3 -6.23336896e-15 0)
(3 -5.186557148e-15 0)
(3 -3.532772671e-15 0)
(3 -2.447701161e-15 0)
(3 -1.790367885e-15 0)
(3 2.470755456e-15 0)
(3 3.966340835e-15 0)
(3 4.665307071e-15 0)
(3 4.421533284e-15 0)
(3 5.281372509e-15 0)
(3 4.995366737e-15 0)
(3 2.24893377e-15 0)
(3 -1.778944349e-16 0)
(3 -1.407241038e-15 0)
(3 1.299953534e-15 0)
(3 2.981338478e-15 0)
(3 3.605729357e-15 0)
(3 2.819400023e-15 0)
(3 2.156327596e-15 0)
(3 1.544270585e-15 0)
(3 3.535247303e-15 0)
(3 2.832026239e-15 0)
(3 3.95002045e-15 0)
(3 5.221044446e-15 0)
(3 6.749507495e-15 0)
(3 5.460743419e-15 0)
(3 4.979181434e-15 0)
(3 5.865473733e-15 0)
(3 2.458552263e-15 0)
(3 -1.967610192e-17 0)
(3 6.761795744e-16 0)
(3 1.705926066e-15 0)
(3 1.678288444e-15 0)
(3 1.64487659e-15 0)
(3 1.663265829e-15 0)
(3 1.841686563e-15 0)
(3 7.849820401e-16 0)
(3 1.031187393e-15 0)
(3 3.97139377e-15 0)
(3 4.039715565e-15 0)
(3 3.803905986e-15 0)
(3 5.324726228e-15 0)
(3 5.060866904e-15 0)
(3 2.205719481e-15 0)
(3 -2.387952455e-16 0)
(3 -5.651689901e-16 0)
(3 -1.506867491e-15 0)
(3 -9.490298117e-16 0)
(3 -1.753963195e-15 0)
(3 -1.04963359e-15 0)
(3 3.5818011e-16 0)
(3 7.375727065e-16 0)
(3 -3.361926315e-16 0)
(3 -6.411538628e-16 0)
(3 5.129509841e-16 0)
(3 4.106304731e-16 0)
(3 -2.990199721e-16 0)
(3 -9.62196729e-16 0)
(3 -1.026499093e-15 0)
(3 2.010706566e-16 0)
(3 2.379145218e-17 0)
(3 -9.718186502e-16 0)
(3 -1.152486905e-15 0)
(3 -2.791522477e-15 0)
(3 -3.58602724e-15 0)
(3 -3.090962374e-15 0)
(3 -2.391699988e-15 0)
(3 -1.084959602e-15 0)
(3 -1.931169277e-15 0)
(3 -3.241268968e-15 0)
(3 -3.099524011e-15 0)
(3 -6.327130473e-17 0)
(3 3.08283754e-15 0)
(3 3.832443826e-15 0)
(3 6.190858691e-15 0)
(3 6.929516026e-15 0)
(3 4.843021888e-15 0)
(3 3.47206354e-15 0)
(3 1.196444934e-15 0)
(3 2.836004246e-16 0)
(3 1.457814823e-15 0)
(3 3.496961484e-15 0)
(3 3.424471542e-15 0)
(3 4.033661637e-15 0)
(3 1.720938183e-15 0)
(3 3.64711589e-15 0)
(3 4.590121197e-15 0)
(3 5.563330414e-15 0)
(3 6.327872212e-15 0)
(3 7.797907925e-15 0)
(3 7.233237974e-15 0)
(3 5.124798383e-15 0)
(3 3.421923603e-15 0)
(3 3.775443753e-15 0)
(3 4.462892978e-15 0)
(3 -2.868562502e-16 0)
(3 -5.734037885e-16 0)
(3 4.048436046e-16 0)
(3 3.508301479e-15 0)
(3 3.112423114e-15 0)
(3 2.635335047e-15 0)
(3 9.924268995e-16 0)
(3 1.349333127e-15 0)
(3 7.749252862e-16 0)
(3 -9.024203982e-18 0)
(3 7.883151132e-16 0)
(3 1.08737952e-15 0)
(3 2.220906774e-15 0)
(3 2.394621931e-15 0)
(3 1.225649601e-15 0)
(3 5.86578127e-16 0)
(3 -3.76345083e-16 0)
(3 -5.78156971e-16 0)
(3 5.107584971e-17 0)
(3 -1.130756058e-15 0)
(3 -2.447978377e-15 0)
(3 -4.626055335e-15 0)
(3 -3.204373567e-15 0)
(3 -2.579394364e-15 0)
(3 -7.62329744e-16 0)
(3 1.431180303e-15 0)
(3 1.51253191e-15 0)
(3 7.179802169e-16 0)
(3 1.925966141e-16 0)
(3 4.155762476e-16 0)
(3 1.042253834e-15 0)
(3 -3.144730788e-16 0)
(3 -9.518125175e-16 0)
(3 -1.541699914e-15 0)
(3 -4.628557523e-15 0)
(3 -6.067205207e-15 0)
(3 -3.372965986e-15 0)
(3 -1.142915665e-15 0)
(3 -1.159528595e-15 0)
(3 -3.573468839e-15 0)
(3 -4.593926239e-15 0)
(3 -3.315865767e-15 0)
(3 -1.924377997e-15 0)
(3 1.966800126e-15 0)
(3 2.887434077e-15 0)
(3 3.625182963e-15 0)
(3 3.866701482e-15 0)
(3 3.3436398e-15 0)
(3 1.54827499e-15 0)
(3 1.869379737e-16 0)
(3 -1.190357646e-15 0)
(3 -4.485227047e-16 0)
(3 1.354134408e-15 0)
(3 3.145649224e-15 0)
(3 4.460442977e-15 0)
(3 3.21499897e-15 0)
(3 4.682854695e-15 0)
(3 5.895240707e-15 0)
(3 5.70715584e-15 0)
(3 6.568701971e-15 0)
(3 6.733220387e-15 0)
(3 6.894851844e-15 0)
(3 7.091671429e-15 0)
(3 5.920638803e-15 0)
(3 4.289202073e-15 0)
(3 4.185154703e-15 0)
(3 1.001836804e-17 0)
(3 -1.700637793e-16 0)
(3 3.334686075e-16 0)
(3 7.322314796e-16 0)
(3 1.951560946e-16 0)
(3 -5.080650006e-16 0)
(3 -1.049708759e-15 0)
(3 -3.291040084e-16 0)
(3 2.045971243e-16 0)
(3 -1.245647037e-15 0)
(3 -1.305674608e-15 0)
(3 -7.233658885e-16 0)
(3 -1.594120612e-15 0)
(3 5.432108911e-16 0)
(3 7.427452937e-16 0)
(3 1.728965847e-15 0)
(3 1.43081277e-15 0)
(3 7.842554242e-16 0)
(3 1.317811054e-15 0)
(3 -6.755431754e-16 0)
(3 -2.147000581e-15 0)
(3 -1.940289783e-15 0)
(3 -2.488432741e-15 0)
(3 -2.152097904e-15 0)
(3 -1.020262221e-15 0)
(3 -3.533184254e-16 0)
(3 4.151200372e-17 0)
(3 3.67608445e-16 0)
(3 2.209941175e-16 0)
(3 -4.00062996e-17 0)
(3 -8.952994825e-16 0)
(3 -2.791217352e-15 0)
(3 -2.448699757e-15 0)
(3 -2.836340625e-15 0)
(3 -3.852149641e-15 0)
(3 -4.511023362e-15 0)
(3 -6.355577841e-16 0)
(3 1.495932144e-15 0)
(3 4.934995844e-16 0)
(3 2.166590419e-16 0)
(3 -4.814159844e-16 0)
(3 -8.862850424e-17 0)
(3 -6.966006539e-16 0)
(3 2.855194189e-16 0)
(3 1.895516892e-15 0)
(3 3.77232306e-16 0)
(3 -4.193281313e-16 0)
(3 7.368300037e-16 0)
(3 8.395922939e-16 0)
(3 2.607854874e-15 0)
(3 2.941876977e-15 0)
(3 2.303670677e-15 0)
(3 2.748735409e-15 0)
(3 5.202886132e-15 0)
(3 4.63951543e-15 0)
(3 4.390239111e-15 0)
(3 5.695102834e-15 0)
(3 7.36857939e-15 0)
(3 7.628153225e-15 0)
(3 7.594130013e-15 0)
(3 7.944413896e-15 0)
(3 7.19130132e-15 0)
(3 5.416630442e-15 0)
(3 3.217397235e-15 0)
(3 2.944556397e-16 0)
(3 -7.671154129e-16 0)
(3 1.114314159e-17 0)
(3 7.564157903e-16 0)
(3 1.16714691e-15 0)
(3 -2.210719199e-16 0)
(3 -1.036658113e-15 0)
(3 -1.629914995e-15 0)
(3 -1.506000393e-15 0)
(3 -6.922859199e-16 0)
(3 -8.611038572e-16 0)
(3 5.296277618e-16 0)
(3 2.16294685e-15 0)
(3 1.699434412e-15 0)
(3 2.96533125e-16 0)
(3 3.042543292e-16 0)
(3 9.477158278e-16 0)
(3 7.700756206e-16 0)
(3 6.855284476e-16 0)
(3 -5.040970488e-16 0)
(3 -1.156598736e-15 0)
(3 -1.466012534e-15 0)
(3 -1.441912979e-15 0)
(3 9.295329442e-16 0)
(3 1.412611964e-17 0)
(3 -2.500389549e-15 0)
(3 -2.638161496e-15 0)
(3 -9.997390029e-16 0)
(3 -2.54395423e-16 0)
(3 -4.504522359e-16 0)
(3 6.561742851e-16 0)
(3 2.721176977e-16 0)
(3 -1.130460152e-15 0)
(3 -2.16379114e-15 0)
(3 -3.913712392e-15 0)
(3 -4.525486399e-15 0)
(3 -4.471601835e-15 0)
(3 -2.281931614e-15 0)
(3 -5.030155415e-16 0)
(3 6.994839041e-16 0)
(3 2.721779908e-15 0)
(3 3.068880518e-15 0)
(3 2.991156272e-15 0)
(3 1.938704984e-15 0)
(3 2.885641619e-15 0)
(3 2.294064801e-15 0)
(3 2.046073424e-15 0)
(3 4.437464882e-16 0)
(3 -1.133492628e-15 0)
(3 -1.171794301e-15 0)
(3 3.656001928e-16 0)
(3 1.715689119e-15 0)
(3 2.705415818e-15 0)
(3 3.31126787e-15 0)
(3 4.282710483e-15 0)
(3 5.079298564e-15 0)
(3 5.255917802e-15 0)
(3 6.374628063e-15 0)
(3 6.362743432e-15 0)
(3 6.112096358e-15 0)
(3 8.451142994e-15 0)
(3 9.450002283e-15 0)
(3 8.939776877e-15 0)
(3 4.91469023e-15 0)
(3 6.211810073e-16 0)
(3 -2.45128984e-15 0)
(3 -2.087794173e-15 0)
(3 -3.21291874e-15 0)
(3 4.62591013e-16 0)
(3 -2.73721826e-17 0)
(3 -1.576111261e-15 0)
(3 -5.783521744e-16 0)
(3 -9.314740212e-16 0)
(3 -1.603645008e-15 0)
(3 -2.920037507e-15 0)
(3 -3.295508451e-15 0)
(3 -2.000971112e-15 0)
(3 6.993016475e-16 0)
(3 2.509420367e-15 0)
(3 2.463040509e-15 0)
(3 2.523236321e-15 0)
(3 2.180080246e-15 0)
(3 1.987301988e-15 0)
(3 8.262376311e-16 0)
(3 1.387390488e-15 0)
(3 9.104775194e-16 0)
(3 -1.013802965e-15 0)
(3 -2.69046358e-17 0)
(3 -4.536912568e-16 0)
(3 -4.821091043e-16 0)
(3 1.30370793e-16 0)
(3 -4.754924466e-17 0)
(3 -1.008505086e-15 0)
(3 -3.427047056e-16 0)
(3 8.108535423e-16 0)
(3 2.556209977e-17 0)
(3 -6.927635359e-16 0)
(3 -7.474394158e-16 0)
(3 -1.477326673e-15 0)
(3 -2.536355375e-15 0)
(3 -2.878506006e-15 0)
(3 -4.293940874e-15 0)
(3 -4.797160746e-15 0)
(3 -2.949995995e-15 0)
(3 -3.615241706e-15 0)
(3 -1.230806337e-15 0)
(3 3.307627116e-16 0)
(3 3.231722222e-16 0)
(3 1.264240534e-16 0)
(3 9.244903908e-16 0)
(3 1.89162941e-15 0)
(3 1.855600067e-15 0)
(3 4.663342113e-16 0)
(3 -1.033013673e-15 0)
(3 -7.306224762e-16 0)
(3 -1.952693605e-15 0)
(3 -2.13371755e-15 0)
(3 -1.645243266e-15 0)
(3 -6.35206133e-16 0)
(3 2.120432685e-15 0)
(3 2.959601072e-15 0)
(3 5.592639378e-15 0)
(3 7.389485306e-15 0)
(3 6.808753863e-15 0)
(3 4.962835117e-15 0)
(3 4.606722499e-15 0)
(3 5.560074021e-15 0)
(3 7.810143966e-15 0)
(3 3.609064704e-15 0)
(3 1.230492271e-16 0)
(3 -4.999446411e-16 0)
(3 2.416874653e-16 0)
(3 -5.446370824e-16 0)
(3 -1.206323543e-15 0)
(3 2.512392482e-16 0)
(3 -1.376654163e-15 0)
(3 -3.262944271e-15 0)
(3 -3.60133938e-15 0)
(3 -2.029481755e-15 0)
(3 -1.366820165e-15 0)
(3 -1.125824199e-15 0)
(3 -2.074056763e-15 0)
(3 -1.108858366e-15 0)
(3 -4.622488823e-16 0)
(3 -6.898148599e-16 0)
(3 -4.085714394e-16 0)
(3 -1.020954713e-15 0)
(3 -1.579636083e-15 0)
(3 -1.626456253e-15 0)
(3 -1.226685411e-15 0)
(3 -1.846091377e-15 0)
(3 -2.32239069e-15 0)
(3 -2.171118744e-15 0)
(3 2.326877273e-17 0)
(3 8.644604008e-16 0)
(3 6.837477428e-16 0)
(3 1.156205964e-15 0)
(3 1.95545516e-15 0)
(3 1.095131868e-15 0)
(3 1.99198063e-16 0)
(3 -1.632644954e-15 0)
(3 -3.595299111e-15 0)
(3 -3.571110243e-15 0)
(3 -2.471068045e-15 0)
(3 -1.741983553e-15 0)
(3 -2.822799774e-15 0)
(3 -3.781138727e-15 0)
(3 -4.377357353e-15 0)
(3 -3.153910718e-15 0)
(3 -8.006883815e-16 0)
(3 1.772692225e-17 0)
(3 -4.798330789e-16 0)
(3 -8.634145954e-16 0)
(3 1.082095772e-16 0)
(3 -4.993973003e-16 0)
(3 -4.893864148e-16 0)
(3 -2.376133016e-15 0)
(3 -2.448483211e-15 0)
(3 -1.07479824e-15 0)
(3 -1.323433169e-15 0)
(3 -7.274859946e-16 0)
(3 6.713800653e-17 0)
(3 9.283298522e-16 0)
(3 3.266947119e-15 0)
(3 4.727264534e-15 0)
(3 4.858428665e-15 0)
(3 5.428749974e-15 0)
(3 7.514119682e-15 0)
(3 8.750774117e-15 0)
(3 7.499128104e-15 0)
(3 7.764602358e-15 0)
(3 7.381218754e-15 0)
(3 8.365184598e-15 0)
(3 6.411069479e-15 0)
(3 4.226031733e-15 0)
(3 4.413433329e-15 0)
(3 2.818013999e-15 0)
(3 2.62299356e-15 0)
(3 3.034230662e-15 0)
(3 3.119139252e-15 0)
(3 -7.695451059e-16 0)
(3 -7.145455632e-16 0)
(3 -3.598956916e-16 0)
(3 -1.419409469e-15 0)
(3 -8.344692965e-16 0)
(3 -1.58967541e-16 0)
(3 7.762747681e-16 0)
(3 1.880819231e-15 0)
(3 9.301584492e-18 0)
(3 -2.046890652e-15 0)
(3 -2.999992428e-15 0)
(3 -2.584590611e-15 0)
(3 -1.986483272e-15 0)
(3 -2.530628147e-15 0)
(3 -3.182641272e-15 0)
(3 -2.708136341e-15 0)
(3 -4.30377383e-15 0)
(3 -4.090275396e-15 0)
(3 -3.860191972e-15 0)
(3 -2.965646161e-15 0)
(3 -1.656983357e-15 0)
(3 -2.958660562e-16 0)
(3 7.326337338e-16 0)
(3 2.320479476e-15 0)
(3 1.073168875e-15 0)
(3 -1.733620001e-15 0)
(3 -3.465445194e-15 0)
(3 -3.269665432e-15 0)
(3 -2.342645253e-15 0)
(3 -1.981406541e-15 0)
(3 -2.179203854e-15 0)
(3 -2.776466164e-15 0)
(3 -3.497783773e-15 0)
(3 -4.310183018e-15 0)
(3 -1.135399611e-15 0)
(3 1.877277381e-15 0)
(3 1.323688253e-15 0)
(3 7.533291805e-16 0)
(3 -6.82518042e-16 0)
(3 -6.899276892e-16 0)
(3 1.289742013e-16 0)
(3 -9.809657023e-16 0)
(3 -4.308014084e-16 0)
(3 -1.11707592e-15 0)
(3 1.296828773e-16 0)
(3 2.679948449e-16 0)
(3 6.082845475e-16 0)
(3 1.37945085e-15 0)
(3 3.716205835e-15 0)
(3 3.463055125e-15 0)
(3 5.438885369e-15 0)
(3 5.497913758e-15 0)
(3 6.256646526e-15 0)
(3 6.207743103e-15 0)
(3 4.987619921e-15 0)
(3 6.856507266e-15 0)
(3 6.28908839e-15 0)
(3 5.228751634e-15 0)
(3 5.708885479e-15 0)
(3 4.805584572e-15 0)
(3 5.541206098e-15 0)
(3 5.739684811e-15 0)
(3 5.55545975e-15 0)
(3 3.906203423e-15 0)
(3 1.995813129e-15 0)
(3 4.18740184e-16 0)
(3 -1.697004945e-16 0)
(3 -1.848101651e-16 0)
(3 9.19474677e-16 0)
(3 5.752035524e-16 0)
(3 -6.078300228e-16 0)
(3 -7.160559171e-16 0)
(3 -1.260360295e-15 0)
(3 -7.791423661e-16 0)
(3 -2.292523726e-16 0)
(3 -2.074329143e-16 0)
(3 -1.006057821e-16 0)
(3 -1.28795614e-15 0)
(3 -6.684810934e-16 0)
(3 -1.818794822e-16 0)
(3 -1.349425854e-16 0)
(3 -5.606805607e-16 0)
(3 -5.462548053e-16 0)
(3 -7.548647647e-16 0)
(3 -1.709917125e-15 0)
(3 -1.872421477e-15 0)
(3 -1.449790336e-15 0)
(3 -2.512606209e-15 0)
(3 -8.405348121e-16 0)
(3 -2.40562495e-17 0)
(3 -1.953966866e-15 0)
(3 -3.222622101e-15 0)
(3 -3.563721486e-15 0)
(3 -1.486692249e-15 0)
(3 -2.073980906e-15 0)
(3 -2.355756014e-15 0)
(3 -3.444957531e-15 0)
(3 -3.621346692e-15 0)
(3 -2.876484408e-15 0)
(3 1.235283371e-15 0)
(3 1.448794452e-15 0)
(3 -1.591135405e-16 0)
(3 -1.2156445e-16 0)
(3 -3.389305305e-16 0)
(3 -2.528377237e-15 0)
(3 -2.581387968e-15 0)
(3 -2.111825028e-15 0)
(3 -1.332324753e-15 0)
(3 2.408702965e-16 0)
(3 2.42966409e-15 0)
(3 2.654916807e-15 0)
(3 3.791523363e-15 0)
(3 -3.106950371e-16 0)
(3 -1.605408994e-17 0)
(3 1.588787405e-15 0)
(3 4.234693867e-15 0)
(3 4.549751657e-15 0)
(3 5.860523614e-15 0)
(3 6.48007632e-15 0)
(3 5.893312802e-15 0)
(3 4.55018056e-15 0)
(3 3.684539929e-15 0)
(3 3.006585601e-15 0)
(3 2.274697798e-15 0)
(3 5.137241522e-16 0)
(3 9.453106117e-16 0)
(3 3.2854536e-15 0)
(3 4.180464472e-15 0)
(3 3.953027604e-15 0)
(3 3.258457301e-15 0)
(3 2.558386347e-15 0)
(3 2.576119569e-15 0)
(3 7.440455715e-16 0)
(3 8.582960735e-16 0)
(3 -1.304280242e-15 0)
(3 -8.626503519e-16 0)
(3 -1.077521575e-15 0)
(3 -2.048177559e-15 0)
(3 -1.46078596e-15 0)
(3 -5.031271451e-17 0)
(3 2.05817654e-15 0)
(3 2.891072692e-15 0)
(3 2.505362534e-15 0)
(3 5.273721045e-16 0)
(3 -6.459969666e-16 0)
(3 -1.049148081e-15 0)
(3 -5.598585839e-16 0)
(3 -1.011905432e-15 0)
(3 -2.749052673e-16 0)
(3 -1.152328762e-15 0)
(3 -5.819395972e-16 0)
(3 1.037561341e-17 0)
(3 3.713495403e-16 0)
(3 -1.189208959e-15 0)
(3 -3.357142801e-15 0)
(3 -4.323744255e-15 0)
(3 -3.929941676e-15 0)
(3 -4.04702904e-15 0)
(3 -3.372481261e-15 0)
(3 -2.571042442e-15 0)
(3 -3.027281017e-15 0)
(3 -3.113288152e-15 0)
(3 -3.89776889e-15 0)
(3 -3.762280185e-15 0)
(3 3.144924913e-16 0)
(3 3.283011356e-15 0)
(3 2.277992142e-15 0)
(3 -2.281705763e-16 0)
(3 -6.188232682e-16 0)
(3 -1.278247949e-15 0)
(3 -2.242154932e-15 0)
(3 -1.611794643e-15 0)
(3 -1.334395191e-15 0)
(3 -8.697940719e-16 0)
(3 4.695245101e-17 0)
(3 2.628077656e-15 0)
(3 4.277856462e-15 0)
(3 5.745749849e-15 0)
(3 3.257796283e-15 0)
(3 9.50423042e-16 0)
(3 1.036763903e-15 0)
(3 1.898353188e-15 0)
(3 -7.890897994e-17 0)
(3 1.10638592e-15 0)
(3 3.018613726e-15 0)
(3 2.964368836e-15 0)
(3 3.709739263e-15 0)
(3 3.921529251e-15 0)
(3 4.489934945e-15 0)
(3 1.981054643e-15 0)
(3 -1.379287232e-15 0)
(3 -2.04358341e-15 0)
(3 -1.411624049e-15 0)
(3 -5.897117319e-16 0)
(3 9.531533871e-16 0)
(3 2.01573631e-15 0)
(3 2.924109095e-15 0)
(3 4.099657295e-15 0)
(3 6.248489768e-16 0)
(3 5.759423602e-16 0)
(3 7.268747676e-16 0)
(3 2.131800838e-16 0)
(3 -1.216308041e-15 0)
(3 -2.530649324e-15 0)
(3 -1.718637882e-15 0)
(3 -4.552690899e-16 0)
(3 5.280610971e-16 0)
(3 1.896900495e-16 0)
(3 -3.841903084e-17 0)
(3 1.708368269e-16 0)
(3 -7.828455843e-16 0)
(3 -7.471177532e-16 0)
(3 -1.851580524e-15 0)
(3 -1.245363781e-15 0)
(3 -7.267299948e-16 0)
(3 -6.856816498e-16 0)
(3 5.841541915e-16 0)
(3 -3.286189152e-16 0)
(3 -3.680176062e-16 0)
(3 -1.724164175e-15 0)
(3 -2.88583906e-15 0)
(3 -4.491739096e-15 0)
(3 -3.403950608e-15 0)
(3 -4.113954625e-16 0)
(3 1.356104682e-16 0)
(3 -1.674889185e-15 0)
(3 -9.037674084e-16 0)
(3 -4.074130917e-15 0)
(3 -4.806569443e-15 0)
(3 -6.772003384e-16 0)
(3 1.432091003e-15 0)
(3 2.568696829e-15 0)
(3 1.745794806e-15 0)
(3 1.764893147e-15 0)
(3 1.690180874e-15 0)
(3 -5.740219414e-16 0)
(3 -2.333372423e-15 0)
(3 -3.067103257e-15 0)
(3 -2.188893273e-15 0)
(3 2.502383363e-16 0)
(3 1.1904226e-15 0)
(3 2.310766761e-15 0)
(3 3.414174592e-15 0)
(3 3.442115167e-15 0)
(3 2.955187573e-15 0)
(3 -2.200515315e-16 0)
(3 -1.862921962e-15 0)
(3 -3.578652616e-15 0)
(3 -4.180412665e-15 0)
(3 -3.670569078e-15 0)
(3 -2.119640444e-15 0)
(3 -2.95644101e-17 0)
(3 1.549046531e-15 0)
(3 2.663584197e-15 0)
(3 1.950748827e-15 0)