/*--------------------------------*- C++ -*----------------------------------*\
  =========                 |
  \\      /  F ield         | OpenFOAM: The Open Source CFD Toolbox
   \\    /   O peration     | Website:  https://openfoam.org
    \\  /    A nd           | Version:  7
     \\/     M anipulation  |
\*---------------------------------------------------------------------------*/
FoamFile
{
    version     2.0;
    format      ascii;
    class       volScalarField;
    location    "0.7";
    object      rho;
}
// * * * * * * * * * * * * * * * * * * * * * * * * * * * * * * * * * * * * * //

dimensions      [1 -3 0 0 0 0 0];

internalField   nonuniform List<scalar> 
2225
(
0.7678823735
0.7649088939
0.7618616984
0.7561546637
0.7510494984
0.751260518
0.7553389445
0.8057248476
0.9681883804
1.156122207
1.25489371
1.254915089
1.235318716
0.8739506435
0.8659366825
0.8641581021
0.8621530022
0.8567788055
0.8513514479
0.8471702678
0.8425124413
0.8345284213
0.827514535
0.8235707716
0.8200089572
0.8145171404
0.8072322884
0.801916095
0.7972295491
0.7923315381
0.7852855227
0.7799796149
0.7769430537
0.7749368314
0.7714833878
0.7660782706
0.7618741546
0.7635534772
0.7878915054
0.9177748451
1.133103475
1.248365278
1.261323146
1.258830534
1.246043194
0.888358313
0.8794321253
0.8771736775
0.8751470129
0.8699459553
0.8641032683
0.859498016
0.8546566053
0.8466069305
0.8386399556
0.8341909347
0.8303583536
0.8245993208
0.8167911274
0.811167389
0.8065192275
0.8017220843
0.7943381239
0.7875831823
0.7839753224
0.7816538329
0.777616036
0.7749418684
0.7734374762
0.7867092223
0.8718982742
1.072274494
1.238242626
1.284665655
1.282315595
1.275488759
1.247388395
0.9009813907
0.8910389798
0.888392357
0.8862991209
0.8809657939
0.874681294
0.870034979
0.8654882579
0.857997338
0.8497279011
0.8449099826
0.8409111979
0.8348869813
0.8258791914
0.8193194235
0.8143099657
0.8096681835
0.8027031026
0.7962285638
0.7930150401
0.789775491
0.7861660756
0.7839163232
0.7869510761
0.8398765336
1.019620858
1.20887416
1.294503882
1.301260707
1.294483771
1.280272738
1.250917833
0.9131470424
0.9019056006
0.898718399
0.8966285009
0.891109214
0.8840017014
0.8794547753
0.8752940813
0.8682259662
0.8597295082
0.8550114605
0.8512145322
0.8455968979
0.8366041945
0.8295032658
0.8242650526
0.8196113599
0.8121003571
0.8049372571
0.8006582831
0.7981607335
0.7970048664
0.7991698825
0.8239245096
0.9566263632
1.178856728
1.315369009
1.319727126
1.306777169
1.289535303
1.281224456
1.264709741
0.9270623972
0.9152662061
0.9110975132
0.9086717607
0.903024103
0.8947000558
0.8897012665
0.8855537455
0.8786295171
0.8695657574
0.8646151882
0.8608101392
0.8552668684
0.8461021326
0.8390144532
0.8343292947
0.8301285147
0.8242087848
0.816433719
0.8102135691
0.8083332298
0.8086788653
0.8225138053
0.9112730776
1.130815468
1.288233862
1.337736461
1.335397126
1.327059831
1.310961931
1.29423631
1.263110264
0.94086631
0.9292738279
0.9240573794
0.9214488373
0.9160545374
0.9069702829
0.9010694942
0.8965822686
0.8896304203
0.8798078152
0.8743233955
0.8703566063
0.864966059
0.8555505774
0.8477735905
0.8428194331
0.8387326536
0.833445636
0.8240971506
0.8190348275
0.8188395806
0.825180001
0.8798090251
1.076706295
1.280597759
1.335991228
1.35591576
1.354638344
1.344449139
1.324627707
1.299156228
1.265659209
0.9529957162
0.9410535689
0.9349866516
0.9325259914
0.9275279307
0.9179637007
0.9115047537
0.9070066072
0.9002718319
0.889573769
0.8832714485
0.8793093107
0.8743246572
0.8651387932
0.8568090962
0.8520131621
0.848762534
0.8425671087
0.8324064508
0.8283871793
0.8303540259
0.8623638762
1.006488665
1.239527534
1.375312968
1.385965993
1.377560592
1.358209682
1.336913787
1.318726103
1.304883329
1.282271442
0.96578256
0.9535691616
0.9458366195
0.9433179813
0.9386711277
0.9286055371
0.9214796057
0.91710198
0.9109200087
0.8998748026
0.8925568015
0.8885266783
0.8838252241
0.8749254653
0.8656138985
0.8612607447
0.8579670934
0.8512788413
0.8449286912
0.842575364
0.8564097983
0.9595699911
1.191632492
1.365265289
1.397003837
1.391023003
1.37863959
1.361399254
1.340659381
1.324909564
1.312425839
1.284958945
0.9797609291
0.9682264929
0.9589769978
0.9557717376
0.9512852714
0.9414771755
0.933578111
0.9287405052
0.922729218
0.911733756
0.9032006785
0.8985002966
0.8936757901
0.8849876627
0.8756374302
0.871176884
0.8660443075
0.8599354692
0.8561707232
0.8606664449
0.9178134092
1.128327373
1.355218134
1.390438092
1.407090961
1.404212397
1.399296954
1.384529889
1.362722152
1.335451157
1.314366964
1.28728504
0.9927608061
0.98179023
0.9709510293
0.9674338711
0.9632473894
0.953567657
0.9449014722
0.9399952699
0.9344779819
0.9237656707
0.9137140349
0.9081828881
0.9030760369
0.8941438812
0.8848148082
0.8785170265
0.8736002366
0.8697042705
0.8695860211
0.8979391034
1.054259841
1.290643322
1.435174624
1.444978219
1.43857318
1.420285893
1.397493286
1.377899668
1.360060255
1.340398763
1.32333713
1.297222285
1.004827206
0.9942925866
0.9813871574
0.9775519469
0.9737509733
0.9644984222
0.9551522997
0.9505887513
0.9457534381
0.9357874238
0.9245867356
0.9182814695
0.9128195844
0.9051561897
0.8953072158
0.885610867
0.8825963283
0.8822099185
0.8948535952
0.9943054807
1.241766022
1.427272567
1.463590071
1.457798396
1.440434949
1.419483828
1.397581884
1.379251844
1.366182043
1.35336765
1.337374583
1.30773007
1.018511654
1.00899021
0.9952732314
0.9903191563
0.9864603353
0.97783535
0.9677037621
0.9624487431
0.9573418403
0.9478291365
0.9361857996
0.9286034267
0.9230351721
0.9167225739
0.9054176243
0.8967728348
0.8964648767
0.9026261017
0.9616250739
1.165982408
1.418282898
1.459058084
1.467225353
1.460417908
1.44659239
1.435492216
1.420418925
1.399915771
1.374057205
1.352110516
1.336724948
1.311279162
1.030899216
1.021840179
1.007077863
1.001366214
0.9977672855
0.9899081344
0.9790853858
0.9732505489
0.968137243
0.9591399219
0.9467401915
0.9379294098
0.9329717065
0.9257161356
0.9130903569
0.9086054726
0.9106609706
0.9424919784
1.106877257
1.345229906
1.498695544
1.509602598
1.502604311
1.489024833
1.465443852
1.438270336
1.417602349
1.399096816
1.377655759
1.356156252
1.342680079
1.318399777
1.043435919
1.034583768
1.01870875
1.012113441
1.008952088
1.002203523
0.9910896911
0.9847094696
0.9796506322
0.9710770635
0.9570099746
0.9474358139
0.9426597227
0.9337983804
0.9239333943
0.9221548997
0.9355048186
1.04913312
1.292121808
1.497344879
1.539933988
1.534312045
1.516630738
1.489810361
1.462896922
1.438402585
1.419806191
1.404738863
1.390849585
1.374220491
1.357776323
1.32775437
1.056545221
1.048113322
1.032281454
1.024871994
1.02145245
1.015098875
1.003663428
0.9962295696
0.99106755
0.9827244375
0.969417676
0.9602645371
0.9525862413
0.9440192213
0.9395397163
0.9452077922
1.008061292
1.229400757
1.483346737
1.566246844
1.55485396
1.533845176
1.515437503
1.492557083
1.470302882
1.454340809
1.437661713
1.417011267
1.397794413
1.38084472
1.362448915
1.331148629
1.07058127
1.062136821
1.045759004
1.036814096
1.033151411
1.027159263
1.015294523
1.006872749
1.001475622
0.9931755127
0.9817622292
0.9709660411
0.9619535024
0.9565006017
0.9574548386
0.9907049175
1.167614393
1.418618349
1.579448922
1.580284272
1.569892334
1.551264472
1.534327237
1.515331279
1.489306448
1.462944472
1.441388576
1.420347012
1.400732216
1.386257677
1.371250028
1.340948896
1.084222676
1.076107764
1.060177458
1.050192535
1.046360512
1.040803964
1.029194843
1.019456284
1.012609437
1.005199945
0.9941280389
0.9789171882
0.9718199847
0.970439421
0.9841918959
1.107040646
1.37297852
1.557166633
1.616291506
1.611625475
1.598230755
1.575823449
1.545480881
1.513953271
1.487954437
1.467372782
1.448107833
1.427844091
1.407066252
1.388910903
1.376055517
1.349608333
1.098326111
1.090812543
1.075707435
1.064932354
1.060519685
1.054957334
1.043806802
1.032313253
1.024656907
1.018699661
1.005829497
0.9913257181
0.9880839769
0.994712086
1.061917012
1.305688397
1.552369991
1.636840751
1.635096789
1.619933474
1.59356614
1.569849174
1.545941591
1.517571058
1.493826338
1.475290821
1.457286795
1.439328391
1.422104058
1.404027187
1.387822743
1.354919618
1.112320272
1.104998322
1.090288204
1.078216327
1.073124099
1.067810867
1.056971686
1.043672994
1.036543542
1.029357331
1.015019735
1.005890286
1.007629084
1.043816731
1.23275308
1.510135477
1.657740853
1.65448391
1.641243198
1.618108863
1.592860184
1.571620979
1.555641448
1.536108695
1.512445467
1.490563251
1.468218645
1.446163579
1.425490038
1.40433564
1.387633513
1.359868034
1.126182436
1.119223518
1.105615068
1.093021887
1.08751633
1.082487509
1.071542401
1.058124779
1.05027081
1.039263031
1.027368548
1.022355604
1.039857869
1.163513254
1.475205461
1.644060809
1.683173987
1.672077086
1.653862392
1.636447471
1.617904782
1.594513414
1.568054755
1.541898246
1.516412575
1.49471529
1.474320791
1.45322274
1.433170626
1.412723609
1.394312977
1.363446336
1.140824309
1.134223805
1.121105033
1.107213888
1.101259619
1.095597033
1.085002986
1.072941468
1.060684631
1.050022357
1.044196077
1.04818657
1.127744436
1.384833784
1.648298503
1.715733141
1.713948777
1.70069943
1.67672907
1.646166161
1.617273871
1.593360872
1.569273563
1.546047107
1.523347132
1.501036406
1.47839677
1.455424595
1.435728555
1.420408407
1.405606765
1.373337849
1.154859854
1.147961472
1.135243648
1.120572961
1.114062006
1.107976944
1.099240134
1.086268448
1.070791423
1.063460512
1.065532697
1.101858643
1.301784351
1.620872211
1.750499207
1.748330024
1.730472738
1.699380878
1.670776621
1.645780128
1.622220716
1.598589732
1.57493069
1.551021532
1.530770881
1.512920778
1.492145378
1.467752487
1.445015708
1.42424901
1.407337801
1.376759972
1.170465165
1.163740877
1.151831345
1.136791646
1.128330038
1.122474811
1.114535239
1.097181662
1.084149998
1.080846788
1.102376532
1.240648305
1.529715993
1.773369691
1.785523244
1.767575433
1.733563371
1.700403619
1.672922835
1.651244874
1.631862882
1.611762116
1.591658694
1.567694935
1.539839369
1.516067955
1.496240873
1.47629194
1.454981344
1.432593197
1.413326177
1.380666198
1.185160009
1.178336633
1.167588576
1.15156739
1.141692262
1.136536998
1.126250093
1.108975638
1.101543433
1.107375666
1.200737946
1.480176291
1.725603022
1.799660622
1.797517702
1.78536849
1.76325632
1.732225097
1.698136557
1.669510323
1.644797915
1.619216638
1.59458157
1.571339172
1.547410092
1.524071571
1.501376347
1.478192098
1.456320221
1.434085735
1.415500466
1.385781606
1.199641812
1.193304491
1.183714113
1.167045673
1.15787143
1.151452662
1.138870148
1.126040282
1.126970593
1.169782782
1.398885121
1.714814054
1.842029073
1.838634079
1.818082628
1.788718455
1.759957164
1.729519585
1.701155276
1.675417296
1.649737554
1.625412596
1.602152928
1.577914519
1.55146565
1.525454323
1.502657424
1.482198582
1.463488531
1.443046619
1.422553774
1.388543136
1.214730495
1.208637932
1.19937523
1.183861403
1.173568435
1.162490079
1.152487977
1.145874169
1.166960809
1.334118665
1.63514673
1.846875977
1.884098027
1.871753097
1.84028225
1.798519924
1.761971298
1.732400362
1.707443754
1.682536352
1.655514603
1.629504676
1.606373804
1.584571403
1.560969836
1.536333847
1.512914636
1.489280239
1.468501898
1.45034862
1.432320661
1.398358249
1.229789028
1.222741284
1.214489042
1.201850189
1.186983976
1.17574322
1.170402063
1.177828968
1.278007491
1.584750805
1.846948615
1.910388457
1.901272084
1.877197725
1.84278321
1.805857814
1.768029366
1.736381263
1.713790061
1.692047632
1.667404879
1.641362523
1.614134902
1.586996536
1.56486124
1.547448864
1.525717608
1.501128814
1.477051259
1.454161551
1.434018139
1.401359008
1.245685285
1.237125843
1.230934382
1.218030562
1.198991952
1.191849321
1.194726666
1.248365894
1.505250459
1.822908454
1.937612621
1.932319453
1.912524228
1.879505109
1.843321079
1.808329252
1.776967005
1.75029769
1.72420382
1.700315681
1.679531736
1.654236781
1.625976404
1.597213664
1.57098008
1.547790308
1.525467586
1.502970016
1.482556768
1.461586194
1.441786769
1.407013412
1.260717048
1.252196365
1.246385258
1.230081995
1.214310524
1.211218799
1.239552712
1.428203025
1.768467606
1.966164909
1.965984128
1.948344194
1.916422248
1.881860984
1.848088303
1.817293672
1.788666845
1.760461295
1.73208886
1.705069068
1.677887723
1.651267101
1.625292081
1.600565883
1.576853394
1.552980792
1.53129932
1.509845009
1.487378057
1.464571407
1.445627866
1.413098309
1.276118155
1.269140306
1.259712426
1.243325496
1.235031351
1.248200343
1.371279115
1.707538529
1.963463538
2.009238329
1.994084198
1.963563267
1.927869925
1.891603745
1.857592958
1.82922759
1.803824762
1.777010951
1.747507907
1.715926072
1.684009977
1.656071929
1.631308402
1.606654927
1.583012376
1.56087176
1.538596752
1.51682373
1.496027444
1.474739956
1.453187665
1.416594975
1.294682353
1.282914501
1.271054593
1.26052244
1.262366474
1.335031249
1.621750303
1.957967094
2.043462823
2.035291525
2.018120441
1.990189651
1.955298921
1.912902318
1.870634921
1.835291533
1.805348349
1.777510321
1.752321085
1.727354989
1.701132709
1.674578153
1.647365525
1.620009166
1.593883055
1.56840438
1.543068532
1.518552342
1.495945077
1.476302628
1.458833858
1.424633775
1.314181963
1.295249737
1.285696335
1.283838306
1.318621748
1.545984689
1.909938612
2.079612199
2.073648048
2.051753945
2.01945756
1.984571813
1.948837298
1.914474896
1.879159209
1.844310577
1.812343085
1.783214846
1.756446939
1.73080739
1.704382676
1.676901847
1.650103108
1.623658971
1.59740284
1.573133564
1.549419642
1.525466821
1.502910848
1.481571871
1.461425584
1.425995085
1.328784741
1.31060142
1.305520012
1.321515023
1.476847814
1.830247359
2.088604673
2.125855102
2.107727656
2.072895537
2.028094863
1.985876252
1.948625066
1.918264931
1.892699264
1.859788126
1.822083318
1.788402024
1.759984178
1.734891856
1.708992701
1.681588162
1.655038034
1.628758397
1.602898171
1.578048662
1.553187799
1.529125032
1.507636004
1.486826411
1.466976296
1.431700223
1.342152234
1.329968572
1.336115112
1.425769994
1.752717334
2.098433964
2.164581596
2.149218681
2.117205644
2.078511463
2.037602252
1.99621711
1.958224835
1.926208698
1.894669573
1.863343692
1.83009218
1.79776291
1.767365553
1.738633751
1.710991097
1.684519629
1.659332827
1.633696779
1.609153082
1.586836003
1.56374961
1.53917905
1.514510735
1.489344832
1.46764381
1.432430747
1.359916155
1.355267462
1.401787842
1.673138865
2.03009203
2.201238745
2.197853575
2.171930526
2.128943802
2.084678699
2.045420976
2.00706695
1.969603703
1.934663169
1.89979289
1.868264447
1.840204602
1.809705939
1.777499409
1.745658658
1.717011373
1.690529864
1.664700031
1.638933977
1.61507067
1.594517207
1.573593241
1.549395078
1.52317389
1.496087161
1.474156098
1.438534569
1.382958983
1.398618541
1.586619791
1.98506973
2.214075952
2.226598657
2.210705401
2.179022584
2.145614265
2.106021983
2.065582462
2.029074412
1.989255114
1.946256869
1.906599529
1.873593024
1.843273637
1.812440981
1.788900181
1.765601283
1.732868529
1.69939823
1.669897595
1.643416111
1.61959063
1.597998988
1.57547019
1.549673278
1.524383671
1.497915821
1.475636571
1.446335003
1.416774364
1.518871011
1.88567513
2.248945567
2.285242435
2.255329868
2.213606126
2.179008572
2.143511648
2.102770138
2.062656203
2.025720042
1.990271144
1.953748805
1.916775875
1.881606989
1.848292937
1.820697142
1.794222963
1.764586561
1.734957461
1.705721175
1.677875439
1.652399875
1.628090925
1.603745468
1.578844222
1.552888881
1.527851079
1.502455494
1.481244431
1.44711737
1.497734114
1.800376432
2.158660128
2.331402484
2.329238539
2.303986965
2.254317902
2.195921067
2.148599872
2.108209617
2.068906819
2.030672837
1.995615062
1.961679031
1.926926431
1.891427579
1.857814009
1.828238625
1.798959576
1.769087405
1.74064147
1.713157178
1.686164147
1.660193302
1.635136429
1.609431563
1.582710907
1.556622033
1.531925118
1.507265463
1.486778328
1.450839476
1.71028663
2.170026117
2.315640582
2.33691665
2.327485453
2.296973587
2.251088913
2.201682746
2.155582597
2.121124654
2.089866591
2.052093994
2.014904536
1.980772355
1.947685047
1.914229687
1.880410435
1.846860777
1.814838554
1.784894595
1.757155107
1.730456693
1.699669999
1.667287794
1.637996433
1.612273387
1.586430322
1.559446843
1.540185616
1.522697842
1.502280383
1.462393354
2.027919502
2.416687232
2.424044992
2.381849444
2.331034731
2.293752095
2.253621759
2.212993321
2.171760141
2.131580796
2.090233821
2.049710743
2.011432189
1.976425127
1.94365204
1.911239333
1.877704995
1.843579482
1.811281223
1.781517297
1.753696641
1.726896823
1.700301454
1.672175058
1.643779906
1.61601985
1.58908807
1.565276688
1.543461585
1.520868948
1.498953798
1.460007075
2.302001092
2.464212186
2.458360429
2.42681272
2.369348553
2.312950898
2.269237483
2.230967479
2.190606924
2.14408561
2.096987179
2.054087677
2.014296681
1.978070372
1.945312451
1.913591414
1.880414589
1.845880805
1.812965048
1.78323113
1.755098848
1.727820288
1.702810014
1.676513273
1.647530392
1.619426728
1.594255146
1.571784181
1.548150494
1.523254644
1.500242058
1.462638771
2.483392715
2.481628186
2.460779733
2.417148903
2.364228475
2.313126695
2.268072906
2.227900322
2.187970699
2.146245279
2.102705917
2.060141025
2.01986086
1.982694759
1.949550545
1.918148748
1.885381297
1.851046131
1.817698056
1.787779758
1.759925829
1.732251026
1.706288057
1.680985021
1.653024771
1.625583643
1.600447828
1.575262818
1.551902999
1.52802399
1.504302342
1.467272987
2.517195209
2.4594299
2.412658924
2.367494901
2.321456835
2.27606823
2.233047987
2.191847655
2.150527885
2.107918866
2.065908788
2.026487311
1.989175955
1.954345169
1.922023802
1.889621869
1.856212833
1.823742971
1.793217337
1.764536429
1.737282504
1.709714157
1.684522633
1.664176387
1.640967758
1.613885542
1.583423045
1.55432283
1.52778891
1.506653225
1.472119145
2.537794297
2.47123769
2.416420695
2.373819923
2.33212251
2.288188744
2.243295986
2.200416124
2.158744293
2.115893419
2.072509788
2.031752892
1.995137142
1.960580218
1.927883689
1.895630289
1.862263668
1.829805468
1.799799034
1.771310863
1.742466008
1.714383087
1.688937767
1.663532563
1.63724497
1.610137676
1.584664639
1.559020449
1.532589521
1.511230289
1.477495343
2.543227733
2.485184578
2.429454704
2.382865912
2.339927395
2.297251186
2.252828471
2.208786084
2.166195746
2.122348006
2.079308712
2.038588607
2.00114262
1.964656956
1.929497903
1.897528808
1.865480579
1.833737224
1.803096435
1.772782349
1.745591308
1.719562881
1.69312643
1.666558249
1.63952962
1.611897559
1.586304866
1.566017571
1.545525615
1.525320964
1.489735953
2.547450821
2.496965564
2.444275808
2.392975285
2.345211348
2.300721777
2.256940059
2.212137488
2.171287899
2.129020012
2.086445469
2.046303409
2.008880586
1.972808315
1.936261798
1.902248192
1.871432526
1.839191871
1.807825862
1.77628383
1.748170401
1.728355754
1.705419686
1.678871621
1.650512324
1.620430413
1.593499428
1.569085351
1.543671784
1.52188131
1.485406812
2.55313956
2.505808744
2.457197255
2.407103065
2.357476132
2.310379116
2.265208594
2.219722589
2.175629669
2.142736005
2.107934991
2.068530873
2.024908412
1.984106029
1.946035891
1.907569576
1.877600057
1.853764259
1.823513631
1.790295669
1.757898225
1.728521005
1.700635122
1.673422427
1.646482615
1.620061397
1.595403907
1.571077914
1.546294624
1.523573423
1.486670014
2.573628617
2.526931561
2.482330454
2.435651845
2.385953872
2.3353981
2.285735312
2.236841077
2.187834469
2.142556839
2.102451016
2.06363015
2.024912306
1.986604639
1.95222386
1.918408309
1.883987626
1.850521716
1.818011779
1.786686197
1.758951092
1.730072057
1.700972701
1.673532022
1.648015851
1.623199676
1.598074406
1.572273518
1.547937898
1.531187383
1.49678646
2.567755852
2.520762028
2.47628836
2.430138708
2.381124502
2.330420291
2.279969627
2.231306368
2.187212724
2.144315099
2.103789613
2.065471332
2.028790636
1.99407532
1.958985537
1.923055429
1.886585768
1.851897789
1.82024738
1.790521831
1.763130477
1.734579579
1.70554291
1.678218968
1.65369645
1.628246786
1.602007559
1.576499818
1.552286379
1.530439635
1.492440256
2.574486427
2.5256064
2.480336828
2.43448825
2.386070126
2.335297917
2.284279942
2.235694143
2.190701984
2.148041028
2.107362263
2.070136402
2.035926793
2.000986512
1.963635482
1.926778811
1.890157329
1.854135116
1.82564278
1.804674347
1.778881192
1.749854198
1.720412466
1.69035711
1.661352216
1.636886756
1.612615135
1.5882916
1.561978393
1.53469903
1.492929617
2.598108754
2.545650083
2.496374409
2.448817039
2.398829228
2.346299525
2.29421933
2.245911873
2.199734338
2.1555383
2.114376304
2.077392763
2.043263183
2.006897839
1.968477748
1.930624243
1.894217942
1.860986108
1.831925702
1.803550642
1.774405737
1.744351976
1.714702064
1.686596826
1.660358157
1.634220891
1.608499782
1.58375663
1.556843447
1.532723089
1.495817977
2.592927045
2.542055298
2.493586022
2.445888782
2.397202927
2.347746198
2.298950288
2.25085016
2.20528173
2.163627317
2.128473428
2.094702177
2.05891966
2.021427548
1.98305222
1.945622208
1.911441145
1.879767503
1.845726124
1.807692986
1.775221233
1.745968727
1.716419796
1.68903986
1.662869375
1.636121852
1.609802355
1.584387445
1.557689293
1.533470534
1.500521349
2.59625942
2.54638514
2.497801983
2.449323199
2.400039561
2.350370392
2.303750191
2.259145849
2.214004558
2.169754123
2.128087535
2.089231687
2.051797483
2.014731625
1.977100922
1.940400369
1.906672753
1.873953588
1.840130127
1.807480711
1.775651598
1.749777299
1.727997761
1.702616129
1.675847327
1.648926536
1.621921439
1.594472529
1.565095445
1.538731263
1.502921394
2.603164411
2.554251613
2.506446981
2.457845454
2.407173547
2.356112233
2.308836943
2.264150143
2.219159967
2.174373239
2.131182896
2.090902568
2.051822028
2.015022155
1.97966832
1.94383258
1.910145017
1.87684208
1.843428809
1.811305918
1.780642372
1.752425824
1.725087342
1.698633856
1.671534636
1.644580468
1.617074963
1.588976467
1.561314776
1.544268759
1.509056555
2.61149406
2.561316669
2.512060328
2.461441342
2.409502754
2.358927496
2.31198288
2.267705134
2.224286513
2.180315911
2.13699761
2.095761139
2.055629533
2.017416308
1.985863008
1.957493397
1.924598499
1.89038497
1.856922661
1.825041222
1.793351547
1.757551128
1.725956403
1.699637039
1.672875409
1.645653037
1.617617428
1.589585855
1.564617998
1.544485719
1.507700641
2.622840232
2.570370389
2.51869451
2.466891898
2.41512699
2.3646423
2.316011386
2.270169282
2.226798543
2.184036452
2.142170369
2.101484008
2.060458234
2.021925427
1.987662255
1.953571244
1.91949894
1.885389073
1.85198073
1.819559258
1.789254005
1.760490676
1.730347984
1.70207947
1.681206696
1.656729913
1.62879585
1.601866882
1.572964408
1.545843577
1.509712485
2.632812103
2.578444259
2.524569823
2.471684146
2.41967913
2.368783944
2.319578456
2.273741871
2.231282777
2.189540238
2.146574558
2.104737174
2.065613484
2.02750723
1.991034382
1.955336151
1.920923788
1.886983871
1.853377628
1.820751876
1.790067253
1.766979167
1.743138273
1.713804176
1.680324532
1.651320583
1.623623125
1.597477912
1.570227278
1.546077041
1.511313165
2.642650514
2.586468716
2.530326066
2.476066937
2.423942667
2.37345016
2.323887574
2.276887857
2.233705954
2.193253533
2.152181185
2.109700222
2.071996773
2.041399558
2.006578209
1.970835882
1.935936104
1.900545735
1.861373402
1.825062713
1.795672582
1.768257771
1.73918342
1.712021613
1.682712917
1.652586128
1.624385609
1.598109985
1.572127434
1.550594209
1.515578884
2.650989391
2.593919088
2.535831412
2.479920156
2.427467969
2.378031134
2.329087
2.281425176
2.236604969
2.194582068
2.154657077
2.116078551
2.078541344
2.039136736
2.001031937
1.964881561
1.929506782
1.894770265
1.861657233
1.829036091
1.800701165
1.771782152
1.741476729
1.71311533
1.689201741
1.662559664
1.635205076
1.609681955
1.585582926
1.565034619
1.526746863
2.652337295
2.596291312
2.538910049
2.483227905
2.430766627
2.38169449
2.333823778
2.28623069
2.241775061
2.199649668
2.159004166
2.121269061
2.083491415
2.042721448
2.00344462
1.966952426
1.931146978
1.895321547
1.864658961
1.841512123
1.815404605
1.786362444
1.754644095
1.719385422
1.687161952
1.65747606
1.629924726
1.604858397
1.580976879
1.560011381
1.522613044
2.655714966
2.601079143
2.543479634
2.486885357
2.433934401
2.384462099
2.33911767
2.293015181
2.249231997
2.206578255
2.165376957
2.125710403
2.086134297
2.050403011
2.015611226
1.976798321
1.937070766
1.901178216
1.87012211
1.840135668
1.810334792
1.779775772
1.750426225
1.720780852
1.688857235
1.658851588
1.631762059
1.607185406
1.583125823
1.561769806
1.524483328
2.660393634
2.606577515
2.551340282
2.494286462
2.439320333
2.387577684
2.341584544
2.307495522
2.268297845
2.225262133
2.181815954
2.13739358
2.092490471
2.050842999
2.011015876
1.973917084
1.938959944
1.904918041
1.873505409
1.842139679
1.811458528
1.780070918
1.7510171
1.727156538
1.699206453
1.670666303
1.644210937
1.619412945
1.594210377
1.5722459
1.534873986
2.665327735
2.609793567
2.562886943
2.511175739
2.450447939
2.394137055
2.34744083
2.303036977
2.260367178
2.217010281
2.173265509
2.13160562
2.092420218
2.052152534
2.012071138
1.975148091
1.943688587
1.911826782
1.878506697
1.846367054
1.814811793
1.783586965
1.754711384
1.723922791
1.693016384
1.664237816
1.638077283
1.61333065
1.588103445
1.56639338
1.529112955
2.672382486
2.616807145
2.561096319
2.505174694
2.452268986
2.4003059
2.352886389
2.305630485
2.261575669
2.219362318
2.176754181
2.136886169
2.09765307
2.057043468
2.017543362
1.980890026
1.946145208
1.919686352
1.891465253
1.859767635
1.827924935
1.796501977
1.76246392
1.725595129
1.694250656
1.665808381
1.639691025
1.614795657
1.589500655
1.56774261
1.530489923
2.694613025
2.63484841
2.565716278
2.505894245
2.460235317
2.417074775
2.370192904
2.321240902
2.268388477
2.224027386
2.189934033
2.152191488
2.111244382
2.07057205
2.032209282
1.995150251
1.958718118
1.920017149
1.884619192
1.852197737
1.820502823
1.788181763
1.756669287
1.732296792
1.70494423
1.677263675
1.650799253
1.62543165
1.599828451
1.577618833
1.539778127
2.682498636
2.623785447
2.566315553
2.510916506
2.45861169
2.407901477
2.358638597
2.3107507
2.266629758
2.225543887
2.184518477
2.143047387
2.100852303
2.059827643
2.021019905
1.984103161
1.950495256
1.919389148
1.886217833
1.853848714
1.821938418
1.788840318
1.758223156
1.726889493
1.697031135
1.66899182
1.642732758
1.617650289
1.592232186
1.57001176
1.532221055
2.683036596
2.623930154
2.569609372
2.516198608
2.460876992
2.408752229
2.358564313
2.310741816
2.268326948
2.227424093
2.184959707
2.142745019
2.100704048
2.059674716
2.020359684
1.983409816
1.949432697
1.918901418
1.892987264
1.864729289
1.832509245
1.796844079
1.759805184
1.726573499
1.697035676
1.669327989
1.643127432
1.617988555
1.592456817
1.570044021
1.532183923
2.689540919
2.631300835
2.576076723
2.52063441
2.465791391
2.413296988
2.363033087
2.316829642
2.274624465
2.232193801
2.189165454
2.146443189
2.104009152
2.062534977
2.022912796
1.986052676
1.952460509
1.921902784
1.891264462
1.859588607
1.827288355
1.794737363
1.761767155
1.729482754
1.699747536
1.671990897
1.645700195
1.620386894
1.594624658
1.571937899
1.533925903
2.708222689
2.649135557
2.590808601
2.534018636
2.479801275
2.427891995
2.379166931
2.333814018
2.289651626
2.245891847
2.20304848
2.160475115
2.117748589
2.075618473
2.035657679
1.999028672
1.965411719
1.93244786
1.898773057
1.865719197
1.833275415
1.801823289
1.770665526
1.740035372
1.710968811
1.683375723
1.656800834
1.631001116
1.604808235
1.581893322
1.543708947
2.689717083
2.630783295
2.57258849
2.516175571
2.461913895
2.410339642
2.362530557
2.317609626
2.273403842
2.229908921
2.187462023
2.145346391
2.103010873
2.061181953
2.021573239
1.985399112
1.951835741
1.918510468
1.885124659
1.852256646
1.820411805
1.789372135
1.758069203
1.727617794
1.698849913
1.671649812
1.645586166
1.620267204
1.594369917
1.571371403
1.533229631
)
;

boundaryField
{
    inlet
    {
        type            calculated;
        value           nonuniform 0();
    }
    outlet
    {
        type            calculated;
        value           nonuniform List<scalar> 
71
(
1.23545151
1.246013692
1.247437139
1.250964552
1.26465989
1.263140533
1.265707271
1.282243071
1.284985703
1.287282053
1.297228426
1.307807644
1.311265599
1.318407132
1.3277848
1.331198757
1.340993643
1.349583214
1.3549919
1.359866145
1.363448027
1.373374732
1.376780035
1.380704177
1.385753134
1.388567464
1.398402694
1.401349941
1.407055535
1.41309954
1.416652981
1.424680367
1.426036337
1.43175756
1.432453916
1.438576645
1.446309193
1.447149134
1.450877823
1.462488215
1.46008005
1.462676026
1.467297153
1.472119228
1.47748931
1.489767668
1.485440037
1.486697061
1.496816089
1.492485357
1.492984514
1.495853967
1.500483713
1.502924162
1.509103671
1.507718959
1.50970644
1.511311654
1.515584276
1.526805401
1.522650713
1.52451646
1.534909405
1.529147045
1.530522641
1.539813372
1.532255853
1.532217442
1.533959284
1.543741428
1.533264323
)
;
    }
    bottom
    {
        type            calculated;
        value           nonuniform 0();
    }
    top
    {
        type            calculated;
        value           nonuniform List<scalar> 
31
(
2.689717083
2.630783295
2.57258849
2.516175571
2.461913895
2.410339642
2.362530557
2.317609626
2.273403842
2.229908921
2.187462023
2.145346391
2.103010873
2.061181953
2.021573239
1.985399112
1.951835741
1.918510468
1.885124659
1.852256646
1.820411805
1.789372135
1.758069203
1.727617794
1.698849913
1.671649812
1.645586166
1.620267204
1.594369917
1.571371403
1.533229631
)
;
    }
    obstacle
    {
        type            calculated;
        value           nonuniform 0();
    }
    defaultFaces
    {
        type            empty;
    }
    procBoundary35to29
    {
        type            processor;
        value           nonuniform List<scalar> 
33
(
0.7594443033
0.7566493771
0.7543400464
0.7497093316
0.7439146344
0.7420399604
0.7406870443
0.7530709913
0.8333609978
1.010659672
1.237507407
1.252911471
1.311350025
0.8620675829
0.8554134372
0.8534827073
0.8511985324
0.8457013587
0.8406295936
0.8366449896
0.8320357004
0.8243131103
0.8178647536
0.8137677945
0.809999907
0.8043316544
0.7975446137
0.7928347479
0.7886865595
0.7840786267
0.7771225592
0.7713879881
0.7713879881
)
;
    }
    procBoundary35to34
    {
        type            processor;
        value           nonuniform List<scalar> 
71
(
0.8823077772