/*--------------------------------*- C++ -*----------------------------------*\
  =========                 |
  \\      /  F ield         | OpenFOAM: The Open Source CFD Toolbox
   \\    /   O peration     | Website:  https://openfoam.org
    \\  /    A nd           | Version:  7
     \\/     M anipulation  |
\*---------------------------------------------------------------------------*/
FoamFile
{
    version     2.0;
    format      ascii;
    class       volScalarField;
    location    "4.3";
    object      p;
}
// * * * * * * * * * * * * * * * * * * * * * * * * * * * * * * * * * * * * * //

dimensions      [1 -1 -2 0 0 0 0];

internalField   nonuniform List<scalar> 
22
(
1.013971754
1.047511729
1.015778525
1.012422345
1.013665719
1.046407289
1.019009754
1.013585501
1.016274721
1.037351721
1.022434019
1.019818931
1.020128202
1.022047455
1.019230994
1.018623995
1.018324518
1.016318177
1.017246514
1.016924505
1.014059209
1.014255649
)
;

boundaryField
{
    inlet
    {
        type            fixedValue;
        value           nonuniform 0();
    }
    outlet
    {
        type            zeroGradient;
    }
    bottom
    {
        type            slip;
    }
    top
    {
        type            slip;
    }
    obstacle
    {
        type            zeroGradient;
    }
    defaultFaces
    {
        type            empty;
    }
    procBoundary22to16
    {
        type            processor;
        value           nonuniform List<scalar> 5(1.017616157 1.04398461 1.015192555 1.01177824 1.01177824);
    }
    procBoundary22to17
    {
        type            processor;
        value           uniform 0.9705242547;
    }
    procBoundary22to21
    {
        type            processor;
        value           nonuniform List<scalar> 7(1.033596522 0.9712581083 0.9259773131 1.026178867 1.026178867 1.003034825 0.9722638443);
    }
    procBoundary22to23
    {
        type            processor;
        value           nonuniform List<scalar> 5(0.9705863774 0.9757836701 0.9812013665 0.9812832306 0.9822435526);
    }
    procBoundary22to28
    {
        type            processor;
        value           nonuniform List<scalar> 3(1.009706339 1.012392031 1.011300095);
    }
    procBoundary22to29
    {
        type            processor;
        value           uniform 0.9820428069;
    }
}


// ************************************************************************* //
