/*--------------------------------*- C++ -*----------------------------------*\
  =========                 |
  \\      /  F ield         | OpenFOAM: The Open Source CFD Toolbox
   \\    /   O peration     | Website:  https://openfoam.org
    \\  /    A nd           | Version:  7
     \\/     M anipulation  |
\*---------------------------------------------------------------------------*/
FoamFile
{
    version     2.0;
    format      ascii;
    class       volScalarField;
    location    "4.3";
    object      T;
}
// * * * * * * * * * * * * * * * * * * * * * * * * * * * * * * * * * * * * * //

dimensions      [0 0 0 1 0 0 0];

internalField   nonuniform List<scalar> 
22
(
1.0673454
1.085432502
1.072808343
1.068528267
1.067228949
1.081297126
1.071832898
1.067593263
1.066997664
1.071089649
1.067465743
1.066125923
1.065541905
1.059946224
1.060383437
1.060469487
1.052064914
1.052869077
1.0540032
1.046440738
1.046469217
1.047385127
)
;

boundaryField
{
    inlet
    {
        type            fixedValue;
        value           nonuniform 0();
    }
    outlet
    {
        type            inletOutlet;
        inletValue      nonuniform 0();
        value           nonuniform 0();
    }
    bottom
    {
        type            slip;
    }
    top
    {
        type            slip;
    }
    obstacle
    {
        type            zeroGradient;
    }
    defaultFaces
    {
        type            empty;
    }
    procBoundary22to16
    {
        type            processor;
        value           nonuniform List<scalar> 5(1.067518226 1.08409855 1.072868147 1.068370921 1.068370921);
    }
    procBoundary22to17
    {
        type            processor;
        value           uniform 1.052450135;
    }
    procBoundary22to21
    {
        type            processor;
        value           nonuniform List<scalar> 7(1.089913432 1.06085278 1.030040432 1.058109298 1.058109298 1.04368949 1.029948376);
    }
    procBoundary22to23
    {
        type            processor;
        value           nonuniform List<scalar> 5(1.052366017 1.05313266 1.053089318 1.049669824 1.044690755);
    }
    procBoundary22to28
    {
        type            processor;
        value           nonuniform List<scalar> 3(1.040235985 1.042212659 1.042583039);
    }
    procBoundary22to29
    {
        type            processor;
        value           uniform 1.039200661;
    }
}


// ************************************************************************* //
