/*--------------------------------*- C++ -*----------------------------------*\
  =========                 |
  \\      /  F ield         | OpenFOAM: The Open Source CFD Toolbox
   \\    /   O peration     | Website:  https://openfoam.org
    \\  /    A nd           | Version:  7
     \\/     M anipulation  |
\*---------------------------------------------------------------------------*/
FoamFile
{
    version     2.0;
    format      ascii;
    class       volScalarField;
    location    "5";
    object      p;
}
// * * * * * * * * * * * * * * * * * * * * * * * * * * * * * * * * * * * * * //

dimensions      [1 -1 -2 0 0 0 0];

internalField   nonuniform List<scalar> 
2222
(
0.9805245413
0.9830046315
0.9860895843
0.9884339794
0.9888298842
0.9870210305
0.9841728019
0.9815962232
0.9805551785
0.981634581
0.9849202953
0.9880863306
0.98968648
0.99048212
0.9917670676
0.9921044464
0.9918161793
0.9900762109
0.9878854318
0.9860873182
0.9851119844
0.9852693997
0.9872235762
0.9906690206
0.994635939
0.9985244239
1.001666365
1.00299242
1.003193471
1.002911807
1.002490739
1.0022432
1.001834082
0.9989109046
0.9811680922
0.9833474688
0.9861711681
0.9881232679
0.9893692242
0.9892051244
0.986878308
0.9839294207
0.9824363647
0.982170742
0.9830338379
0.9857949022
0.9895166222
0.9921702053
0.9943116229
0.9952215267
0.9951369939
0.9929518558
0.9895258373
0.9867869645
0.9861846068
0.9871473098
0.9888159526
0.9909366052
0.9927963745
0.9948843011
0.9975750938
1.000563946
1.003391046
1.004865539
1.005152953
1.004998793
1.00434502
1.002614896
0.9824867597
0.984056525
0.9867054756
0.9874915712
0.98845769
0.9893257354
0.9884027969
0.986421857
0.9848238845
0.9827797902
0.9826383326
0.9847519146
0.989246755
0.9939345139
0.9969278348
0.998035341
0.9978372195
0.9959627027
0.9935054439
0.9910370067
0.9897686254
0.9902734987
0.9915750817
0.9923418491
0.992955122
0.9944412346
0.996397459
0.9983023301
1.000872706
1.004235658
1.006358972
1.006677099
1.006423904
1.005907808
0.9837964412
0.9850606522
0.9875121729
0.9874874734
0.987334315
0.9875615497
0.9884421367
0.988183265
0.9865495515
0.9848444149
0.9841315356
0.9851216443
0.9884038074
0.9941507978
0.9991277328
1.000503468
0.9999877659
0.9985258167
0.9966376661
0.9946579073
0.9930528146
0.9923703512
0.9924081036
0.9932429733
0.994946513
0.9967135245
0.9979508978
0.9984139917
0.9989817151
1.000481651
1.003484366
1.006241125
1.00834146
1.008642275
0.9841490669
0.9858831195
0.9880760192
0.9880987073
0.9871231811
0.9864125443
0.9871531495
0.988709513
0.9883407944
0.9874866076
0.985776141
0.9857402147
0.987512538
0.9925763315
0.9994042504
1.002362457
1.001879504
1.000774187
0.9994045886
0.9974039549
0.9955072595
0.9945946441
0.9950686219
0.9966877371
0.9986998969
1.000293665
1.000412857
0.999813433
0.9992436457
0.9995090767
1.000806379
1.002732843
1.005998746
1.008448552
0.9836588018
0.9861454926
0.9884000925
0.989332377
0.9882766061
0.9864306557
0.985833477
0.987469365
0.9893123785
0.9889979489
0.9871797368
0.9862420821
0.9864784558
0.9883276171
0.9933079182
0.9992328286
1.00211676
1.002657914
1.001783518
0.999808101
0.9977413393
0.996921613
0.9977084882
0.9996612684
1.001781009
1.00282528
1.002995846
1.002336345
1.0014695
1.00113176
1.000913995
1.001058929
1.002447097
1.004714449
0.982764853
0.9854031662
0.9884012903
0.9906613402
0.9899020222
0.9871041865
0.9857691141
0.9868160713
0.9892397087
0.9895617712
0.988516194
0.9869477229
0.9853235148
0.9847384723
0.9861612448
0.9906870113
0.9970306144
1.000904355
1.001688334
1.000633596
0.9986800667
0.9975206596
0.9980454361
0.999661974
1.00159278
1.00327661
1.00460551
1.00461736
1.003920264
1.003065279
1.00197412
1.001363577
1.001286059
1.001788811
0.9822577692
0.9843703504
0.9878449734
0.9910787132
0.9909225075
0.9885014126
0.9870363629
0.9874603081
0.9892717441
0.9900334939
0.9894669984
0.9878116814
0.985327848
0.98343985
0.9824109876
0.9835278815
0.9880718456
0.9930910039
0.9964873176
0.9972450379
0.996424211
0.995024325
0.9950902085
0.9963620342
0.9980069011
1.000206846
1.003150217
1.005272855
1.005569071
1.005040735
1.004468576
1.003863719
1.002635042
1.000883737
0.9820868344
0.9835216523
0.9864286277
0.9903852294
0.9912518241
0.9898922564
0.988303739
0.9882270016
0.989622629
0.990704527
0.9903796327
0.9886127444
0.9859345346
0.9833776415
0.9812073552
0.9811052178
0.9835045598
0.9865100581
0.9901338026
0.9928150884
0.9935262342
0.9930505874
0.9928041863
0.9936366081
0.9947089743
0.9959906779
0.998328702
1.002270291
1.006005111
1.007579555
1.007924416
1.007158004
1.004535662
1.000511174
0.9844166965
0.9827076727
0.9828763043
0.984417854
0.9877758409
0.9904078419
0.9903287174
0.9898400874
0.9904580859
0.9912209568
0.9915864898
0.9911653616
0.9893016957
0.9873200525
0.9855923331
0.984408916
0.9841424623
0.984199389
0.9846121819
0.9862854362
0.9894753573
0.9923409666
0.9933053421
0.9934099778
0.99332941
0.993400773
0.9934551014
0.9941143676
0.9965434774
1.001657662
1.007017819
1.009673159
1.009305015
1.006005246
1.001036028
0.9859386517
0.9837611832
0.9819886732
0.9824586898
0.9846785272
0.9883029953
0.990427681
0.991856202
0.9931927125
0.9930954124
0.9925684687
0.9920058175
0.9903461143
0.9893280089
0.9890284394
0.9888668324
0.9884537191
0.9860225044
0.9845758949
0.9851168148
0.9875628161
0.9913217886
0.9938372003
0.9941303587
0.9934440137
0.9930982726
0.9929079918
0.9932540184
0.9945276254
0.997612123
1.002346394
1.00659133
1.008066078
1.006267431
1.002394178
0.9859798941
0.984119501
0.9816652247
0.981479325
0.9829767491
0.9867068169
0.9909592761
0.9940750119
0.9953748963
0.9945004864
0.9932495032
0.9922261793
0.9916269004
0.9917463539
0.992032897
0.9921012884
0.9903754686
0.9885083095
0.9873708605
0.9871706069
0.9880963543
0.9906032143
0.9938225088
0.9951792759
0.9952749663
0.9952770124
0.9954688324
0.9957763316
0.9960850996
0.9969787335
0.9987852789
1.001030362
1.002864817
1.00356862
1.002985302
0.9843260288
0.9832854508
0.9815943825
0.9813351879
0.9825897667
0.9861739512
0.9913816962
0.9956094236
0.9965544713
0.9952246173
0.9933876364
0.9922012626
0.992997347
0.9942733925
0.9948222258
0.9952099053
0.9951801794
0.9937867013
0.9919128436
0.9899441865
0.9896797187
0.9909439416
0.9937681538
0.9964384255
0.9979294632
0.9985139555
0.9990563147
0.9990699182
0.9982237739
0.9972281027
0.9967081062
0.996492754
0.9971121483
0.9989157545
1.00167862
0.9814125274
0.9812974589
0.9817931874
0.9822279988
0.9836903345
0.987035124
0.9915068918
0.9948370596
0.9950954524
0.9938345189
0.9924393523
0.9922699648
0.9944299027
0.9969837684
0.9981436778
0.999091529
0.9996314895
0.9985220099
0.9954065462
0.9931264407
0.9925116686
0.9928810014
0.9942094108
0.9964436265
0.9990880163
1.000854736
1.001706975
1.001541801
1.00023933
0.998355137
0.9965278602
0.9950977076
0.9948742157
0.9959512271
0.9997250573
0.9789697915
0.9791602083
0.9816162613
0.9832164769
0.9850511495
0.9882307036
0.9915695869
0.9928716287
0.9921489379
0.9912825336
0.9913108171
0.992480721
0.995103403
0.9987600759
1.001020896
1.002071662
1.002491476
1.001198865
0.9981024918
0.9966036
0.9957216072
0.9950920033
0.9950785315
0.9961572254
0.9987338387
1.001491002
1.002846946
1.002930967
1.001825148
0.9994415634
0.9963669895
0.9945328637
0.9944313405
0.9955865637
0.9994240101
0.9793242842
0.9788360881
0.9809034978
0.9837301516
0.9862506158
0.9892161444
0.9909748625
0.9902757347
0.9891975007
0.9893373392
0.9908072901
0.9923076683
0.9940736042
0.997083989
1.000753625
1.00284283
1.00333744
1.002544796
1.000772768
0.999235894
0.997968924
0.9970094293
0.9967402698
0.9971191276
0.9986613213
1.00080863
1.001857873
1.001935041
1.00131246
0.9996939468
0.9974834013
0.9966523552
0.997014377
0.9981713404
1.001075983
0.9807487597
0.9796076276
0.9807756402
0.9833528677
0.9868130656
0.9896815016
0.9899682663
0.9882844133
0.9876212209
0.9889257783
0.9909501015
0.9920847505
0.9927335529
0.9941447982
0.9970450446
0.9997351608
1.001504612
1.002448285
1.002268878
1.000451151
0.9992514044
0.9988306636
0.9989316281
0.9992773397
1.000070712
1.00106676
1.00098403
0.9998484899
0.9988300823
0.9987963549
0.9989403776
0.9994229099
1.000193019
1.001128871
1.003106766
0.9840627066
0.9819947327
0.9815024282
0.9824820383
0.9857243025
0.9889371673
0.9892412167
0.9884170827
0.9887688664
0.9904931268
0.992153501
0.9926191452
0.9921382111
0.9914123475
0.9913633784
0.9923875546
0.9948103091
0.997909503
0.9998363586
0.9994190366
0.9993574839
1.000213116
1.001317277
1.002460117
1.002806762
1.002335134
1.000896493
0.9988750551
0.9971511665
0.9967737941
0.9977248638
0.9992077766
1.00083684
1.002822725
1.004945676
0.9870245562
0.9845768558
0.98178851
0.9818315015
0.9838279588
0.9872046364
0.9888517627
0.9896623123
0.9908591383
0.9925540015
0.9936898753
0.9936554781
0.9924216723
0.9903510594
0.9880616626
0.987010278
0.988326027
0.9915120189
0.9947506246
0.9968906025
0.998575304
1.000684032
1.002980315
1.00544003
1.005763051
1.004126836
1.001746301
0.9996429224
0.9976058897
0.9960191677
0.9963007016
0.9976192513
0.9996835835
1.002953684
1.006024706
0.9882528951
0.985754159
0.9819865653
0.9811169567
0.9819436428
0.9847401713
0.9883653774
0.9912312252
0.9932310338
0.9946041199
0.9951235082
0.994859296
0.9934419634
0.9912216194
0.9880022689
0.9854034473
0.985424974
0.9872616545
0.9900266475
0.9931999906
0.9963694765
0.9993832686
1.002410192
1.006144932
1.007669034
1.00609284
1.003947929
1.002060071
0.9997558105
0.9969927842
0.9956327169
0.9962406571
0.9977835784
1.000545304
1.004145655
0.9888140834
0.986004654
0.9820978129
0.980453924
0.9807370807
0.9830417014
0.9875843248
0.9921048355
0.994976619
0.9961930141
0.9964149047
0.9961715863
0.9948526422
0.9928620924
0.9897454276
0.9868727882
0.9856748992
0.9859879789
0.9876627245
0.9907354895
0.9945513791
0.9977988993
1.000669066
1.004390017
1.007600859
1.007716015
1.006528644
1.004849276
1.002324294
0.9989023095
0.9963727007
0.9960593928
0.9968971654
0.9984032834
1.000951576
0.9861144148
0.984321499
0.9821055146
0.9807696225
0.9808213269
0.9828670998
0.9868603933
0.9911773498
0.994304343
0.9959270295
0.9968381706
0.9973375248
0.9963493789
0.994889628
0.9926258486
0.9902872197
0.9881459928
0.9875435611
0.9888795982
0.9918015811
0.9952415304
0.9974158747
0.9987704941
1.000289958
1.003012325
1.0063631
1.007674531
1.007224817
1.005217382
1.002042552
0.9989446744
0.9972282929
0.997256572
0.9975891181
0.9984470611
0.9819943354
0.9819239726
0.9820741776
0.9819390234
0.9818159841
0.9835921245
0.9865146613
0.9893622923
0.991835799
0.9942419688
0.9966529465
0.9985619012
0.9985519585
0.997730603
0.9962169249
0.9941074818
0.9914634159
0.990296674
0.9915227367
0.9942053674
0.9969587928
0.998010755
0.9978999007
0.9972767499
0.9982926218
1.002039046
1.006164973
1.008094279
1.007685477
1.005360906
1.001946814
0.9989640417
0.9980649738
0.9976078995
0.9975647859
0.9794289412
0.9793871938
0.98040831
0.9823099361
0.9832542323
0.9835238348
0.9846810925
0.9860852668
0.9866130803
0.9874018605
0.9903190059
0.9953154461
0.9999603189
1.001724704
1.001215869
0.9999277562
0.9980451475
0.9957071204
0.994389248
0.995175451
0.9970103678
0.9985022123
0.998791101
0.9978888547
0.9964800086
0.9964094815
0.9980942373
1.001438425
1.004955508
1.006981621
1.006817058
1.004433754
1.001262795
0.9997981487
0.9988879101
0.9985266713
0.9787068786
0.9794058463
0.9805936711
0.9826101011
0.9841941309
0.9848776928
0.9853808878
0.9850731156
0.9839355739
0.9836588196
0.9862053046
0.9923687555
0.9996928416
1.004117716
1.00412284
1.003044323
1.001273805
0.9991703486
0.9977226206
0.9980681626
0.9989833437
0.9993614439
0.9991033491
0.9978194326
0.9967952742
0.9967137699
0.997214568
0.9984725132
1.000712181
1.003730012
1.0059405
1.00586367
1.003612679
1.001776279
1.000424027
0.9996886709
0.9811669765
0.9819392763
0.982512334
0.9831562575
0.9840134468
0.9846003038
0.9846937274
0.9835317519
0.9823176421
0.9820776496
0.9840082205
0.9887490381
0.9957159349
1.002665553
1.005245148
1.005215714
1.003671307
1.000930204
0.9983549324
0.9979059634
0.9979712657
0.998138281
0.9986495972
0.9989821208
0.9995402
0.9998937198
0.9993009282
0.998288837
0.9979579357
0.9993380673
1.002337234
1.004758073
1.004682503
1.003197485
1.00173466
1.000769311
0.9846907696
0.985070071
0.9847556946
0.9837487691
0.9831856583
0.9832870876
0.983000179
0.981739941
0.981267031
0.9823530172
0.9843450539
0.9876012536
0.992305531
0.9979251576
1.002162321
1.003944279
1.003523859
1.001052076
0.9974049921
0.9959020777
0.9954181807
0.9960225749
0.9980864964
1.000862818
1.002938735
1.003365274
1.001680326
0.9989381564
0.9970574086
0.997146928
0.9990640916
1.002074538
1.003988956
1.003779319
1.002724276
1.001857989
0.988238691
0.988039428
0.9864015468
0.9832662456
0.9812688798
0.9810235611
0.9809319399
0.9810174659
0.9825903858
0.9851149407
0.9874996139
0.9895502716
0.9916731
0.9938722627
0.9958773141
0.9972358115
0.9970175934
0.9952269247
0.992789888
0.9918652597
0.992146449
0.9941334051
0.998341148
1.003015889
1.005266695
1.005198073
1.003041225
1.000329305
0.9982760617
0.9971718486
0.9972894185
0.9986363796
1.00092481
1.002386811
1.002437273
1.00213177
0.9906370713
0.9898481511
0.9867100875
0.9820528567
0.9792083096
0.9789573926
0.9799014213
0.9818654864
0.984942914
0.9880940838
0.9903498415
0.9916200457
0.9922126175
0.9922577894
0.9918601579
0.9912851976
0.9899483675
0.9887563064
0.9888947032
0.9894199521
0.990600832
0.9931134605
0.9979066787
1.004012289
1.00621419
1.005719941
1.003783072
1.002094272
1.000136385
0.9979414174
0.9966768028
0.9966499386
0.997647504
0.9993969765
1.000752558
1.001531989
0.9904365748
0.9885489288
0.984365275
0.9802714101
0.9779159466
0.9782761343
0.9802122201
0.9837196565
0.9874573316
0.9904333744
0.9923657568
0.9928054294
0.9922348365
0.990725633
0.9887900243
0.9875340624
0.9867241789
0.9869337879
0.9884283913
0.9899629159
0.991397239
0.9933084081
0.9963831837
1.000703026
1.003451856
1.003719283
1.003272593
1.002574314
1.000270627
0.9981288113
0.997173487
0.9961581396
0.9955218195
0.9959154082
0.9977200748
1.000334985
0.9867940143
0.9853220752
0.9831642649
0.9814495037
0.9796045046
0.9792081315
0.9810231512
0.9848187313
0.9891446324
0.9921826173
0.9931117132
0.9928819908
0.9913400403
0.9886801979
0.98666632
0.9865026528
0.9868047544
0.9880639603
0.9901685867
0.9920139876
0.9930984083
0.9941583618
0.9953265928
0.9964780351
0.9979456153
0.9997599842
1.001787766
1.002608934
1.002059964
1.000659841
0.9991059973
0.9967323536
0.9947776391
0.9946114271
0.995976152
0.9991500489
0.9819474194
0.9844748747
0.9846651349
0.9838807378
0.982137193
0.9808177109
0.981877814
0.9846739535
0.9888853996
0.9915561005
0.9915710492
0.9901917201
0.9887007827
0.9877808737
0.9882924665
0.9882738086
0.9888410903
0.9901778778
0.9926708395
0.9950007514
0.9953075039
0.9951146351
0.9943475314
0.9934042588
0.9938535037
0.9961766899
0.9997278038
1.002698381
1.00381852
1.002848709
0.9998399859
0.997678506
0.9967633844
0.9961223385
0.9965473248
0.9986045484
0.9812411429
0.9843538825
0.9864497375
0.9866152411
0.9846862499
0.98240636
0.9825431985
0.9840055314
0.98656498
0.9889573292
0.9902969118
0.9910410537
0.9913899881
0.9910438011
0.9913236104
0.9913486648
0.9916705481
0.9927020294
0.995173329
0.9973867159
0.9973680873
0.9962737343
0.9942306335
0.9922861914
0.9925356693
0.9948742266
0.9982812549
1.001473581
1.004195092
1.004173742
1.002383415
1.00109949
1.000130117
0.9989404189
0.9982245674
0.9985703149
0.9829173383
0.9851671257
0.9863625181
0.9869508466
0.9861138568
0.9831264428
0.9821809271
0.9822937252
0.9835417856
0.9874385198
0.9913400874
0.9933665829
0.9941250799
0.9941732818
0.9942624674
0.9943085316
0.9944394279
0.9949348191
0.996670695
0.998876736
0.9988719074
0.9976601667
0.9960347898
0.9942960039
0.9936516173
0.9953198617
0.9977375548
1.000060217
1.002708924
1.004604444
1.004587831
1.003860091
1.003202975
1.002294512
1.001140818
0.999497428
0.9859266037
0.9872935324
0.9874373054
0.9868231683
0.9852103958
0.9821724291
0.9811790707
0.9813402617
0.9827791349
0.9871093118
0.9925614343
0.9954742083
0.9967759655
0.9970523615
0.997103306
0.9967634961
0.9964689454
0.9962849107
0.996928932
0.9985674494
0.9994904259
0.9990838712
0.9985231958
0.9972655304
0.9956067112
0.9961718946
0.9974570857
0.9986218961
1.000551559
1.003630557
1.005900184
1.006348978
1.006022079
1.005245006
1.003934978
1.001068356
0.9879952098
0.9886661751
0.9880090088
0.9861056679
0.9832006349
0.9812772358
0.9813171985
0.9821933987
0.98377803
0.9863082444
0.990207323
0.9936382875
0.9960609632
0.9975654082
0.9980773663
0.9974423305
0.9966851472
0.996246765
0.9963489214
0.9974859328
0.999164246
0.9997632171
0.9997633119
0.9992553903
0.9978773099
0.9972751428
0.9977606046
0.9981818364
0.9993877012
1.002041915
1.005357755
1.007183343
1.008014287
1.007988676
1.006594685
1.001927477
0.9892890149
0.9887455473
0.9866267438
0.9839441454
0.9817650778
0.9815191414
0.9821930275
0.9832486343
0.9845942009
0.9858412671
0.9876338532
0.9899420593
0.9926316871
0.9950992641
0.9960865236
0.9960216423
0.9958848089
0.9959516902
0.9963157676
0.9968971173
0.9982003391
0.9994187619
0.9999784462
1.000005294
0.9995335313
0.9982474529
0.9981457855
0.9983077753
0.9988184175
1.000327702
1.003457967
1.00612383
1.007547268
1.008084387
1.006673525
1.001769784
0.9872447941
0.9883850794
0.9872256858
0.9852777358
0.9832110015
0.9821153816
0.9823576607
0.983307368
0.9840731698
0.9848903191
0.9855641017
0.9860346187
0.9868558886
0.9887593815
0.9907049922
0.9920293735
0.9931595802
0.9944516283
0.99585039
0.9965912104
0.9966421243
0.9969225057
0.9977368695
0.9986581603
0.9991242486
0.999088292
0.9982033874
0.9982676433
0.9987119002
0.9993083241
1.000424215
1.002688677
1.00483861
1.005597923
1.005444981
1.003905935
1.001128652
0.9841849249
0.9854348856
0.9858123
0.9856781126
0.984529612
0.9835631303
0.983673603
0.9842550634
0.9846516479
0.9849243775
0.9847067251
0.9842040969
0.9843335334
0.9852402823
0.9864993451
0.9882711585
0.9904965394
0.9931598639
0.9957881647
0.9970521933
0.9968803992
0.9964735018
0.9964475294
0.9969793671
0.9975901013
0.9978450414
0.9978862173
0.9983042611
0.9991414916
1.000196292
1.0015046
1.002941043
1.003589552
1.00303412
1.001679199
1.000397706
1.000222504
0.9805789259
0.9832145092
0.9858746668
0.9870393549
0.9869127878
0.9860587344
0.9855073123
0.9849537589
0.9847792299
0.9844036196
0.9837619525
0.9832552802
0.9833202655
0.9835760823
0.984158545
0.9858434713
0.9887474589
0.992511996
0.9959435253
0.9973014101
0.997083091
0.9965042731
0.9960129807
0.9957127914
0.9958030196
0.9963838882
0.99731047
0.9982042149
0.9994608295
1.000978791
1.002491301
1.003074545
1.002319906
1.000694388
0.998961943
0.9980214285
0.998898769
0.9798209258
0.983467045
0.9870526083
0.9887895822
0.9892156169
0.9884185122
0.9871362234
0.9853669387
0.9843870641
0.9838297619
0.9833640945
0.9828248173
0.9826263607
0.9825920495
0.9829593206
0.9846841772
0.9880540876
0.9924792671
0.9960057537
0.9977111287
0.9978572647
0.9974312883
0.9964702981
0.9952459413
0.9946714339
0.995171981
0.9964956382
0.9979188143
0.9997111727
1.00158881
1.002948585
1.002812187
1.0013018
0.9995344405
0.9982045197
0.9973049393
0.9984069792
0.9813142
0.9852302107
0.9884726946
0.9900847565
0.9902797908
0.9888681935
0.9871578437
0.985861494
0.9852963231
0.9852210254
0.9851225715
0.9842394252
0.9834663123
0.9831316392
0.9833467498
0.9847518071
0.9880325969
0.9927047525
0.996484003
0.9984599589
0.9989756984
0.9987652027
0.9974855924
0.9959003527
0.9947439028
0.9945642484
0.9954873128
0.9970830568
0.9991230141
1.000964478
1.002108914
1.001676005
1.000484276
0.9995728337
0.9988449894
0.9982253296
0.9988534215
0.9842126177
0.9869333083
0.9890664253
0.9901059096
0.9894921243
0.9873994365
0.9866034718
0.9864040712
0.9875450915
0.9884739816
0.9884296274
0.9868846181
0.9849479894
0.9841473377
0.9841823544
0.9852715292
0.9884710344
0.9932386576
0.9972063822
0.9994613993
1.000123546
0.9998901812
0.9984704957
0.9968175495
0.995402207
0.9946684002
0.9949283847
0.9960327058
0.9974903806
0.9991628661
1.000809188
1.001084034
1.000749227
1.000422473
1.000346373
1.000252419
1.000288832
0.9865401311
0.9879147082
0.9882414063
0.9873041608
0.9852656785
0.9846620489
0.9859424699
0.9883181521
0.9897412578
0.9906148888
0.9901801011
0.9881141194
0.9861147405
0.9850273031
0.9850033189
0.9861031324
0.9893389947
0.9941056984
0.9984064295
1.000803557
1.001535353
1.001188612
0.9996673224
0.9978509975
0.9961256009
0.9950778242
0.9950409734
0.9954197415
0.9956171125
0.9965146751
0.9984515326
1.000397623
1.001402475
1.002040808
1.002459223
1.002364887
1.002024435
0.986781283
0.9869243797
0.9844874354
0.9814597488
0.9807413751
0.9828958752
0.9863537999
0.9902757961
0.9922884588
0.9929047753
0.9922817085
0.990170658
0.9871692748
0.9857232984
0.9858341115
0.9872160698
0.9904737707
0.9950130556
0.9993237981
1.001969873
1.002939391
1.002429582
1.00071948
0.9988600511
0.9971996472
0.9961935336
0.9957901684
0.9950351098
0.9941472564
0.9943990449
0.9958188327
0.9990572381
1.002097838
1.003683093
1.004294708
1.004263358
1.003633992
0.9841738157
0.9827150004
0.9797192683
0.9787929651
0.9803527797
0.983525762
0.9877200872
0.9915287349
0.9933579967
0.9942701366
0.9933929015
0.991265224
0.9877214119
0.9861912879
0.986395658
0.987818801
0.9913265042
0.9956269386
0.9996479203
1.002318624
1.003363398
1.002698157
1.000908126
0.9993694076
0.9980708055
0.9970922069
0.996017049
0.9942452612
0.9933875235
0.9938000742
0.9952698535
0.9982397604
1.002163663
1.004456801
1.005218847
1.005442853
1.004364412
0.9798451152
0.9794855138
0.9792344256
0.9795792389
0.9813407782
0.9843752895
0.9887030008
0.9928377804
0.9942828909
0.993735647
0.9926782378
0.9906398511
0.9876430683
0.9862058184
0.9863587618
0.9877929509
0.9913409962
0.9954824218
0.9992416218
1.001655888
1.002096924
1.001189576
0.9997228398
0.9990576427
0.998343068
0.9973071804
0.9955533763
0.9941745619
0.9942626247
0.994920412
0.9963626614
0.9989059214
1.001699401
1.003652764
1.004641423
1.005335788
1.004815338
0.9777789281
0.9792523812
0.9800297815
0.9812075749
0.9836076786
0.9861667095
0.9881709995
0.9896995282
0.9902768481
0.9897991715
0.9892581138
0.9884140471
0.9870108596
0.9858683292
0.9859864302
0.9873327477
0.9903570846
0.9942067444
0.9973486125
0.9997019427
0.9997081989
0.9986392858
0.9976934203
0.9977536735
0.9976301575
0.9968490925
0.9955502534
0.9953163278
0.9958579493
0.9966938227
0.998005513
1.000023339
1.001694544
1.002628326
1.003187818
1.003728163
1.004193595
0.977474064
0.9794636864
0.9813868366
0.9838270967
0.9866625099
0.9884929249
0.9888919855
0.9882340207
0.987312706
0.9863083442
0.9858899084
0.9859244511
0.9860726555
0.9859836611
0.9862685552
0.987463882
0.9895919329
0.99253632
0.9951163568
0.9967559981
0.9967738181
0.9963098053
0.9964692638
0.9967819921
0.9965738815
0.9960077665
0.9957743043
0.9965005847
0.9976278707
0.9988698256
0.9999788075
1.001324895
1.002338707
1.00262743
1.002653989
1.00248199
1.002226827
0.9771331523
0.9779513592
0.9805302371
0.9837386173
0.9869756864
0.9887769999
0.9890954941
0.9884709504
0.9867538683
0.9849481163
0.9837202079
0.9836771699
0.9844786478
0.9859629658
0.9865099915
0.9869120305
0.9878327895
0.9895542412
0.9913270776
0.9930206551
0.9941020254
0.9948940514
0.9958245918
0.9967462852
0.9970344536
0.9966941606
0.9958580853
0.9957742273
0.9973939624
0.9993044193
1.00067406
1.001618975
1.002463428
1.002936605
1.002889554
1.002663515
1.002027243
1.000906338
0.9788648396
0.9799105192
0.9823616752
0.9856176812
0.9885512952
0.9898875949
0.9894846123
0.9877265773
0.9845569001
0.983133166
0.9827684045
0.9831317454
0.9842763426
0.986185412
0.9882022835
0.9894427433
0.9898576295
0.9903812121
0.9912870554
0.9926461906
0.993851045
0.9952317927
0.9964737278
0.9976514252
0.9978571088
0.9974702145
0.9965975856
0.9966302688
0.9971384623
0.9983224698
1.000129486
1.001836106
1.002813778
1.00322159
1.003083905
1.002694507
1.001749616
0.999954068
0.9807102974
0.9819837107
0.9836414584
0.9859286072
0.9891674487
0.9912414002
0.9896065554
0.9872579195
0.9861060427
0.9834569766
0.9827198874
0.9833755656
0.9847925466
0.9869726632
0.9898142179
0.9923175605
0.9930958528
0.9929551594
0.9926772338
0.9934622277
0.9946455739
0.9963569287
0.9984520805
1.000045984
1.000014956
0.9994925844
0.9985332513
0.9978046149
0.9977257661
0.9979791742
0.9987498996
1.000529283
1.002051933
1.002925686
1.003085442
1.002857448
1.001337184
0.9996789212
0.98160647
0.982483783
0.9837016148
0.9856777517
0.9883280025
0.9910588609
0.992359016
0.9915602132
0.9903282417
0.9877221114
0.9848645583
0.9848177909
0.9862185225
0.9879039128
0.9904630347
0.9936079943
0.9952535891
0.9953965102
0.9952118379
0.9953912338
0.996180802
0.9980603323
1.000884273
1.003086315
1.003226998
1.002853619
1.002192899
1.00050387
0.9981712528
0.9975986599
0.9975174713
0.9986546809
1.000221652
1.001546491
1.002341031
1.0024281
1.002387662
1.001172801
0.9812488278
0.9820760296
0.983217622
0.9843770975
0.9859010625
0.9896348689
0.9925455763
0.9936522773
0.9940676619
0.9931213993
0.9897327246
0.9872687453
0.9876455763
0.9885038808
0.9903493164
0.9938057283
0.9960786328
0.9969098258
0.9970719089
0.9971041168
0.9975509007
0.9997402578
1.002990923
1.005355098
1.006272605
1.006406842
1.005977372
1.004100315
1.000024254
0.9972253043
0.9967027793
0.9971295766
0.9979768852
0.99919908
1.0008043
1.001915819
1.002831703
1.002953372
0.9793181798
0.9799704154
0.9807671577
0.9813500077
0.9835908372
0.9881381982
0.9928525631
0.9954456837
0.9966548389
0.9964743718
0.9940824556
0.9901080733
0.9885480178
0.9887696715
0.9898790173
0.9930757393
0.9961781137
0.9977628708
0.9983965987
0.9988024389
0.9992846837
1.001632635
1.004870351
1.007027764
1.008373397
1.008665116
1.007734335
1.005265063
1.001709592
0.9978509353
0.9962129944
0.9958608129
0.9961500874
0.9972688815
0.9990328678
1.000940896
1.002846737
1.003913525
0.9766121309
0.9772887275
0.978360295
0.9797154096
0.982861847
0.9872115756
0.9934208494
0.9977551441
0.9986389672
0.997665901
0.9953080727
0.9917897123
0.9889952251
0.9888943826
0.9895665066
0.9921865944
0.996208745
0.9983229544
0.9995977152
1.000648733
1.001287155
1.003149335
1.005582249
1.00734456
1.008533986
1.008878133
1.007709469
1.004970223
1.001762116
0.9993612582
0.9962878493
0.994961327
0.9954376923
0.9966211209
0.9981105156
0.9998980159
1.001945053
1.0044014
0.9746540833
0.9755245565
0.9770630337
0.9790066193
0.9819317247
0.9876220527
0.9939045923
0.9976149649
0.9983598256
0.9970125304
0.9946772044
0.9922772728
0.9894840993
0.989146954
0.9898985355
0.9921081124
0.99553328
0.9983363893
1.000450811
1.001986243
1.002491133
1.00369394
1.005601398
1.006928543
1.007776417
1.008074386
1.006733726
1.004032832
1.001320746
0.9991189138
0.9973446029
0.9960074613
0.9958445614
0.9966379868
0.9979554905
0.9994191853
1.001724827
1.005499854
0.9740081658
0.9746950839
0.9763369065
0.9787432452
0.9824606585
0.9861050854
0.9895947831
0.9926943309
0.9946299031
0.9946675072
0.993470496
0.9915148568
0.9898940994
0.9897909205
0.9910849714
0.9930868288
0.9960233772
0.9993918252
1.001095922
1.001681221
1.002285824
1.003660701
1.005291032
1.006244374
1.006316108
1.006280944
1.004998221
1.002672157
1.000284338
0.9989881309
0.9979628968
0.997270294
0.9973785206
0.9978717151
0.9987102744
1.000196017
1.002304849
1.003949828
0.9743921934
0.9750534528
0.9769361749
0.980023595
0.9835327212
0.9864116245
0.9878952009
0.9886604895
0.9891526149
0.989774685
0.9906085054
0.9904096609
0.9904717446
0.9913173327
0.9933551497
0.9954995146
0.9969903602
0.9977103504
0.9991867151
1.000271271
1.001339783
1.002915047
1.004344642
1.004838419
1.004710174
1.004269202
1.002999556
1.00116834
0.9995457102
0.99857371
0.9980111665
0.9979744141
0.9988116712
0.9999667169
1.001119675
1.002253689
1.003226405
1.003513494
0.9754653337
0.9760088458
0.9781639239
0.9816223313
0.9841652846
0.9857850101
0.9856744018
0.9854716365
0.9857290338
0.9864756735
0.9879663487
0.9894879123
0.9915277366
0.993824713
0.9962860669
0.9973928588
0.9972618763
0.9970631133
0.9974301931
0.9980212706
0.9988800733
1.000188211
1.001066858
1.002067463
1.002508936
1.002226526
1.001219618
0.9999262466
0.9986804451
0.9978136485
0.9979460841
0.9987756033
1.000426008
1.002545525
1.004151334
1.004513397
1.004556577
1.003442128
0.9759404738
0.9764720394
0.9789429795
0.9827662897
0.9842563947
0.9843228027
0.9844695414
0.9848046153
0.9850620696
0.9858967205
0.9873628067
0.9903355509
0.9933125747
0.9954678982
0.9971157663
0.997272816
0.9965576735
0.9958680773
0.995284571
0.9950360206
0.9952065331
0.9957563375
0.9967348876
0.9981746089
0.9991216502
0.9994306206
0.999722395
0.9988362021
0.997934562
0.9975010036
0.9981041534
1.000300451
1.003064231
1.005705757
1.006942393
1.006639708
1.005374632
1.003364873
0.9767957536
0.9774412002
0.9805674396
0.984679772
0.9871282737
0.9862796274
0.9852998204
0.9851572041
0.985642882
0.986527332
0.9879342325
0.9896223619
0.9920067532
0.9946686224
0.9963120247
0.9965020006
0.9955929966
0.9941317405
0.99301503
0.9920585502
0.9921980262
0.9930456488
)
;

boundaryField
{
    inlet
    {
        type            fixedValue;
        value           nonuniform 0();
    }
    outlet
    {
        type            zeroGradient;
    }
    bottom
    {
        type            slip;
    }
    top
    {
        type            slip;
    }
    obstacle
    {
        type            zeroGradient;
    }
    defaultFaces
    {
        type            empty;
    }
    procBoundary17to11
    {
        type            processor;
        value           nonuniform List<scalar> 
34
(
0.9804853894
0.9828587371
0.9860795573
0.9874036509
0.9871695365
0.9845130744
0.9809437923
0.9795275218
0.9798542578
0.9832613003
0.9886381718
0.9906965823
0.9908496906
0.9905697616
0.9901465553
0.989605185
0.9884483324
0.9867855387
0.9844793915
0.9832226442
0.9837834767
0.9852895606
0.9893132903
0.995123318
1.000512274
1.002827934
1.002936808
1.0022707
1.001556072
1.000929408
1.000050875
0.9990395312
0.9982378042
0.9973270038
)
;
    }
    procBoundary17to16
    {
        type            processor;
        value           nonuniform List<scalar> 
65
(
0.9806241813
0.9810321139
0.9815775732
0.9818615318
0.981900457
0.9821515634
0.9820197875
0.9818213311
0.9825372937