/*--------------------------------*- C++ -*----------------------------------*\
  =========                 |
  \\      /  F ield         | OpenFOAM: The Open Source CFD Toolbox
   \\    /   O peration     | Website:  https://openfoam.org
    \\  /    A nd           | Version:  7
     \\/     M anipulation  |
\*---------------------------------------------------------------------------*/
FoamFile
{
    version     2.0;
    format      ascii;
    class       volVectorField;
    location    "0.5";
    object      U;
}
// * * * * * * * * * * * * * * * * * * * * * * * * * * * * * * * * * * * * * //

dimensions      [0 1 -1 0 0 0 0];

internalField   nonuniform List<vector> 
800
(
(3 -5.298373745e-16 0)
(3 3.578495715e-16 0)
(3 6.602544725e-16 0)
(3 6.451061565e-16 0)
(3 7.850139187e-16 0)
(3 1.211772636e-15 0)
(3 9.803652157e-16 0)
(3 -8.025664936e-16 0)
(3 -2.102617766e-16 0)
(3 2.035367559e-15 0)
(3 -7.544531402e-16 0)
(3 5.463204533e-16 0)
(3 5.084623827e-16 0)
(3 -2.932212716e-16 0)
(3 -3.406311595e-16 0)
(3 -6.782361178e-16 0)
(3 -1.031339563e-15 0)
(3 -2.320701823e-15 0)
(3 -1.608472173e-15 0)
(3 1.063104171e-16 0)
(3 -1.199800358e-16 0)
(3 -1.681489047e-16 0)
(3 6.865923762e-16 0)
(3 1.851987808e-16 0)
(3 4.474455567e-16 0)
(3 3.671119401e-16 0)
(3 7.901518203e-17 0)
(3 9.297450083e-17 0)
(3 -6.339508604e-16 0)
(3 -2.4533727e-15 0)
(3 -2.927360206e-16 0)
(3 -1.603555686e-15 0)
(3 3.181819339e-16 0)
(3 3.161030387e-15 0)
(3 4.2475578e-15 0)
(3 5.45309791e-15 0)
(3 4.518184077e-15 0)
(3 3.538151285e-15 0)
(3 2.577355767e-15 0)
(3 8.211097931e-16 0)
(3 -6.650629469e-17 0)
(3 -4.541864557e-16 0)
(3 -6.059007314e-16 0)
(3 2.470530753e-16 0)
(3 7.477685395e-16 0)
(3 1.214775712e-15 0)
(3 1.467283009e-15 0)
(3 2.614563088e-15 0)
(3 3.514318236e-15 0)
(3 4.054555802e-15 0)
(3 -3.521998513e-17 0)
(3 1.19274057e-15 0)
(3 1.181441601e-15 0)
(3 -8.086786004e-17 0)
(3 -1.367980722e-15 0)
(3 -1.006836371e-15 0)
(3 -3.17581375e-17 0)
(3 6.174152496e-16 0)
(3 1.750548272e-15 0)
(3 1.844493493e-15 0)
(3 2.967336456e-16 0)
(3 2.561646226e-15 0)
(3 2.650598444e-15 0)
(3 2.118525375e-15 0)
(3 1.703272525e-15 0)
(3 2.190804699e-15 0)
(3 2.846214542e-15 0)
(3 2.806661218e-15 0)
(3 2.852113456e-15 0)
(3 8.746546278e-16 0)
(3 3.15088782e-16 0)
(3 1.93495498e-15 0)
(3 1.671488217e-15 0)
(3 1.576053297e-15 0)
(3 2.592541299e-15 0)
(3 1.505365894e-15 0)
(3 1.985080615e-15 0)
(3 3.31658026e-15 0)
(3 4.215618241e-15 0)
(3 4.004849829e-15 0)
(3 -4.465712836e-16 0)
(3 -9.450368192e-16 0)
(3 -6.752060211e-17 0)
(3 1.053605914e-15 0)
(3 4.258125885e-16 0)
(3 -1.058592144e-15 0)
(3 -2.033196971e-16 0)
(3 3.424330237e-16 0)
(3 5.16567389e-16 0)
(3 2.57751024e-15 0)
(3 3.066131745e-16 0)
(3 2.268597296e-16 0)
(3 8.564687168e-16 0)
(3 1.755374549e-15 0)
(3 1.42317702e-15 0)
(3 -2.039270224e-17 0)
(3 -1.308176146e-15 0)
(3 -2.408311858e-15 0)
(3 -3.190166826e-15 0)
(3 -1.928032227e-15 0)
(3 2.485723144e-15 0)
(3 3.030680063e-15 0)
(3 2.892503848e-15 0)
(3 2.490809473e-15 0)
(3 2.275672106e-15 0)
(3 2.167758295e-15 0)
(3 3.758460817e-14 0)
(3 1.242081093e-13 0)
(3 3.958425802e-13 0)
(3 4.315194555e-12 0)
(3 2.989526843e-16 0)
(3 1.412298988e-15 0)
(3 2.429616412e-15 0)
(3 9.838369492e-15 0)
(3 1.121748433e-13 0)
(3 8.94615104e-13 0)
(3 7.559643456e-12 0)
(3 1.51886664e-11 0)
(3 3.527800215e-11 0)
(3 9.682491263e-11 0)
(3 -3.286075409e-15 0)
(3 2.768495604e-14 0)
(3 5.339872928e-13 0)
(3 3.702709719e-12 0)
(3 1.890760497e-11 0)
(3 7.259877819e-11 0)
(3 1.763515524e-10 0)
(3 2.589868072e-10 0)
(3 4.419932612e-10 0)
(3 4.096356896e-10 0)
(3 9.011732447e-13 0)
(3 1.536127298e-11 0)
(3 5.813300741e-11 0)
(3 1.873245945e-10 0)
(3 3.71953873e-10 0)
(3 7.220485334e-10 0)
(3 6.91776691e-10 0)
(3 1.281823436e-09 0)
(3 1.11710991e-09 0)
(3 5.408921366e-10 0)
(3 1.531230784e-10 0)
(3 5.536011894e-10 0)
(3 7.341940953e-10 0)
(3.000000001 1.370948281e-09 0)
(3.000000001 1.377447239e-09 0)
(3.000000001 1.634151637e-09 0)
(3 -3.091313109e-10 0)
(3.000000001 4.415987894e-09 0)
(2.999999782 -3.998479332e-07 0)
(2.999999975 -1.41569544e-07 0)
(3.000000002 2.091039379e-09 0)
(3.000000002 2.465839263e-09 0)
(3.000000001 1.174371323e-09 0)
(3.000000013 1.282112104e-08 0)
(2.999999986 -2.922051885e-08 0)
(2.99999986 -1.709791419e-07 0)
(2.999998945 -1.720597762e-06 0)
(2.999995506 -7.106002761e-06 0)
(2.999966302 -6.660905064e-05 0)
(2.999968029 -5.118947546e-05 0)
(3.000000017 2.18910058e-08 0)
(2.999999952 -1.009338647e-07 0)
(2.999999522 -6.67792758e-07 0)
(2.999995582 -7.826794955e-06 0)
(2.999981867 -3.198545466e-05 0)
(2.999926554 -0.0001442329644 0)
(2.999804921 -0.0003871789258 0)
(2.999452214 -0.001174498665 0)
(2.998831107 -0.002627780424 0)
(2.997995141 -0.004557424 0)
(2.999992693 -1.183205417e-05 0)
(2.999943382 -9.479609975e-05 0)
(2.999780709 -0.0004010730543 0)
(2.999341966 -0.001283036929 0)
(2.998493476 -0.003184704418 0)
(2.997009523 -0.006707355631 0)
(2.994755665 -0.01256018396 0)
(2.991601294 -0.02125361576 0)
(2.987419209 -0.03348074842 0)
(2.983745901 -0.04701507674 0)
(2.99859927 -0.002188042737 0)
(2.995410625 -0.007650799124 0)
(2.989833801 -0.01884310299 0)
(2.982436284 -0.03479614949 0)
(2.973633643 -0.05652521766 0)
(2.963188945 -0.08288977308 0)
(2.953303499 -0.1111877427 0)
(2.940924329 -0.1444439098 0)
(2.931913788 -0.1720843055 0)
(2.914063706 -0.222570395 0)
(2.987545761 0.0002712544005 0)
(2.973393387 -0.0122781962 0)
(2.960863036 -0.01184387287 0)
(2.946391567 -0.03553059125 0)
(2.936906775 -0.03948749338 0)
(2.923728314 -0.06476932214 0)
(2.917037922 -0.07259619005 0)
(2.9047909 -0.09825854212 0)
(2.900522244 -0.1076150004 0)
(2.8869765 -0.1372225768 0)
(3 -1.585737412e-12 0)
(2.999999834 -1.915811137e-07 0)
(2.999986374 -1.599070787e-05 0)
(2.999693995 -0.0003476454739 0)
(2.99716285 -0.003312119407 0)
(2.987769909 -0.01270065883 0)
(2.973997445 -0.03108257854 0)
(2.97879899 -0.02638479856 0)
(2.989346506 -0.02074833061 0)
(3.004353684 -0.0149503167 0)
(2.999999999 -1.864038882e-09 0)
(2.999995826 -1.062822521e-05 0)
(2.999841628 -0.0003976974826 0)
(2.998120195 -0.004817262558 0)
(2.991344681 -0.0218339244 0)
(2.9820199 -0.05260569467 0)
(2.985869606 -0.06410878689 0)
(2.987849352 -0.04922604405 0)
(2.993437363 -0.03879328897 0)
(3.012578187 -0.005742577992 0)
(2.999999875 -2.766367148e-07 0)
(2.999916324 -0.0002064434641 0)
(2.998448843 -0.003767213561 0)
(2.991130219 -0.02160295171 0)
(2.976747395 -0.05663309971 0)
(2.97396936 -0.08330707748 0)
(2.978714489 -0.07942976217 0)
(2.988915423 -0.06589177236 0)
(3.007792222 -0.03243569242 0)
(3.027246307 0.0139274013 0)
(2.99999134 -1.939909769e-05 0)
(2.998975233 -0.002415325202 0)
(2.991377316 -0.02104217315 0)
(2.976354447 -0.05853095532 0)
(2.968979859 -0.08121723307 0)
(2.971572508 -0.08259032396 0)
(2.982142507 -0.07256514163 0)
(3.003071166 -0.03449241378 0)
(3.02998369 0.01943232133 0)
(3.038491548 0.05915204924 0)
(2.999731176 -0.0006004695224 0)
(2.992622003 -0.01733166057 0)
(2.975681139 -0.05954237138 0)
(2.961811002 -0.1013456715 0)
(2.963648497 -0.09814808807 0)
(2.972642272 -0.08037097755 0)
(2.995726072 -0.0270297635 0)
(3.018931716 0.01778023086 0)
(3.036301531 0.0471596344 0)
(3.034017113 0.04989856709 0)
(2.996048632 -0.009282658814 0)
(2.974755293 -0.06310363909 0)
(2.960719581 -0.09643351187 0)
(2.961407072 -0.09723694713 0)
(2.972937439 -0.07795329918 0)
(2.996958538 -0.003057341678 0)
(3.011426413 0.03991666074 0)
(3.037738082 0.09137042344 0)
(3.041496132 0.08526834431 0)
(3.031183711 0.06098823378 0)
(2.978325315 -0.05249910611 0)
(2.949958456 -0.1313698095 0)
(2.95204465 -0.1235189799 0)
(2.965399865 -0.08423898806 0)
(2.989908435 -0.007123883788 0)
(3.002111881 0.02927015114 0)
(3.024083935 0.06559404395 0)
(3.029661805 0.06890773879 0)
(3.032771227 0.06914074102 0)
(3.015544206 0.03559164232 0)
(2.947987913 -0.1229827985 0)
(2.946948658 -0.124228599 0)
(2.968485127 -0.06490092786 0)
(2.986223607 0.002983527 0)
(3.011236896 0.1335901631 0)
(3.030611681 0.1200534997 0)
(3.021698561 0.08028341697 0)
(3.021759721 0.04825104631 0)
(3.018483804 0.0254194547 0)
(3.003378081 0.008499863356 0)
(2.917982589 -0.2058169627 0)
(2.934883436 -0.1095195278 0)
(2.981454118 0.01639100394 0)
(3.010757103 0.08903098142 0)
(3.012933151 0.1026024042 0)
(3.015326948 0.08718991528 0)
(3.014489665 0.04717048546 0)
(3.017825343 0.0211060995 0)
(3.013660836 0.008513081863 0)
(3.001631342 0.003167663083 0)
(2.94709841 -0.06606810993 0)
(3.014086616 0.3039574646 0)
(3.060931624 0.2215792686 0)
(3.042209719 0.1482778897 0)
(3.027497295 0.0760652939 0)
(3.006573531 -0.00741414808 0)
(3.01976543 -0.01232589384 0)
(3.024573792 -0.005570172733 0)
(3.022177121 -0.0002968693791 0)
(3.010204217 0.001454748619 0)
(2.9664399 0.3225167438 0)
(3.075042035 0.2919131126 0)
(3.070933095 0.2083096937 0)
(3.050868789 0.04870704414 0)
(3.031684936 0.003101718045 0)
(3.018098174 0.002118525643 0)
(3.022299206 -0.01372331535 0)
(3.032178921 -0.000702089293 0)
(3.030491181 0.002978065845 0)
(3.018555354 0.002716594839 0)
(2.975328825 0.3185718716 0)
(3.062605556 0.2748343987 0)
(3.0719676 0.1614693015 0)
(3.043241771 0.02434248992 0)
(3.033188527 -0.001759766143 0)
(3.025734948 0.001658963347 0)
(3.027915752 -0.01146311234 0)
(3.036504069 -0.0002051469769 0)
(3.034429054 0.002031384347 0)
(3.021655037 0.002004169606 0)
(2.977634668 0.2996161438 0)
(3.046493094 0.2532783529 0)
(3.059776882 0.1273526155 0)
(3.028621835 0.01282459117 0)
(3.031933186 -0.001526244253 0)
(3.032262564 0.004492057431 0)
(3.039165665 -0.007087014626 0)
(3.041770092 0.0003257230817 0)
(3.038851864 0.002688680267 0)
(3.024316884 -0.0002311758096 0)
(2.962031422 0.2727113108 0)
(3.026164625 0.2262786755 0)
(3.038445251 0.09689289683 0)
(3.018751587 0.003477981479 0)
(3.022998051 0.001220537449 0)
(3.028188431 0.006229156931 0)
(3.04216126 -0.005285459057 0)
(3.041944904 -0.0003485160317 0)
(3.037753137 0.001907723526 0)
(3.021357476 0.0003023666841 0)
(2.951539204 0.2459315891 0)
(3.006700188 0.1981761505 0)
(3.003198512 0.06618968131 0)
(3.001255735 -0.001717355608 0)
(3.003214335 0.001258283705 0)
(3.009584492 0.005067545986 0)
(3.028503318 -0.007408166501 0)
(3.029984417 -0.0004466085133 0)
(3.024263835 0.001401585633 0)
(3.006538941 0.002091457025 0)
(2.934216935 0.2118679451 0)
(2.982950147 0.1632832474 0)
(2.964325703 0.03840255686 0)
(2.97056409 0.00157508982 0)
(2.973482257 -0.0006534926172 0)
(2.980739034 -0.0002062202972 0)
(3.000699062 -0.007352896947 0)
(3.003105408 0.001897930325 0)
(2.995536892 0.002535972368 0)
(2.978611896 0.002620893227 0)
(2.898921512 0.1688571016 0)
(2.941473798 0.1379184411 0)
(2.932383187 0.01613203614 0)
(2.931504997 -0.003016197839 0)
(2.936361923 0.0008386484281 0)
(2.945280204 0.004264509653 0)
(2.965891006 -0.004275052019 0)
(2.968103795 -0.0008285950485 0)
(2.959165764 0.0003593347917 0)
(2.945486617 6.804316681e-05 0)
(2.836629197 0.1218373731 0)
(2.876222094 0.09960206461 0)
(2.891965423 0.007012832373 0)
(2.891319037 -0.003002494269 0)
(2.900624254 0.002021820887 0)
(2.913054745 2.000814795e-05 0)
(2.934988879 -0.006211498239 0)
(2.937688182 0.0006817143903 0)
(2.929535203 0.002458595507 0)
(2.919312979 0.001002052167 0)
(2.740647682 0.08156120079 0)
(2.800278856 0.06432098187 0)
(2.850240081 0.005424415018 0)
(2.862412813 -0.003357397928 0)
(2.877591106 -0.001604385699 0)
(2.892008498 0.004859075518 0)
(2.916990433 -0.0008103278554 0)
(2.919421411 0.001217289523 0)
(2.91552301 0.0004694359659 0)
(2.906103578 0.000434018958 0)
(2.667142237 0.0300841091 0)
(2.765192419 0.0279098473 0)
(2.834245724 -0.0008339904609 0)
(2.852221108 -0.003697744478 0)
(2.869556702 -0.002889361938 0)
(2.88521279 0.001209719021 0)
(2.91107467 -0.000981069536 0)
(2.91321773 0.000100086182 0)
(2.911332895 0.001465284275 0)
(2.901725883 -0.0002194748967 0)
(2.664365731 -0.03178309143 0)
(2.756365993 -0.04456001537 0)
(2.837040068 0.0007396045365 0)
(2.852675632 0.002995517296 0)
(2.868868612 0.0004902411883 0)
(2.885327598 0.0008597105765 0)
(2.911988352 0.002080748551 0)
(2.913894657 -0.0005966906565 0)
(2.910681175 -0.0001748088245 0)
(2.903460009 -0.0009334212964 0)
(2.741467467 -0.08238109684 0)
(2.800483405 -0.05048164563 0)
(2.853575996 -0.001731221557 0)
(2.862715752 0.003614685112 0)
(2.877035962 0.001489971246 0)
(2.892680123 -0.003794583357 0)
(2.917927179 0.001406215635 0)
(2.919695193 0.0002334442248 0)
(2.915569216 -0.0007362376275 0)
(2.907150027 9.581426556e-05 0)
(2.837395318 -0.1212440238 0)
(2.883440835 -0.08970920412 0)
(2.891303235 -0.008294925768 0)
(2.890692292 0.002604699353 0)
(2.901276246 -0.000312012813 0)
(2.914344598 -0.0005287395961 0)
(2.935915841 0.004805145242 0)
(2.937550804 -0.0009151214354 0)
(2.932006444 -0.001695511601 0)
(2.921214794 -0.0009693480115 0)
(2.899633678 -0.1685431672 0)
(2.944859549 -0.1367445053 0)
(2.930924606 -0.01757866271 0)
(2.930798185 0.00161807336 0)
(2.937665074 -0.001234812009 0)
(2.947138684 -0.00294458009 0)
(2.966206291 0.003165951961 0)
(2.968397147 -0.00124678955 0)
(2.961893888 -0.002025977646 0)
(2.94808361 -0.001339743736 0)
(2.934743336 -0.2119537948 0)
(2.981350568 -0.1694024185 0)
(2.963737235 -0.04016343136 0)
(2.971008513 -0.0008918907396 0)
(2.974789338 0.001009130852 0)
(2.982524234 -0.0009196740165 0)
(3.001012648 0.007259987977 0)
(3.002790068 0.0002994675136 0)
(2.996610266 -0.0009522771384 0)
(2.979765467 -0.0006760060558 0)
(2.951391024 -0.2461256814 0)
(3.006240196 -0.2019788987 0)
(3.003376744 -0.06730245266 0)
(3.001387192 0.002447132859 0)
(3.004558747 -0.0008797900535 0)
(3.011363252 -0.004149962468 0)
(3.028789545 0.007370537244 0)
(3.028941848 0.0007186999947 0)
(3.023611821 -0.00166758581 0)
(3.005846781 0.0001235145013 0)
(2.962024043 -0.2730958586 0)
(3.026203218 -0.2239229995 0)
(3.038693312 -0.09503695854 0)
(3.01864695 -0.00301847576 0)
(3.024097753 -0.001533650843 0)
(3.029112558 -0.00477992486 0)
(3.041573422 0.00629804658 0)
(3.040546976 0.001259083645 0)
(3.036046399 -0.0005183158036 0)
(3.019951305 -0.002224035041 0)
(2.977633643 -0.2996950704 0)
(3.046514138 -0.2520053254 0)
(3.060316171 -0.1256102106 0)
(3.02863678 -0.01267924916 0)
(3.032333122 0.001300372488 0)
(3.032540526 -0.003687346397 0)
(3.038614436 0.007658485492 0)
(3.04048456 -0.0001348581683 0)
(3.036936715 -0.003067605589 0)
(3.023253812 -0.003056327049 0)
(2.975297081 -0.3185367197 0)
(3.062903491 -0.2753447547 0)
(3.071677181 -0.1620963992 0)
(3.04296092 -0.02435983625 0)
(3.033630388 0.0003651648618 0)
(3.026013168 -0.00232901331 0)
(3.028317097 0.01147113057 0)
(3.035589768 0.0002921502371 0)
(3.033273125 -0.002900830433 0)
(3.020432634 -0.001614322809 0)
(2.966368547 -0.3225101831 0)
(3.075817459 -0.2925199341 0)
(3.070850535 -0.209921172 0)
(3.050590971 -0.04851515926 0)
(3.031656339 -0.004415650935 0)
(3.019174189 -0.002743023124 0)
(3.022314205 0.01421251395 0)
(3.031639639 0.0006821251338 0)
(3.030101606 -0.003388120927 0)
(3.017502549 -0.001650794959 0)
(2.947072527 0.06605279189 0)
(3.014241269 -0.3039214514 0)
(3.060901097 -0.221582383 0)
(3.042141682 -0.1482937253 0)
(3.027523615 -0.07623824284 0)
(3.00686396 0.00760292179 0)
(3.019241518 0.01251694247 0)
(3.024436915 0.005713354942 0)
(3.021983833 0.0003374142009 0)
(3.009923619 -0.001406233904 0)
(2.917981319 0.205815298 0)
(2.93489332 0.1095654867 0)
(2.981543116 -0.01651775904 0)
(3.010774409 -0.08903420232 0)
(3.012917758 -0.1027321828 0)
(3.015131688 -0.08701303952 0)
(3.014558965 -0.04744451261 0)
(3.01800102 -0.02088656477 0)
(3.014165358 -0.008593735084 0)
(3.002206734 -0.00329653989 0)
(2.947988198 0.1229816828 0)
(2.94694789 0.1242336949 0)
(2.968531229 0.064858455 0)
(2.986337094 -0.003014849569 0)
(3.011129947 -0.1337876703 0)
(3.030505633 -0.1200595817 0)
(3.021736465 -0.08040275078 0)
(3.021906455 -0.04834137434 0)
(3.018907896 -0.02558793721 0)
(3.003872589 -0.008508900953 0)
(2.978324825 0.05249889548 0)
(2.949962576 0.1313684939 0)
(2.952059783 0.1235071094 0)
(2.965452266 0.08418311233 0)
(2.989948396 0.006944908329 0)
(3.001978399 -0.02922509757 0)
(3.023974729 -0.06568867269 0)
(3.02958228 -0.06893633825 0)
(3.032837255 -0.06920446219 0)
(3.015795816 -0.0357094658 0)
(2.996048712 0.009282154206 0)
(2.974755315 0.06310886106 0)
(2.960736114 0.09641425524 0)
(2.96143275 0.09720286211 0)
(2.972977152 0.07789105225 0)
(2.996927019 0.002954433558 0)
(3.011313937 -0.04005118884 0)
(3.037575313 -0.09141213758 0)
(3.041409676 -0.08528836904 0)
(3.031147658 -0.06107857009 0)
(2.999731183 0.0006004469727 0)
(2.992621712 0.01733322662 0)
(2.975691324 0.05952712819 0)
(2.961832002 0.1013099464 0)
(2.963672289 0.09810208438 0)
(2.97265008 0.08032079248 0)
(2.995687944 0.02699313706 0)
(3.018826245 -0.0177874561 0)
(3.036073254 -0.04706566329 0)
(3.033863109 -0.04978909811 0)
(2.999991339 1.940188844e-05 0)
(2.998975255 0.00241529057 0)
(2.991379824 0.02103759787 0)
(2.976364927 0.05851068078 0)
(2.968995549 0.08117310187 0)
(2.971583192 0.08254493763 0)
(2.982139953 0.072524676 0)
(3.003039721 0.03446365508 0)
(3.029792228 -0.01933545438 0)
(3.038406623 -0.05901128547 0)
(2.999999876 2.766068478e-07 0)
(2.999916313 0.0002064658067 0)
(2.998449271 0.00376604966 0)
(2.991132402 0.02159669816 0)
(2.976759968 0.05659830377 0)
(2.973973801 0.08327139826 0)
(2.978712004 0.07940186623 0)
(2.988899661 0.06587345193 0)
(3.007728709 0.03248606679 0)
(3.027214678 -0.01380291018 0)
(2.999999999 1.864126907e-09 0)
(2.999995825 1.062964885e-05 0)
(2.999841616 0.0003976947176 0)
(2.998120544 0.004815710098 0)
(2.991346437 0.02182791891 0)
(2.982026353 0.05257211736 0)
(2.985866008 0.06410182227 0)
(2.987830394 0.04921138685 0)
(2.993421151 0.03879474417 0)
(3.012569691 0.005797499814 0)
(3 1.594141418e-12 0)
(2.999999834 1.916907578e-07 0)
(2.999986369 1.599429193e-05 0)
(2.999693929 0.0003476633255 0)
(2.997162858 0.003311387131 0)
(2.987771171 0.01269697232 0)
(2.973995795 0.03106861087 0)
(2.978761396 0.02639586798 0)
(2.989375942 0.02074934016 0)
(3.004339432 0.01496036688 0)
(2.987545764 -0.0002712791039 0)
(2.973393385 0.0122782137 0)
(2.960863044 0.01184387429 0)
(2.946391562 0.03553059392 0)
(2.936906785 0.03948745463 0)
(2.923728319 0.06476929728 0)
(2.917037893 0.07259627898 0)
(2.904790903 0.09825849636 0)
(2.90052222 0.1076150077 0)
(2.886976452 0.1372225204 0)
(2.998599275 0.002188029843 0)
(2.995410603 0.007650839919 0)
(2.989833834 0.01884302631 0)
(2.982436224 0.03479625702 0)
(2.973633704 0.05652510251 0)
(2.963188883 0.08288987226 0)
(2.953303554 0.1111876367 0)
(2.940924271 0.1444440319 0)
(2.931913824 0.172084258 0)
(2.914063693 0.2225704263 0)
(2.999992693 1.183184642e-05 0)
(2.999943381 9.479712707e-05 0)
(2.99978071 0.0004010692809 0)
(2.999341961 0.00128304726 0)
(2.998493486 0.003184679539 0)
(2.997009503 0.006707400139 0)
(2.994755688 0.0125601131 0)
(2.991601251 0.02125372784 0)
(2.987419265 0.03348060321 0)
(2.983745849 0.04701524941 0)
(3.000000017 -2.188914736e-08 0)
(2.999999952 1.009264014e-07 0)
(2.999999522 6.678033606e-07 0)
(2.999995582 7.826774517e-06 0)
(2.999981867 3.19854936e-05 0)
(2.999926554 0.0001442328977 0)
(2.999804921 0.000387179584 0)
(2.999452213 0.001174498023 0)
(2.998831106 0.002627785283 0)
(2.997995145 0.00455741563 0)
(3.000000002 -2.09130736e-09 0)
(3.000000002 -2.466023307e-09 0)
(3.000000001 -1.173520673e-09 0)
(3.000000013 -1.282049999e-08 0)
(2.999999986 2.922228155e-08 0)
(2.99999986 1.70981008e-07 0)
(2.999998945 1.720600028e-06 0)
(2.999995506 7.106017562e-06 0)
(2.999966302 6.660892222e-05 0)
(2.999968027 5.119427905e-05 0)
(3 -1.532860817e-10 0)
(3 -5.53319065e-10 0)
(3 -7.337003927e-10 0)
(3.000000001 -1.369939465e-09 0)
(3.000000001 -1.376247132e-09 0)
(3.000000001 -1.632861442e-09 0)
(3 3.113382568e-10 0)
(3.000000001 -4.413445821e-09 0)
(2.999999782 3.99849241e-07 0)
(2.999999975 1.416112304e-07 0)
(3 -9.010141158e-13 0)
(3 -1.536038221e-11 0)
(3 -5.812599973e-11 0)
(3 -1.872000916e-10 0)
(3 -3.716261997e-10 0)
(3 -7.210932871e-10 0)
(3 -6.905833363e-10 0)
(3 -1.280152469e-09 0)
(3 -1.115329054e-09 0)
(3 -5.39097335e-10 0)
(3 4.239367254e-16 0)
(3 -3.295135991e-14 0)
(3 -5.402509328e-13 0)
(3 -3.710264381e-12 0)
(3 -1.890684309e-11 0)
(3 -7.249487739e-11 0)
(3 -1.76024363e-10 0)
(3 -2.58380826e-10 0)
(3 -4.409841046e-10 0)
(3 -4.085123329e-10 0)
(3 9.406162196e-16 0)
(3 1.107359871e-15 0)
(3 1.777270465e-15 0)
(3 -1.534937435e-15 0)
(3 -1.031163268e-13 0)
(3 -8.864312198e-13 0)
(3 -7.538193602e-12 0)
(3 -1.513064829e-11 0)
(3 -3.51444168e-11 0)
(3 -9.656747026e-11 0)
(3 5.120355145e-16 0)
(3 9.277948961e-16 0)
(3 1.532214012e-15 0)
(3 2.549664599e-15 0)
(3 2.809864761e-15 0)
(3 2.651858274e-15 0)
(3 -3.23759718e-14 0)
(3 -1.176873327e-13 0)
(3 -3.904748662e-13 0)
(3 -4.301111915e-12 0)
(3 -4.024077938e-16 0)
(3 1.209092098e-16 0)
(3 4.771936687e-16 0)
(3 3.424572064e-16 0)
(3 8.122020377e-16 0)
(3 2.665512724e-16 0)
(3 1.587380121e-17 0)
(3 -2.165080138e-15 0)
(3 -2.810419932e-15 0)
(3 -3.455051758e-15 0)
(3 -7.070133851e-16 0)
(3 -4.593453755e-16 0)
(3 -1.902887273e-15 0)
(3 -1.769688654e-15 0)
(3 -1.12468195e-15 0)
(3 2.617839644e-15 0)
(3 4.211304005e-15 0)
(3 2.04856567e-15 0)
(3 8.667841447e-16 0)
(3 -1.03404341e-15 0)
(3 -3.175260466e-17 0)
(3 -1.204968364e-15 0)
(3 -1.407245183e-15 0)
(3 -1.576746883e-15 0)
(3 -2.416383021e-15 0)
(3 -1.208726342e-15 0)
(3 3.145816448e-17 0)
(3 -1.229966954e-15 0)
(3 -5.774631887e-16 0)
(3 -5.531561459e-16 0)
(3 -3.51336931e-16 0)
(3 -1.956982046e-15 0)
(3 -9.882916164e-16 0)
(3 -1.615899825e-15 0)
(3 -3.755389269e-15 0)
(3 -5.628049616e-15 0)
(3 -6.113996221e-15 0)
(3 -3.756881288e-15 0)
(3 -2.498358767e-15 0)
(3 -6.173152785e-16 0)
(3 -1.530475643e-16 0)
(3 3.118305951e-17 0)
(3 -6.513266225e-16 0)
(3 -2.424967665e-16 0)
(3 6.333483105e-16 0)
(3 -1.085003614e-17 0)
(3 -3.552645982e-15 0)
(3 -3.735482488e-15 0)
(3 -4.141973833e-15 0)
(3 -3.089631766e-15 0)
(3 4.221287462e-16 0)
(3 -1.08361486e-15 0)
(3 -1.680543839e-15 0)
(3 -1.589018221e-15 0)
(3 -4.552930885e-17 0)
(3 -3.261836888e-16 0)
(3 -3.926511407e-16 0)
(3 -1.172338008e-15 0)
(3 -2.431494139e-15 0)
(3 -3.420417816e-15 0)
(3 7.061962986e-16 0)
(3 2.429604257e-16 0)
(3 -7.731345208e-17 0)
(3 -1.607882746e-15 0)
(3 -2.179760381e-15 0)
(3 -2.258903913e-15 0)
(3 -1.289296568e-15 0)
(3 -3.80747695e-16 0)
(3 5.505407228e-16 0)
(3 -3.610166034e-16 0)
(3 7.715279193e-17 0)
(3 5.719389237e-16 0)
(3 4.900187538e-16 0)
(3 -5.941852431e-16 0)
(3 -1.617834421e-16 0)
(3 4.145288428e-16 0)
(3 -1.153812895e-16 0)
(3 2.99595036e-16 0)
(3 1.573543255e-15 0)
(3 7.003690747e-16 0)
(3 -2.235687137e-16 0)
(3 -6.912431718e-16 0)
(3 -1.047518845e-15 0)
(3 -9.680324371e-16 0)
(3 4.017066041e-16 0)
(3 1.76837648e-15 0)
(3 9.189247449e-16 0)
(3 7.903067874e-16 0)
(3 3.667451511e-16 0)
(3 6.212652225e-16 0)
(3 5.384434459e-17 0)
(3 -2.586867392e-16 0)
(3 -3.555499358e-16 0)
(3 -6.34351468e-17 0)
(3 -2.240694746e-18 0)
(3 -6.586003398e-17 0)
(3 -9.380101049e-16 0)
(3 -1.210918917e-15 0)
(3 -1.070816145e-15 0)
(3 -3.720120356e-16 0)
)
;

boundaryField
{
    inlet
    {
        type            fixedValue;
        value           uniform (3 0 0);
    }
    outlet
    {
        type            inletOutlet;
        inletValue      uniform (3 0 0);
        value           nonuniform List<vector> 
40
(
(3.009923619 -0.001406233904 0)
(3.002206734 -0.00329653989 0)
(3.003872589 -0.008508900953 0)
(3.015795816 -0.0357094658 0)
(3.031147658 -0.06107857009 0)
(3.033863109 -0.04978909811 0)
(3.038406623 -0.05901128547 0)
(3.027214678 -0.01380291018 0)
(3.012569691 0.005797499814 0)
(3.004339432 0.01496036688 0)
(2.903460009 -0.0009334212964 0)
(2.907150027 9.581426556e-05 0)
(2.921214794 -0.0009693480115 0)
(2.94808361 -0.001339743736 0)
(2.979765467 -0.0006760060558 0)
(3.005846781 0.0001235145013 0)
(3.019951305 -0.002224035041 0)
(3.023253812 -0.003056327049 0)
(3.020432634 -0.001614322809 0)
(3.017502549 -0.001650794959 0)
(3.018555354 0.002716594839 0)
(3.021655037 0.002004169606 0)
(3.024316884 -0.0002311758096 0)
(3.021357476 0.0003023666841 0)
(3.006538941 0.002091457025 0)
(2.978611896 0.002620893227 0)
(2.945486617 6.804316681e-05 0)
(2.919312979 0.001002052167 0)
(2.906103578 0.000434018958 0)
(2.901725883 -0.0002194748967 0)
(3.004353684 -0.0149503167 0)
(3.012578187 -0.005742577992 0)
(3.027246307 0.0139274013 0)
(3.038491548 0.05915204924 0)
(3.034017113 0.04989856709 0)
(3.031183711 0.06098823378 0)
(3.015544206 0.03559164232 0)
(3.003378081 0.008499863356 0)
(3.001631342 0.003167663083 0)
(3.010204217 0.001454748619 0)
)
;
    }
    bottom
    {
        type            slip;
    }
    top
    {
        type            slip;
    }
    obstacle
    {
        type            slip;
    }
    defaultFaces
    {
        type            empty;
    }
}


// ************************************************************************* //
