/*--------------------------------*- C++ -*----------------------------------*\
  =========                 |
  \\      /  F ield         | OpenFOAM: The Open Source CFD Toolbox
   \\    /   O peration     | Website:  https://openfoam.org
    \\  /    A nd           | Version:  7
     \\/     M anipulation  |
\*---------------------------------------------------------------------------*/
FoamFile
{
    version     2.0;
    format      ascii;
    class       volVectorField;
    location    "0.1";
    object      U;
}
// * * * * * * * * * * * * * * * * * * * * * * * * * * * * * * * * * * * * * //

dimensions      [0 1 -1 0 0 0 0];

internalField   nonuniform List<vector> 
2222
(
(3 3.836363376e-14 0)
(2.923858716 -0.008281843609 0)
(2.930046241 -0.00823907026 0)
(2.936275041 -0.008212646632 0)
(2.942302453 -0.008625362524 0)
(2.948366852 -0.009978627193 0)
(2.954149751 -0.008995727995 0)
(2.960256219 -0.006245115749 0)
(2.966280858 -0.00546072709 0)
(2.972189832 -0.004437023263 0)
(2.978211172 -0.003053169901 0)
(2.984577578 -0.003118102319 0)
(2.990545236 -0.002201439712 0)
(2.995487428 -0.0008508947 0)
(2.998624925 -0.0001712652574 0)
(2.999786165 -2.184181821e-07 0)
(2.999988356 6.128066326e-07 0)
(2.999999854 -5.437182808e-09 0)
(3.000000001 1.980065573e-10 0)
(3.000000001 1.984429828e-10 0)
(3.000000001 1.465588154e-10 0)
(3.000000001 1.156049811e-10 0)
(3.000000001 1.111154726e-10 0)
(3.000000001 1.108146409e-10 0)
(3 6.372465783e-11 0)
(3 1.376912007e-11 0)
(3 1.197966627e-12 0)
(3 5.176212852e-15 0)
(2.881166969 0.005738462349 0)
(2.882377174 0.008082903578 0)
(2.887550948 0.005426320842 0)
(2.89412048 0.001344875908 0)
(2.901117414 -0.002816820068 0)
(2.908709341 -0.006321606949 0)
(2.917356489 -0.007973390993 0)
(2.923074877 -0.008209483688 0)
(2.929218287 -0.008034122356 0)
(2.935622628 -0.007725830665 0)
(2.941811158 -0.008064488003 0)
(2.947884077 -0.009322535039 0)
(2.953465661 -0.008992985625 0)
(2.959608162 -0.006870215306 0)
(2.96549816 -0.005462161093 0)
(2.971401049 -0.005063023348 0)
(2.977530954 -0.00470931389 0)
(2.983973158 -0.003753478324 0)
(2.990257465 -0.002201591294 0)
(2.995208308 -0.0003042762554 0)
(2.998415908 2.845249408e-05 0)
(2.999736446 -1.374925233e-05 0)
(2.999984298 -3.817665982e-06 0)
(2.999999774 -9.239584701e-08 0)
(3.000000001 8.758278181e-11 0)
(3.000000001 2.027267815e-10 0)
(3.000000001 1.510292538e-10 0)
(3.000000001 1.144693586e-10 0)
(3.000000001 1.008118859e-10 0)
(3.000000001 9.04270569e-11 0)
(3 5.931787423e-11 0)
(3 1.124128112e-11 0)
(3 5.882048567e-13 0)
(3 -5.387738321e-15 0)
(2.881729855 0.006324706241 0)
(2.882675325 0.008599335841 0)
(2.887415187 0.005972029436 0)
(2.893785738 0.001796661089 0)
(2.900371927 -0.002437043133 0)
(2.907533346 -0.006251531472 0)
(2.916164367 -0.007847324775 0)
(2.922119879 -0.008032859958 0)
(2.928461166 -0.007797570957 0)
(2.934954626 -0.007390808724 0)
(2.941180751 -0.00841724428 0)
(2.947208834 -0.009574735596 0)
(2.952897448 -0.009560480807 0)
(2.958746659 -0.007453780981 0)
(2.964785049 -0.006662048014 0)
(2.970701688 -0.006293926115 0)
(2.976864693 -0.005163367974 0)
(2.983256809 -0.003334006709 0)
(2.989618015 -0.001929798289 0)
(2.994832495 -0.0005839937897 0)
(2.998219779 -0.0001381448365 0)
(2.999679681 -7.727296088e-05 0)
(2.999978919 -7.536224582e-06 0)
(2.999999667 -9.824386596e-08 0)
(3 1.753382656e-10 0)
(3.000000001 2.047207614e-10 0)
(3.000000001 1.541613671e-10 0)
(3.000000001 1.133888901e-10 0)
(3.000000001 9.690445026e-11 0)
(3.000000001 6.531410545e-11 0)
(3 3.636110617e-11 0)
(3 1.19978568e-11 0)
(3 1.690893721e-12 0)
(3 1.001501077e-13 0)
(2.882514219 0.006263117907 0)
(2.88311186 0.008229086879 0)
(2.887574099 0.005947856641 0)
(2.893399158 0.002065438676 0)
(2.899657169 -0.002249241484 0)
(2.9064764 -0.006082217454 0)
(2.914811526 -0.007698868933 0)
(2.921189589 -0.007888168037 0)
(2.927786066 -0.007384664322 0)
(2.93434614 -0.007489867286 0)
(2.94044453 -0.008663788782 0)
(2.94662767 -0.01065243028 0)
(2.952442089 -0.01115606831 0)
(2.958065634 -0.009177029844 0)
(2.964225898 -0.00762785751 0)
(2.970167576 -0.006366622276 0)
(2.976430606 -0.005014288043 0)
(2.982743404 -0.002602826977 0)
(2.988917065 -0.0008293501267 0)
(2.994313898 -0.0009016495351 0)
(2.997988054 -0.0005788215284 0)
(2.999609495 -0.0001141754865 0)
(2.999972519 -5.359979774e-06 0)
(2.999999515 -2.829797915e-08 0)
(3 3.948132194e-10 0)
(3.000000001 2.0551279e-10 0)
(3.000000001 1.592329349e-10 0)
(3.000000001 1.157573753e-10 0)
(3.000000001 9.266630997e-11 0)
(3.000000001 7.357022178e-11 0)
(3 3.125994264e-11 0)
(3 2.420294665e-11 0)
(3 6.830834479e-12 0)
(3 4.026847959e-13 0)
(2.883377997 0.005794773377 0)
(2.883732425 0.0078131014 0)
(2.887873955 0.005786375844 0)
(2.89322593 0.002025679333 0)
(2.898981448 -0.002117036944 0)
(2.905561748 -0.005981894124 0)
(2.913422933 -0.007651297155 0)
(2.920438018 -0.007468286415 0)
(2.927208347 -0.007124307863 0)
(2.933711704 -0.007739133465 0)
(2.939916187 -0.009814266833 0)
(2.945958554 -0.01178471086 0)
(2.951941999 -0.01262181725 0)
(2.957490149 -0.01012125161 0)
(2.963605996 -0.007895314299 0)
(2.969696649 -0.006354675237 0)
(2.975665389 -0.004558591393 0)
(2.982159309 -0.002756295578 0)
(2.98833899 -0.001371912333 0)
(2.993862583 -0.001439537557 0)
(2.997738461 -0.000571716175 0)
(2.99954449 -5.911795191e-05 0)
(2.999964075 -3.604223187e-07 0)
(2.999999261 4.551097856e-08 0)
(2.999999998 4.557608289e-10 0)
(3.000000001 2.114445875e-10 0)
(3.000000001 1.661660259e-10 0)
(3.000000001 1.192403229e-10 0)
(3.000000001 8.514550018e-11 0)
(3.000000001 9.309085991e-11 0)
(3 6.733694158e-11 0)
(3 4.668591778e-11 0)
(3 1.184497788e-11 0)
(3 6.170922912e-13 0)
(2.883848375 0.004566704128 0)
(2.883951873 0.0068510337 0)
(2.888014402 0.005383211168 0)
(2.893184619 0.001813208814 0)
(2.898462813 -0.001864566786 0)
(2.904636661 -0.005646085679 0)
(2.912222153 -0.007313549215 0)
(2.919834443 -0.006915306891 0)
(2.926568742 -0.007375753133 0)
(2.932971499 -0.00865329134 0)
(2.939289518 -0.01025633764 0)
(2.945382708 -0.01194872733 0)
(2.951329591 -0.01265644359 0)
(2.956960474 -0.01044342756 0)
(2.96295996 -0.007666494232 0)
(2.969022801 -0.005845069931 0)
(2.97501567 -0.003927647285 0)
(2.981481489 -0.002858014029 0)
(2.987719253 -0.002549011711 0)
(2.993276358 -0.001539588514 0)
(2.997472315 -0.0004994815668 0)
(2.999462669 -5.426252823e-05 0)
(2.999952993 -1.117385442e-06 0)
(2.999998893 -8.582991258e-08 0)
(2.999999996 -5.830231584e-10 0)
(3.000000001 2.187904239e-10 0)
(3.000000001 1.758261055e-10 0)
(3.000000001 1.267128961e-10 0)
(3.000000001 9.970750524e-11 0)
(3.000000001 1.315476689e-10 0)
(3 1.178075256e-10 0)
(3 5.721032567e-11 0)
(3 1.166036118e-11 0)
(3 5.841712615e-13 0)
(2.884394514 0.003458542152 0)
(2.884512515 0.006258532636 0)
(2.888394704 0.004767503497 0)
(2.893059843 0.001721560728 0)
(2.897923367 -0.001562805761 0)
(2.903812655 -0.004972017683 0)
(2.911008756 -0.006422457196 0)
(2.91929948 -0.006707455064 0)
(2.925838523 -0.007953495359 0)
(2.932322008 -0.009113630418 0)
(2.938724447 -0.01023527823 0)
(2.944917321 -0.01170065298 0)
(2.950711581 -0.01242247012 0)
(2.956322576 -0.0103560783 0)
(2.962276274 -0.007302150136 0)
(2.968455781 -0.005227671934 0)
(2.974570593 -0.00461871991 0)
(2.980787304 -0.003820453003 0)
(2.987146079 -0.003071098696 0)
(2.992939676 -0.0009692236456 0)
(2.997187164 -0.0001930929079 0)
(2.999366893 -7.310087113e-05 0)
(2.999939957 -1.476238126e-05 0)
(2.999998393 -5.812145497e-07 0)
(2.999999993 -2.117198824e-09 0)
(3.000000001 2.234105606e-10 0)
(3.000000001 1.867852928e-10 0)
(3.000000001 1.352478515e-10 0)
(3.000000001 1.196620179e-10 0)
(3.000000001 1.480547925e-10 0)
(3 1.233765633e-10 0)
(3 5.071119569e-11 0)
(3 8.674735629e-12 0)
(3 3.664751277e-13 0)
(2.884942859 0.005822741853 0)
(2.888611759 0.004276189501 0)
(2.892916202 0.00171479871 0)
(2.897340369 -0.001305373761 0)
(2.903019774 -0.003854842868 0)
(2.910052319 -0.005950999896 0)
(2.918692893 -0.007251451348 0)
(2.925090914 -0.008662946423 0)
(2.931724208 -0.009296893226 0)
(2.938154049 -0.01010044037 0)
(2.944443687 -0.01139025078 0)
(2.950101236 -0.01209603568 0)
(2.955683251 -0.01004753411 0)
(2.961628803 -0.006923951257 0)
(2.967876961 -0.005909755055 0)
(2.97388002 -0.005108010478 0)
(2.980099615 -0.004473326894 0)
(2.986619842 -0.002971299192 0)
(2.99256104 -0.001277914704 0)
(2.996891523 -0.0003387545164 0)
(2.99925971 -0.0001765247826 0)
(2.999923585 -2.46939154e-05 0)
(2.999997746 -6.039178023e-07 0)
(2.999999988 -1.154112134e-09 0)
(3.000000001 2.305275066e-10 0)
(3.000000001 1.947566849e-10 0)
(3.000000001 1.479119066e-10 0)
(3.000000001 1.276328569e-10 0)
(3.000000001 1.439517421e-10 0)
(3.000000001 1.185709475e-10 0)
(3 3.882830598e-11 0)
(3 4.428816635e-12 0)
(3 8.341135869e-14 0)
(2.885169613 0.00542322821 0)
(2.888710694 0.003856501468 0)
(2.89268863 0.001506056855 0)
(2.896965268 -0.001273715566 0)
(2.902344165 -0.003178636747 0)
(2.909239039 -0.005697756806 0)
(2.917646 -0.007887005517 0)
(2.924093973 -0.008786905127 0)
(2.931007344 -0.00916215697 0)
(2.937527849 -0.009842593433 0)
(2.943614831 -0.01097832299 0)
(2.949655717 -0.01160749805 0)
(2.955093363 -0.00956431341 0)
(2.961056823 -0.007395814345 0)
(2.967061365 -0.006198243744 0)
(2.973309525 -0.005970914852 0)
(2.979617636 -0.004256954424 0)
(2.986118136 -0.002122717057 0)
(2.992034538 -0.001426327614 0)
(2.996596205 -0.000915291799 0)
(2.999125031 -0.000263372305 0)
(2.999904462 -1.709457894e-05 0)
(2.999996884 -1.700279616e-07 0)
(2.99999998 1.89277407e-09 0)
(3.000000001 2.400012399e-10 0)
(3.000000001 2.017223502e-10 0)
(3.000000001 1.541160664e-10 0)
(3.000000001 1.298452303e-10 0)
(3.000000001 1.290260563e-10 0)
(3.000000001 1.008370367e-10 0)
(3 3.333267341e-11 0)
(3 2.262776813e-12 0)
(3 -3.565440252e-14 0)
(3 -4.201453369e-15 0)
(2.885177693 0.004840458528 0)
(2.888506863 0.003616764318 0)
(2.892352424 0.001157380325 0)
(2.896803311 -0.001399427736 0)
(2.901854757 -0.003353403741 0)
(2.908360156 -0.005990666766 0)
(2.916241147 -0.008312992288 0)
(2.92312121 -0.008899584828 0)
(2.930317612 -0.008995877246 0)
(2.936949229 -0.009481479611 0)
(2.942900846 -0.01033181773 0)
(2.949020712 -0.01107873794 0)
(2.95445539 -0.009903378826 0)
(2.960324448 -0.007562435666 0)
(2.96644375 -0.007262383392 0)
(2.972814668 -0.005751215231 0)
(2.97912717 -0.004221562504 0)
(2.985549666 -0.002197533021 0)
(2.991534734 -0.001883765942 0)
(2.996301415 -0.001100567974 0)
(2.999009645 -0.0001711092116 0)
(2.999880445 -2.866048677e-06 0)
(2.999995531 3.308555284e-07 0)
(2.999999966 4.01666898e-09 0)
(3.000000001 2.426225175e-10 0)
(3.000000001 2.068557832e-10 0)
(3.000000001 1.572740017e-10 0)
(3.000000001 1.271901081e-10 0)
(3.000000001 1.177595005e-10 0)
(3.000000001 6.99914008e-11 0)
(3 2.815884974e-11 0)
(3 4.582334118e-12 0)
(3 6.086142491e-13 0)
(3 7.793111648e-15 0)
(2.885390497 0.00377368613 0)
(2.888327689 0.002736867063 0)
(2.892069256 0.0004541908238 0)
(2.896543783 -0.00198799464 0)
(2.901444799 -0.003992457183 0)
(2.907672574 -0.005539076429 0)
(2.915058132 -0.008250389746 0)
(2.922260617 -0.009087762134 0)
(2.929659704 -0.008887679108 0)
(2.93648246 -0.009173215042 0)
(2.942173183 -0.009917108272 0)
(2.94830722 -0.01042810496 0)
(2.953743973 -0.0102091226 0)
(2.959594394 -0.008799396629 0)
(2.965819344 -0.007309557085 0)
(2.972257037 -0.005673313971 0)
(2.978537072 -0.003448289438 0)
(2.984965218 -0.003346522734 0)
(2.991044744 -0.002164831552 0)
(2.99596165 -0.0009848327821 0)
(2.998853676 -0.0001586710473 0)
(2.999848193 -6.310808715e-07 0)
(2.999993652 2.766392275e-08 0)
(2.999999944 -8.396133838e-09 0)
(3.000000001 2.20718687e-10 0)
(3.000000001 2.126012295e-10 0)
(3.000000001 1.607668136e-10 0)
(3.000000001 1.250083956e-10 0)
(3.000000001 1.064900953e-10 0)
(3.000000001 5.752664922e-11 0)
(3 3.452374043e-11 0)
(3 1.732272824e-11 0)
(3 2.436567383e-12 0)
(3 4.284225582e-14 0)
(2.884962546 0.002718711809 0)
(2.88801611 0.001900664039 0)
(2.892096182 0.0002059333831 0)
(2.896298701 -0.001554662489 0)
(2.901296333 -0.003269082357 0)
(2.907396502 -0.005577177798 0)
(2.91415906 -0.007827618961 0)
(2.921395306 -0.008158154293 0)
(2.929012381 -0.008293641201 0)
(2.935953345 -0.008209283452 0)
(2.941505774 -0.009190795059 0)
(2.947563148 -0.01046796017 0)
(2.953229039 -0.01104757469 0)
(2.958918809 -0.009255975552 0)
(2.965283082 -0.007190504765 0)
(2.971567788 -0.005371521759 0)
(2.977958674 -0.004767421074 0)
(2.984385794 -0.004004450669 0)
(2.990598747 -0.001963469467 0)
(2.995635308 -0.0004162847432 0)
(2.998686747 -9.295339901e-05 0)
(2.999813894 -3.430164781e-05 0)
(2.99999133 -3.369217962e-06 0)
(2.999999912 -4.867512667e-08 0)
(3.000000001 1.98974937e-10 0)
(3.000000001 2.197183796e-10 0)
(3.000000001 1.667656033e-10 0)
(3.000000001 1.267686509e-10 0)
(3.000000001 1.094595937e-10 0)
(3.000000001 8.802983024e-11 0)
(3 6.80080004e-11 0)
(3 3.114706936e-11 0)
(3 3.545573619e-12 0)
(3 5.797956286e-14 0)
(2.884544586 0.001438434469 0)
(2.88742026 0.001378761708 0)
(2.892129408 0.0001570431744 0)
(2.896210992 -0.001517925737 0)
(2.901418196 -0.002923087804 0)
(2.907081558 -0.003976921787 0)
(2.913455863 -0.006074837003 0)
(2.920836954 -0.006848329236 0)
(2.928381572 -0.00672362602 0)
(2.935238515 -0.007301009277 0)
(2.940850353 -0.008777989664 0)
(2.946761603 -0.0103610941 0)
(2.95261156 -0.0111950547 0)
(2.958416929 -0.009470613963 0)
(2.964598128 -0.007007264004 0)
(2.970926857 -0.005816808929 0)
(2.977402787 -0.005617041479 0)
(2.983951057 -0.003674779682 0)
(2.990133771 -0.001865177185 0)
(2.995223052 -0.0003455691272 0)
(2.99852214 -0.0002080486482 0)
(2.999775248 -9.567242234e-05 0)
(2.99998838 -6.443732554e-06 0)
(2.999999869 -6.113148643e-08 0)
(3.000000001 2.11816122e-10 0)
(3.000000001 2.265272466e-10 0)
(3.000000001 1.739842142e-10 0)
(3.000000001 1.309447614e-10 0)
(3.000000001 1.153462357e-10 0)
(3.000000001 1.400868489e-10 0)
(3 9.883940742e-11 0)
(3 3.108700324e-11 0)
(3 3.094567705e-12 0)
(3 4.677628107e-14 0)
(2.883624121 0.0006372927163 0)
(2.886701594 0.001467676745 0)
(2.892220519 0.0001896885147 0)
(2.896332091 -0.001331446022 0)
(2.901422144 -0.002187097239 0)
(2.907000777 -0.002552225119 0)
(2.91297013 -0.003844459384 0)
(2.920220433 -0.00450478411 0)
(2.927586914 -0.00533301118 0)
(2.934549064 -0.007053240855 0)
(2.940112615 -0.00917869021 0)
(2.945937003 -0.01098615983 0)
(2.952206384 -0.01246684437 0)
(2.957685795 -0.009072573324 0)
(2.963861513 -0.007174432978 0)
(2.970404865 -0.006908094156 0)
(2.976980407 -0.005514942799 0)
(2.98341397 -0.003060652725 0)
(2.989568674 -0.001457820118 0)
(2.994768412 -0.001031641345 0)
(2.998273631 -0.000552123016 0)
(2.999727781 -0.0001053975841 0)
(2.999985174 -4.868370121e-06 0)
(2.999999812 -3.81561582e-08 0)
(3.000000001 2.689644486e-10 0)
(3.000000001 2.335468135e-10 0)
(3.000000001 1.844671705e-10 0)
(3.000000001 1.386596363e-10 0)
(3.000000001 1.441794457e-10 0)
(3.000000001 1.611706717e-10 0)
(3 9.449948374e-11 0)
(3 2.582283217e-11 0)
(3 2.157788816e-12 0)
(3 2.145553227e-14 0)
(2.88253949 -7.681544888e-05 0)
(2.886292755 0.002203512452 0)
(2.892292838 0.0008281133407 0)
(2.896371043 -0.0008686422703 0)
(2.901300972 -0.001824367075 0)
(2.906636565 -0.00180390911 0)
(2.912434401 -0.002746549489 0)
(2.919488554 -0.003727412405 0)
(2.92692212 -0.005093972585 0)
(2.933802955 -0.007123122742 0)
(2.93933615 -0.009660593979 0)
(2.945018643 -0.01163383929 0)
(2.951328077 -0.01222824936 0)
(2.956971741 -0.0100158609 0)
(2.963349012 -0.00852525083 0)
(2.969887434 -0.007355477408 0)
(2.976489962 -0.005084160331 0)
(2.982688279 -0.002806276316 0)
(2.988916293 -0.001837057263 0)
(2.994353614 -0.001783740334 0)
(2.998057709 -0.0006081730312 0)
(2.999670727 -7.75764766e-05 0)
(2.999980491 -2.197880717e-06 0)
(2.999999716 3.699971069e-09 0)
(3 3.805446118e-10 0)
(3.000000001 2.348302245e-10 0)
(3.000000001 1.952169939e-10 0)
(3.000000001 1.5659645e-10 0)
(3.000000001 1.551035446e-10 0)
(3.000000001 1.526150021e-10 0)
(3 8.689780624e-11 0)
(3 1.714067141e-11 0)
(3 9.142459335e-13 0)
(3 -3.263340779e-15 0)
(2.885881659 0.003039631826 0)
(2.891919806 0.001237800401 0)
(2.895796578 -0.000865908931 0)
(2.90098193 -0.002125131012 0)
(2.906267228 -0.001760860955 0)
(2.912105304 -0.002730243649 0)
(2.918925519 -0.003857795201 0)
(2.926197826 -0.005294494232 0)
(2.932949987 -0.007354016727 0)
(2.938509713 -0.009805700326 0)
(2.944095967 -0.01189928701 0)
(2.950527027 -0.01328840603 0)
(2.95624585 -0.01129156069 0)
(2.962762672 -0.009467693637 0)
(2.969428073 -0.00713893818 0)
(2.975767361 -0.004803682612 0)
(2.982106659 -0.003568631324 0)
(2.988344715 -0.003209442544 0)
(2.993996976 -0.001722380153 0)
(2.997940184 -0.0005316623454 0)
(2.999617074 -2.204779401e-05 0)
(2.999973843 1.570920628e-06 0)
(2.999999557 5.384567586e-08 0)
(3 4.688743439e-10 0)
(3.000000001 2.444933981e-10 0)
(3.000000001 2.111788597e-10 0)
(3.000000001 1.715104904e-10 0)
(3.000000001 1.567416672e-10 0)
(3.000000001 1.444613942e-10 0)
(3 7.432113573e-11 0)
(3 1.296827508e-11 0)
(3 5.087769865e-13 0)
(3 2.100352347e-15 0)
(2.885246421 0.003148772184 0)
(2.891065677 0.001098035979 0)
(2.895083432 -0.001139359678 0)
(2.900796268 -0.002464333452 0)
(2.906019014 -0.001841409842 0)
(2.911835213 -0.002870790785 0)
(2.918307443 -0.003957499696 0)
(2.925280173 -0.005534014261 0)
(2.932146869 -0.007661903679 0)
(2.937715158 -0.009809927834 0)
(2.943268479 -0.01190146657 0)
(2.949845435 -0.01387228778 0)
(2.955698895 -0.01201646728 0)
(2.962204223 -0.009313104339 0)
(2.968867165 -0.006677355942 0)
(2.975150562 -0.005165378486 0)
(2.981596506 -0.004689113424 0)
(2.98783851 -0.003486556519 0)
(2.993611858 -0.001458909135 0)
(2.997693321 -0.0004218571271 0)
(2.999539059 -9.09666143e-06 0)
(2.999964861 3.179105932e-06 0)
(2.999999317 1.879268451e-08 0)
(2.999999999 -1.625877414e-10 0)
(3.000000001 2.531778893e-10 0)
(3.000000001 2.278197201e-10 0)
(3.000000001 1.768418942e-10 0)
(3.000000001 1.56401831e-10 0)
(3.000000001 1.308254989e-10 0)
(3 5.606459473e-11 0)
(3 1.512082326e-11 0)
(3 2.303469774e-12 0)
(3 1.498768641e-13 0)
(2.884790996 0.002034901361 0)
(2.890303177 0.0001667552162 0)
(2.89465503 -0.001625734188 0)
(2.900720236 -0.002786877605 0)
(2.905797638 -0.002277861281 0)
(2.911496925 -0.003162793983 0)
(2.917935511 -0.004657690653 0)
(2.924544239 -0.005951653779 0)
(2.931254495 -0.007805168104 0)
(2.936858267 -0.009799630181 0)
(2.942624959 -0.01154223175 0)
(2.949186378 -0.01348898131 0)
(2.955223908 -0.01219710728 0)
(2.961640824 -0.009052632767 0)
(2.968084775 -0.006966724474 0)
(2.974558628 -0.005855172908 0)
(2.981019387 -0.005031115919 0)
(2.987586411 -0.003256576188 0)
(2.993232295 -0.001140572318 0)
(2.997391815 -0.0001620052238 0)
(2.999444902 -1.858366934e-05 0)
(2.999953741 -5.841224387e-06 0)
(2.999998995 -4.431973327e-07 0)
(2.999999997 -2.45489615e-09 0)
(3.000000001 2.618747204e-10 0)
(3.000000001 2.385543333e-10 0)
(3.000000001 1.799271079e-10 0)
(3.000000001 1.480279357e-10 0)
(3.000000001 1.115893013e-10 0)
(3 5.535022007e-11 0)
(3 2.800562399e-11 0)
(3 7.106086809e-12 0)
(3 3.926436978e-13 0)
(2.884228261 0.0002694812304 0)
(2.889057158 -0.0002186048187 0)
(2.893996553 -0.001181100975 0)
(2.900381764 -0.002696287706 0)
(2.905939043 -0.003036402536 0)
(2.911521489 -0.003724320171 0)
(2.917268399 -0.004436499826 0)
(2.923949003 -0.006573711422 0)
(2.930416504 -0.007992668747 0)
(2.93610524 -0.009801342775 0)
(2.941820416 -0.01146483245 0)
(2.948452801 -0.01321210548 0)
(2.954541263 -0.01190615697 0)
(2.960904368 -0.009041765512 0)
(2.967301525 -0.007242995197 0)
(2.97386303 -0.006756858592 0)
(2.980510152 -0.004911902413 0)
(2.986981339 -0.002698292903 0)
(2.992802821 -0.001104350916 0)
(2.997107414 -0.0002192402044 0)
(2.999352218 -0.0001711864408 0)
(2.999940946 -3.469034689e-05 0)
(2.999998555 -1.068995986e-06 0)
(2.999999995 -3.315901048e-09 0)
(3.000000001 2.645203629e-10 0)
(3.000000001 2.452315038e-10 0)
(3.000000001 1.837688105e-10 0)
(3.000000001 1.393132803e-10 0)
(3.000000001 1.159094777e-10 0)
(3 8.544455648e-11 0)
(3 4.979894317e-11 0)
(3 1.083357969e-11 0)
(3 4.804920754e-13 0)
(2.883101553 -0.001367539347 0)
(2.887651429 -0.001572894791 0)
(2.893813715 -0.003077403797 0)
(2.900284607 -0.004652433856 0)
(2.905537591 -0.002754098539 0)
(2.911106167 -0.00365919385 0)
(2.91697794 -0.005840658497 0)
(2.923257547 -0.007043355743 0)
(2.929693873 -0.008389568143 0)
(2.93540055 -0.009891748728 0)
(2.941012792 -0.01124475589 0)
(2.947766977 -0.0129953636 0)
(2.953964786 -0.01145779526 0)
(2.960181259 -0.009123596892 0)
(2.966677195 -0.00810968039 0)
(2.973332111 -0.006772264382 0)
(2.979990923 -0.004668530246 0)
(2.986351991 -0.001833147771 0)
(2.992259522 -0.0008529648701 0)
(2.996756848 -0.0007944118798 0)
(2.999237882 -0.0003921850823 0)
(2.999925955 -4.296643782e-05 0)
(2.999998076 -9.358046486e-07 0)
(2.999999992 -2.383429061e-09 0)
(3.000000001 2.668114387e-10 0)
(3.000000001 2.479275045e-10 0)
(3.000000001 1.867892959e-10 0)
(3.000000001 1.501223516e-10 0)
(3.000000001 1.486054437e-10 0)
(3 1.268890713e-10 0)
(3 5.612576471e-11 0)
(3 1.055912776e-11 0)
(3 4.495201967e-13 0)
(2.881796253 -0.00291988545 0)
(2.886197675 -0.003528397627 0)
(2.893091257 -0.005163437089 0)
(2.899362232 -0.006364006307 0)
(2.90536107 -0.005911148738 0)
(2.910896085 -0.006101166323 0)
(2.916468657 -0.007106078052 0)
(2.922740054 -0.008359612398 0)
(2.929046077 -0.008892440681 0)
(2.934779745 -0.009671004285 0)
(2.940332161 -0.01097526376 0)
(2.947122126 -0.01290153294 0)
(2.953399335 -0.01199360695 0)
(2.959571481 -0.009847403998 0)
(2.966228877 -0.008614363115 0)
(2.972879889 -0.006735096957 0)
(2.97931121 -0.004206021214 0)
(2.985754486 -0.002275513037 0)
(2.991709319 -0.001628941459 0)
(2.996450056 -0.001490361994 0)
(2.999115628 -0.0004153016609 0)
(2.999910775 -3.452208747e-05 0)
(2.999997424 -6.200619983e-07 0)
(2.999999986 -7.237722207e-10 0)
(3.000000001 2.714699001e-10 0)
(3.000000001 2.516416656e-10 0)
(3.000000001 1.919081645e-10 0)
(3.000000001 1.579846072e-10 0)
(3.000000001 1.731709781e-10 0)
(3 1.307052207e-10 0)
(3 4.982104282e-11 0)
(3 8.66072223e-12 0)
(3 3.985295244e-13 0)
(2.880558684 -0.003136392308 0)
(2.885507256 -0.00602160877 0)
(2.89245417 -0.01034192866 0)
(2.898685628 -0.01120307705 0)
(2.904803775 -0.01013339904 0)
(2.91062611 -0.009767894189 0)
(2.916143846 -0.01013936131 0)
(2.922255599 -0.009940872888 0)
(2.92854613 -0.009057603141 0)
(2.934234344 -0.009428228278 0)
(2.939729247 -0.01085624623 0)
(2.946516028 -0.01248920942 0)
(2.952661219 -0.01238538425 0)
(2.959096083 -0.01090836884 0)
(2.965761952 -0.008826061668 0)
(2.972311732 -0.006307444401 0)
(2.978632595 -0.003538343073 0)
(2.985064495 -0.0030858045 0)
(2.99120808 -0.002934933253 0)
(2.99620943 -0.001303441959 0)
(2.999024493 -0.0003000456186 0)
(2.999891355 -2.326999191e-05 0)
(2.999996429 -1.68376214e-07 0)
(2.999999977 2.157522125e-09 0)
(3.000000001 2.790472374e-10 0)
(3.000000001 2.559929202e-10 0)
(3.000000001 2.011234912e-10 0)
(3.000000001 1.722377752e-10 0)
(3.000000001 1.746634963e-10 0)
(3 1.28212345e-10 0)
(3 4.842490534e-11 0)
(3 7.196868498e-12 0)
(3 4.228386444e-13 0)
(2.879480155 -0.003208911004 0)
(2.88458252 -0.009085497148 0)
(2.891245925 -0.01315942837 0)
(2.8976788 -0.01408338366 0)
(2.904514808 -0.01313526069 0)
(2.910615103 -0.01266107579 0)
(2.915893663 -0.01196246007 0)
(2.922034431 -0.01061571703 0)
(2.928044184 -0.00900305494 0)
(2.933623881 -0.009308914935 0)
(2.939165197 -0.01087199985 0)
(2.945770689 -0.01291002532 0)
(2.952215124 -0.01338587644 0)
(2.958655367 -0.01131159087 0)
(2.965271358 -0.008521018247 0)
(2.97172486 -0.005736353327 0)
(2.978115453 -0.004642092162 0)
(2.984479108 -0.004656898002 0)
(2.990728116 -0.003126133488 0)
(2.995887364 -0.001101864011 0)
(2.998880408 -0.0001894673081 0)
(2.999864614 -9.389123701e-06 0)
(2.999994959 3.5982523e-07 0)
(2.999999961 3.522731823e-09 0)
(3.000000001 2.775784735e-10 0)
(3.000000001 2.613212249e-10 0)
(3.000000001 2.146540617e-10 0)
(3.000000001 1.76763736e-10 0)
(3.000000001 1.714393526e-10 0)
(3.000000001 1.213548453e-10 0)
(3 4.549791563e-11 0)
(3 6.649505435e-12 0)
(3 5.607055747e-13 0)
(2.882585503 -0.01165170713 0)
(2.889365888 -0.01492911243 0)
(2.896488729 -0.01428937916 0)
(2.903939426 -0.0139322028 0)
(2.910514548 -0.01328318195 0)
(2.915725868 -0.012348461 0)
(2.921791427 -0.01065087811 0)
(2.927548464 -0.00895155781 0)
(2.933075783 -0.009385763488 0)
(2.938691675 -0.01101212963 0)
(2.945075075 -0.01293689102 0)
(2.951811982 -0.01360599859 0)
(2.958169189 -0.010999089 0)
(2.964849154 -0.007991520854 0)
(2.971261699 -0.006531586514 0)
(2.977604018 -0.006424565855 0)
(2.984041372 -0.004970986481 0)
(2.990305306 -0.00297590812 0)
(2.995581415 -0.0008434730832 0)
(2.998733633 -4.03069136e-05 0)
(2.999833088 6.229243958e-06 0)
(2.999992999 -7.091270551e-08 0)
(2.999999937 -1.744587483e-08 0)
(3.000000001 2.250546284e-10 0)
(3.000000001 2.646255879e-10 0)
(3.000000001 2.243681622e-10 0)
(3.000000001 1.803992909e-10 0)
(3.000000001 1.693563136e-10 0)
(3.000000001 1.164886531e-10 0)
(3 4.354185368e-11 0)
(3 6.699138355e-12 0)
(3 7.492271501e-13 0)
(2.881282662 -0.0138008015 0)
(2.887689911 -0.01588854988 0)
(2.895243716 -0.01417721947 0)
(2.903078076 -0.01411920985 0)
(2.91025399 -0.01317653328 0)
(2.915468669 -0.01220217592 0)
(2.921467762 -0.01060301405 0)
(2.927249501 -0.008887253952 0)
(2.932600213 -0.009466883204 0)
(2.938078042 -0.01069497215 0)
(2.944648101 -0.01237014877 0)
(2.951215578 -0.01316960442 0)
(2.957754527 -0.01057585174 0)
(2.964366543 -0.00861593092 0)
(2.970733162 -0.007888850502 0)
(2.977093494 -0.007194731944 0)
(2.983578276 -0.004720232402 0)
(2.98979877 -0.00236712604 0)
(2.995195781 -0.0007251633584 0)
(2.998540352 -2.723966997e-05 0)
(2.999793426 -1.271386191e-05 0)
(2.999990665 -3.861633084e-06 0)
(2.999999907 -8.148492422e-08 0)
(3.000000001 1.705382798e-10 0)
(3.000000001 2.669483058e-10 0)
(3.000000001 2.295016955e-10 0)
(3.000000001 1.78879121e-10 0)
(3.000000001 1.542500407e-10 0)
(3.000000001 1.12440798e-10 0)
(3 3.642071569e-11 0)
(3 8.33526665e-12 0)
(3 1.041163657e-12 0)
(3 1.473452936e-14 0)
(2.879984506 -0.01489299228 0)
(2.886200285 -0.01622665074 0)
(2.893724042 -0.01395327707 0)
(2.902132377 -0.0140003689 0)
(2.909795532 -0.01296425776 0)
(2.91522004 -0.01207802496 0)
(2.921227967 -0.01061242392 0)
(2.92685471 -0.008774819805 0)
(2.931910475 -0.009233622669 0)
(2.937457379 -0.01053741919 0)
(2.943717781 -0.01208740319 0)
(2.950633977 -0.01241478291 0)
(2.957326259 -0.01119362565 0)
(2.963808687 -0.009519057397 0)
(2.970239809 -0.009140403162 0)
(2.976647128 -0.006976202954 0)
(2.983078966 -0.004436475547 0)
(2.989411784 -0.001595334575 0)
(2.9947459 -0.0006079530308 0)
(2.998305742 -0.0003104247721 0)
(2.999735345 -0.0001133977595 0)
(2.999987422 -9.018671683e-06 0)
(2.999999867 -9.732287883e-08 0)
(3.000000001 1.904705403e-10 0)
(3.000000001 2.693349791e-10 0)
(3.000000001 2.335196463e-10 0)
(3.000000001 1.788707124e-10 0)
(3.000000001 1.381892471e-10 0)
(3.000000001 8.006698536e-11 0)
(3 4.053482873e-11 0)
(3 1.273137013e-11 0)
(3 1.656854937e-12 0)
(3 2.844866559e-14 0)
(2.878231805 -0.01448925705 0)
(2.884279895 -0.01535810923 0)
(2.892129628 -0.01355862122 0)
(2.900996899 -0.01379661993 0)
(2.909034458 -0.01313635268 0)
(2.914737929 -0.01221375359 0)
(2.92094221 -0.01059775044 0)
(2.926115574 -0.009271627461 0)
(2.931171132 -0.009276980999 0)
(2.936555943 -0.01062226785 0)
(2.942751061 -0.01143446987 0)
(2.950020742 -0.01310563193 0)
(2.956661914 -0.01166045527 0)
(2.963378732 -0.01117209161 0)
(2.969846203 -0.00919524032 0)
(2.976166013 -0.006509928972 0)
(2.982532668 -0.003868732511 0)
(2.988849349 -0.001873230406 0)
(2.994322467 -0.0009971431308 0)
(2.998100803 -0.0008450962806 0)
(2.999683501 -0.000182353738 0)
(2.999983461 -9.325564725e-06 0)
(2.999999813 -7.309045906e-08 0)
(3.000000001 2.216501589e-10 0)
(3.000000001 2.706404622e-10 0)
(3.000000001 2.386933777e-10 0)
(3.000000001 1.824034724e-10 0)
(3.000000001 1.520231931e-10 0)
(3.000000001 1.074031213e-10 0)
(3 6.549822412e-11 0)
(3 2.343747509e-11 0)
(3 2.940464609e-12 0)
(3 5.438718602e-14 0)
(2.876708206 -0.01306836706 0)
(2.882227038 -0.01340381741 0)
(2.8901426 -0.01302920758 0)
(2.899814108 -0.01387288187 0)
(2.907884734 -0.0134236616 0)
(2.914112018 -0.01249700984 0)
(2.920134187 -0.01077630375 0)
(2.925301076 -0.01001958154 0)
(2.93014233 -0.009535405179 0)
(2.9353834 -0.01035534321 0)
(2.941688284 -0.01199371341 0)
(2.949092715 -0.0134772401 0)
(2.956215495 -0.01357480647 0)
(2.963040743 -0.01156722974 0)
(2.969470586 -0.009067612466 0)
(2.975692419 -0.0061012796 0)
(2.98184467 -0.003018946543 0)
(2.988091265 -0.001996220283 0)
(2.993907162 -0.001924053196 0)
(2.997939029 -0.0009691554424 0)
(2.999654707 -0.0001704517366 0)
(2.999979557 -6.877417986e-06 0)
(2.999999723 -3.98808888e-08 0)
(3.000000001 2.630989475e-10 0)
(3.000000001 2.676419221e-10 0)
(3.000000001 2.366434012e-10 0)
(3.000000001 1.860177406e-10 0)
(3.000000001 1.612787396e-10 0)
(3.000000001 1.630078928e-10 0)
(3 1.094994032e-10 0)
(3 3.523391171e-11 0)
(3 4.054024895e-12 0)
(3 7.545464806e-14 0)
(2.875741847 -0.008131733977 0)
(2.880080886 -0.01097532765 0)
(2.888008336 -0.0131481812 0)
(2.898248379 -0.01396774645 0)
(2.906413046 -0.01362641857 0)
(2.913041528 -0.01291388231 0)
(2.918838343 -0.01177617933 0)
(2.924078571 -0.01019104268 0)
(2.928687096 -0.009253331461 0)
(2.933847239 -0.00991698295 0)
(2.940342087 -0.01203365342 0)
(2.948366496 -0.0149571993 0)
(2.955883072 -0.0140582541 0)
(2.962757485 -0.01150516489 0)
(2.969133002 -0.008311637655 0)
(2.975233305 -0.005508613301 0)
(2.98129041 -0.003668377494 0)
(2.987547911 -0.003495823072 0)
(2.993419255 -0.002599721244 0)
(2.997700455 -0.000861374563 0)
(2.999589359 -0.000136684351 0)
(2.999973382 -4.867563609e-06 0)
(2.999999588 4.002348512e-09 0)
(3 3.166788335e-10 0)
(3.000000001 2.765579264e-10 0)
(3.000000001 2.489197448e-10 0)
(3.000000001 1.99157207e-10 0)
(3.000000001 1.946205994e-10 0)