/*--------------------------------*- C++ -*----------------------------------*\
  =========                 |
  \\      /  F ield         | OpenFOAM: The Open Source CFD Toolbox
   \\    /   O peration     | Website:  https://openfoam.org
    \\  /    A nd           | Version:  7
     \\/     M anipulation  |
\*---------------------------------------------------------------------------*/
FoamFile
{
    version     2.0;
    format      ascii;
    class       volScalarField;
    location    "3";
    object      p;
}
// * * * * * * * * * * * * * * * * * * * * * * * * * * * * * * * * * * * * * //

dimensions      [1 -1 -2 0 0 0 0];

internalField   nonuniform List<scalar> 
2222
(
1.010206566
0.9918086291
0.9789317653
0.9714153524
0.9700377996
0.9758958749
0.9742806824
0.9735267987
0.9760774299
0.9814716203
0.9896599788
0.9947427186
0.994393307
0.9935731608
0.9914558911
0.9925395011
0.9946743482
0.9985518668
0.5029067216
0.7513864279
0.9611828734
1.013426504
1.022571884
1.00901737
0.9923635254
0.9810891454
0.9706045592
0.9675182261
0.9693867169
0.9705520406
0.9731844781
0.978962337
0.9863591424
0.9924797923
0.9942773702
0.9920151539
0.9894276948
0.9875141187
0.9891298385
0.9924403172
0.9967857795
0.47299407
0.6685592143
0.8917108123
0.9797693623
0.9955779775
0.9930103167
0.9831586466
0.9775668276
0.9711395701
0.9641495871
0.9635105952
0.9670118776
0.9751066928
0.9836367838
0.9900299778
0.9954497522
0.9975492764
0.9970892137
0.9949787724
0.9928080908
0.9920377513
0.9935465676
0.9977250916
0.4444732414
0.5681892237
0.8181329627
0.9457014993
0.988484302
0.9896785178
0.9897297481
0.9879160273
0.9836503555
0.9728959587
0.9739524153
0.9738918705
0.9805287356
0.9879802898
0.9912960896
0.9931511687
0.9933898264
0.9929509695
0.9921080109
0.9906550956
0.9897198366
0.9904081558
0.9942936701
0.4060264345
0.4834383135
0.7180691392
0.9272849087
0.969291836
0.9974693879
1.000365389
0.9907796221
0.9783377266
0.967002369
0.9674299046
0.9684127933
0.9716045547
0.9738723194
0.9775447178
0.9809164733
0.9832170472
0.9851350249
0.9872594554
0.9877798654
0.9895369304
0.9925892389
0.9970911742
0.3677878791
0.4086117417
0.5665986627
0.888775533
0.9814514609
0.9864121948
0.9870398037
0.9775238496
0.966038943
0.9574291496
0.9584497876
0.9612276482
0.9630401885
0.9663129439
0.973880314
0.9810119172
0.9873607751
0.9924964686
0.9964704318
0.9971695624
0.9999668918
1.001728901
1.00369146
1.004453041
0.3309395006
0.3568944501
0.4476281141
0.7510537635
0.9874956861
0.9975821354
0.9782859202
0.9661715121
0.9555571319
0.9487413051
0.956427451
0.9595795693
0.9626509516
0.9712788311
0.9810848751
0.9899810345
0.9972779784
1.001668205
1.002166675
0.9994953108
0.9969663767
0.9955619732
0.9969667749
0.997709366
0.3001682381
0.3080096529
0.3578087737
0.565937709
0.9367953442
1.012002864
0.9991137656
0.9787547492
0.9631237367
0.9572944756
0.961643835
0.9683490154
0.9689861596
0.9759512175
0.9834418751
0.9914133964
0.9956626281
0.9979439344
0.9973511955
0.9943375423
0.9904114509
0.989373476
0.9916784445
0.9925236605
0.2805756811
0.2816590781
0.2862993977
0.4172973021
0.7459382623
0.9994731598
1.010870061
0.9971934571
0.9809093215
0.9718696142
0.9734851439
0.9669599089
0.9694454514
0.9759683628
0.9826387658
0.9897062017
0.9932326308
0.992788026
0.9911582136
0.9892985862
0.9887407998
0.9893479494
0.9927965087
0.9937074278
0.2764971399
0.2775429952
0.2752956998
0.2909781921
0.562866692
0.8989162789
1.011869879
1.007199507
0.9954047246
0.979021695
0.9682463479
0.9656393798
0.9720241408
0.9769634127
0.9812264337
0.9838473374
0.9848197152
0.9848978097
0.9876849805
0.9892266232
0.9923306504
0.9957086347
0.9991187268
0.9989974729
0.2757111775
0.277028304
0.2773646018
0.2749735415
0.3902815285
0.734654288
0.9726621042
1.002051022
0.9916598485
0.9690930851
0.960290768
0.9649859789
0.9709834563
0.9716748909
0.972678106
0.9726849779
0.9767721727
0.984018014
0.9900274909
0.9955104626
1.000063035
1.000429743
1.001158545
0.9999107131
0.2757909047
0.2777069903
0.2768322172
0.2740089219
0.286368348
0.5988769759
0.8796828135
0.9578510741
0.9643666665
0.9559422681
0.9569952505
0.9677579771
0.9677045549
0.9640291785
0.9643621547
0.9685723678
0.9774010927
0.9887171675
0.9974571366
1.000285469
1.001641084
1.000225948
0.9996094149
0.9984460242
0.9975041008
0.2768400911
0.2780536528
0.2752466524
0.2761441805
0.2759230708
0.4011116025
0.7986476996
0.9290895384
0.9535987853
0.9522115872
0.9651926563
0.9705329157
0.9613530428
0.9593764457
0.9625801633
0.9716458765
0.9834242585
0.9945784088
0.9999223884
1.000341065
0.9992582537
0.9982291594
0.9968834156
0.995452454
0.9944989368
0.2777201026
0.2779557674
0.2744060403
0.2753027622
0.2743300061
0.2899412808
0.6339124339
0.9185668374
0.958084985
0.9653569253
0.9727260444
0.9663589617
0.9571979231
0.9604571278
0.967519564
0.9786490951
0.9885802944
0.9960783449
0.9971240649
0.9946913048
0.9941786441
0.994110981
0.9941068512
0.9927870579
0.9921826482
0.2779530418
0.2776053777
0.2744426133
0.2741708533
0.2761997984
0.2750128945
0.4059529599
0.8509947752
0.9778434517
0.979736254
0.9782575869
0.9585055063
0.9607738422
0.9671721641
0.9758765245
0.9829228318
0.9885121043
0.9874586524
0.9874345142
0.9895095243
0.9928530617
0.9937866808
0.9948541058
0.9934311225
0.9929178065
0.2779629059
0.277503396
0.2743710841
0.2741367506
0.2757766541
0.2741815882
0.2980961427
0.6543786313
0.9629152324
0.9848986852
0.9674882001
0.9578268965
0.969422933
0.9741471369
0.9774619018
0.9776290156
0.9764674664
0.9776535375
0.9824155852
0.988701151
0.9953538014
0.9968023481
0.9974587081
0.9958127749
0.9953246232
0.2779527474
0.2775436146
0.2743637338
0.273829764
0.2746660881
0.2756433934
0.2754525157
0.4453927643
0.8241099916
0.9716368574
0.9480074899
0.965020787
0.9748328899
0.9741630692
0.9689881807
0.9658491707
0.9675279549
0.9736748784
0.9835866476
0.9931445737
0.9989591357
0.9991723126
0.9992336826
0.9975726093
0.9971461843
0.2774927437
0.2775673096
0.2753436691
0.2735127015
0.2740581565
0.2769365693
0.2748813886
0.3127392648
0.6582304447
0.9029261691
0.9438693106
0.9666450087
0.9744559037
0.9642101057
0.9594637863
0.9617764141
0.9680598933
0.9779558097
0.9897141925
0.9973512673
1.000348339
0.9985761368
0.9985415565
0.9968276768
0.9964486777
0.2756785027
0.2775332558
0.276256664
0.2728039727
0.273909598
0.2769868728
0.2742692197
0.2787077684
0.5099136787
0.8453274523
0.9524524072
0.9729675744
0.9654525603
0.9542867915
0.9582005924
0.9663722297
0.9746880048
0.9839498136
0.9932572099
0.9945290298
0.9959551207
0.9954711774
0.9950978014
0.9925292441
0.9924542783
0.9911286159
0.2747932281
0.2778792792
0.2767139699
0.2726892862
0.2736767222
0.2762517743
0.2773174425
0.2761791052
0.3391138654
0.7583871486
0.9530407311
0.9747181582
0.9506039796
0.9564097245
0.9651614021
0.9743247266
0.9805166781
0.9847765732
0.9874670383
0.9884027607
0.9901913214
0.9911792592
0.9913864966
0.9885340059
0.9885866312
0.9878518784
0.2746892337
0.2784825967
0.2769105932
0.2730933634
0.2731786102
0.2754230012
0.2775319494
0.2745438564
0.2821010046
0.5440662107
0.893253707
0.9479409727
0.9512080854
0.9660126823
0.9748314604
0.978144816
0.9776879107
0.9774519088
0.978213295
0.9819193919
0.9877587412
0.9908870602
0.9914991103
0.9889072541
0.9892023358
0.9888781357
0.2749067924
0.2786275198
0.2769472594
0.2737624579
0.2731878021
0.2748841583
0.275083467
0.2756308155
0.2756406511
0.3662495828
0.735119064
0.9156082665
0.9579047321
0.9761964097
0.9762684152
0.9719901356
0.9662920253
0.9672267951
0.972464104
0.9814709031
0.9906513718
0.9933068051
0.9930044914
0.9908486676
0.991888277
0.9923840643
0.275030066
0.2786372747
0.2768737422
0.2738927092
0.2727504182
0.2735567207
0.2739610599
0.2756681204
0.2753925174
0.2934239309
0.6100504652
0.904849253
0.9696159688
0.9754926355
0.9702827182
0.957959357
0.9587504745
0.9652721296
0.9765828919
0.9858419766
0.9944694385
0.9937780606
0.9939834502
0.9930217734
0.9947156081
0.9951266823
0.2750228582
0.2785870616
0.2766730003
0.2738875644
0.2715343834
0.2723979974
0.2734406286
0.2742416786
0.2745629722
0.2747983028
0.4414703222
0.8513496564
0.9656008762
0.9715718932
0.9539604779
0.9548500629
0.9621392569
0.9732206874
0.9822753024
0.9882910486
0.9921142681
0.9926721215
0.9940816995
0.9936714917
0.9952128937
0.9945878308
0.2748445051
0.2784552258
0.2761402656
0.2738356679
0.2705919473
0.271269246
0.2730466395
0.2735749216
0.2747702949
0.2721954744
0.3029523739
0.6555255296
0.9125591244
0.9465995224
0.9491016776
0.9597759062
0.9745418444
0.9787750574
0.9841040198
0.9840583754
0.9871311006
0.9896326178
0.992355014
0.9910774688
0.9916488352
0.9903999456
0.9895321768
0.2735641184
0.2773541616
0.2758674557
0.2735790856
0.2703072987
0.2707685086
0.2726352696
0.2731026006
0.2746284414
0.2715470727
0.2753829981
0.461875717
0.7992849672
0.9260285274
0.9533433998
0.9746720084
0.9787520623
0.97941049
0.9747743551
0.9754334013
0.9797340114
0.9852650366
0.9893921257
0.9884228961
0.9892184686
0.989246493
0.9899564719
0.2720194916
0.2752341945
0.2761614454
0.2738983755
0.2702970549
0.2706253151
0.2721748102
0.2731237153
0.2743214466
0.2731319609
0.2717088017
0.3393856234
0.7149282662
0.9246244576
0.9715548542
0.9794779136
0.9776699647
0.9672409905
0.9643034982
0.9688307799
0.979187331
0.9871642193
0.9905997802
0.9890842341
0.9901082155
0.9907524901
0.9916952583
0.2709028792
0.2742964509
0.2769302102
0.2745440324
0.2708051257
0.2706509195
0.2721111569
0.2731889968
0.2738350991
0.2728192328
0.2716752253
0.2795540769
0.5733103047
0.914691525
0.9754821645
0.9785808667
0.9630020744
0.9577455843
0.9623526434
0.9715043383
0.9836906408
0.9891539781
0.9923429299
0.9897279655
0.9913194333
0.9929102454
0.995094665
0.2701519641
0.2739999057
0.2769374668
0.2746834418
0.2719331884
0.2705183824
0.2719813702
0.2725455549
0.2734868717
0.2720344428
0.2721214534
0.2714063876
0.3686667971
0.7965411482
0.9633736895
0.963008058
0.9508125655
0.9571712025
0.9689330738
0.9791049
0.9864833291
0.9892311805
0.9905457357
0.9918280843
0.9943922139
0.9969033068
0.9987929278
0.2696898751
0.2739810636
0.2767706661
0.2745379375
0.2723578323
0.2700866203
0.271290753
0.2716386308
0.2723555127
0.2717821412
0.2719348455
0.2711732013
0.284103578
0.5692461274
0.8688088141
0.9336278642
0.9512635651
0.9661776078
0.9795169953
0.9818144842
0.9835135798
0.9842553926
0.9888809617
0.9919434308
0.9954563518
0.9976396426
0.9987156215
0.2694036622
0.2747926295
0.2765110975
0.2742896173
0.2722589215
0.2695369549
0.2700914752
0.2704447186
0.2721061771
0.2717565709
0.2717461822
0.2713903233
0.2720729317
0.4172574231
0.7658480142
0.9220725652
0.9657511821
0.9790684465
0.9816543341
0.9777204797
0.9754957273
0.9796454986
0.9865043091
0.9908092426
0.99458074
0.996081428
0.9956891
0.2686502473
0.2749075113
0.2761918009
0.2739416189
0.2719654467
0.2691621827
0.2698074171
0.2703300741
0.2720059015
0.2715366538
0.2712730631
0.2719574983
0.2710132983
0.301972623
0.6801417862
0.9380186627
0.9767115832
0.9780176849
0.974341134
0.9656147792
0.9690850383
0.9759179821
0.988447394
0.9901812348
0.9904086719
0.9915770499
0.9921754824
0.9938764509
0.2673925563
0.2748124085
0.2752895425
0.2737480054
0.271703066
0.2689424306
0.2701245474
0.2703986546
0.2719263905
0.2713088945
0.2712448872
0.2718701721
0.2708855386
0.2732932919
0.4942822824
0.8868757597
0.9712681767
0.9749815719
0.9569970012
0.9597156903
0.9699869889
0.9809788558
0.987499499
0.9882103104
0.9880590826
0.9896885862
0.9913813154
0.9946224743
0.2672407754
0.2745475857
0.2736061313
0.2742635702
0.2719314219
0.2690248577
0.2701776015
0.2702448016
0.2713373038
0.2709084025
0.2712408174
0.2713854295
0.2711111583
0.2704128929
0.3241685591
0.7123947003
0.938429404
0.9516489198
0.952149124
0.9604722216
0.9782887981
0.9829046701
0.9864895745
0.9848446063
0.9874358628
0.9905765795
0.993514493
0.9972368179
0.2678012346
0.2731580012
0.2728890516
0.2743688547
0.2725337043
0.2695059042
0.2700366828
0.2699475749
0.2711579408
0.2707303498
0.2706045619
0.2709324487
0.271032371
0.270456254
0.2752020112
0.5220060633
0.8350087053
0.9310583689
0.9589759897
0.9739419444
0.9822314266
0.9820717677
0.9804970062
0.9827812694
0.989960448
0.9934064658
0.9962055427
0.9975138208
0.2677836687
0.2694949413
0.2728289404
0.274137499
0.2725690271
0.2696385195
0.2698162047
0.2693760368
0.2709383661
0.2704451862
0.2701087692
0.2707248363
0.2710728861
0.2704687927
0.2704498608
0.380052371
0.7522506437
0.9283069433
0.9758005922
0.9818036225
0.9803321287
0.9727912221
0.9779327171
0.982417718
0.9920770393
0.9933265531
0.9950598441
0.9959688976
0.2676807727
0.2669625729
0.2731080662
0.273820807
0.2723594974
0.2694715935
0.2694435553
0.2687428576
0.2699810895
0.2698769805
0.2697528369
0.2705272105
0.2705909373
0.2704928605
0.269867329
0.2861865457
0.6451620835
0.9336743192
0.9785324659
0.9794205748
0.9651833871
0.9667771724
0.976657568
0.9859332656
0.9903211974
0.9915196069
0.9924406331
0.9930829708
0.2675396646
0.2664182184
0.2732675584
0.2733761406
0.2721752408
0.2691633752
0.2689956616
0.2683674228
0.2694362956
0.2696156902
0.2695046068
0.2703128577
0.270602076
0.2703301109
0.2695450159
0.2701300851
0.4395146644
0.8663471802
0.9707004856
0.9648371605
0.9571037835
0.9642249299
0.9826947914
0.987019678
0.9864482296
0.9868913231
0.9885336852
0.9904941605
0.9921530846
0.2673532512
0.2663736769
0.273327206
0.27279994
0.2721839452
0.2689165615
0.2687288039
0.2682004209
0.2692635404
0.2694467038
0.2694574267
0.2701531187
0.2703826761
0.2698269438
0.2695139936
0.2688635571
0.3067521635
0.6653655132
0.9087371322
0.9426574823
0.9588553873
0.9738771193
0.9846843333
0.9846773615
0.98098912
0.9836804395
0.9875135348
0.9907479176
0.9932055652
0.2658539143
0.2671262656
0.2730927027
0.2723729569
0.2725242627
0.2688392766
0.26858111
0.2681206689
0.2691852646
0.2695926283
0.2695376599
0.2700863871
0.2701321733
0.2696401314
0.2694576527
0.2689653709
0.2716296861
0.5074247563
0.828779877
0.9366717322
0.9756202939
0.9815599071
0.98390631
0.977892282
0.979624452
0.9839760947
0.9892869524
0.9926313592
0.9946990218
0.2626493022
0.268966581
0.2728280397
0.272133796
0.2728868434
0.2691429434
0.2684870092
0.2680818721
0.2691681112
0.26971001
0.2696096573
0.2698425329
0.2698050813
0.2696369422
0.2693879929
0.2689979854
0.2687047171
0.364763998
0.7698590453
0.9523763417
0.9823559348
0.9836542224
0.9721151486
0.9722517353
0.9819506807
0.9884262378
0.9907413892
0.9921897221
0.9936080836
0.2613636173
0.2692961017
0.2725850352
0.2720816366
0.2729421571
0.2694487208
0.2684449512
0.2681414558
0.2691643128
0.2696989679
0.269512321
0.269296512
0.2693722246
0.2694152617
0.2693345983
0.2689755319
0.2681260209
0.2798409739
0.6254468786
0.9348425521
0.9800206591
0.9731388122
0.964164076
0.9702720506
0.9870810405
0.9900573067
0.9896955748
0.9908364198
0.9899528257
0.2612096606
0.2692584127
0.2706851048
0.2721323458
0.2728750133
0.26955872
0.2687792412
0.2682819495
0.2689166098
0.2694121902
0.2691382519
0.2689449499
0.2692225371
0.269368465
0.2692756068
0.2687836228
0.2680509737
0.2683567948
0.4167742906
0.8387131694
0.9589528648
0.9487138019
0.9628542924
0.9765346471
0.9872835533
0.988635005
0.986079387
0.9875417961
0.9864182316
0.2626465456
0.2679150384
0.2683471409
0.2720434562
0.2727895053
0.2696447731
0.2690021961
0.2684041431
0.2682353217
0.2688544112
0.2688269519
0.2687484387
0.2691478991
0.2692858298
0.2692675436
0.268473658
0.2682034155
0.2680120208
0.3028093211
0.6584561255
0.8954171282
0.9455631236
0.9770169696
0.9845877708
0.98437501
0.9816574193
0.9824250827
0.9847641582
0.9853804406
0.2653542784
0.2639808259
0.2677911512
0.2718234983
0.2725769373
0.269718901
0.2690954845
0.2683831527
0.267906684
0.2685720593
0.2686329374
0.2686103849
0.2691404798
0.269368699
0.2692330599
0.2684522404
0.2682597744
0.2682337221
0.2710065128
0.5222254797
0.8487076155
0.9610032766
0.9871337403
0.9853698366
0.9732527973
0.9756630266
0.9807103719
0.9864044221
0.9872640638
0.9920677945
0.2660132003
0.26189618
0.2678158726
0.2715940791
0.2723351112
0.2697262384
0.2691654289
0.2684576139
0.2679817062
0.2684931888
0.2686668592
0.2685555506
0.2692719448
0.2694905
0.2691921714
0.2685177706
0.2683514544
0.2684305222
0.2685383861
0.3601715894
0.7958082402
0.966829691
0.9870734731
0.9798408742
0.9698462164
0.9751680909
0.9851121031
0.9882001591
0.98929573
0.9930204593
0.2660399151
0.2616380108
0.2679132867
0.271310414
0.2722187326
0.2696805439
0.2692049954
0.2685863096
0.2681858629
0.2685553834
0.26930674
0.2689803442
0.2693639782
0.2694221471
0.2692772643
0.2689785192
0.2686704228
0.2685128832
0.2682557398
0.2784132366
0.6140430967
0.9404591327
0.9773862761
0.9619204115
0.9710979884
0.9823200182
0.9881222019
0.9879667006
0.9888085662
0.9913546909
0.2660060002
0.2616977575
0.2681193326
0.2710553789
0.272146518
0.2696817894
0.269260582
0.2687510831
0.2688056698
0.268631371
0.2695586921
0.2692135315
0.2692281388
0.2692587083
0.2694107355
0.2695108572
0.2687822731
0.2683549653
0.2683650717
0.2687677431
0.4145536034
0.8027756156
0.9343946777
0.9524388701
0.982064112
0.9877870295
0.9870831575
0.9864231811
0.9870878855
0.9869353489
0.2651397904
0.2618798136
0.2693531399
0.2707642742
0.2721313092
0.2699792536
0.2693641948
0.2691034199
0.2693224927
0.2685445592
0.2695758401
0.2691372052
0.2689517542
0.269243383
0.2696619016
0.2696476329
0.2688097098
0.2682501185
0.2687000858
0.268600824
0.3051743881
0.6709494849
0.9030981856
0.9601190356
0.986813804
0.9888887772
0.9815070859
0.9812580125
0.9830043377
0.9846198101
0.2620666197
0.2635771321
0.2702949153
0.2706400063
0.2725214462
0.2705879845
0.2696733438
0.2694376082
0.2696660646
0.2682491037
0.2696351166
0.2691239811
0.2689075411
0.2693040114
0.2698305747
0.2696187477
0.268789543
0.2682783387
0.2687851296
0.2685882434
0.2722014305
0.5488742989
0.9005365346
0.9772118528
0.9884805457
0.9810271401
0.9737005453
0.978343319
0.9810711425
0.9849685332
0.260802826
0.2659711764
0.2703807551
0.2707380358
0.2735400433
0.27094876
0.2698963792
0.2696327125
0.2698865403
0.2683779325
0.2694925589
0.2692865129
0.2689652865
0.2694424691
0.2698738832
0.2695120126
0.2688246485
0.268603269
0.2689309409
0.2689310577
0.26927486
0.3600094224
0.8061288958
0.9727562495
0.9735065932
0.9646092956
0.9717988008
0.9817575995
0.9841389857
0.9882716551
0.260861703
0.266511315
0.2690885551
0.271238286
0.2741858111
0.2710755325
0.2699435022
0.2696670989
0.2701070708
0.2685808596
0.2694925967
0.2695825363
0.2691785527
0.2696476606
0.2698237548
0.2695300975
0.2692076642
0.2692471278
0.269161753
0.2694589449
0.269280918
0.2792585841
0.5977393137
0.9270283328
0.9435204829
0.9608815798
0.9796302071
0.9875916432
0.9865898268
0.9894821531
0.9954118254
0.2619612832
0.2663335054
0.2650074219
0.2719013795
0.2743995812
0.2709590981
0.2698058601
0.2696012225
0.2703961384
0.2687757745
0.2696941932
0.2698682739
0.2695218754
0.2698218049
0.2698625544
0.2699352868
0.2699636543
0.2695373795
0.2692810891
0.2695939512
0.2694969303
0.2700494262
0.4309732612
0.8001812039
0.9375397084
0.9699303977
0.9881128516
0.987891096
0.9862170433
0.9888770237
0.9921765413
0.2664498358
0.2645170102
0.262978708
0.2722142692
0.2744367301
0.2707315585
0.2698197006
0.269606022
0.2711126906
0.2691305489
0.2699004576
0.2700793123
0.2697802654
0.2699645565
0.2700697372
0.2705065782
0.270254383
0.2696163099
0.2693549788
0.2696082622
0.2697945895
0.269836853
0.3099766533
0.7041888727
0.9553144154
0.9839033067
0.9877986272
0.9841527431
0.9839375503
0.9830552248
0.9857247484
0.269054674
0.2621260458
0.2627167893
0.2722663054
0.2743536539
0.2706709184
0.2699356684
0.2697880508
0.2724922762
0.2694838525
0.2700758637
0.2702549585
0.2699090783
0.2700572946
0.2703509326
0.270634695
0.270260887
0.2695566941
0.2693552763
0.2696068058
0.2698641779
0.2698091432
0.2733784952
0.5657266529
0.9256453373
0.9862286453
0.9814435201
0.9731255298
0.9763744077
0.9778638988
0.9830482174
0.2695585953
0.2614370598
0.2627416335
0.2722822771
0.27443851
0.2711214521
0.2702669855
0.2701357384
0.2729542718
0.2697773801
0.2701963483
0.2703769706
0.2699610396
0.270035642
0.2704307812
0.2705906019
0.2701965958
0.269588815
0.2694419716
0.2696841215
0.2699216475
0.2699600786
0.2702103937
0.3662066228
0.7872223418
0.9742864711
0.9573141312
0.9690536542
0.9739361857
0.976887955
0.9853509831
0.269817789
0.2614869647
0.2632491144
0.2720366519
0.2751718711
0.2723504479
0.2709972196
0.2704721352
0.2728525738
0.2700977324
0.2702985002
0.2705070562
0.2700747788
0.270108362
0.2703881708
0.270602246
0.2702556398
0.26985083
0.269874752
0.2700931167
0.2702091795
0.2704977983
0.2703852437
0.2822543888
0.6080744017
0.8955906834
0.9496743982
0.9740611067
0.9792984094
0.9840257336
0.9905432663
0.2689393273
0.2616393474
0.2657942427
0.2721814628
0.2760035726
0.2730329531
0.2712725919
0.2705850401
0.2723391503
0.2706570219
0.2705151949
0.2709908776
0.2704378798
0.2701942274
0.2704693365
0.2708124026
0.2707834311
0.2706900417
0.2705545436
0.270645994
0.2706927236
0.2708026085
0.2707394141
0.2717286684
0.4670141927
0.8219573767
0.9606520387
0.9877269223
0.986531605
0.9868073261
0.9910206314
0.2647681637
0.2622088742
0.267380753
0.2719142127
0.2762994157
0.2732468183
0.2712539768
0.270213927
0.2722909241
0.2712290207
0.2708716473
0.2713236029
0.2709290796
0.2705576254
0.2706287743
0.2712777612
0.2714635049
0.2711685254
0.2708699425
0.2708764732
0.2709068398
0.2709395705
0.270966904
0.2709273272
0.3174754419
0.7543650109
0.9647084835
0.9890990928
0.9863667095
0.9860475354
0.9874679878
0.261708463
0.2641837624
0.2675134493
0.2713056969
0.2764927691
0.2733536536
0.271254716
0.2703136474
0.2723784927
0.2715788999
0.2711665845
0.2715327038
0.2711886085
0.2710484309
0.2708734851
0.2714713918
0.2716968974
0.2713059718
0.2709880196
0.270960666
0.2709368809
0.2708795461
0.2709701032
0.2708600751
0.2745680529
0.5720275056
0.9318227011
0.984383877
0.9819540007
0.9774161733
0.9769599002
0.9848469392
0.261567993
0.2672817087
0.2662143646
0.2697051399
0.2769751665
0.2736998949
0.2714585213
0.2705785658
0.2726383082
0.2724782927
0.2715210615
0.2716547685
0.2713245471
0.2712658443
0.2710208911
0.271505235
0.2717322393
0.2713057116
0.2710217654
0.2709591892
0.27094608
0.2709226319
0.2710364144
0.2709361419
0.271072663
0.3784136029
0.7824479266
0.9439039323
0.9615567325
0.9671135184
0.9719661877
0.9803496294
0.2624267326
0.2681544149
0.2620168483
0.2693388741
0.27735671
0.2747653891
0.2724441027
0.2711633573
0.2731684947
0.2732698089
0.2719861876
0.271650518
0.2713925879
0.2713753879
0.2710555071
0.271546605
0.2717658211
0.2713544427
0.2711458807
0.2710610821
0.2710711857
0.2710933114
0.2712854041
0.271378645
0.2714550706
0.2895822839
0.645537058
0.8968984217
0.951771474
0.9665432472
0.9744055986
0.9809634712
0.2676734095
0.2680478789
0.2599524559
0.2692829568
0.2775656758
0.2758992917
0.2733068686
0.2716451632
0.2735107637
0.2733470578
0.2720356639
0.271671643
0.2716514443
0.2715374366
0.2712938903
0.271670187
0.2719275469
0.2716169182
0.2714211845
0.2714673738
0.2715477475
0.271548972
0.2718221033
0.2719372181
0.2717103444
0.2733493079
0.5130959616
0.8715528232
0.9625067304
0.9800630886
0.986533
0.9904541347
0.2733133542
0.2676206212
0.2595780444
0.269448599
0.2776641422
0.2764488706
0.27362581
0.2719826867
0.2729505925
0.2731215454
0.2720287476
0.2719220988
0.2722745736
0.2721610203
0.2714731135
0.2719100988
0.2724098569
0.2722637383
0.2719675376
0.2719474546
0.2720186346
0.271949214
0.27213288
0.2721896771
0.272013204
0.2719585988
0.3366469611
0.7880339195
0.9687265411
0.9877926197
0.9910744476
0.9938043057
0.2747616256
0.2659353875
0.259447833
0.2695997865
0.2775130023
0.2768074193
0.2737904143
0.2714518885
0.2718824271
0.2731129027
0.2720445166
0.2724594476
0.2727497871
0.2726901444
0.2721053786
0.2721476957
0.2726605356
0.272598652
0.2722064023
0.2721844353
0.2722593087
0.2722003679
0.2722762067
0.2722878364
0.2720975336
0.2720210403
0.2781552247
0.5894796822
0.9403267307
0.9866826402
0.9891911675
0.9921131371
0.2750212654
0.2646107671
0.259564968
0.2694205122
0.2774118756
0.277483898
0.2739734488
0.2711304401
0.2715655839
0.2732584005
0.2725050557
0.2730125696
0.2730118396
0.2728948595
0.2725307333
0.2723229405
0.2727663186
0.2727650672
0.2723589691
0.272285048
0.2723587359
0.2722911876
0.2723326508
0.2723994978
0.2722073176
0.2721113041
0.2724862815
0.4162906121
0.8035536729
0.9684268546
0.972353016
0.9795265021
0.2751344504
0.2646903761
0.261574725
0.2691966741
0.2771217569
0.2786843373
0.2746767069
0.2713081411
0.2716384964
0.273580251
0.2733590561
0.2733346205
0.273152383
0.2730041156
0.2727308363
0.2723907602
0.2727533092
0.2727927025
0.2723903808
0.2723414166
0.2724350167
0.2724407703
0.2724609471
0.2724930052
0.2723072028
0.2722177961
0.2724728746
0.3074799839
0.6749336848
0.9075161738
0.9528344402
0.9677759393
0.9772738389
0.2717940432
0.2650555922
0.2653271382
0.2687916651
0.2765261144
0.2797800222
0.2756539585
0.2716055328
0.2718782438
0.2741177143
0.2740405114
0.2733321878
0.2731993446
0.2730729032
0.2728051477
0.2724218558
0.2727832407
0.2729249887
0.2726212783
0.2725121574
0.272578201
0.2725007723
0.2725697607
0.2727519576
0.272701986
0.2725188591
0.2725345772
0.275764465
0.5648339927
0.866164542
0.9511826479
0.9672000977
0.9726824073
0.2657532198
0.2659544728
0.2665342693
0.268852152
0.2760529942
0.2804219299
0.2764827838
0.2722865766
0.2720725846
0.2742258815
0.2741936011
0.2731135398
0.273187652
0.273173537
0.2728608706
0.2724951676
0.2728357977
0.27300107
0.2727281748
0.2726294875
0.2729295114
0.2729306891
0.2729033905
0.2731025164
0.2730935794
0.2728626902
0.2729255342
0.2732785389
0.3848831315
0.8372132203
0.9692180023
0.984423673
0.9773914609
0.2635333765
0.2688636071
0.2664218667
0.2663653371
0.2755650807
0.2806288529
0.2772166975
0.2729936345
0.2721345435
0.2742188517
0.2741634049
0.2731182739
0.2732538327
0.2735286119
0.2733313858
0.272670923
0.2729704307
0.2733023991
0.273181166
0.2730590592
0.2733059085
0.2733142411
0.273144347
0.2732750718
0.2732559391
0.2729924294
0.2730428568
0.2731401869
0.2909036956
0.6810952157
0.9543197443
0.9931469582
0.9914783935
0.263663635
0.2724340608
0.265714937
0.2643733654
0.2750178696
0.2806387177
0.2777317456
0.273325084
0.2717566378
0.2739855772
0.2739644987
0.2732683131
0.2735088898
0.2739183321
0.2739693004
0.2730253107
0.273145728
0.2735450227
0.2734010099
0.2732631775
0.2735078714
0.2734546305
0.2732206897
0.2732996847
0.2733124961
0.273032943
0.2730054897
0.2732110749
0.2744840181
0.4780234049
0.8751574259
0.9910791483
0.9935188869
0.2663850712
0.2734115295
0.2641017813
0.2637280265
0.274938681
0.2804910405
0.2780806555
0.27344195
0.2716229532
0.2731698319
0.2739427181
0.2735278094
0.2736966035
0.27407335
0.2741258923
0.2732424862
0.2732100609
0.2736342153
0.2735144677
0.2733524505
0.2735776749
0.2735001623
0.2731673796
0.2731949593
0.2733291808
0.2730716276
0.2730452555
0.2732657397
0.2733394317
0.3551964421
0.7272224101
0.9630242269
0.9941764157
0.2727757264
0.2732541834
0.263212689
0.2633979648
0.2747312393
0.2801162357
0.2784246223
0.2735348778
0.2716927653
0.2728256713
0.2740963642
0.2738677592
0.2739312616
0.2741122036
0.2741627398
0.2733025796
0.2731125631
0.2736537904
0.2735596593
0.2732419578
0.2736250213
0.273528216
0.2731802606
0.2732224772
0.2733851475
0.2731936452
0.2731202023
0.273417857
0.2734508962
0.2837562679
0.6255097663
0.8898807995
0.9733301962
0.2763834496
0.2730643558
0.2629803953
0.2632389675
0.2740518905
0.2799481463
0.2787729527
0.2744350452
0.2718500711
0.2729082312
0.2744144913
0.2740248036
0.2739923877
0.2741215867
0.2742058222
0.2733046302
0.2730770154
0.2736210627
0.2734215076
0.2731415448
0.2734841158
0.2735393045
0.2732221081
0.2732918223
0.2734834118
0.2734774751
0.2733289988
0.2735647045
0.2735814968
0.274769168
0.4886843041
0.8420529809
0.9432480539
0.2774193862
0.271552533
0.2628513186
0.2638260744
0.274010975
0.2797169187
0.2789914406
0.2754144787
0.2725010796
0.2731217932
0.2743847224
0.2740801049
0.2737395044
0.2739138349
0.2742104812
0.2732728057
0.2730205256
0.2733932154
0.273398559
0.2731518009
0.2734049898
0.2735537124
0.2733982117
0.2734659451
0.2736723359
0.2736453934
0.2734423273
0.2736307507
0.2737026997
0.2735548733
0.3281111014
0.7864046537
0.9315422292
0.958585123
0.2775844289
0.2680747956
0.2636786312
0.2638155964
0.2742967995
0.2798227966
0.2791204881
0.2758475488
0.2731586909
0.2731179829
0.2743634788
0.2739273273
0.2731562015
0.2733855762
0.2741879992
0.2735284812
0.2730592587
0.2733163007
0.2734895797
0.2732122362
0.2734202155
0.2736787739
0.2734769487
0.273493083
0.2737168843
0.2736618242
0.2734362245
0.2736215254
0.2737035128
0.2734618481
0.2802678221
0.6091370517
0.9415357119
0.9680510475
0.2756591379
0.2670905476
0.2653259013
0.2633686848
0.2742657115
0.2798251883
0.2792274386
0.2759889485
0.2734362848
0.2724563054
0.2736061767
0.2734734051
0.272983206
0.2731732394
0.2741610335
0.2739446968
0.2731407707
0.2733837491
0.273563698
0.2732361301
0.2734421428
0.2737084888
0.2734662547
0.2734656231
0.2737026574
0.2736421851
0.2733767797
0.2734342999
0.2736620361
0.2733917866
0.2734917175
0.426399233
0.8822132295
0.9866222282
0.269225264
0.2672531388
0.2676494414
0.2627131199
0.2736870628
0.27955396
0.279265172
0.2760258124
0.273242604
0.2716871164
0.2729806033
0.2732434066
0.2730927025
0.2731265413
0.2740915936
0.2739712053
0.2730684492
0.2733316129
0.2735450724
0.2732134724
0.2733964391
0.2736802688
0.2734003682
0.2732537987
0.2735340108
0.2734715874
0.2730106817
0.2729386743
0.2732864166
)
;

boundaryField
{
    inlet
    {
        type            fixedValue;
        value           nonuniform 0();
    }
    outlet
    {
        type            zeroGradient;
    }
    bottom
    {
        type            slip;
    }
    top
    {
        type            slip;
    }
    obstacle
    {
        type            zeroGradient;
    }
    defaultFaces
    {
        type            empty;
    }
    procBoundary21to15
    {
        type            processor;
        value           nonuniform List<scalar> 
23
(
0.9888244577
0.9761185322
0.9679649609
0.965349569
0.9642677119
0.9720381145
0.9755113973
0.982781154
0.9868700681
0.9855176156
0.9841792859
0.9840519973
0.9863074965
0.9914342825