/*--------------------------------*- C++ -*----------------------------------*\
  =========                 |
  \\      /  F ield         | OpenFOAM: The Open Source CFD Toolbox
   \\    /   O peration     | Website:  https://openfoam.org
    \\  /    A nd           | Version:  7
     \\/     M anipulation  |
\*---------------------------------------------------------------------------*/
FoamFile
{
    version     2.0;
    format      ascii;
    class       volVectorField;
    location    "2";
    object      U;
}
// * * * * * * * * * * * * * * * * * * * * * * * * * * * * * * * * * * * * * //

dimensions      [0 1 -1 0 0 0 0];

internalField   nonuniform List<vector> 
2222
(
(3 -4.808357539e-15 0)
(3 -4.509620072e-15 0)
(3 -3.814812488e-15 0)
(3 -3.449536919e-15 0)
(3 -3.188543962e-15 0)
(3 -3.800406963e-15 0)
(3 -3.542463474e-15 0)
(3 -2.910081254e-15 0)
(3 -1.839629652e-15 0)
(3 -1.079416819e-15 0)
(3 -4.092980091e-16 0)
(3 3.762808112e-17 0)
(3 -5.625003959e-16 0)
(3 -9.017049857e-16 0)
(3 1.299244925e-16 0)
(3 7.05110186e-16 0)
(3 2.197512316e-15 0)
(3 2.409647244e-15 0)
(3 3.357973895e-15 0)
(3 3.989097394e-15 0)
(3 4.403847324e-15 0)
(3 4.462478957e-15 0)
(3 5.009384129e-15 0)
(3 -1.885306956e-15 0)
(3 -1.517050885e-15 0)
(3 -2.874212706e-15 0)
(3 -2.98977783e-15 0)
(3 -3.350340472e-15 0)
(3 -3.099646732e-15 0)
(3 -2.329312854e-15 0)
(3 -1.591061381e-15 0)
(3 -1.821325246e-15 0)
(3 -1.882276477e-15 0)
(3 -1.572800095e-15 0)
(3 -3.612063718e-16 0)
(3 1.882648845e-16 0)
(3 8.323626434e-17 0)
(3 -6.367203932e-16 0)
(3 -1.001640956e-15 0)
(3 -7.656637593e-16 0)
(3 -5.8578041e-16 0)
(3 -8.619895132e-16 0)
(3 -1.870886903e-16 0)
(3 9.545852676e-16 0)
(3 1.018541506e-15 0)
(3 6.57284566e-16 0)
(3 2.518353406e-16 0)
(3 6.248043096e-16 0)
(3 1.299733527e-15 0)
(3 1.814470665e-15 0)
(3 1.61638415e-15 0)
(3 1.845526136e-15 0)
(3 2.747335301e-15 0)
(3 3.218043274e-15 0)
(3 3.234458974e-15 0)
(3 4.1403878e-15 0)
(3 4.838725201e-15 0)
(3 -2.38827149e-17 0)
(3 1.019584817e-15 0)
(3 1.143632341e-15 0)
(3 8.501727929e-16 0)
(3 -2.650016257e-16 0)
(3 -3.569496691e-16 0)
(3 -7.226778725e-16 0)
(3 1.237037092e-15 0)
(3 2.43700796e-15 0)
(3 2.677184679e-15 0)
(3 2.8744826e-15 0)
(3 3.518516117e-15 0)
(3 3.135967117e-15 0)
(3 2.644307119e-15 0)
(3 2.049966418e-15 0)
(3 6.236990261e-16 0)
(3 3.833964403e-16 0)
(3 -5.316662948e-16 0)
(3 -9.565151746e-16 0)
(3 -4.852481816e-16 0)
(3 2.38476419e-16 0)
(3 7.586479159e-16 0)
(3 1.85095575e-15 0)
(3 1.71107735e-15 0)
(3 9.242544372e-16 0)
(3 5.24470815e-16 0)
(3 7.801400403e-17 0)
(3 1.027800647e-15 0)
(3 1.934815442e-15 0)
(3 2.142113892e-15 0)
(3 2.602455025e-15 0)
(3 2.765838811e-15 0)
(3 2.673198498e-15 0)
(3 2.79407906e-15 0)
(3 6.838175065e-16 0)
(3 9.535228241e-16 0)
(3 1.106407418e-15 0)
(3 2.903488006e-15 0)
(3 3.79236133e-15 0)
(3 4.2963899e-15 0)
(3 4.481226928e-15 0)
(3 5.858154324e-15 0)
(3 6.803968415e-15 0)
(3 6.643495788e-15 0)
(3 6.822718038e-15 0)
(3 6.238685623e-15 0)
(3 5.22431388e-15 0)
(3 4.031801973e-15 0)
(3 3.171766028e-15 0)
(3 2.712382591e-15 0)
(3 1.941545855e-15 0)
(3 1.459733415e-15 0)
(3 1.645620147e-15 0)
(3 1.467628662e-15 0)
(3 1.340206731e-15 0)
(3 1.018173536e-15 0)
(3 1.06458957e-15 0)
(3 9.407309807e-16 0)
(3 9.617717947e-16 0)
(3 3.945362311e-16 0)
(3 3.887501834e-16 0)
(3 4.894335502e-16 0)
(3 7.847763973e-16 0)
(3 8.064800497e-16 0)
(3 6.020595044e-16 0)
(3 3.875348947e-16 0)
(3 9.59015301e-16 0)
(3 1.166469828e-15 0)
(3 1.723208484e-15 0)
(3 1.567984971e-15 0)
(3 1.671777128e-15 0)
(3 2.227723208e-15 0)
(3 4.501887661e-15 0)
(3 6.991362564e-15 0)
(3 8.090658438e-15 0)
(3 9.011035506e-15 0)
(3 8.799948473e-15 0)
(3 8.903850559e-15 0)
(3 7.96244247e-15 0)
(3 6.900625532e-15 0)
(3 5.436036516e-15 0)
(3 4.240381521e-15 0)
(3 3.946631959e-15 0)
(3 3.685781496e-15 0)
(3 1.088540907e-15 0)
(3 1.313910155e-15 0)
(3 2.128712219e-15 0)
(3 2.933713835e-15 0)
(3 2.341805205e-15 0)
(3 1.579920991e-15 0)
(3 3.746798217e-16 0)
(3 2.884683536e-16 0)
(3 2.149501267e-16 0)
(3 -6.382351e-17 0)
(3 -5.886688497e-16 0)
(3 -8.57961488e-16 0)
(3 -1.051043925e-15 0)
(3 -7.39814858e-16 0)
(3 -1.447262058e-16 0)
(3 2.834280942e-16 0)
(3 1.967884466e-16 0)
(3 -4.145853853e-16 0)
(3 5.608620542e-15 0)
(3 5.234165144e-15 0)
(3 4.602533776e-15 0)
(3 4.360712512e-15 0)
(3 4.834571474e-15 0)
(3 4.951228172e-15 0)
(3 4.958851487e-15 0)
(3 4.923253473e-15 0)
(3 4.318588442e-15 0)
(3 4.402901766e-15 0)
(3 4.331458123e-15 0)
(3 4.551970539e-15 0)
(3 4.303561365e-15 0)
(3 4.549632612e-15 0)
(3 4.837004322e-15 0)
(3 4.795137721e-15 0)
(3 4.251559757e-15 0)
(3 3.141141061e-15 0)
(3 1.372249585e-15 0)
(3 8.274707553e-16 0)
(3 7.57670562e-16 0)
(3 8.234070882e-16 0)
(3 1.056796643e-15 0)
(3 1.007102047e-15 0)
(3 4.300784347e-16 0)
(3 -1.162609757e-15 0)
(3 -2.037235768e-15 0)
(3 -3.191816348e-15 0)
(3 -3.911934851e-15 0)
(3 -3.728222261e-15 0)
(3 -3.159438727e-15 0)
(3 -2.281555559e-15 0)
(3 -2.734897021e-15 0)
(3 -3.019695855e-15 0)
(3 5.17321946e-15 0)
(3 4.570430217e-15 0)
(3 4.454196605e-15 0)
(3 4.736714245e-15 0)
(3 5.485053625e-15 0)
(3 5.513344595e-15 0)
(3 5.305510384e-15 0)
(3 4.879678046e-15 0)
(3 4.880165166e-15 0)
(3 4.765371826e-15 0)
(3 4.98885527e-15 0)
(3 5.340451755e-15 0)
(3 5.578081392e-15 0)
(3 4.996602634e-15 0)
(3 4.23697988e-15 0)
(3 3.879970441e-15 0)
(3 4.601855635e-15 0)
(3 5.131719642e-15 0)
(3 4.56269284e-15 0)
(3 2.642492503e-15 0)
(3 1.553968976e-15 0)
(3 1.368226008e-15 0)
(3 2.295586374e-15 0)
(3 2.089715056e-15 0)
(3 4.961879738e-16 0)
(3 -3.699995724e-16 0)
(3 -6.609344472e-16 0)
(3 -3.762233637e-15 0)
(3 -5.075125969e-15 0)
(3 -4.949238241e-15 0)
(3 -5.098857835e-15 0)
(3 -4.974092763e-15 0)
(3 -5.361576351e-15 0)
(3 -4.696206405e-15 0)
(3 5.500396602e-16 0)
(3 1.036508223e-15 0)
(3 3.238383486e-15 0)
(3 3.957957404e-15 0)
(3 4.427930112e-15 0)
(3 5.033398313e-15 0)
(3 5.32989589e-15 0)
(3 5.09885898e-15 0)
(3 4.794376442e-15 0)
(3 4.612129964e-15 0)
(3 4.788778981e-15 0)
(3 5.546318089e-15 0)
(3 5.969690628e-15 0)
(3 5.91605989e-15 0)
(3 5.68878469e-15 0)
(3 5.855347123e-15 0)
(3 6.988335439e-15 0)
(3 6.945918024e-15 0)
(3 5.594518621e-15 0)
(3 4.351933608e-15 0)
(3 3.882334211e-15 0)
(3 3.95593628e-15 0)
(3 4.025806262e-15 0)
(3 4.139715216e-15 0)
(3 3.427661229e-15 0)
(3 2.848398953e-15 0)
(3 2.422234407e-15 0)
(3 5.10544789e-16 0)
(3 -1.422068192e-15 0)
(3 -2.060314757e-15 0)
(3 -2.794141351e-15 0)
(3 -3.285541047e-15 0)
(3 -3.162296245e-15 0)
(3 -3.994503433e-15 0)
(3 -7.965827217e-16 0)
(3 4.604380813e-16 0)
(3 2.807257865e-15 0)
(3 3.266851668e-15 0)
(3 3.2844e-15 0)
(3 3.50228458e-15 0)
(3 3.790941778e-15 0)
(3 3.839399252e-15 0)
(3 3.400568794e-15 0)
(3 3.489843132e-15 0)
(3 3.465342867e-15 0)
(3 3.424952906e-15 0)
(3 3.217721686e-15 0)
(3 4.844809083e-15 0)
(3 5.838742809e-15 0)
(3 5.629571351e-15 0)
(3 5.387327904e-15 0)
(3 5.120978329e-15 0)
(3 4.810431324e-15 0)
(3 4.391185573e-15 0)
(3 4.017193202e-15 0)
(3 3.735625032e-15 0)
(3 3.197447346e-15 0)
(3 2.81918892e-15 0)
(3 2.624587697e-15 0)
(3 2.746357566e-15 0)
(3 3.308187152e-15 0)
(3 2.703255801e-15 0)
(3 4.800139492e-16 0)
(3 -5.988809167e-16 0)
(3 -1.369845524e-15 0)
(3 -2.57802564e-15 0)
(3 -3.579939075e-15 0)
(3 -5.474500647e-15 0)
(3 2.140138169e-15 0)
(3 3.448498752e-15 0)
(3 3.784220217e-15 0)
(3 3.648964507e-15 0)
(3 3.407898235e-15 0)
(3 3.58254095e-15 0)
(3 3.880780725e-15 0)
(3 4.379938338e-15 0)
(3 4.108796881e-15 0)
(3 3.640492935e-15 0)
(3 3.068217417e-15 0)
(3 2.668230995e-15 0)
(3 2.50630896e-15 0)
(3 2.507103406e-15 0)
(3 2.405132812e-15 0)
(3 2.267239127e-15 0)
(3 2.409252353e-15 0)
(3 2.994593604e-15 0)
(3 3.045573359e-15 0)
(3 3.01535767e-15 0)
(3 2.288636853e-15 0)
(3 2.191602381e-15 0)
(3 1.736321935e-15 0)
(3 1.313956606e-15 0)
(3 1.176354358e-15 0)
(3 1.491310753e-15 0)
(3 2.109061803e-15 0)
(3 -1.918386846e-16 0)
(3 -1.625506494e-15 0)
(3 -2.490728302e-15 0)
(3 -2.397883455e-15 0)
(3 -3.409889805e-15 0)
(3 -4.310309715e-15 0)
(3 -4.294368327e-15 0)
(3 6.180984303e-15 0)
(3 3.511941332e-15 0)
(3 2.64790637e-15 0)
(3 2.435797795e-15 0)
(3 2.876653743e-15 0)
(3 2.811535301e-15 0)
(3 2.381454238e-15 0)
(3 1.895968952e-15 0)
(3 2.305663767e-15 0)
(3 2.367525373e-15 0)
(3 2.443741913e-15 0)
(3 2.114704172e-15 0)
(3 1.746212608e-15 0)
(3 1.279754738e-15 0)
(3 7.204541209e-16 0)
(3 7.154918767e-16 0)
(3 4.68557073e-16 0)
(3 6.53573005e-16 0)
(3 8.032115469e-16 0)
(3 5.967425517e-16 0)
(3 9.347557743e-16 0)
(3 1.114161542e-15 0)
(3 1.123144703e-15 0)
(3 -7.772221789e-16 0)
(3 -1.380514355e-15 0)
(3 -1.068231593e-15 0)
(3 -1.129741243e-16 0)
(3 1.160232738e-15 0)
(3 1.867469185e-15 0)
(3 -3.444069408e-16 0)
(3 -9.636237289e-16 0)
(3 -1.03176005e-15 0)
(3 -1.095569601e-15 0)
(3 6.362577317e-16 0)
(3 5.121940289e-15 0)
(3 4.253003801e-15 0)
(3 3.416448639e-15 0)
(3 1.377595569e-15 0)
(3 7.176852988e-16 0)
(3 8.829270265e-17 0)
(3 -5.024996446e-16 0)
(3 -6.55221187e-16 0)
(3 -4.437660062e-16 0)
(3 -4.523850925e-18 0)
(3 1.53950387e-16 0)
(3 -1.669222086e-16 0)
(3 -1.096169043e-15 0)
(3 -1.574711423e-15 0)
(3 -9.731866465e-16 0)
(3 -1.283049297e-15 0)
(3 -1.582522508e-15 0)
(3 -2.152311796e-15 0)
(3 -1.608804468e-15 0)
(3 -1.068418616e-15 0)
(3 -1.220969008e-15 0)
(3 -1.75680483e-15 0)
(3 -2.630968782e-15 0)
(3 -3.208799726e-15 0)
(3 -3.320758909e-15 0)
(3 -2.600647621e-15 0)
(3 -1.931268742e-15 0)
(3 -1.109997463e-15 0)
(3 1.389608994e-15 0)
(3 2.731892621e-15 0)
(3 4.403133694e-15 0)
(3 3.987285078e-15 0)
(3 4.107492134e-15 0)
(3 4.687800854e-15 0)
(3 2.860284545e-15 0)
(3 2.944791204e-15 0)
(3 2.73222132e-15 0)
(3 2.169660261e-15 0)
(3 1.015983918e-15 0)
(3 -2.736172252e-16 0)
(3 -9.020397e-16 0)
(3 -2.0419234e-15 0)
(3 -2.798590236e-15 0)
(3 -3.203954784e-15 0)
(3 -3.309200448e-15 0)
(3 -2.846842036e-15 0)
(3 -2.828479787e-15 0)
(3 -3.685370298e-15 0)
(3 -3.833703284e-15 0)
(3 -3.864496112e-15 0)
(3 -3.980259588e-15 0)
(3 -3.775169414e-15 0)
(3 -3.350319183e-15 0)
(3 -3.302087772e-15 0)
(3 -4.169459945e-15 0)
(3 -4.814783675e-15 0)
(3 -4.748343711e-15 0)
(3 -4.120063361e-15 0)
(3 -3.106990895e-15 0)
(3 -2.622169179e-15 0)
(3 -2.772112888e-15 0)
(3 -5.150908346e-16 0)
(3 2.2747257e-15 0)
(3 4.758400642e-15 0)
(3 6.839759239e-15 0)
(3 7.392332948e-15 0)
(3 7.903365064e-15 0)
(3 6.811778448e-15 0)
(3 1.459864503e-15 0)
(3 1.073280461e-15 0)
(3 1.101543744e-15 0)
(3 6.989394183e-16 0)
(3 9.895232455e-16 0)
(3 3.393061212e-17 0)
(3 -1.293516363e-15 0)
(3 -2.976652154e-15 0)
(3 -3.958267889e-15 0)
(3 -4.663029318e-15 0)
(3 -4.942219213e-15 0)
(3 -4.756313117e-15 0)
(3 -3.977818376e-15 0)
(3 -4.187487505e-15 0)
(3 -4.312989276e-15 0)
(3 -3.551208033e-15 0)
(3 -3.199165423e-15 0)
(3 -2.9790462e-15 0)
(3 -3.88827594e-15 0)
(3 -5.431451926e-15 0)
(3 -5.216265306e-15 0)
(3 -4.651139403e-15 0)
(3 -4.200035511e-15 0)
(3 -3.540288095e-15 0)
(3 -2.720601684e-15 0)
(3 5.440988934e-17 0)
(3 1.287994922e-15 0)
(3 3.161749727e-15 0)
(3 6.260651651e-15 0)
(3 7.231613783e-15 0)
(3 7.587875014e-15 0)
(3 8.315971132e-15 0)
(3 9.125565185e-15 0)
(3 9.419831096e-15 0)
(3 3.744566733e-15 0)
(3 2.858814397e-15 0)
(3 1.174064185e-15 0)
(3 -1.299063292e-16 0)
(3 -7.030560312e-16 0)
(3 -1.091249876e-15 0)
(3 -1.470224993e-15 0)
(3 -2.000892806e-15 0)
(3 -2.560482757e-15 0)
(3 -2.838988254e-15 0)
(3 -3.55262701e-15 0)
(3 -4.535305337e-15 0)
(3 -4.504292761e-15 0)
(3 -3.596615349e-15 0)
(3 -2.516847182e-15 0)
(3 -2.471939561e-15 0)
(3 -2.357821532e-15 0)
(3 -2.69452656e-15 0)
(3 -3.471504315e-15 0)
(3 -3.355869796e-15 0)
(3 -2.98876122e-15 0)
(3 -2.684267033e-15 0)
(3 -1.765285373e-15 0)
(3 -9.393260702e-16 0)
(3 -6.931093526e-16 0)
(3 -3.13794866e-16 0)
(3 3.394237993e-16 0)
(3 2.56837541e-15 0)
(3 3.265117712e-15 0)
(3 4.233173254e-15 0)
(3 5.447886347e-15 0)
(3 5.733987288e-15 0)
(3 7.747181048e-15 0)
(3 8.730308004e-15 0)
(3 3.876229933e-15 0)
(3 3.760229507e-15 0)
(3 2.595230332e-15 0)
(3 1.298411649e-15 0)
(3 -8.464793447e-16 0)
(3 -1.61563723e-15 0)
(3 -1.423591965e-15 0)
(3 -1.188785378e-15 0)
(3 -2.007267543e-15 0)
(3 -2.97393197e-15 0)
(3 -2.967137298e-15 0)
(3 -3.032183513e-15 0)
(3 -3.187551008e-15 0)
(3 -2.571857483e-15 0)
(3 -2.622418525e-15 0)
(3 -3.72965972e-15 0)
(3 -3.234146977e-15 0)
(3 -3.044988472e-15 0)
(3 -3.196418385e-15 0)
(3 -1.655951997e-15 0)
(3 -1.920404225e-15 0)
(3 -1.136643696e-15 0)
(3 1.46585701e-16 0)
(3 1.150445835e-16 0)
(3 7.261134041e-16 0)
(3 1.2585838e-15 0)
(3 6.590170853e-16 0)
(3 1.045503803e-15 0)
(3 1.164113495e-15 0)
(3 1.81050676e-15 0)
(3 3.144265327e-15 0)
(3 3.498969048e-15 0)
(3 4.842303445e-15 0)
(3 5.59518967e-15 0)
(3 3.353728132e-15 0)
(3 3.350425762e-15 0)
(3 3.549381652e-15 0)
(3 2.052745549e-15 0)
(3 3.072173948e-16 0)
(3 2.501762776e-16 0)
(3 5.562354578e-17 0)
(3 -8.848166576e-16 0)
(3 -1.580166741e-15 0)
(3 -2.281145758e-15 0)
(3 -2.714836859e-15 0)
(3 -3.13617727e-15 0)
(3 -3.87484388e-15 0)
(3 -4.396223761e-15 0)
(3 -4.595541905e-15 0)
(3 -4.937360619e-15 0)
(3 -3.627193779e-15 0)
(3 -2.04639253e-15 0)
(3 -1.622010189e-15 0)
(3 -2.19303766e-15 0)
(3 -2.050767759e-15 0)
(3 -1.50711996e-15 0)
(3 -1.925557589e-15 0)
(3 -1.459588478e-15 0)
(3 -7.841630911e-16 0)
(3 1.087769146e-15 0)
(3 3.242519605e-15 0)
(3 3.585332579e-15 0)
(3 3.531708664e-15 0)
(3 3.352046316e-15 0)
(3 3.596384285e-15 0)
(3 3.932576958e-15 0)
(3 5.880641058e-15 0)
(3 7.209125756e-15 0)
(3 1.501247627e-15 0)
(3 1.273934671e-15 0)
(3 1.241087846e-15 0)
(3 1.357455723e-15 0)
(3 2.276686449e-15 0)
(3 2.40212504e-15 0)
(3 1.064551706e-15 0)
(3 9.37354096e-16 0)
(3 1.096454664e-15 0)
(3 9.72503812e-16 0)
(3 -2.036654729e-16 0)
(3 -1.338186103e-15 0)
(3 -2.157558769e-15 0)
(3 -3.043961216e-15 0)
(3 -3.459280058e-15 0)
(3 -4.068361479e-15 0)
(3 -2.834577725e-15 0)
(3 -1.431510175e-15 0)
(3 -1.29501195e-15 0)
(3 -1.917034803e-15 0)
(3 -1.591852126e-15 0)
(3 -6.803464943e-16 0)
(3 -2.629675775e-16 0)
(3 -3.991448627e-16 0)
(3 -5.008588393e-16 0)
(3 7.37394006e-16 0)
(3 2.441779061e-15 0)
(3 1.889653277e-15 0)
(3 2.139104156e-15 0)
(3 2.056010131e-15 0)
(3 3.617314045e-15 0)
(3 5.692630264e-15 0)
(3 7.0246242e-15 0)
(3 7.016020557e-15 0)
(3 -1.378688612e-15 0)
(3 -6.609194143e-16 0)
(3 3.045808062e-16 0)
(3 2.00298809e-15 0)
(3 3.261808533e-15 0)
(3 2.792758085e-15 0)
(3 1.482488794e-15 0)
(3 -2.07907272e-16 0)
(3 -8.289289502e-16 0)
(3 -1.146150615e-15 0)
(3 -1.810460439e-15 0)
(3 -2.124867466e-15 0)
(3 -2.511833812e-15 0)
(3 -2.788209716e-15 0)
(3 -2.547632356e-15 0)
(3 -2.11774647e-15 0)
(3 -2.634495475e-15 0)
(3 -4.064491782e-15 0)
(3 -3.56147118e-15 0)
(3 -1.751110597e-15 0)
(3 -8.990234719e-17 0)
(3 8.539223246e-16 0)
(3 1.543073837e-15 0)
(3 1.81630717e-15 0)
(3 8.871331178e-16 0)
(3 3.087665102e-16 0)
(3 -6.320388349e-16 0)
(3 -1.832765623e-16 0)
(3 9.342168968e-17 0)
(3 6.186287416e-16 0)
(3 1.65778858e-15 0)
(3 3.249364471e-15 0)
(3 3.80868944e-15 0)
(3 3.328916177e-15 0)
(3 -2.886718666e-15 0)
(3 -1.884186278e-15 0)
(3 -3.533250457e-16 0)
(3 1.315271949e-15 0)
(3 4.31802263e-15 0)
(3 5.38871837e-15 0)
(3 5.455769223e-15 0)
(3 5.340424585e-15 0)
(3 4.663398604e-15 0)
(3 4.458389726e-15 0)
(3 4.065466163e-15 0)
(3 3.382716779e-15 0)
(3 3.352009118e-15 0)
(3 3.345323663e-15 0)
(3 2.650573836e-15 0)
(3 2.713959152e-15 0)
(3 3.322161143e-15 0)
(3 3.360161105e-15 0)
(3 3.080397674e-15 0)
(3 3.460131872e-15 0)
(3 4.421651093e-15 0)
(3 4.358935965e-15 0)
(3 4.17556513e-15 0)
(3 4.393457944e-15 0)
(3 3.154047325e-15 0)
(3 7.077840582e-16 0)
(3 1.067211498e-16 0)
(3 3.610588016e-16 0)
(3 1.057424447e-15 0)
(3 1.375808654e-15 0)
(3 7.019376333e-16 0)
(3 2.819340613e-16 0)
(3 4.828909818e-16 0)
(3 2.240416022e-15 0)
(3 -3.964891667e-15 0)
(3 -7.381856653e-16 0)
(3 1.364224834e-15 0)
(3 3.62044617e-15 0)
(3 6.331836891e-15 0)
(3 7.873175169e-15 0)
(3 9.363329684e-15 0)
(3 1.024448771e-14 0)
(3 1.089074273e-14 0)
(3 1.126044951e-14 0)
(3 1.157357187e-14 0)
(3 1.054527301e-14 0)
(3 1.057753592e-14 0)
(3 1.069444567e-14 0)
(3 1.05993655e-14 0)
(3 1.004484165e-14 0)
(3 1.031801056e-14 0)
(3 1.063748836e-14 0)
(3 9.325066633e-15 0)
(3 8.799862378e-15 0)
(3 6.201105047e-15 0)
(3 4.504115395e-15 0)
(3 4.269011284e-15 0)
(3 4.207343319e-15 0)
(3 3.172354055e-15 0)
(3 2.294249255e-15 0)
(3 1.791585047e-15 0)
(3 1.115914899e-15 0)
(3 1.060711295e-15 0)
(3 4.71813041e-16 0)
(3 1.597533037e-16 0)
(3 -6.471657971e-16 0)
(3 -1.478143198e-15 0)
(3 -2.188112874e-15 0)
(3 -6.147646208e-15 0)
(3 -2.829539541e-15 0)
(3 2.53842801e-16 0)
(3 2.130866146e-15 0)
(3 2.961880116e-15 0)
(3 4.316254012e-15 0)
(3 5.869858718e-15 0)
(3 7.265599503e-15 0)
(3 8.859989968e-15 0)
(3 9.18929473e-15 0)
(3 1.088839777e-14 0)
(3 1.124955233e-14 0)
(3 1.055781162e-14 0)
(3 1.041999725e-14 0)
(3 1.092722472e-14 0)
(3 1.058805135e-14 0)
(3 9.453780146e-15 0)
(3 8.983377012e-15 0)
(3 6.997093103e-15 0)
(3 6.435563155e-15 0)
(3 4.97777072e-15 0)
(3 2.58614597e-15 0)
(3 1.854769996e-15 0)
(3 1.695967849e-15 0)
(3 1.925428802e-15 0)
(3 2.192566115e-15 0)
(3 1.417434112e-15 0)
(3 3.745648431e-17 0)
(3 -4.305803498e-17 0)
(3 4.267706549e-16 0)
(3 -8.771212572e-16 0)
(3 -3.328312421e-15 0)
(3 -6.001607244e-15 0)
(3 -7.389213829e-15 0)
(3 -3.940823419e-15 0)
(3 -3.052905107e-15 0)
(3 -1.144806738e-15 0)
(3 6.369485459e-16 0)
(3 1.914638014e-15 0)
(3 2.599649332e-15 0)
(3 3.308175403e-15 0)
(3 4.467138595e-15 0)
(3 6.191503596e-15 0)
(3 7.976224723e-15 0)
(3 9.145564255e-15 0)
(3 1.052092955e-14 0)
(3 1.16379119e-14 0)
(3 1.122541991e-14 0)
(3 1.06850784e-14 0)
(3 1.084342177e-14 0)
(3 9.556005814e-15 0)
(3 7.369911e-15 0)
(3 5.022808565e-15 0)
(3 4.037292948e-15 0)
(3 4.430129527e-15 0)
(3 3.973001432e-15 0)
(3 2.798460979e-15 0)
(3 2.040248138e-15 0)
(3 1.33806512e-15 0)
(3 1.259759947e-15 0)
(3 4.560909796e-16 0)
(3 -4.745024981e-16 0)
(3 -2.307158008e-15 0)
(3 -3.399276547e-15 0)
(3 -4.957348913e-15 0)
(3 -7.468066435e-15 0)
(3 -1.04051976e-14 0)
(3 -1.253246006e-14 0)
(3 -2.744800424e-15 0)
(3 -2.051048792e-15 0)
(3 -6.243479959e-16 0)
(3 6.308770215e-16 0)
(3 1.662748011e-15 0)
(3 2.189154962e-15 0)
(3 3.549817099e-15 0)
(3 4.196045095e-15 0)
(3 4.821179844e-15 0)
(3 5.612865023e-15 0)
(3 5.55248226e-15 0)
(3 8.785950075e-15 0)
(3 1.146203728e-14 0)
(3 1.12173259e-14 0)
(3 9.186648521e-15 0)
(3 9.020451409e-15 0)
(3 8.716343065e-15 0)
(3 7.227597216e-15 0)
(3 5.392409245e-15 0)
(3 3.93753944e-15 0)
(3 2.983185131e-15 0)
(3 2.343118494e-15 0)
(3 6.890027053e-16 0)
(3 1.833088312e-17 0)
(3 -1.05865583e-15 0)
(3 -2.010143003e-15 0)
(3 -2.537557243e-15 0)
(3 -2.848992196e-15 0)
(3 -3.761996091e-15 0)
(3 -6.528846222e-15 0)
(3 -9.952359897e-15 0)
(3 -1.137752577e-14 0)
(3 -1.275039243e-14 0)
(3 -1.341596641e-14 0)
(3 -5.806720836e-18 0)
(3 -3.426844243e-17 0)
(3 1.873743324e-15 0)
(3 3.868511306e-15 0)
(3 4.024145234e-15 0)
(3 3.056347847e-15 0)
(3 3.174129309e-15 0)
(3 3.01660275e-15 0)
(3 1.015706814e-15 0)
(3 7.507496803e-16 0)
(3 8.026504041e-16 0)
(3 3.136919402e-15 0)
(3 4.274290739e-15 0)
(3 6.335425838e-15 0)
(3 6.518578711e-15 0)
(3 6.093560665e-15 0)
(3 5.959223664e-15 0)
(3 6.009793633e-15 0)
(3 6.166354359e-15 0)
(3 5.478139562e-15 0)
(3 3.78059216e-15 0)
(3 1.040498495e-15 0)
(3 4.122064174e-16 0)
(3 1.269832765e-15 0)
(3 1.315698798e-15 0)
(3 7.198164236e-16 0)
(3 -7.745856391e-16 0)
(3 -3.224759012e-15 0)
(3 -4.15843422e-15 0)
(3 -4.473918133e-15 0)
(3 -8.272555357e-15 0)
(3 -1.140733355e-14 0)
(3 -1.243021172e-14 0)
(3 -1.229587968e-14 0)
(3 4.13099824e-15 0)
(3 3.781599722e-15 0)
(3 4.304710966e-15 0)
(3 4.823408474e-15 0)
(3 5.774195415e-15 0)
(3 2.449386442e-15 0)
(3 3.619583246e-16 0)
(3 -3.096968861e-17 0)
(3 2.473191545e-16 0)
(3 -1.680069727e-16 0)
(3 -5.328378688e-16 0)
(3 -2.69457527e-15 0)
(3 -2.920674043e-15 0)
(3 -8.454781301e-16 0)
(3 6.823713717e-16 0)
(3 1.062784884e-15 0)
(3 9.041689424e-16 0)
(3 1.447388495e-15 0)
(3 2.519988978e-15 0)
(3 3.531005346e-15 0)
(3 4.064327598e-15 0)
(3 3.655651654e-15 0)
(3 3.41659757e-15 0)
(3 4.134507304e-15 0)
(3 4.676088053e-15 0)
(3 4.820419203e-15 0)
(3 2.455749133e-15 0)
(3 -3.032731341e-16 0)
(3 -1.369782135e-15 0)
(3 -3.666358062e-15 0)
(3 -8.024476536e-15 0)
(3 -9.343223686e-15 0)
(3 -9.850829077e-15 0)
(3 -8.606765949e-15 0)
(3 7.566449493e-15 0)
(3 6.67793795e-15 0)
(3 4.184730991e-15 0)
(3 2.000402986e-15 0)
(3 1.96243344e-15 0)
(3 1.829996222e-15 0)
(3 -2.402208234e-16 0)
(3 -9.171933541e-16 0)
(3 -1.518152092e-16 0)
(3 -1.287130988e-16 0)
(3 -1.132730367e-15 0)
(3 -1.906493113e-15 0)
(3 -2.549394411e-15 0)
(3 -2.505575762e-15 0)
(3 -1.890596723e-15 0)
(3 -1.283499609e-16 0)
(3 -1.154844844e-16 0)
(3 -2.388786941e-16 0)
(3 1.535081602e-16 0)
(3 1.029755551e-15 0)
(3 2.020081208e-15 0)
(3 3.630855441e-15 0)
(3 3.594877663e-15 0)
(3 2.984023951e-15 0)
(3 2.508121314e-15 0)
(3 1.469771615e-15 0)
(3 -1.803251062e-16 0)
(3 -1.285889683e-15 0)
(3 -1.49166545e-15 0)
(3 -2.724858362e-15 0)
(3 -3.091602725e-15 0)
(3 -3.194257289e-15 0)
(3 -3.307145676e-15 0)
(3 -2.615027068e-15 0)
(3 1.124514937e-14 0)
(3 9.529780469e-15 0)
(3 7.203398769e-15 0)
(3 3.905731398e-15 0)
(3 4.925981325e-16 0)
(3 -1.046288593e-15 0)
(3 -1.822618761e-15 0)
(3 -1.622532474e-15 0)
(3 -1.714605172e-15 0)
(3 -2.90193393e-15 0)
(3 -3.692589289e-15 0)
(3 -3.274299947e-15 0)
(3 -3.024793081e-15 0)
(3 -3.707937256e-15 0)
(3 -3.566990196e-15 0)
(3 -2.919791707e-15 0)
(3 -2.748588621e-15 0)
(3 -2.105369741e-15 0)
(3 -1.552299919e-15 0)
(3 -6.851722491e-16 0)
(3 -5.001096922e-17 0)
(3 5.378054658e-16 0)
(3 5.072198914e-16 0)
(3 -7.612337369e-16 0)
(3 -2.419336546e-15 0)
(3 -3.390387981e-15 0)
(3 -2.51790414e-15 0)
(3 -2.109437122e-15 0)
(3 -1.659667134e-15 0)
(3 -5.472928628e-16 0)
(3 2.31371368e-15 0)
(3 2.860151635e-15 0)
(3 3.04499552e-15 0)
(3 3.902654146e-15 0)
(3 6.17783602e-15 0)
(3 4.40324448e-15 0)
(3 3.232526281e-15 0)
(3 1.816111631e-15 0)
(3 7.340885857e-16 0)
(3 -4.170838922e-16 0)
(3 -1.222123033e-15 0)
(3 -1.557452564e-15 0)
(3 -2.219509636e-15 0)
(3 -3.121496634e-15 0)
(3 -3.860716829e-15 0)
(3 -2.660837239e-15 0)
(3 -1.720125988e-15 0)
(3 -8.267246389e-16 0)
(3 -1.283691431e-15 0)
(3 -2.774755624e-15 0)
(3 -2.409479155e-15 0)
(3 -1.105389223e-15 0)
(3 1.974907238e-16 0)
(3 2.374965595e-15 0)
(3 2.690849553e-15 0)
(3 3.081099478e-15 0)
(3 1.773949905e-15 0)
(3 1.624965848e-16 0)
(3 -2.023633901e-15 0)
(3 -3.080131557e-15 0)
(3 -2.379066744e-15 0)
(3 -4.811202715e-16 0)
(3 1.148757661e-15 0)
(3 1.582072964e-15 0)
(3 2.345051989e-15 0)
(3 3.874895046e-15 0)
(3 4.054488278e-15 0)
(3 4.541416361e-15 0)
(3 4.180756701e-15 0)
(3 3.614781689e-15 0)
(3 3.428765783e-15 0)
(3 8.197594492e-16 0)
(3 8.835091293e-17 0)
(3 -8.276917912e-16 0)
(3 -1.014730687e-15 0)
(3 -1.413226036e-15 0)
(3 -2.315455629e-15 0)
(3 -2.031161739e-15 0)
(3 -2.005498811e-15 0)
(3 -1.935265776e-15 0)
(3 -1.832098597e-15 0)
(3 -1.406414972e-15 0)
(3 -1.97127358e-15 0)
(3 -3.240183401e-15 0)
(3 -3.521761421e-15 0)
(3 -2.475343909e-15 0)
(3 -1.241645762e-15 0)
(3 2.117941889e-15 0)
(3 2.695608637e-15 0)
(3 1.550066031e-15 0)
(3 9.231969529e-16 0)
(3 9.101923695e-16 0)
(3 1.992180157e-16 0)
(3 -1.80847744e-16 0)
(3 -4.463576169e-16 0)
(3 1.857152093e-15 0)
(3 4.007848228e-15 0)
(3 4.595657014e-15 0)
(3 5.021406987e-15 0)
(3 5.315757158e-15 0)
(3 5.956541958e-15 0)
(3 6.91558806e-15 0)
(3 2.074255196e-15 0)
(3 2.463175219e-15 0)
(3 2.595297122e-15 0)
(3 2.198700389e-15 0)
(3 1.426192483e-15 0)
(3 9.46245349e-16 0)
(3 3.439621983e-16 0)
(3 -9.228574709e-16 0)
(3 -1.120591946e-15 0)
(3 -7.799567391e-16 0)
(3 -2.6456453e-16 0)
(3 -5.601824282e-16 0)
(3 -1.107383033e-15 0)
(3 -2.600022565e-15 0)
(3 -3.878763988e-15 0)
(3 -4.748293582e-15 0)
(3 -5.91704767e-15 0)
(3 -4.877746992e-15 0)
(3 -2.210437407e-15 0)
(3 -1.211667294e-15 0)
(3 -1.088890443e-15 0)
(3 4.715423894e-16 0)
(3 6.959133418e-16 0)
(3 2.016359001e-15 0)
(3 4.095610716e-15 0)
(3 4.324829622e-15 0)
(3 5.078029025e-15 0)
(3 5.612273868e-15 0)
(3 6.416118633e-15 0)
(3 8.123649573e-15 0)
(3 8.310585506e-15 0)
(3 7.968467529e-15 0)
(3 7.562581883e-15 0)
(3 7.307651139e-15 0)
(3 1.081794992e-15 0)
(3 2.102082982e-15 0)
(3 2.018321288e-15 0)
(3 2.825480719e-15 0)
(3 3.439182219e-15 0)
(3 4.215638333e-15 0)
(3 3.758806314e-15 0)
(3 2.760352244e-15 0)
(3 1.977196318e-15 0)
(3 1.510229614e-15 0)
(3 1.192740262e-15 0)
(3 6.881180743e-16 0)
(3 4.696374252e-17 0)
(3 -9.742945838e-16 0)
(3 -1.742300059e-15 0)
(3 -2.423457473e-15 0)
(3 -3.656647129e-15 0)
(3 -2.172550183e-15 0)
(3 9.718466473e-16 0)
(3 1.520411809e-15 0)
(3 2.06202023e-15 0)
(3 3.035824823e-15 0)
(3 4.382543515e-15 0)
(3 5.510840776e-15 0)
(3 6.393401114e-15 0)
(3 7.351314083e-15 0)
(3 8.239677827e-15 0)
(3 9.134835083e-15 0)
(3 9.675121684e-15 0)
(3 9.66325868e-15 0)
(3 1.006140852e-14 0)
(3 1.002570621e-14 0)
(3 9.525115535e-15 0)
(3 8.961526527e-15 0)
(3 9.950187345e-16 0)
(3 1.106759479e-15 0)
(3 5.855562356e-16 0)
(3 9.32874935e-16 0)
(3 1.038101439e-15 0)
(3 1.367770102e-15 0)
(3 1.826346336e-15 0)
(3 2.079228969e-15 0)
(3 1.869750152e-15 0)
(3 1.335253071e-15 0)
(3 9.309804071e-16 0)
(3 3.05536173e-16 0)
(3 -6.927317108e-16 0)
(3 -5.692887518e-16 0)
(3 7.450399466e-16 0)
(3 1.823399352e-15 0)
(3 2.650657572e-15 0)
(3 3.786067478e-15 0)
(3 4.447955721e-15 0)
(3 4.81414438e-15 0)
(3 5.746429014e-15 0)
(3 6.265135883e-15 0)
(3 7.244408154e-15 0)
(3 8.431946189e-15 0)
(3 8.748481816e-15 0)
(3 9.680640703e-15 0)
(3 1.063373945e-14 0)
(3 1.146945859e-14 0)
(3 1.2127172e-14 0)
(3 1.137387733e-14 0)
(3 1.04340932e-14 0)
(3 1.004867963e-14 0)
(3 8.716186319e-15 0)
(3 8.015242563e-15 0)
(3 -2.67105457e-15 0)
(3 -2.950451447e-15 0)
(3 -3.095846381e-15 0)
(3 -3.505784279e-15 0)
(3 -3.964307398e-15 0)
(3 -4.373165108e-15 0)
(3 -3.906952743e-15 0)
(3 -2.560838281e-15 0)
(3 -1.61555329e-15 0)
(3 -5.74854999e-17 0)
(3 2.517416218e-16 0)
(3 -2.957850233e-16 0)
(3 -1.920166062e-16 0)
(3 2.366672743e-16 0)
(3 1.525133585e-15 0)
(3 3.739581811e-15 0)
(3 5.368587725e-15 0)
(3 6.458285591e-15 0)
(3 6.986156712e-15 0)
(3 7.196620981e-15 0)
(3 7.821741306e-15 0)
(3 8.129222245e-15 0)
(3 -2.090952965e-15 0)
(3 -2.842791048e-15 0)
(3 -2.788173385e-15 0)
(3 -3.807453979e-15 0)
(3 -3.056522755e-15 0)
(3 -8.765046366e-16 0)
(3 -4.820398341e-16 0)
(3 1.300519732e-15 0)
(3 2.191915783e-15 0)
(3 1.601544384e-15 0)
(3 8.337732367e-16 0)
(3 7.927551981e-16 0)
(3 8.055350635e-16 0)
(3 2.645953208e-15 0)
(3 4.533150716e-15 0)
(3 6.191442858e-15 0)
(3 6.791105945e-15 0)
(3 5.910677866e-15 0)
(3 5.204643084e-15 0)
(3 3.30352146e-15 0)
(3 3.059889185e-15 0)
(3 2.470336846e-15 0)
(3 2.179310746e-15 0)
(3 9.328374273e-16 0)
(3 5.866822569e-16 0)
(3 -3.029977332e-16 0)
(3 -1.381877874e-15 0)
(3 -3.661748568e-15 0)
(3 -3.507744256e-15 0)
(3 -2.721450506e-15 0)
(3 -1.124812262e-16 0)
(3 -2.345243952e-16 0)
(3 -1.516562592e-15 0)
(3 1.38778954e-15 0)
(3 -2.370779078e-18 0)
(3 6.47252136e-17 0)
(3 1.428375752e-15 0)
(3 3.983813199e-15 0)
(3 4.315168858e-15 0)
(3 3.467484128e-15 0)
(3 4.604329048e-15 0)
(3 4.509685011e-15 0)
(3 4.621167369e-15 0)
(3 3.40669841e-15 0)
(3 3.50990882e-15 0)
(3 3.565149792e-15 0)
(3 4.805697187e-15 0)
(3 4.987086119e-15 0)
(3 5.262281397e-15 0)
(3 5.176174838e-15 0)
(3 4.458953446e-15 0)
(3 5.240523969e-15 0)
(3 4.681108542e-15 0)
(3 4.358902549e-15 0)
(3 3.905948184e-15 0)
(3 2.487207199e-15 0)
(3 8.655202053e-16 0)
(3 -9.892984013e-16 0)
(3 -2.713341951e-15 0)
(3 -5.246301711e-15 0)
(3 -5.601533698e-15 0)
(3 -5.923543181e-15 0)
(3 -3.933720218e-15 0)
(3 -7.115341136e-16 0)
(3 -1.300476239e-15 0)
(3 -1.139083041e-15 0)
(3 4.481454693e-15 0)
(3 4.021039484e-15 0)
(3 4.130125267e-15 0)
(3 5.869037088e-15 0)
(3 5.697142029e-15 0)
(3 5.280786839e-15 0)
(3 4.989219169e-15 0)
(3 6.001333841e-15 0)
(3 7.245711179e-15 0)
(3 7.527224292e-15 0)
(3 6.947637113e-15 0)
(3 6.176774298e-15 0)
(3 6.374087993e-15 0)
(3 7.686236692e-15 0)
(3 8.623330722e-15 0)
(3 8.395145278e-15 0)
(3 9.275970026e-15 0)
(3 8.747197798e-15 0)
(3 7.754577881e-15 0)
(3 5.693969301e-15 0)
(3 4.82370611e-15 0)
(3 5.015141433e-15 0)
(3 2.294382425e-15 0)
(3 7.150334141e-16 0)
(3 -2.164651192e-15 0)
(3 -3.65890564e-15 0)
(3 -3.683232905e-15 0)
(3 -2.529504009e-15 0)
(3 -8.470700826e-16 0)
(3 9.990415684e-16 0)
(3 1.316108337e-15 0)
(3 1.420148234e-15 0)
(3 1.127253203e-15 0)
(3 7.847784728e-15 0)
(3 7.193698333e-15 0)
(3 9.68966371e-15 0)
(3 9.142085454e-15 0)
(3 7.346718209e-15 0)
(3 6.391536381e-15 0)
(3 7.714017819e-15 0)
(3 7.297332275e-15 0)
(3 9.250113206e-15 0)
(3 7.314539959e-15 0)
(3 7.17503261e-15 0)
(3 6.318224584e-15 0)
(3 6.414629722e-15 0)
(3 6.59531977e-15 0)
(3 7.327577307e-15 0)
(3 7.217508378e-15 0)
(3 7.518445195e-15 0)
(3 6.91991865e-15 0)
(3 5.404862334e-15 0)
(3 4.998973461e-15 0)
(3 4.251647382e-15 0)
(3 2.678290225e-15 0)
(3 2.668980518e-15 0)
(3 -2.575443344e-16 0)
(3 -1.868696969e-15 0)
(3 -1.755361009e-15 0)
(3 1.294935236e-16 0)
(3 1.047478084e-15 0)
(3 2.205102909e-15 0)
(3 2.887006364e-15 0)
(3 2.699454669e-15 0)
(3 3.122451167e-15 0)
(3 2.847120724e-15 0)
(3 5.469563485e-15 0)
(3 5.785728161e-15 0)
(3 6.164256755e-15 0)
(3 5.657657897e-15 0)
(3 6.60421165e-15 0)
(3 6.926042587e-15 0)
(3 6.635886799e-15 0)
(3 4.720993616e-15 0)
(3 3.299402737e-15 0)
(3 3.974857377e-15 0)
(3 3.398377337e-15 0)
(3 3.904012953e-15 0)
(3 3.21947561e-15 0)
(3 1.063118354e-15 0)
(3 2.118912553e-18 0)
(3 1.488785395e-15 0)
(3 2.240464491e-15 0)
(3 3.765703156e-15 0)
(3 4.065606053e-15 0)
(3 6.005806946e-15 0)
(3 5.530142709e-15 0)
(3 4.298640739e-15 0)
(3 2.010353068e-15 0)
(3 1.454673308e-16 0)
(3 -2.532709725e-15 0)
(3 -1.549586222e-15 0)
(3 3.797558374e-16 0)
(3 1.129692431e-15 0)
(3 1.80416167e-15 0)
(3 1.484005438e-15 0)
(3 2.798834548e-15 0)
(3 3.845731618e-15 0)
(3 4.801364191e-15 0)
(3 -5.409001869e-17 0)
(3 6.281352276e-16 0)
(3 3.196191069e-16 0)
(3 -3.482751838e-16 0)
(3 7.493076457e-16 0)
(3 2.057598039e-15 0)
(3 2.221459169e-15 0)
(3 3.087129476e-15 0)
(3 2.204357693e-15 0)
(3 3.655189965e-15 0)
(3 4.115738704e-15 0)
(3 3.453295546e-15 0)
(3 2.136692142e-15 0)
(3 1.034320415e-15 0)
(3 1.293783623e-15 0)
(3 2.375591796e-15 0)
(3 2.604241009e-15 0)
(3 3.676975214e-15 0)
(3 3.960459365e-15 0)
(3 1.73713107e-15 0)
(3 1.267277338e-16 0)