/*--------------------------------*- C++ -*----------------------------------*\
  =========                 |
  \\      /  F ield         | OpenFOAM: The Open Source CFD Toolbox
   \\    /   O peration     | Website:  https://openfoam.org
    \\  /    A nd           | Version:  7
     \\/     M anipulation  |
\*---------------------------------------------------------------------------*/
FoamFile
{
    version     2.0;
    format      ascii;
    class       volScalarField;
    location    "3.8";
    object      p;
}
// * * * * * * * * * * * * * * * * * * * * * * * * * * * * * * * * * * * * * //

dimensions      [1 -1 -2 0 0 0 0];

internalField   nonuniform List<scalar> 
2222
(
0.9756402091
0.9750755899
0.9835714557
0.9839017269
0.9826472593
0.9836860143
0.9880694625
0.9951598076
0.9965358067
0.9971946701
0.9980963764
0.9981356821
0.9976600193
0.996864127
0.9979604932
1.000637231
1.003305464
1.003690074
0.6483188365
0.8815375815
0.9752960353
0.9955648825
0.9831138911
0.9770041251
0.9807612457
0.9823073736
0.9788289165
0.9773696286
0.9799966544
0.9904743932
0.9960294133
0.9972078938
0.9971426222
0.9984664773
0.9988145197
0.9980803176
0.9971978486
0.9982047969
1.002012549
1.003490193
1.002793436
0.6344977113
0.8370882921
0.9520458048
0.9942262121
0.9921320063
0.9898999413
0.9859406173
0.98050288
0.9750307747
0.9750276318
0.9822385695
0.9894349733
0.9927982002
0.9939545704
0.9964382477
0.9978865769
0.9983771004
0.9977480472
0.9977944535
1.000144906
1.002501072
1.002670093
1.000750652
0.6250014795
0.7829271423
0.9169853899
0.9817444178
0.9989643071
0.9984528683
0.9913642061
0.9834011553
0.9778902317
0.9791964857
0.9839716258
0.9863437669
0.9876764009
0.9910223097
0.9950058097
0.9972015391
0.9976836693
0.9975696659
0.9989211412
1.000975067
1.002311864
1.001372263
0.9994904633
0.6154212904
0.718723498
0.8780387777
0.9761903768
0.9980646135
0.9940505394
0.9880535366
0.9836640612
0.9835680699
0.9867990348
0.9857928731
0.9837993777
0.9845232336
0.9894290019
0.9955157212
0.9975840216
0.9977150713
0.9979569246
0.9992213852
1.000633495
1.001527785
1.001331367
1.000021496
0.5986922248
0.6607779322
0.8212620429
0.969702156
0.9936535796
0.9880443446
0.981369579
0.9807879948
0.9867545509
0.9872544546
0.9858732809
0.9843484312
0.9858284756
0.9930933197
0.9967428346
0.9971799117
0.9973535564
0.9976160726
0.9983059281
0.9990734083
1.000025893
1.001340187
1.00150394
1.000742482
0.5824038136
0.6334763603
0.7618361147
0.9384062015
0.9875622737
0.9823578598
0.978843415
0.9826395707
0.9860586
0.9839094678
0.9818844721
0.9827238571
0.9896718049
0.9956878569
0.9970998145
0.9967343637
0.9973009123
0.9976381444
0.997752981
0.9977740652
0.9990079435
1.001590566
1.003230613
1.003115172
0.5749020056
0.619685305
0.7234656175
0.8726373434
0.9654979763
0.9828142379
0.9841375681
0.9874692387
0.98415922
0.9784503436
0.977681049
0.9824546803
0.9902696578
0.9943748864
0.9959872553
0.9972259332
0.9985633387
0.9989326079
0.9983924751
0.9979824891
0.9993613722
1.002237989
1.003849922
1.003752309
0.5711277607
0.6082674553
0.6857516798
0.8208490196
0.9429508204
0.9840282495
0.993016456
0.9921933169
0.9836426514
0.9770773436
0.9773149866
0.9838593506
0.9883063423
0.9909614235
0.9924223403
0.9961368363
0.99866438
0.9991630085
0.9986536386
0.9986585965
1.000646487
1.003005738
1.004353778
1.003574389
0.5662630437
0.5904735923
0.6382707071
0.7845776301
0.9340592036
0.9891894338
0.9938708025
0.9901543845
0.9814346716
0.9786631647
0.9816737264
0.9848009265
0.9861641998
0.9857230942
0.9899604303
0.9950209517
0.9977279199
0.9980136999
0.9978259783
0.9982245606
1.000555848
1.002359905
1.0037201
1.001950986
0.5619508406
0.5774509348
0.6121227583
0.7378903984
0.9122975701
0.9866067095
0.9921086854
0.982564579
0.9811624412
0.9837284752
0.9856154186
0.9856957725
0.9826342241
0.9846569534
0.990546251
0.9952020761
0.9963121691
0.9963202582
0.9963876574
0.9979353276
0.9999605462
1.00098966
1.001354229
0.9998427019
0.5599798854
0.5720245016
0.6001624555
0.6878606723
0.8526556224
0.974279923
0.9821992068
0.9790557989
0.9839374494
0.9868550073
0.9864400107
0.9825631367
0.9818291561
0.9859357474
0.9927109191
0.9956843342
0.9964853918
0.9962139325
0.9965050879
0.9971512456
0.998209422
0.9982263699
0.9987839312
0.9986859823
0.9984735477
0.555803939
0.5663052467
0.5896939515
0.651688384
0.7800741527
0.9250695944
0.9706316827
0.9799916249
0.9880663859
0.98846318
0.9836819667
0.9800595241
0.9818399095
0.9883423427
0.9933283194
0.9960224196
0.9966076503
0.9968577029
0.9970237382
0.996947625
0.9965800567
0.9971980144
0.9977182934
0.9982559171
0.9991138165
0.5526239678
0.5587779212
0.5769680502
0.6210845057
0.7408818964
0.8790600811
0.9610432638
0.98641425
0.9918969785
0.9879868846
0.9799110385
0.9795896978
0.9842584879
0.9893550378
0.9930327712
0.993613322
0.9957186527
0.9976964207
0.9978499717
0.9972223326
0.9963812307
0.9974558212
0.9988857252
0.9996214323
0.99970699
0.5495186979
0.5554791254
0.5676146733
0.5989494573
0.707892594
0.858579999
0.9617898174
0.9902470748
0.9928388887
0.9829949676
0.9796620446
0.9820792803
0.985961294
0.9893654683
0.9888478378
0.9908408989
0.9948026739
0.9970330304
0.9971146037
0.9966180235
0.9970224982
0.998871319
1.000342662
1.000444911
1.000259989
0.5469125938
0.5547694741
0.5619232317
0.5832397746
0.6591346437
0.8255904302
0.9555322737
0.9897495377
0.9861970592
0.9810079497
0.9810717664
0.9849652966
0.9874367807
0.9861167156
0.9864944659
0.9907767206
0.9951464787
0.9966650876
0.9966536582
0.996538664
0.9978636285
0.9999185637
1.001305963
1.001056006
1.000378707
0.5461253379
0.5535443757
0.5572932365
0.5729628556
0.6245135181
0.7604230823
0.9277811448
0.9779172497
0.9775970184
0.9801794347
0.9845644003
0.9869534449
0.9857503151
0.984292313
0.9869013213
0.9924709824
0.99639242
0.9967398526
0.9964888657
0.9965395873
0.9981269935
0.9999426012
1.001019589
1.000153477
0.999604091
0.5456647848
0.5514217053
0.5544871499
0.5669339222
0.607408471
0.7064176366
0.8589372377
0.9508180324
0.9766898575
0.9844409352
0.9865197756
0.9866827816
0.9833837082
0.9842832437
0.9887820911
0.9944094519
0.9969377459
0.9967161019
0.9965411593
0.9966284739
0.9977613091
0.9984567896
0.999508867
0.9989788231
0.9985893648
0.5455007318
0.5494605937
0.5532011237
0.5620848617
0.5917323048
0.6754564399
0.8095026751
0.9292767764
0.9768171102
0.9875773411
0.9884522715
0.9837942532
0.9820182198
0.9850138684
0.9899261425
0.9939190833
0.9949635419
0.9958620102
0.9966868275
0.9967615049
0.9970580936
0.9972002026
0.9982475987
0.9981069002
0.9973679575
0.9967445506
0.5459946844
0.5481283547
0.5525295295
0.556331086
0.5753614582
0.6445799911
0.7831103313
0.9151526837
0.9794177507
0.9903084286
0.9856996683
0.982136432
0.9823930745
0.9859548903
0.988790207
0.9897827637
0.9913837756
0.994294065
0.996549617
0.9967309753
0.9967446635
0.9971281845
0.998063853
0.9978945107
0.9971285701
0.996848551
0.5456426476
0.5469193332
0.5504961043
0.5524884552
0.5660205153
0.6117005667
0.7362740018
0.8911849021
0.9779722209
0.9881062119
0.9819537163
0.9824638801
0.9850114613
0.9866978299
0.9858910592
0.9859258184
0.9889080097
0.9929583278
0.9956908751
0.9963336972
0.9966952484
0.9978234076
0.9988485886
0.9987997122
0.9981723701
0.9980268564
0.5447508355
0.5456622241
0.5482418544
0.5502034285
0.5596216677
0.5929035777
0.681842392
0.845745902
0.9597354958
0.9798583266
0.9790952327
0.9837151471
0.9866705645
0.9856654331
0.9842400746
0.985702061
0.9893147869
0.9927712857
0.9946492062
0.9951152583
0.9958087239
0.9976446084
0.9990899095
0.9994729553
0.9991007096
0.9993592301
0.5434076575
0.5447236681
0.5468573195
0.5479853059
0.5530823632
0.5800946389
0.6527335427
0.7959308153
0.9276849116
0.9735232824
0.9796739032
0.9856984404
0.9868665519
0.9842856382
0.9846907881
0.9874125892
0.9910496479
0.993744093
0.9942912777
0.9940759325
0.9943860897
0.9964389523
0.9981594931
0.9989005798
0.9993017832
1.00034089
0.5419673108
0.5440231861
0.5463798903
0.5471370461
0.5493431438
0.5677143739
0.6275653816
0.7551518825
0.8996379377
0.9686598894
0.9836639599
0.9874986933
0.9857733667
0.984337707
0.9861905558
0.9895152424
0.9924890393
0.9945025318
0.9951058306
0.9949250301
0.995186337
0.9967563773
0.9981495083
0.998985381
0.9996976547
1.00088052
0.541219121
0.5438623095
0.5468662998
0.5468901715
0.5476231053
0.5594176712
0.599214305
0.7119313071
0.8658942426
0.9598696479
0.9852894105
0.9871709484
0.9845363024
0.9854914524
0.988013059
0.9905022132
0.9922730693
0.9940273937
0.9955054273
0.9962880313
0.9969258152
0.9980694913
0.999210955
1.000017091
1.000270544
1.000901234
1.001644682
0.5421853556
0.5436867971
0.5468483989
0.5468240424
0.5469803099
0.5544344273
0.5815886202
0.660510336
0.8135878372
0.9426440694
0.9842763116
0.9831995004
0.9840615409
0.9871106643
0.9884894656
0.9893180348
0.9901235713
0.9919185881
0.9945779161
0.9966378571
0.9976492616
0.9985800686
1.000035374
1.000947877
1.000447749
0.9997469226
0.9994277952
0.5440927246
0.5432782771
0.5465562116
0.546441702
0.5456910098
0.55052057
0.5731591269
0.6305591963
0.7630439287
0.9129107697
0.975148029
0.9778808916
0.9844108881
0.9871260186
0.9869734626
0.9860658564
0.9871944947
0.9896405309
0.9928559149
0.9955090945
0.9967804476
0.9979525937
0.999981478
1.000607685
0.9995515147
0.9977118283
0.9968244705
0.5444647281
0.5429754664
0.5460740624
0.545725442
0.5446458112
0.5471131278
0.5635731975
0.6141385371
0.7308055526
0.8835883593
0.9617331698
0.9787801114
0.9848123941
0.986332083
0.9843440799
0.9839488244
0.9859242414
0.9886430441
0.9917005773
0.9943384822
0.9955736563
0.9969548615
0.9987714622
0.9991843231
0.9980889217
0.996947712
0.9966459227
0.5446004671
0.5426923858
0.5455063523
0.5457972285
0.5441194183
0.5446770151
0.5550400867
0.5912018125
0.6956148067
0.8572490743
0.9536261067
0.9810641696
0.985407474
0.9853057014
0.9830939463
0.9846129023
0.9871070535
0.9897764505
0.9922710512
0.9944273549
0.9956643261
0.9969311766
0.9977175177
0.9986786513
0.9982705302
0.9977242473
0.9978225322
0.5446206155
0.5421507695
0.5445729564
0.5458085853
0.5438899894
0.5436559494
0.5510867517
0.5730301277
0.6492165032
0.8058806332
0.9336741033
0.9770763691
0.9854407791
0.9833363917
0.9844079163
0.9866723126
0.9891176403
0.9910586548
0.9928730696
0.9945457814
0.9958790038
0.9970671273
0.9974601242
0.9991791657
0.999647874
0.9989395917
0.998948627
0.5442723639
0.541419848
0.5437141857
0.5460064111
0.544457179
0.5428883196
0.5485094606
0.5653334402
0.6156336846
0.7392696465
0.8900300737
0.9660133376
0.9815475117
0.9836321296
0.9871623434
0.9895055268
0.9902623446
0.9911003047
0.9918705841
0.9930989025
0.9945596548
0.9959730338
0.9974525945
1.000049131
1.000688455
0.9996308172
0.9991963529
0.5441948471
0.5411997639
0.5432368869
0.546064369
0.5446573818
0.542409184
0.5456010909
0.5599904403
0.5997628241
0.6975215658
0.841265512
0.9480442916
0.9767740041
0.9854648178
0.9896296545
0.9904599867
0.9899887763
0.9891443691
0.9893612347
0.9906008538
0.9923967938
0.9945001485
0.9977248732
1.000500565
1.000629684
0.9990598311
0.9982539952
0.9980956658
0.5443770047
0.5412770506
0.5430339074
0.5460268604
0.5448001994
0.5423083949
0.5435609717
0.5524242423
0.5832462099
0.6742255431
0.8170419491
0.9352467536
0.9771809898
0.9882203524
0.990397108
0.9889330886
0.9868659854
0.9864015637
0.9874594324
0.9890572733
0.9912325942
0.9942304717
0.998000687
0.9999403074
0.9992841777
0.997073033
0.9960177916
0.9959955496
0.5448338407
0.5416944688
0.5429997898
0.5459173415
0.5448962974
0.5425363421
0.5424462341
0.5484377272
0.5674728439
0.6427705575
0.7999946056
0.9319602909
0.9808262309
0.9888617344
0.9891312366
0.985523322
0.9854390576
0.9864673578
0.9880099914
0.9896977872
0.991922442
0.9950052124
0.9978632972
0.9983418118
0.9980652275
0.9961151513
0.9955004657
0.9957747277
0.546530807
0.5422887648
0.5429489688
0.5457111598
0.5449201658
0.5428448964
0.5421916199
0.5471743924
0.5606816224
0.609960599
0.7456422924
0.9081548874
0.9768864675
0.9870566707
0.9848343426
0.9851850286
0.9861529315
0.9876607415
0.9891906443
0.9909099152
0.9933387735
0.9958823266
0.9972594499
0.9975987356
0.9982627618
0.9968150417
0.9963150722
0.9965053484
0.5492324671
0.5427152584
0.5424056115
0.5452698676
0.5449537238
0.5434261574
0.541900022
0.5457639231
0.5567008698
0.5902425401
0.6818926387
0.8441675197
0.9494513161
0.9777310948
0.9834261597
0.9865690548
0.9888740487
0.9903517897
0.9912117825
0.9924056534
0.9940373987
0.9958825818
0.9963266798
0.9976742472
0.9989286263
0.9978154511
0.9974036059
0.9973823706
0.5507148203
0.5432334806
0.5419221914
0.544734937
0.5450469321
0.5437859688
0.541738888
0.5440557893
0.5509244257
0.5756358253
0.6483731378
0.7807283973
0.9061737985
0.9682084587
0.9845462144
0.9897013371
0.9908826472
0.9913524934
0.9918175816
0.9925870239
0.9935813479
0.9940277515
0.995107218
0.9979355747
1.000190813
0.9994796191
0.998867206
0.9986684898
0.5514014737
0.5438524211
0.5418671366
0.5445192576
0.5451642773
0.5439503538
0.5414768778
0.5424725793
0.5463281712
0.5626471308
0.6267500452
0.7531760508
0.8844234227
0.9663201365
0.9881661001
0.9905481862
0.9915174385
0.9911962197
0.9909641863
0.990844031
0.9907586305
0.9912309557
0.9945332973
0.9985162367
1.001348099
1.000422334
0.9988949743
0.9983922618
0.9979052539
0.5518622538
0.5444657717
0.5420156584
0.5444045419
0.5450113887
0.543972181
0.5413763797
0.5413729688
0.5444881862
0.5560778623
0.6009754702
0.7277525333
0.8843960174
0.9705032696
0.9897455511
0.9906439349
0.9896654953
0.9889729181
0.9885254461
0.9883661414
0.9887915125
0.9907855564
0.9946033816
0.9987916502
1.001209916
0.9999475546
0.9981977373
0.9973991196
0.9970842294
0.5517041304
0.5450591653
0.5421125682
0.5441738723
0.5447772223
0.5439582792
0.5415662828
0.5410392458
0.5438093496
0.5530206958
0.5829677754
0.6798799353
0.8575193329
0.9627587998
0.9886512765
0.9877519726
0.9871729875
0.9876797794
0.9877515924
0.9881140458
0.9887939174
0.9913392301
0.995357727
0.998574958
0.9997345681
0.998301858
0.9964579922
0.9953401941
0.9956436634
0.551721579
0.5456330177
0.5423110031
0.5439396524
0.544553644
0.5439749857
0.5421233739
0.541574871
0.5434772727
0.55057428
0.5718082983
0.6395520944
0.7907153271
0.9292024166
0.9763043535
0.9842587303
0.9865383888
0.9874693352
0.9881002598
0.9890606659
0.9906031554
0.9931722709
0.9955052437
0.9971468755
0.9975629416
0.9963681435
0.9953050481
0.9955042626
0.9960793864
0.5518260634
0.5462431204
0.54269378
0.543980558
0.5449943045
0.5444640005
0.543175208
0.541962556
0.5431588761
0.5476898054
0.5616381536
0.6149576919
0.7356170288
0.8825343009
0.9599555731
0.9823237287
0.987766825
0.9894416451
0.9903635664
0.9908117875
0.9916785947
0.9931764167
0.9948973884
0.9959423205
0.9977920635
0.9974179594
0.9964033646
0.9962248984
0.9966592624
0.5520564572
0.5470877162
0.5432153551
0.5441414557
0.5451180483
0.5445479457
0.5436243361
0.5421543287
0.5425079411
0.5454183851
0.5542816497
0.5926140258
0.7019740898
0.844473939
0.9426339723
0.9831731206
0.9901642705
0.9914466359
0.9911072192
0.9906011545
0.9914120437
0.9921409696
0.993030478
0.9955722592
0.9983850024
0.9993726894
0.9977354224
0.9971965419
0.9977138865
0.5527793987
0.5492405711
0.5438142732
0.5443382343
0.5452349844
0.5445249912
0.5438362103
0.5421649963
0.5415263368
0.5437638045
0.5506338625
0.5756541497
0.6649827093
0.8220146061
0.9419953396
0.9846785818
0.9905369671
0.9917582259
0.9904014385
0.9894608568
0.98951748
0.9898057786
0.9917495463
0.9955534102
0.9995451817
1.001004765
0.9989135017
0.9980720263
0.9980452781
0.55464513
0.551195863
0.5444710796
0.5445330378
0.5453938561
0.5444790562
0.5438519943
0.5421514533
0.5407729065
0.5425646387
0.5483306406
0.5669963729
0.6285509964
0.7786328811
0.9290877028
0.982798893
0.9900003926
0.9904299798
0.9885021785
0.9877357488
0.9879715885
0.9887691302
0.9915926414
0.9962343209
1.000819809
1.001419825
0.9984657192
0.997299146
0.9970598646
0.9968313361
0.5557380879
0.5518411425
0.5450781647
0.5447468484
0.5456104814
0.5443178034
0.5438692872
0.5422662569
0.5404668159
0.5418611115
0.5460722613
0.560146691
0.6067366408
0.7255817333
0.8900125136
0.9724403743
0.9878565393
0.9875606487
0.9874656266
0.9869152055
0.9874157489
0.9891525847
0.9931303958
0.9972839535
1.00061797
1.000049225
0.9973092706
0.9961036842
0.9955927841
0.9953584874
0.5559240784
0.5517841185
0.5453795345
0.545278327
0.5459671201
0.5441102557
0.5439037639
0.5425517938
0.5405383073
0.5412558281
0.5444527978
0.5531325601
0.5878200858
0.6913357978
0.8478782389
0.9523606098
0.9819929618
0.9867338906
0.9870847154
0.9875520003
0.9891859356
0.9910902064
0.993727162
0.9967398743
0.9990834003
0.9986264443
0.9954598858
0.9940672103
0.9940527643
0.9945124328
0.5552426201
0.5516540043
0.5457786508
0.5455043618
0.5464073349
0.5441554499
0.5442451814
0.5433710209
0.5409292828
0.5410011186
0.5436770404
0.5495401156
0.5716971663
0.6567453759
0.8097303398
0.9334413505
0.976927038
0.9869648644
0.9891354685
0.9903054026
0.9910186522
0.991685603
0.993167986
0.9951893858
0.996885683
0.9969475785
0.9952424444
0.9936492965
0.9938236165
0.9948873619
0.5547681601
0.5519434458
0.5462671718
0.5460427248
0.5469691505
0.5442896115
0.544545415
0.5440123912
0.5419613246
0.5409803101
0.5432308556
0.5480823704
0.5634603965
0.6202422225
0.7651460095
0.9074067675
0.9704400458
0.9897992175
0.9923253126
0.9917012411
0.9909668595
0.9909738251
0.9915317073
0.9930081994
0.9948224119
0.9972803093
0.9963861748
0.9949036932
0.9952757087
0.9962948878
0.5545769254
0.5540840781
0.5470453584
0.5469787116
0.5477111439
0.54447726
0.5447288635
0.5441491735
0.5424924816
0.5412760017
0.542865311
0.5468787157
0.5587183589
0.5977860573
0.7098815706
0.8728104472
0.9672652811
0.9916456244
0.9928876569
0.9909210802
0.9897020579
0.989531304
0.9899552645
0.9914918105
0.9949550323
0.9987318143
0.9984302766
0.9971299338
0.9971391313
0.9976758597
0.5550284807
0.5553520863
0.5486278684
0.5469519098
0.5478582461
0.5447674704
0.5448003398
0.5440998822
0.542687305
0.5413940159
0.5418361936
0.5451917435
0.5533024101
0.5840482227
0.6734432721
0.8330811529
0.9581651886
0.9901439626
0.9925737106
0.9893755497
0.9883114136
0.9884582422
0.9889011108
0.9915390957
0.9963040961
1.001119381
0.9999143366
0.9976323722
0.9970236213
0.9971184398
0.5547684537
0.5556528959
0.5502761758
0.5474009751
0.5475936079
0.5449527095
0.5447315118
0.5440575694
0.5427777958
0.5412964185
0.5408798275
0.5435402706
0.5487695838
0.5705935394
0.6503265785
0.7983899221
0.9313595505
0.9823994631
0.9893952882
0.9886648494
0.9877662379
0.98849241
0.9900789218
0.9937919792
0.9983710989
1.001481992
0.9991138693
0.9963684163
0.9958961915
0.9957469222
0.9952084976
0.5542532901
0.5560647321
0.5514201129
0.5483633505
0.5472982143
0.5451671973
0.5447417622
0.543860519
0.5429373525
0.5414694446
0.5404571273
0.5426523045
0.5467155823
0.5604350956
0.6192660586
0.7623434171
0.9036728745
0.9692182726
0.9863030066
0.9889778964
0.9901267844
0.9911041692
0.9927036901
0.9956024385
0.9989314805
0.9999795781
0.9977430086
0.9943850775
0.9940964787
0.9942459266
0.9940851904
0.5536464174
0.5571667486
0.5522844754
0.5489348845
0.5471666317
0.5456690855
0.5445773569
0.5437523868
0.5432930401
0.5417633941
0.5404055387
0.542198538
0.545495888
0.5549584345
0.5923196548
0.7127960452
0.8723307565
0.9566916141
0.9850258564
0.9922977009
0.9931130705
0.9928485941
0.9935963273
0.9951452238
0.9975578213
0.9980823285
0.9962682867
0.9938381495
0.993240021
0.9933615825
0.9939322761
0.5533339739
0.5582092346
0.5528377128
0.5489923609
0.5472065048
0.5463004761
0.544747748
0.5437937359
0.5436802279
0.5423586657
0.5405021284
0.5419902507
0.5446678054
0.551620657
0.578816021
0.6646067286
0.8300420825
0.9485603179
0.9890088232
0.9940997015
0.9926631322
0.9922189456
0.9925381248
0.9932748034
0.9959717079
0.998230603
0.9971230724
0.9938693006
0.9935632346
0.9942863939
0.9953971213
0.5542553625
0.558517214
0.5531912646
0.5496426644
0.5479060582
0.5466346017
0.5451856565
0.5441592777
0.543907629
0.5430140464
0.5410707651
0.5418194553
0.5440198727
0.5487002118
0.5692522758
0.6390307466
0.7819991664
0.9331908816
0.9893667258
0.9941890972
0.9914440954
0.9906640051
0.9908332589
0.9914646835
0.9942322372
0.9974150527
0.9972882496
0.9945120019
0.9950487071
0.9962425063
0.997013955
0.5557053209
0.5584934505
0.5533215212
0.550391337
0.5491001793
0.5467082023
0.5459513936
0.5442950395
0.5440773276
0.543430691
0.5418999292
0.5415103594
0.5433854541
0.5463818628
0.5596400354
0.6177513539
0.747544469
0.9061777726
0.9853469292
0.9914722967
0.9886782694
0.9891452367
0.9895239659
0.9905862679
0.9943727682
0.9968933599
0.9987330147
0.9961122285
0.9959834097
0.9963294674
0.9963616224
0.5559582502
0.5583933732
0.5531463187
0.550814871
0.5495830581
0.5470634877
0.5466617502
0.5444305371
0.54406558
0.5436838419
0.5423160333
0.5413623318
0.5427860276
0.5450090373
0.5533124719
0.5909835044
0.7148029377
0.8721369829
0.9650783359
0.9847835427
0.987104986
0.9885470642
0.9895941561
0.9908427022
0.9937589328
0.9973751231
0.9996445037
0.9961880996
0.9949681727
0.9950247985
0.9949154086
0.5559198641
0.5580418431
0.5524484859
0.5511205264
0.5496547998
0.5481894624
0.5471017171
0.5443917555
0.5437134363
0.5439825723
0.5424816501
0.540922811
0.5421456421
0.5438271311
0.5498694598
0.5755019694
0.6695794067
0.8320103225
0.9373399854
0.9797080034
0.9881349374
0.9901159051
0.9908016208
0.9912298852
0.9933160697
0.998772117
0.9984676389
0.9950292671
0.9936904936
0.9934832489
0.9937926812
0.5556344743
0.5577032013
0.5526161404
0.5522646277
0.5508294447
0.5489688449
0.5474307412
0.5442962428
0.5437212736
0.5439355386
0.5426805501
0.5407714616
0.5417367347
0.5430555065
0.5473025902
0.5667822723
0.632157888
0.784683638
0.9099641433
0.979896817
0.9909880051
0.9917915489
0.9912909333
0.991014353
0.9935509212
0.998558112
0.9971073917
0.9932218692
0.9925876421
0.9929624137
0.9937505305
0.9940952387
0.5536456512
0.559222866
0.5544737059
0.5526293296
0.5518062658
0.5490390927
0.5477066343
0.5445570317
0.5440004853
0.5439878456
0.5429380297
0.5408045365
0.5415243761
0.5429611226
0.545616576
0.5583417368
0.6102871722
0.7350115969
0.9021592759
0.9796983163
0.9925154269
0.9918503508
0.990731174
0.9905928581
0.9936804022
0.9973923624
0.996540516
0.9925294086
0.9919612535
0.9931806938
0.9952143229
0.9960239071
0.5519331389
0.5608402226
0.5550975793
0.5528323982
0.5514622232
0.5498272013
0.5481708407
0.5449562287
0.5440435291
0.5439686302
0.54325667
0.5411896642
0.5417670016
0.5431140677
0.5448919303
0.5524673251
0.5908913388
0.7019997939
0.877805435
0.9751054365
0.9909882655
0.9904930842
0.9899729735
0.9906403776
0.9937054323
0.9968044413
0.996925039
0.9933773963
0.9930072656
0.9950523215
0.9975413209
0.9965747416
0.5515858266
0.5614098607
0.5553056487
0.552556837
0.5507895526
0.549826454
0.5487386347
0.5454921957
0.5438501187
0.5438580264
0.5435110151
0.5417964738
0.542157865
0.5428836242
0.544068944
0.5493728341
0.5758077524
0.6747193232
0.8292599752
0.9524258444
0.9850450554
0.9879934667
0.9893168974
0.9906775925
0.9938585659
0.9972356203
0.9984065085
0.9952136566
0.9951734807
0.9963301303
0.9971090415
0.9956393306
0.5517775971
0.561510935
0.5550622916
0.5514757207
0.5510305812
0.5502353463
0.5495647988
0.546700143
0.5437574937
0.5437822726
0.5436101231
0.5422106731
0.5422920797
0.5425510017
0.5432459735
0.5470470574
0.5661841808
0.6356044897
0.7904836724
0.9241168844
0.9775529905
0.9868388193
0.9891269453
0.9917478568
0.9944707582
0.9972895992
0.9996571998
0.9960991782
0.9952842948
0.9956336607
0.9959895662
0.994222761
0.5515889088
0.5613079158
0.5540974229
0.5511225751
0.5517607852
0.5512125283
0.5504179821
0.5476265614
0.5438366316
0.5438186535
0.5437511794
0.542523977
0.5422965695
0.5422150456
0.5426776919
0.5449867149
0.5566942887
0.6058741839
0.7476615405
0.8994471944
0.9679941695
0.9884849403
0.9911589363
0.9930243544
0.9944481592
0.9966930835
0.9991463427
0.9953529235
0.9942680387
0.9945114176
0.9948869261
0.9934178924
0.5501250859
0.5606059677
0.55364627
0.551559949
0.5528906028
0.5523711739
0.551224755
0.5482257833
0.5440925938
0.5438417657
0.543780172
0.542797978
0.5420594906
0.5420328594
0.542330109
0.5439145405
0.5515353767
0.5899156102
0.6982915558
0.8688809927
0.9671931734
0.9907452787
0.9922824587
0.993000212
0.9930105769
0.9957391574
0.9980804141
0.9941829779
0.9926656322
0.9931727972
0.9943999449
0.9933246127
0.5451966166
0.5597340804
0.5556886072
0.5528752632
0.5530496767
0.5529988633
0.5517536815
0.5486296657
0.5449621528
0.5438396785
0.5437031237
0.5429909683
0.5421176486
0.5420179556
0.5426476221
0.5434687764
0.5489234851
0.5756011741
0.6640903231
0.8256522721
0.9593809166
0.9900528007
0.9917740072
0.991333762
0.9913118048
0.9947274902
0.9971999355
0.9928783855
0.9919534707
0.9926070856
0.995049404
0.994019382
0.9941789336
0.5419691953
0.5598128215
0.5576386517
0.5530727678
0.5529290199
0.5527668668
0.5514085349
0.5491246151
0.5460001206
0.5438747789
0.5435296765
0.5429495586
0.5422958819
0.5423895001
0.5427658234
0.5432935313
0.5464229142
0.5649447639
0.6379784721
0.7837115239
0.935380848
0.9871720989
0.988939766
0.9890432544
0.9902284297
0.9942751813
0.9971984171
0.9933193172
0.9920429938
0.9929427536
0.9958453377
0.994492374
0.9942662369
0.5398102517
0.5599458927
0.5585112411
0.5529300614
0.5522935063
0.5518462012
0.5517417228
0.5502456712
0.5466398083
0.5440496767
0.5434808515
0.5430592546
0.5427216783
0.5426883699
0.5425942778
0.5429454274
0.5449499014
0.5571222661
0.6089936413
0.7542858365
0.9055180825
0.9745263919
0.9846648443
0.9880974349
0.9905058695
0.9944183765
0.9974131859
0.9941809977
0.9920754084
0.9927960248
0.9956945197
0.9943603867
0.9939251431
0.5371245604
0.5588598732
0.5590262381
0.5522580739
0.5510818844
0.5517313599
0.5524181566
0.5515398722
0.5470526975
0.5442600005
0.5435303246
0.5432408615
0.5429816663
0.5427074798
0.5423596634
0.5425605934
0.5438206775
0.5513273479
0.5911817619
0.7163379349
0.8804382935
0.962804335
0.9820867799
0.9886366578
0.9911273821
0.9951266518
0.9977287427
0.994558601
0.9915406664
0.9920619804
0.9948922773
0.9931099062
0.9928692048
0.533519188
0.5555402197
0.5599837668
0.5510903109
0.5504399343
0.5521028422
0.5530496694
0.5523359479
0.5474302493
0.5447042807
0.5436443647
0.5432004357
0.543055349
0.5426627724
0.5422303194
0.5422818151
0.5429356733
0.5482467804
0.5759696372
0.6681377052
0.8372697739
0.9462209061
0.9837399105
0.9909974163
0.9925179106
0.9954290405
0.9976497204
0.9939755001
0.9908027809
0.9912908407
0.9941898879
0.9921055274
0.9920650673
0.530142981
0.5527671408
0.5614526874
0.5509951144
0.5507407638
0.5528076073
0.5533630313
0.55238835
0.5480288374
0.5453041521
0.5438093548
0.5431839323
0.5433796993
0.5428032137
0.5423785921
0.5422977769
0.5427500253
0.5456872368
0.5627772543
0.6324105463
0.7817666554
0.9306200255
0.9849434792
0.9918189575
0.9928359677
0.9943051829
0.9968622636
0.9933589472
0.9903721846
0.9908864125
0.9943989839
0.9928496146
0.9929122717
0.5272091124
0.5496638725
0.5622383926
0.5523371777
0.5511482776
0.5529941948
0.5527471603
0.5521473759
0.5492654265
0.5457815086
0.5439350553
0.5431914613
0.5433471032
0.5430919472
0.5426904264
0.5423320674
0.5425286517
0.5442215133
0.5566122428
0.6103542675
0.7411954269
0.908371847
0.983196082
0.9920316072
0.9920306722
0.9927406613
0.9961138595
0.9938008513
0.9908581529
0.9914930557
0.9956892568
0.9944159548
0.9942727382
0.5245781472
0.5461684323
0.5620416282
0.5528099713
0.5506943383
0.5522042417
0.5522793036
0.5524056412
0.5507473445
0.5461632466
0.5441058204
0.5432667966
0.5434623529
0.5433549756
0.542835496
0.5422976232
0.5423187381
0.5434953949
0.551788414
0.5927063345
0.7207548255
0.8793533678
0.9714634426
0.9895959521
0.9903524603
0.9924224072
0.9970960758
0.9953898003
0.9919257666
0.9924720877
0.9968908346
0.9957053763
0.994126091
0.5222258329
0.5423686729
0.5613587821
0.5530320955
0.5491985169
0.5508695951
0.5522765747
0.5530527263
0.5516373514
0.5465082372
0.5443030386
0.5433721699
0.5436931342
0.5434111806
0.5428309559
0.5422495325
0.5421479789
0.542938251
0.5477002407
0.5779916899
0.6880458341
0.8561737894
0.9551221933
0.9834117654
0.9893257991
0.99299028
0.9976145189
0.9963220262
0.9922584651
0.992598949
0.9969888122
0.9959293044
0.9937500118
0.9947987077
0.5201537411
0.5380903517
0.5601676116
0.5532405445
0.54825156
0.5502105977
0.5525627514
0.5537607654
0.5519492758
0.5469927086
0.5446412808
0.5435138793
0.5436089728
0.5435931277
0.542950607
0.5423075213
0.542197572
0.5423898757
0.5453865002
0.5627227225
0.6392848922
0.8178862212
0.9436053223
0.9794638886
0.9891464667
0.993432905
0.9975409123
0.9968837738
0.9919233588
0.9920242069
0.9964697677
0.9952041538
0.9932716017
0.9936837337
0.5184374104
0.5336449875
0.5577264577
0.55334911
0.5481736932
0.5500240767
0.5530184906
0.554103613
0.5520558978
0.5478762616
0.5450445871
0.5436997252
0.5436478965
0.5438885543
0.5432011415
0.5426796718
0.5422111922
0.5422316157
0.5440427999
0.5559859122
0.608610935
0.7549302396
0.9201172078
0.9752955482
0.9911613292
0.9947981499
0.9977700631
0.9979651624
0.9914742441
0.9912700864
0.9956294592
0.9940360958
0.9922490804
0.9929751574
0.5170788569
0.5295266395
0.555036254
0.5527255174
0.5487923431
0.5499908995
0.5529342932
0.5542364167
0.552284884
0.548901358
0.5454342758
0.5439393852
0.5437000352
0.5438545122
0.5435103679
0.5428777218
0.5421570346
0.5420760594
0.5433568394
0.5525613749
0.5939936296
0.7069787744
0.8789648361
0.9726858694
0.9924470011
0.9953452816
0.9979357572
0.5159886777
0.5258283163
)
;

boundaryField
{
    inlet
    {
        type            fixedValue;
        value           nonuniform 0();
    }
    outlet
    {
        type            zeroGradient;
    }
    bottom
    {
        type            slip;
    }
    top
    {
        type            slip;
    }
    obstacle
    {
        type            zeroGradient;
    }
    defaultFaces
    {
        type            empty;
    }
    procBoundary21to15
    {
        type            processor;
        value           nonuniform List<scalar> 
24
(
0.9799827298
0.9801926242
0.9821924524
0.9890507408
0.988763777
0.9873286227
0.9873549424
0.9900176299
0.9948391006
0.9964734708
0.9965840779
0.996200799
0.9964465021
0.9973410312
0.9987635492