/*--------------------------------*- C++ -*----------------------------------*\
  =========                 |
  \\      /  F ield         | OpenFOAM: The Open Source CFD Toolbox
   \\    /   O peration     | Website:  https://openfoam.org
    \\  /    A nd           | Version:  7
     \\/     M anipulation  |
\*---------------------------------------------------------------------------*/
FoamFile
{
    version     2.0;
    format      ascii;
    class       volScalarField;
    location    "3.8";
    object      T;
}
// * * * * * * * * * * * * * * * * * * * * * * * * * * * * * * * * * * * * * //

dimensions      [0 0 0 1 0 0 0];

internalField   nonuniform List<scalar> 
2222
(
1.094696229
1.093655584
1.095858552
1.095442027
1.09427174
1.093677726
1.094233694
1.095808278
1.095930899
1.096009069
1.096105093
1.095874869
1.095405181
1.094905721
1.095030908
1.095648773
1.096248594
1.096171321
0.9637964158
1.054477451
1.092424537
1.098538126
1.093789324
1.091248347
1.092355976
1.092824539
1.091442155
1.09041363
1.090686811
1.093429737
1.094771493
1.094975611
1.094910903
1.09523434
1.095170617
1.094705419
1.094196347
1.094349775
1.095367453
1.095637245
1.095305501
0.9459265232
1.023694567
1.07227628
1.090380556
1.0898184
1.089663848
1.088959988
1.08799039
1.086670543
1.086721938
1.088810126
1.090775836
1.09163358
1.09189338
1.092662545
1.093176262
1.093295736
1.092966443
1.09281346
1.093432771
1.094054839
1.094032793
1.093372123
0.9381654587
0.9991046546
1.052686642
1.079231908
1.085561009
1.086404808
1.085208527
1.083823617
1.083053033
1.083951551
1.085601931
1.08640661
1.086687714
1.087671756
1.089072151
1.089981743
1.090267047
1.090232645
1.090622178
1.09121847
1.091599864
1.09130957
1.090768151
0.9333357608
0.974477695
1.036973483
1.073172128
1.080851695
1.079907857
1.078866805
1.078542944
1.079593631
1.081420531
1.081717353
1.081347529
1.08157365
1.083090313
1.085133972
1.086113377
1.086442598
1.086664724
1.087158601
1.087636005
1.087938666
1.08796078
1.087661636
0.9254600507
0.9510852269
1.016026525
1.068597064
1.076695652
1.074114687
1.07200114
1.072501652
1.075409371
1.076603026
1.076962907
1.076789876
1.077274914
1.079476782
1.080701207
1.081239154
1.081681187
1.082024331
1.082434356
1.082776627
1.083145636
1.083682706
1.08389477
1.083755028
0.9175442265
0.9388895832
0.9919980841
1.056176679
1.072650584
1.069566068
1.067768864
1.068913133
1.07050509
1.070623212
1.070704823
1.071293802
1.073555081
1.075244148
1.075661916
1.075900502
1.076508516
1.076943228
1.077221015
1.077372215
1.077849417
1.078776553
1.079450376
1.079528751
0.9137467894
0.9322396976
0.9741309379
1.030862135
1.063358735
1.066837948
1.066228535
1.066550462
1.065474058
1.064209217
1.064539857
1.066390038
1.068897484
1.069887098
1.070189567
1.070746058
1.071542473
1.072000707
1.072061312
1.072084174
1.072570435
1.073540555
1.074180064
1.0742751
0.9118459398
0.9268128373
0.9564037601
1.007814938
1.052109472
1.063717536
1.065167287
1.063918941
1.060980936
1.059217955
1.059785608
1.062096986
1.063462502
1.063942792
1.064048879
1.065134762
1.066170271
1.066630255
1.066647681
1.066758162
1.067392132
1.068131605
1.068633747
1.068490685
0.9095979528
0.91886066
0.9353747138
0.9896647468
1.043447666
1.060844161
1.061075451
1.0589707
1.055792179
1.054996022
1.056265125
1.057475905
1.057896113
1.057461828
1.058309451
1.059558829
1.060455009
1.06077929
1.060851476
1.061040903
1.061737291
1.062229533
1.06265669
1.06218605
0.9078296754
0.9131761149
0.9235623559
0.968396454
1.029283749
1.055081722
1.055545207
1.051667785
1.050709903
1.051475714
1.052301226
1.052604053
1.051718764
1.052089921
1.053391852
1.05433753
1.05457388
1.054725132
1.054847713
1.055357972
1.055911868
1.056092798
1.056144929
1.055726368
0.9072596565
0.9109180423
0.9180406887
0.9465498052
1.002963227
1.044631835
1.046985733
1.045157012
1.046181354
1.046938
1.047061461
1.046143896
1.046027956
1.047093064
1.048663791
1.049012627
1.049049705
1.049055763
1.049228807
1.04945474
1.049693048
1.049530865
1.049592928
1.049558378
1.049542477
0.9057143355
0.9084188708
0.9131990856
0.9305223703
0.9726607146
1.021858325
1.037265809
1.03968894
1.041575305
1.041497082
1.040314175
1.039555918
1.040241464
1.042097523
1.043124887
1.04337716
1.043304368
1.043443405
1.043585682
1.043603331
1.04343666
1.043459787
1.043485985
1.043603923
1.043888526
0.9046367932
0.9052819109
0.9075139078
0.9169252326
0.9545704112
1.000538989
1.027871524
1.035372403
1.036451792
1.035207237
1.033036936
1.033356505
1.034927162
1.036378747
1.037084003
1.036738423
1.037096363
1.037738796
1.037909056
1.037791038
1.037523379
1.037700776
1.037973924
1.038132746
1.038182994
0.9038128076
0.9044440971
0.9034608849
0.9068897013
0.9392436935
0.9880982179
1.02188326
1.030215005
1.030426084
1.027507815
1.026769851
1.027868911
1.029252759
1.0302339
1.029784132
1.029950357
1.030813625
1.031513998
1.031694107
1.031650988
1.031778121
1.032208254
1.03248223
1.032448024
1.032424816
0.9035608749
0.9049184515
0.9010777586
0.8997243933
0.9187182807
0.971740788
1.014085267
1.0245249
1.022526915
1.020759909
1.021077805
1.022564292
1.023544326
1.023197563
1.023111438
1.024030102
1.024974832
1.025415002
1.025584245
1.025672612
1.026096679
1.026602152
1.026846304
1.026715916
1.026546638
0.9043584663
0.9054374149
0.8994605386
0.8949839582
0.9038579163
0.9449660354
0.999269634
1.015269012
1.01437634
1.014850313
1.016248323
1.017235372
1.017186564
1.016843345
1.017487484
1.018804764
1.019594473
1.019634436
1.019722897
1.019857643
1.020372278
1.020818159
1.020961459
1.020644913
1.020513493
0.9054603569
0.9057610227
0.8990060994
0.8921813241
0.8959569073
0.9225272775
0.9716762322
1.001386174
1.008810489
1.010869032
1.011369536
1.011673478
1.010984438
1.011389397
1.012639435
1.013989016
1.014353164
1.014158142
1.014218954
1.01435302
1.014736775
1.014856326
1.014979367
1.014747366
1.014656855
0.9066049198
0.9061473703
0.8994165608
0.8899029487
0.8884294478
0.9089357894
0.9510278098
0.9898963096
1.004242513
1.006956583
1.006967818
1.005839584
1.005590257
1.006636072
1.008060462
1.008958035
1.00886749
1.008907307
1.009175474
1.009293682
1.009432163
1.009393105
1.009512065
1.009384706
1.009182654
1.009112266
0.9078375106
0.9065932536
0.9001218938
0.8872014206
0.8805962529
0.8958477552
0.938463764
0.9811450457
1.001094191
1.003520567
1.001981106
1.000953693
1.00129786
1.002496589
1.003337703
1.003401629
1.003476875
1.004026604
1.004638453
1.004757417
1.004808934
1.004867012
1.00497262
1.004840862
1.0046328
1.004650254
0.9083706025
0.9067872048
0.9001080323
0.8856580296
0.8760296318
0.8818252524
0.9192313718
0.9697270717
0.9972765019
0.9994932448
0.9972937905
0.997308444
0.9982062324
0.9988358817
0.9986696293
0.9985480516
0.9990763184
0.9999014285
1.00057879
1.000805545
1.000964075
1.001280893
1.001462947
1.00138183
1.001225727
1.001264187
0.908436418
0.9067398833
0.8998324591
0.8850655905
0.8726919276
0.8731532523
0.8974191163
0.9518044034
0.9883243183
0.9941459936
0.9934044238
0.9945780236
0.9954227333
0.9953026073
0.9950169351
0.9953943133
0.9961738223
0.9968344625
0.997215436
0.9973944139
0.9976635207
0.9982423487
0.9986219717
0.9986984278
0.9986238094
0.9987681264
0.9081703641
0.9066678761
0.8997398835
0.8846446593
0.8691414726
0.8666729712
0.8854111215
0.9327203803
0.975215703
0.9895391134
0.9911305263
0.9925893829
0.9928986544
0.9923319305
0.9925757047
0.9933522951
0.9942478346
0.9947905764
0.9948171032
0.9948231929
0.995013475
0.9957050682
0.996248552
0.9964810266
0.9966296782
0.9970128025
0.9077084835
0.9065769226
0.8998199811
0.884649692
0.8669742306
0.8604946651
0.8748649389
0.9165870126
0.9640671675
0.9857709524
0.9902297008
0.991134579
0.9907144077
0.9903684459
0.990989049
0.9920068747
0.9928610714
0.9933504368
0.9934522117
0.9934924441
0.9937038132
0.9942998009
0.994822505
0.9951435216
0.9953921943
0.9958599693
0.9073549487
0.9065726235
0.9002394997
0.8848273935
0.8658874063
0.8562534831
0.8629259618
0.8995127285
0.9513824692
0.9814650974
0.9891888322
0.9897832424
0.9889566001
0.9892446158
0.990105138
0.9910151128
0.9916222254
0.9921436154
0.9926173571
0.9929001403
0.9932222641
0.993728228
0.9942174361
0.9945934373
0.9947494923
0.9950516758
0.9954026005
0.9077529201
0.9064180491
0.9002743999
0.8849399579
0.8654173175
0.8534794774
0.8550824733
0.8794732614
0.9329005591
0.9751863092
0.988038828
0.9877085841
0.9878166828
0.9887946824
0.9894255461
0.9898716787
0.9902470178
0.9908697767
0.9917725697
0.9924732478
0.9929065632
0.9933275885
0.9939410514
0.9943860706
0.9943175971
0.9942339992
0.9942598411
0.9083777308
0.9059592254
0.9000143068
0.8848484698
0.8648117972
0.8511283327
0.8509507843
0.8675743721
0.9146743171
0.9651336376
0.9846215296
0.9854552084
0.9874599606
0.9883633632
0.9885477551
0.9884566163
0.9889791733
0.9898865664
0.9909631759
0.991880467
0.9923975712
0.9928600088
0.9936324352
0.9940292128
0.9938082065
0.9934449106
0.9933553155
0.9081545646
0.9053943199
0.8994132374
0.8843476403
0.8643304317
0.8490708432
0.8463155338
0.861064588
0.9026482694
0.9549399393
0.9799230702
0.9854365824
0.987359467
0.9880012073
0.9876142694
0.9877292371
0.9885021462
0.9895369858
0.9906045381
0.9915028718
0.9919910247
0.992490371
0.9931748241
0.9935245476
0.993319238
0.9931531745
0.993218758
0.9076903619
0.9046778414
0.8985344147
0.8840040332
0.8639874671
0.8475617859
0.8422822331
0.851906217
0.8894412359
0.9456423561
0.9771642742
0.9861057364
0.9876227353
0.9877967325
0.9873206027
0.9879747371
0.9889345101
0.9899770692
0.9909141749
0.9916682001
0.9921252462
0.9925495766
0.9929188199
0.9933959775
0.9933929362
0.9933767283
0.9935402381
0.9070978457
0.9037287692
0.8973024081
0.8834632086
0.8637697396
0.8468098841
0.8403716396
0.8445387017
0.8719022775
0.9283517709
0.9711536867
0.9851381679
0.9880472977
0.987562151
0.9879728108
0.988793463
0.9897729553
0.9905792697
0.9912811076
0.9918797216
0.9923143899
0.9926991327
0.9929635296
0.9936690617
0.9939554089
0.99388267
0.9940014708
0.9063051073
0.9026424287
0.8959990692
0.8828707769
0.8637920414
0.8462846775
0.8390904804
0.8414170692
0.8589172257
0.9054800356
0.9581214607
0.9822609868
0.9873380542
0.9881602924
0.9892629915
0.9901025332
0.9904911702
0.9908885515
0.9912801935
0.9917563051
0.9921894892
0.9926380289
0.9932079402
0.9941963131
0.9945108727
0.9943068073
0.9942823527
0.9056460517
0.9018081576
0.8949003362
0.8821747887
0.8635663103
0.8459395432
0.8376534947
0.8391959134
0.8528709669
0.8905950924
0.9430441047
0.9776310608
0.986638139
0.9893939096
0.9906825068
0.9910108223
0.9909554544
0.9908827123
0.9911186344
0.9915668771
0.9920634934
0.9926742774
0.9936964841
0.9947151453
0.9948491869
0.9944937863
0.9943861709
0.9944105052
0.9051352554
0.9011421572
0.8940077168
0.8814674442
0.8632902944
0.8458264697
0.836583621
0.8359449429
0.8465154917
0.8822459063
0.9353362618
0.9746820472
0.9878060749
0.9911749216
0.9918423796
0.991414126
0.9909175963
0.9908878794
0.9912773291
0.991794405
0.9924020032
0.9932472465
0.9944030287
0.99512535
0.995028639
0.9944702956
0.9942358336
0.994256682
0.9049054771
0.9007486131
0.8932743222
0.880789989
0.8629914717
0.8458529491
0.8358719553
0.834194296
0.8403750842
0.8706566623
0.9296324705
0.9744909561
0.989869616
0.9925673632
0.9926135921
0.991557874
0.9915404969
0.9918623799
0.9923611605
0.9928886914
0.9935496155
0.9944273159
0.995260962
0.9954831176
0.9955167495
0.9949822268
0.9947972753
0.9948608561
0.9052785974
0.9005355465
0.8926354611
0.8801480614
0.8626572757
0.8458503983
0.8356067454
0.8336402426
0.8378084971
0.8580410405
0.911145837
0.9680166356
0.9899608937
0.9932892978
0.9927161397
0.9927079444
0.9929177125
0.9934036404
0.9939253769
0.9944801127
0.9952146859
0.9959281719
0.9962704614
0.9963738218
0.9966782823
0.9962772587
0.9961091281
0.9961281386
0.9062075838
0.9003212509
0.8918223957
0.8794419934
0.8623187388
0.8459254394
0.8353511284
0.8329855334
0.836288798
0.8502283313
0.8880911871
0.9485061826
0.9831969256
0.9918877159
0.9937410572
0.9945372979
0.9951403665
0.9955747093
0.9958860308
0.9963380595
0.9968639238
0.9973654295
0.9974227242
0.9977610345
0.9981761156
0.9978817734
0.9977367572
0.9976744557
0.9066375035
0.900196105
0.891089427
0.8787029281
0.861973525
0.8458935133
0.8351153101
0.8321514613
0.8339004403
0.8443022111
0.8753150173
0.9275147335
0.9711447638
0.990647734
0.995522152
0.9970000807
0.9972593608
0.9973889702
0.9975677589
0.9979024493
0.9982865589
0.9984268863
0.9986506333
0.9993825148
1.000044178
0.9998711648
0.9996857894
0.9995604885
0.9067948577
0.9001633896
0.8906327958
0.8781152152
0.861560303
0.8456864978
0.834770373
0.831345869
0.8319173302
0.8388851886
0.8669256072
0.9178797347
0.9653216016
0.9915063296
0.9982286562
0.9988156732
0.998981766
0.9988664159
0.9988850986
0.9989864293
0.9990827787
0.9992483005
1.000121559
1.001199237
1.002033646
1.001796908
1.001366189
1.001163606
1.000969666
0.907027085
0.9002541526
0.8903581855
0.8775244677
0.8608798411
0.84526135
0.8344522532
0.8306117446
0.8310122266
0.8360962939
0.8567862691
0.9088379138
0.9660093587
0.9937016135
1.00018279
1.000390578
0.9999867867
0.9997346818
0.9997042448
0.99981
1.000071697
1.000689565
1.001752262
1.002925294
1.003655035
1.003336745
1.002873411
1.00260611
1.002444343
0.9071025444
0.9005560437
0.8902032337
0.8768542966
0.8600024814
0.8446437762
0.8341764926
0.8301742417
0.8305041745
0.834776743
0.849567251
0.8915243353
0.9580935662
0.9926988235
1.000968796
1.001002425
1.000742698
1.000848401
1.000944206
1.001163578
1.001487478
1.00233188
1.003490207
1.004408414
1.00479056
1.004415946
1.003934928
1.003576646
1.003620331
0.9073818292
0.9010722442
0.8902115121
0.8762545139
0.8590586325
0.8438775937
0.8339744682
0.8301641209
0.8301234143
0.8337193574
0.8450738575
0.8761778407
0.9361764293
0.9840499756
0.9985366334
1.001295066
1.001919779
1.002151269
1.002388386
1.002765823
1.003322921
1.00417174
1.004898467
1.005375234
1.005517
1.005155102
1.004881745
1.004967756
1.005135832
0.9078640376
0.9017913932
0.8905577614
0.8759432925
0.8583681339
0.8431875011
0.8338942566
0.830017605
0.829751678
0.832488257
0.8409449993
0.8665191755
0.9166981348
0.9702651001
0.9950754111
1.001898996
1.003500599
1.003953088
1.004245823
1.004418363
1.004778208
1.005316573
1.005893188
1.006210335
1.006710637
1.006610368
1.006338218
1.006362673
1.006493669
0.9085725641
0.9028041626
0.8912499028
0.8758448391
0.8575595148
0.8422534611
0.8334775286
0.8297051619
0.8292596505
0.8315349364
0.8379658575
0.8576217398
0.9042057993
0.958112451
0.9909012825
1.003232144
1.005329063
1.00565452
1.00551683
1.005374192
1.005665103
1.006001601
1.006347521
1.007088123
1.007859018
1.008196568
1.007731848
1.007594515
1.007739578
0.909627714
0.9045677304
0.8921843398
0.8758567345
0.8568199049
0.8412738899
0.8329217805
0.8293284628
0.8286614663
0.8308724591
0.8365676744
0.8507610689
0.8903399106
0.9506359803
0.9912114334
1.004493141
1.006435832
1.00672005
1.006245108
1.005964877
1.00601366
1.006166069
1.006811619
1.007871571
1.009000039
1.009382759
1.008763016
1.008539504
1.008592354
0.9113006061
0.9064164016
0.8933005037
0.876093922
0.8562083918
0.8403323922
0.8322938609
0.8289690463
0.8281584759
0.8304213914
0.8357596638
0.8472832298
0.8761803682
0.9359219738
0.987908424
1.004615821
1.007016408
1.007115619
1.00651405
1.006253296
1.006343487
1.006574545
1.007413888
1.008752017
1.009958034
1.010045334
1.009208597
1.008917193
1.008947382
1.008948805
0.912708643
0.9076989549
0.8945108309
0.8765673886
0.8557736182
0.8394155079
0.8316949179
0.8286671306
0.8278871688
0.8302038027
0.8349701423
0.8445357413
0.8674364435
0.9167343082
0.9761855925
1.0024027
1.00700297
1.006914546
1.006844879
1.006613864
1.006741633
1.007248802
1.008440052
1.009592562
1.010388277
1.010225193
1.009477762
1.009138675
1.009044856
1.00903918
0.913628883
0.9086823714
0.8957102959
0.8773227314
0.8555827161
0.8385770369
0.8311507249
0.8284973327
0.8278360517
0.8300551792
0.8344833156
0.8416883649
0.8597182424
0.9037065286
0.9623238828
0.9969687634
1.005865818
1.007184395
1.007189408
1.007276059
1.007721643
1.008310294
1.009086544
1.009838611
1.010487143
1.010376663
1.009409574
1.008974572
1.008986846
1.009161254
0.9141587198
0.9096773086
0.8970406628
0.8780026195
0.8555514237
0.8379638489
0.8307934162
0.8285638794
0.8279137842
0.8300447213
0.8343976451
0.840344266
0.8530421171
0.8902601057
0.9488730534
0.9912567082
1.004821392
1.007651149
1.008188964
1.008516306
1.00872699
1.008889099
1.009243901
1.009812395
1.010335019
1.010216988
1.009684441
1.009217751
1.00928535
1.009631553
0.914827791
0.910813236
0.8983640382
0.8788637748
0.8556386791
0.8375180866
0.8304457
0.8285759589
0.828241705
0.8300978162
0.8344176039
0.8399374267
0.8496236786
0.8757512257
0.9328903703
0.9829247174
1.003125725
1.008832995
1.0094946
1.009282987
1.009022609
1.008981514
1.009102169
1.00956066
1.010010822
1.01063546
1.010390811
1.009984583
1.010110558
1.010439698
0.9155762262
0.9128259511
0.8997769916
0.8797622924
0.8558895522
0.8372315751
0.8300859697
0.8283689253
0.8282957058
0.8302448978
0.8344540986
0.8396270362
0.8476757767
0.8664751636
0.9125998671
0.9716819833
1.002230527
1.009567021
1.009951721
1.009319378
1.008910129
1.008863663
1.008988977
1.009378343
1.010312764
1.01147218
1.011362612
1.010929867
1.010912418
1.011061449
0.9165084568
0.9143167989
0.9014539865
0.8801347779
0.8559301066
0.8370918016
0.8297618462
0.8280340689
0.8281725259
0.8302652127
0.8341920077
0.8390740615
0.8454165111
0.8606780817
0.8984611404
0.9583498112
0.9995063048
1.009229157
1.010027215
1.009085067
1.008788244
1.008789661
1.00888314
1.009607419
1.011030345
1.012392624
1.012003157
1.011274289
1.011085536
1.011106117
0.9168926072
0.9150480079
0.9028139169
0.8806703822
0.8557910585
0.8369948518
0.8294904799
0.8277407227
0.8279884325
0.8301638043
0.8339279814
0.8385179618
0.8434925929
0.8549422641
0.8891585899
0.9459774936
0.9912276113
1.007099395
1.009227523
1.009072332
1.008812027
1.008985953
1.009411413
1.010532643
1.011841731
1.012650639
1.011959459
1.011161485
1.011020772
1.010975971
1.010841609
0.916984811
0.915611396
0.903538887
0.8810805911
0.8555752165
0.8369761285
0.8293577577
0.8274558979
0.8279065219
0.8301773977
0.8338495752
0.8383134501
0.8426381284
0.850532111
0.8765991409
0.9326047413
0.9823284688
1.003298168
1.008495154
1.009322056
1.00967556
1.009984184
1.01045466
1.011248
1.012153504
1.012453728
1.011832706
1.010847206
1.010729249
1.010746547
1.01067565
0.9169242289
0.9162958075
0.9038103199
0.8810913022
0.8554220378
0.8371383201
0.8292383906
0.8273084582
0.827962442
0.8302403641
0.8338732102
0.8382721276
0.8421581774
0.8481087099
0.8654110243
0.9141726438
0.9719013329
0.9995769722
1.008242987
1.010461028
1.01076931
1.010688847
1.010885635
1.011258444
1.011958115
1.012128651
1.011560737
1.010829501
1.010628454
1.01064392
1.010783272
0.916728714
0.9166211384
0.903800984
0.8808045222
0.8554019494
0.8374443435
0.8292928787
0.827302378
0.8280847396
0.8304631746
0.8339778176
0.8383091355
0.841856146
0.8466250258
0.8596381043
0.8956815954
0.9576503951
0.9970768118
1.009540992
1.011198883
1.010792377
1.010649234
1.01070657
1.010909097
1.011708028
1.012318044
1.011942454
1.010979511
1.010875132
1.011088433
1.011417412
0.9168255234
0.9164144084
0.9035661943
0.8807258355
0.8556972415
0.8377012442
0.829495501
0.8274659721
0.8282181848
0.8307736467
0.8343053491
0.838343189
0.8416374138
0.8453400604
0.8554990769
0.8854127575
0.9408687933
0.992361758
1.009767378
1.011361681
1.010557429
1.010345415
1.010389698
1.010576124
1.011344124
1.012211624
1.012190523
1.011366852
1.011486591
1.011800067
1.01201184
0.9168164283
0.9156837482
0.9028904081
0.8805773357
0.8561246386
0.8378450995
0.8298922091
0.827576586
0.8284126128
0.831065085
0.8347423525
0.8382777453
0.8414281399
0.8443244745
0.8513192171
0.8766921728
0.9281459334
0.9839259872
1.008740626
1.01069213
1.009916891
1.010071321
1.010184917
1.010477007
1.01151373
1.01223449
1.012748975
1.011947477
1.011876823
1.011947861
1.011948368
0.9159792847
0.9145915716
0.9017852553
0.8801521721
0.8561796707
0.8381418877
0.8303150065
0.8277350417
0.82854741
0.8313401353
0.8350218753
0.8382838976
0.8412330386
0.8437297345
0.8485349571
0.8655886243
0.9156472174
0.9727651369
1.002934772
1.008911528
1.009601362
1.010024051
1.010318533
1.01065932
1.011489764
1.012531219
1.013107028
1.012080089
1.011719338
1.011729598
1.011690903
0.9150199828
0.9132959326
0.9002550693
0.8795601781
0.8560287235
0.8387534643
0.8306399788
0.8278492368
0.8285901275
0.8316414317
0.8352148491
0.8381836551
0.8410225384
0.8432444386
0.8470084191
0.8590022018
0.8982315391
0.9589855003
0.994543705
1.007562438
1.010013632
1.010578093
1.010773996
1.010900498
1.011504153
1.013021731
1.012900006
1.011888994
1.011472797
1.011397346
1.011448632
0.9141667951
0.9122579813
0.8993874335
0.8792614783
0.8561755694
0.8390761547
0.8308914772
0.8279469289
0.828788327
0.8318128168
0.8354253307
0.8381850711
0.8409505919
0.8429776728
0.8458808226
0.8552360599
0.8833082745
0.9422125784
0.985876248
1.007682021
1.010949181
1.011190764
1.011038874
1.010959371
1.011679234
1.013058593
1.012631974
1.011464949
1.011231045
1.011316391
1.01151715
1.011617934
0.9125755736
0.9123540471
0.8993787196
0.8785353185
0.8561361347
0.8389889114
0.8310752647
0.8282167783
0.8291278694
0.8320412089
0.8356696715
0.8382621558
0.840931755
0.8429928093
0.8451591179
0.8515674256
0.8743085002
0.9240803139
0.9831317936
1.007610757
1.011456762
1.011281657
1.010959569
1.010914938
1.011784556
1.01284099
1.012525856
1.011316777
1.011116013
1.011448051
1.012046776
1.012260949
0.9112193217
0.9125145668
0.8988757068
0.8776924911
0.8555288622
0.8392073308
0.8312924767
0.8285259763
0.8293467798
0.8322329279
0.8359687158
0.8385459701
0.8411147541
0.8431144495
0.8448673273
0.8489958977
0.86618814
0.9114405939
0.9750575185
1.006233953
1.01104951
1.010941063
1.010810171
1.010996417
1.011875006
1.012739948
1.012683331
1.011622876
1.011485228
1.012064538
1.012769932
1.012473991
0.9108314865
0.9123152672
0.8981892036
0.8767091575
0.8546316184
0.8389820475
0.8314970312
0.8288549903
0.8294354006
0.8323818993
0.8362665509
0.8389614105
0.8413863387
0.8430762553
0.8445325727
0.8476430866
0.8597743922
0.9006478169
0.9584743508
0.9994309775
1.009371572
1.010274391
1.010675092
1.01106563
1.011984214
1.012909412
1.013177102
1.012221816
1.012153833
1.012470343
1.012678703
1.012254068
0.9109370236
0.9121266919
0.8973764121
0.8753044237
0.8540595895
0.8388193101
0.8317562675
0.8294225921
0.8295072682
0.8325307787
0.836515617
0.8393104666
0.8415728219
0.8430029442
0.8442083281
0.8466315315
0.8556260474
0.8850902991
0.9445292069
0.9905965682
1.007212146
1.00996745
1.010649427
1.011413411
1.012188145
1.012956558
1.013564545
1.012502239
1.012205111
1.012295358
1.012387341
1.01187448
0.9109777478
0.911888306
0.8961610066
0.8741749279
0.8536288608
0.838808616
0.8319559631
0.8298050122
0.8296016173
0.8327185165
0.8368034282
0.8396326147
0.8416749252
0.842955952
0.8440355424
0.8457439935
0.8515028314
0.8728944575
0.9286932226
0.9824435001
1.004371751
1.010470136
1.011254818
1.011795383
1.012193033
1.012791575
1.013422431
1.012290532
1.011925338
1.011981455
1.012073454
1.011645837
0.9105858904
0.9114602781
0.8953320189
0.8733807513
0.8532305761
0.8387677746
0.8320051953
0.8299503405
0.8297374871
0.8329021941
0.837064155
0.8399491809
0.8416627239
0.8429640902
0.8439532753
0.8453169428
0.8492460658
0.8661840369
0.9101259427
0.9721520503
1.004062521
1.011131058
1.01157794
1.011780886
1.011769136
1.012513846
1.013115562
1.011938113
1.011444838
1.011576805
1.011927035
1.01161566
0.9087907052
0.911196437
0.8956850344
0.8728661389
0.8521923603
0.8382956896
0.8319672939
0.8299700594
0.8301219086
0.8330909987
0.8372791182
0.8401898232
0.8417716539
0.8430082587
0.8441568362
0.8451773676
0.848115817
0.8600992016
0.8967257276
0.957389
1.001622575
1.010917882
1.011405981
1.011274834
1.011252215
1.012200031
1.012832367
1.011532027
1.011210772
1.011390229
1.012096206
1.011801568
1.011855541
0.9081254148
0.9114890199
0.8958958967
0.8717383242
0.8508221395
0.8373175222
0.831449215
0.8299826615
0.8305495774
0.8333203161
0.837445587
0.8403296274
0.8419632381
0.8432284433
0.8442669102
0.8451404465
0.8470379871
0.8555260046
0.8862184016
0.9423911199
0.9941748612
1.010073306
1.010546592
1.010561371
1.010881978
1.012013206
1.012782828
1.011629126
1.011211839
1.011467434
1.012302026
1.011914437
1.011856975
0.9081344181
0.9119332506
0.895773747
0.8705385046
0.8491815545
0.8359167474
0.8311426562
0.8302537284
0.8307775529
0.8336018221
0.8376620642
0.8405604649
0.8422564689
0.8434278004
0.8442482793
0.8450250946
0.8464158638
0.8521493099
0.8743719513
0.9312338286
0.9844624119
1.006308479
1.009240356
1.01019713
1.010877094
1.011984249
1.012795846
1.011833362
1.011180355
1.011383175
1.012221361
1.011834267
1.011715505
0.9080657027
0.9119809099
0.8956967337
0.8692249073
0.8472912411
0.8348586843
0.8309573502
0.8305532466
0.8308896051
0.8338875585
0.8379129284
0.840804409
0.8424701123
0.8434943913
0.8442214766
0.8449427951
0.8459611894
0.849641135
0.8669218333
0.9167885368
0.9758257328
1.002659091
1.008403345
1.010270371
1.010983783
1.012123292
1.012838082
1.011898227
1.010970877
1.011111752
1.011922303
1.011404226
1.011350443
0.9077530243
0.9113594058
0.8961495643
0.8678395557
0.845755592
0.8340631139
0.8306948206
0.8306057187
0.8309873912
0.8342676262
0.8381782825
0.8409395788
0.8425949961
0.8435200727
0.8442189796
0.8449135552
0.8456483132
0.8483136155
0.8604832317
0.8982740303
0.9610178959
0.9973766072
1.008778361
1.010870594
1.011314839
1.012154768
1.012759468
1.01166099
1.010696889
1.010828039
1.011664324
1.011058474
1.011059874
0.9076664918
0.9111827041
0.8971263869
0.8673046541
0.8447203627
0.8334444646
0.8302656264
0.8303167033
0.8312045054
0.8347089697
0.8384530414
0.8410617537
0.8427926163
0.8436291354
0.8443444997
0.8449876177
0.8456365331
0.8472079071
0.8548131931
0.8839925167
0.9414614048
0.9922849505
1.009034252
1.010988178
1.011312561
1.011733304
1.012449212
1.011407176
1.010513378
1.010652171
1.011664691
1.011216657
1.011240366
0.9078547014
0.9109789376
0.8979114814
0.8674679365
0.843854368
0.8327172318
0.8294548176
0.8298656114
0.831715431
0.835100849
0.8386901707
0.8411616001
0.8428190589
0.8438012508
0.8445454642
0.8450928396
0.8456081901
0.8465903722
0.8521360455
0.8749066443
0.9263950346
0.9850139576
1.00840735
1.010976291
1.010969754
1.011167003
1.012145051
1.011477559
1.010593879
1.010759802
1.011952918
1.011599309
1.011570205
0.9082491867
0.9107109208
0.8984640329
0.8673668685
0.8428051613
0.8316549182
0.828717366
0.8296462541
0.8323483606
0.8354384565
0.8389270811
0.8412792812
0.8429133156
0.843949937
0.8446615619
0.845161048
0.8455889007
0.8463061307
0.8500343729
0.8675107842
0.9182651842
0.9752064229
1.004777441
1.010191083
1.010392494
1.011015179
1.012375417
1.01186461
1.010836653
1.010978936
1.012236024
1.011896182
1.011457677
0.9087480414
0.9103354469
0.898916059
0.8673393173
0.8414195284
0.8304048627
0.8282141114
0.8296428804
0.8327355796
0.8357337141
0.8391520962
0.8413901312
0.8430322587
0.8440011893
0.8446969581
0.8451910001
0.8455594902
0.8460949624
0.8482480075
0.8612689106
0.9055812875
0.9669331301
0.9996473764
1.008272919
1.009998663
1.011085406
1.012444003
1.012040801
1.010839591
1.010929684
1.012190176
1.011879153
1.011255388
1.011567492
0.9092793405
0.9096881811
0.8991222628
0.8674887337
0.8405421657
0.8295370218
0.8279132429
0.8296823013
0.8328715898
0.8360741253
0.8394107834
0.8414990549
0.8430088303
0.8441095353
0.8447766105
0.8452474885
0.845619386
0.8458830907
0.8472331255
0.8547120666
0.8864818675
0.9534075041
0.9958143766
1.007005207
1.00984381
1.011104961
1.012286755
1.012097953
1.010627798
1.010654293
1.011945935
1.011584093
1.01103699
1.01116776
0.9098692708
0.9089181938
0.8988262484
0.8677436951
0.8403835531
0.8291060759
0.8277658166
0.8296017498
0.8329173457
0.8365741304
0.8396760285
0.8416187899
0.843052955
0.8442523916
0.8448995547
0.8454336791
0.8456663661
0.8458416636
0.8466368013
0.8517658643
0.8739430172
0.9309719566
0.9882206178
1.005655295
1.010362474
1.011407511
1.012249996
1.012306606
1.010395308
1.010347785
1.011622015
1.011150783
1.010657514
1.010887653
0.9104572533
0.9082570549
0.8984986742
0.867699533
0.8406924357
0.8289154608
0.8275043735
0.829485288
0.8330152436
0.8371188122
0.8399145936
0.8417505695
0.8430921858
0.8442465542
0.8450530828
0.8455298
0.8456643659
0.8457948632
0.8463294565
0.8502472852
0.8677848504
0.9129239819
0.9748576125
1.004757764
1.010649404
1.011479608
1.012226968
0.9109391998
0.9076790191
)
;

boundaryField
{
    inlet
    {
        type            fixedValue;
        value           nonuniform 0();
    }
    outlet
    {
        type            inletOutlet;
        inletValue      nonuniform 0();
        value           nonuniform 0();
    }
    bottom
    {
        type            slip;
    }
    top
    {
        type            slip;
    }
    obstacle
    {
        type            zeroGradient;
    }
    defaultFaces
    {
        type            empty;
    }
    procBoundary21to15
    {
        type            processor;
        value           nonuniform List<scalar> 
24
(
1.09845864
1.097136053
1.096942886
1.098043051
1.097032495
1.095640452
1.094724958
1.09496703
1.096040538
1.09622624
1.09600026
1.095622632
1.095341431
1.095372418
1.095630036
1.096278836
1.09626871
1.096157657
0.9836203603
1.092556543
1.106267081
1.106162979
1.099604236
1.099604236
)
;
    }
    procBoundary21to22
    {
        type            processor;
        value           nonuniform List<scalar> 
69
(
1.095271997
1.094203539
1.092497674
1.09003969
1.087280944
1.087280944
1.083061913
1.078907025
1.073868092
1.068090144
1.061699307
1.055520744
1.055520744
1.049489428
1.043916175
1.038218426
1.032441072
1.026522369
1.020459115
1.014514263
1.014514263
1.008953709
1.004678296
1.001299094
0.998964083
0.9975123363
0.99640165
0.99640165
0.9954368507
0.9942264339
0.9933484696
0.9933048098
0.9937025949
0.9941335542
0.9943421892
0.9943421892
0.9945066846
0.9944808546
0.9949816503
0.9961995621
0.9976454645
0.9993341744
0.9993341744
1.00071041
1.002289538
1.003970895