/*--------------------------------*- C++ -*----------------------------------*\
  =========                 |
  \\      /  F ield         | OpenFOAM: The Open Source CFD Toolbox
   \\    /   O peration     | Website:  https://openfoam.org
    \\  /    A nd           | Version:  7
     \\/     M anipulation  |
\*---------------------------------------------------------------------------*/
FoamFile
{
    version     2.0;
    format      ascii;
    class       volScalarField;
    location    "2.1";
    object      p;
}
// * * * * * * * * * * * * * * * * * * * * * * * * * * * * * * * * * * * * * //

dimensions      [1 -1 -2 0 0 0 0];

internalField   nonuniform List<scalar> 
2222
(
1
1
1
1
1
1
1
1
1
1
1
1
1
1
1
1
1
1
1
1
1
1
1
1
1
1
1
1
1
1
1
1
1
1
1
1
1
1
1
1
1
1
1
1
1
1
1
1
1
1
1
1
1
1
1
1
1
1
1
1
1
1
1
1
1
1
1
1
1
1
1
1
1
1
1
1
1
1
1
1
1
1
1
1
1
1
1
1
1
1
1
1
1
1
1
1
1
1
1
1
1
1
1
1
1
1
1
1
1
1
1
1
1
1
1
1
1
1
1
1
1
1
1
1
1
1
1
1.000000013
1
1
1
1
1
1
1
1
1
1
1
1
1
1
1
1
1
1
1
1
1
1
1
1
1
1
1
1
1
1
1.000000016
1.000000402
1
1
1
1
1
1
1
1
1
1
1
1
1
1
1
1
1
1
1
1
1
1
1
1
1
1
1
1
1
1.000000014
1.000000512
1.000008906
1
1
1
1
1
1
1
1
1
1
1
1
1
1
1
1
1
1
1
1
1
1
1
1
1
1
1
1
1.000000016
1.000000416
1.000011247
1.00013567
1
1
1
1
1
1
1
1
1
1
1
1
1
1
1
1
1
1
1
1
1
1
1
1
1
1
1
1.000000015
1.000000524
1.000009111
1.000166265
1.001373532
1
1
1
1
1
1
1
1
1
1
1
1
1
1
1
1
1
1
1
1
1
1
1
1
1
1
1.000000017
1.000000432
1.000011619
1.000137684
1.001644537
1.009455646
1
1
1
1
1
1
1
1
1
1
1
1
1
1
1
1
1
1
1
1
1
1
1
1
1
1.000000016
1.000000532
1.000009258
1.000171758
1.001396539
1.010938542
1.042706233
1
1
1
1
1
1
1
1
1
1
1
1
1
1
1
1
1
1
1
1
1
1
1
1
1.000000017
1.000000452
1.000011839
1.000138787
1.001698145
1.0095375
1.046953091
1.131687632
1
1
1
1
1
1
1
1
1
1
1
1
1
1
1
1
1
1
1
1
1
1
1
1.000000017
1.000000543
1.00000947
1.000176079
1.001416541
1.011183558
1.043216681
1.133326574
1.261410314
1
1
1
1
1
1
1
1
1
1
1
1
1
1
1
1
1
1
1
1
1
1
1.000000018
1.000000479
1.000012036
1.000140244
1.001746141
1.009676423
1.047888606
1.132999508
1.249403764
1.36273187
1
1
1
1
1
1
1
1
1
1
1
1
1
1
1
1
1
1
1
1
1
1.000000019
1.00000056
1.000009826
1.000180085
1.001433013
1.011411685
1.043927992
1.134632406
1.264969688
1.365478878
1.395427632
1
1
1
1
1
1
1
1
1
1
1
1
1
1
1
1
1
1
1
1.000000001
1.000000019
1.000000516
1.000012304
1.000143019
1.00179747
1.009792968
1.04877261
1.13416335
1.250291432
1.36682342
1.423271162
1.427727921
1
1
1
1
1
1
1
1
1
1
1
1
1
1
1
1
1
1
1
1.000000021
1.000000584
1.000010351
1.000184028
1.001451864
1.011696731
1.044565062
1.13583443
1.267724795
1.364289061
1.396275268
1.423314212
1.438770944
1
1
1
1
1
1
1
1
1
1
1
1
1
1
1
1
1
1.000000001
1.000000019
1.000000561
1.000012689
1.000147461
1.001847036
1.009906819
1.049802194
1.135136418
1.251299339
1.369705544
1.424944847
1.42766718
1.434470985
1.442284788
1
1
1
1
1
1
1
1
1
1
1
1
1
1
1
1
1
1.000000023
1.000000609
1.000010984
1.000187279
1.001474065
1.011997027
1.045186958
1.137099516
1.271336437
1.361475398
1.396737869
1.425737346
1.440209152
1.443334941
1.443729105
1
1
1
1
1
1
1
1
1
1
1
1
1
1
1
1.000000001
1.00000002
1.00000061
1.00001312
1.000152915
1.001877524
1.009985786
1.050743743
1.136231864
1.252591
1.372261327
1.426392362
1.428518481
1.436675888
1.443936886
1.444125635
1.443356072
1
1
1
1
1
1
1
1
1
1
1
1
1
1
1
1.000000024
1.000000626
1.000011701
1.000190946
1.00150582
1.012244894
1.045578176
1.138068417
1.2748605
1.358569354
1.396087583
1.429143564
1.442345579
1.444800022
1.444549839
1.443718968
1.440350193
1
1
1
1
1
1
1
1
1
1
1
1
1
1.000000001
1.000000021
1.000000668
1.000013591
1.000159703
1.001903827
1.01010805
1.05175092
1.13723614
1.253678419
1.374961597
1.427118543
1.430021293
1.439007354
1.445108677
1.44505294
1.444334393
1.44103015
1.433805494
1
1
1
1
1
1
1
1
1
1
1
1
1
1.000000026
1.000000649
1.000012702
1.000196857
1.001554284
1.012457286
1.045956754
1.139621431
1.277497585
1.35668127
1.395544058
1.433384665
1.444560197
1.445530003
1.445036482
1.444352312
1.44130549
1.434537836
1.423969935
1
1
1
1
1
1
1
1
1
1
1
1.000000001
1.000000022
1.000000726
1.000014037
1.000168978
1.001943464
1.010319146
1.052849932
1.138011482
1.254466605
1.37725009
1.428870982
1.431929919
1.44019129
1.445502848
1.445689224
1.444956199
1.441846594
1.43533744
1.425183547
1.412400028
1
1
1
1
1
1
1
1
1
1
1
1.000000027
1.000000676
1.000013759
1.000201987
1.001610805
1.012629931
1.046526266
1.142128302
1.27869148
1.353917299
1.396990799
1.43900811
1.445938359
1.445479118
1.445095078
1.444560454
1.442028862
1.436084951
1.426379916
1.41395428
1.399414047
1
1
1
1
1
1
1
1
1
1.000000001
1.000000022
1.000000784
1.000014467
1.00018
1.001980854
1.010539048
1.053724997
1.138855163
1.256127566
1.379638778
1.431960883
1.433392156
1.440018994
1.445775422
1.446013443
1.445187951
1.442333498
1.436674398
1.42755311
1.415323595
1.401092895
1.384201965
1
1
1
1
1
1
1
1
1.000000001
1.000000029
1.000000708
1.000014882
1.000207
1.001684364
1.012784776
1.04724185
1.144850729
1.278996341
1.350717955
1.400759254
1.442423093
1.446142347
1.445156444
1.444823212
1.444946672
1.442948056
1.437723268
1.428936512
1.416964297
1.402844781
1.386090446
1.367721473
1
1
1
1
1
1
1
1.000000001
1.000000024
1.000000849
1.00001501
1.000192934
1.002017889
1.010834459
1.05444685
1.140135924
1.259296627
1.381882718
1.432336836
1.433333859
1.439546049
1.446019028
1.446294796
1.445327718
1.44299809
1.438342321
1.430157458
1.418387581
1.404366468
1.387957599
1.369189411
1.351385199
1
1
1
1
1
1
1.000000001
1.000000031
1.000000749
1.000016043
1.00021275
1.001774032
1.012924495
1.048164333
1.147030677
1.279865772
1.350033444
1.406488896
1.444385559
1.445776904
1.444541522
1.444850467
1.445658351
1.443945813
1.43945221
1.431486768
1.420040075
1.405995377
1.389663958
1.370908736
1.352213881
1.334096684
1
1
1
1
1
1.000000001
1.000000026
1.000000914
1.000015623
1.000205522
1.002055087
1.011196153
1.055006603
1.141444484
1.262340603
1.384369702
1.431320691
1.433531441
1.439279591
1.44615644
1.446563379
1.445512507
1.444100707
1.440251819
1.432618559
1.421350512
1.407508584
1.391209151
1.372525524
1.353545208
1.33507787
1.314370496
1
1
1
1
1.000000001
1.000000034
1.000000793
1.000017068
1.000218648
1.001860856
1.013075229
1.049205866
1.148500081
1.281075681
1.350252059
1.410719702
1.444620017
1.445514458
1.444207077
1.445121333
1.44672703
1.445289951
1.441176771
1.433735754
1.422690687
1.408925518
1.392692252
1.373909703
1.354945816
1.336389287
1.315665575
1.29391188
1
1
1
1.000000001
1.000000027
1.000000975
1.000016311
1.000216392
1.002096273
1.011571218
1.055657336
1.142859872
1.264667862
1.386369373
1.429186295
1.433904893
1.439582917
1.44644002
1.447038497
1.446078366
1.445529804
1.442270075
1.434992141
1.423916314
1.410083713
1.394140749
1.375282627
1.356024661
1.337770367
1.317123298
1.294919393
1.276612698
1
1
1.000000001
1.000000037
1.000000843
1.000017995
1.000225834
1.001940206
1.013290748
1.050326634
1.15012473
1.282809304
1.35090411
1.412272169
1.444126384
1.44524872
1.444431641
1.446173525
1.448225874
1.447343617
1.443462411
1.436338366
1.42548498
1.41148313
1.395595576
1.376970615
1.356981228
1.338761838
1.318821819
1.29599036
1.276850949
1.259968504
1
1.000000001
1.00000003
1.000001034
1.000017119
1.00022583
1.002153603
1.011947328
1.056550324
1.144690272
1.266951775
1.388110868
1.427269676
1.433883188
1.439965025
1.447048951
1.447849349
1.44776243
1.447441131
1.444376841
1.437616105
1.426970718
1.412983038
1.397095013
1.378855709
1.358395967
1.339550169
1.320435749
1.297381828
1.27660492
1.259844287
1.239258452
1.000000001
1.000000039
1.000000896
1.000018841
1.000234367
1.002012615
1.013592229
1.051562449
1.152018244
1.285319076
1.351975897
1.4126169
1.443649623
1.444999619
1.444800442
1.44717756
1.449251687
1.448294898
1.445057453
1.438692939
1.428584741
1.414846031
1.398805653
1.38083081
1.360331377
1.340549553
1.321598686
1.298874429
1.276331393
1.259319496
1.240109495
1.214973014
1.000000032
1.000001087
1.000017956
1.000233649
1.002219767
1.012307238
1.057629561
1.147020489
1.269106154
1.389343226
1.426398216
1.434360891
1.440874361
1.447673984
1.448460677
1.448436384
1.448381303
1.445822439
1.439636342
1.429746097
1.416463768
1.400588741
1.382703909
1.362561836
1.341925851
1.322525424
1.300422544
1.276698099
1.258558123
1.240328549
1.215345799
1.193150001
1.000000945
1.000019483
1.000242396
1.002070127
1.013910619
1.052756071
1.154023464
1.288252987
1.353240026
1.411859406
1.443534389
1.445528473
1.445264652
1.447991403
1.450088356
1.449464539
1.446457779
1.440547419
1.431013441
1.417926836
1.402341461
1.384405968
1.364388139
1.343582946
1.323339049
1.301890243
1.277898737
1.257667341
1.239796715
1.215963982
1.191733162
1.177672733
1.000018668
1.000238958
1.002279019
1.012602477
1.058635325
1.149451974
1.270905573
1.389648128
1.425883976
1.435050054
1.441969722
1.448113807
1.44897598
1.4492533
1.449344566
1.447144508
1.441470075
1.4322025
1.419287218
1.403927815
1.386254556
1.36582675
1.345176026
1.324724769
1.302776199
1.279218735
1.257274541
1.238679712
1.216992511
1.191745925
1.175184533
1.161666029
1.000249458
1.002115903
1.014210993
1.053838452
1.155790766
1.291382984
1.354457169
1.410163248
1.443156315
1.446464564
1.445681398
1.44814815
1.450650484
1.450385788
1.447871522
1.442416495
1.433534233
1.420895692
1.405319708
1.388078308
1.367539402
1.346180031
1.3262487
1.303696862
1.279522184
1.257919428
1.238244353
1.217124515
1.192717443
1.172891192
1.159007653
1.140400088
1.002341782
1.012886223
1.059682891
1.151977518
1.272612226
1.389738435
1.424995711
1.435232996
1.442752546
1.448343219
1.449185967
1.449566963
1.449973463
1.448342416
1.44345421
1.434820826
1.42262402
1.406974599
1.389582225
1.369785339
1.347186023
1.326861084
1.305364916
1.279718542
1.25793908
1.23881167
1.216458585
1.192474997
1.172187087
1.156840058
1.139865746
1.116354584
1.014565547
1.054936341
1.157687653
1.294563308
1.35643516
1.40883005
1.442322099
1.447149997
1.445917358
1.447977041
1.450875839
1.450929094
1.449100097
1.44440766
1.436164656
1.42424243
1.408942297
1.39107892
1.371652472
1.349122459
1.3268457
1.306643163
1.281586757
1.256815132
1.23839767
1.21687752
1.1912654
1.171617669
1.156307272
1.138360454
1.115830856
1.095427828
1.06081887
1.154361255
1.274224431
1.390188146
1.425870025
1.435878431
1.443320638
1.44836465
1.449063679
1.449492267
1.450287929
1.449143941
1.44517797
1.437465073
1.425830797
1.410866688
1.393020324
1.373047948
1.351363711
1.32798817
1.30659685
1.283729211
1.256685428
1.23619701
1.217770578
1.192137827
1.169453056
1.154810996
1.137331816
1.113753971
1.093570957
1.081112451
1.159482919
1.296836237
1.358167573
1.408530687
1.442392592
1.448270405
1.446510215
1.447794593
1.450777906
1.451145637
1.44983431
1.445878703
1.438544816
1.42739892
1.412518054
1.395048305
1.374791102
1.352850726
1.330099692
1.306773118
1.28403589
1.258608348
1.234661687
1.216607141
1.194313878
1.167532735
1.151141209
1.136588492
1.11367599
1.091009354
1.078444732
1.065891731
1.275457009
1.389755738
1.427039
1.436760529
1.444234742
1.448849171
1.449183065
1.449460399
1.450498335
1.449695956
1.446414167
1.439524054
1.42884565
1.414201786
1.396676675
1.376989882
1.354280738
1.331394142
1.308359361
1.283926349
1.259722058
1.23547253
1.21434356
1.193942875
1.168221211
1.147441983
1.134300352
1.115338644
1.089036804
1.073590244
1.062635933
1.044384965
1.35958802
1.407633538
1.442342621
1.449295409
1.447619423
1.448076263
1.450685611
1.451414805
1.450468994
1.447183015
1.440520195
1.43010991
1.415880649
1.398171907
1.378647737
1.356343011
1.332029665
1.309614442
1.285543832
1.259479693
1.235912192
1.213647309
1.191930064
1.169074626
1.146560807
1.130757178
1.114187347
1.088963402
1.068378519
1.058378947
1.044024535
1.019990245
1.427482218
1.436600263
1.444542008
1.449510683
1.449692041
1.449666673
1.45076612
1.450336412
1.447757904
1.441634311
1.431557919
1.417624028
1.400032566
1.380024904
1.358253418
1.333536929
1.309779519
1.287195686
1.260251244
1.234559175
1.213713242
1.191677895
1.168008498
1.145991065
1.127862129
1.110986954
1.088974497
1.066056111
1.054074259
1.042037451
1.020076055
0.9982334359
1.442335894
1.44959136
1.448339184
1.448430789
1.450699545
1.451622557
1.450933625
1.448352225
1.442628916
1.433023671
1.419390839
1.402043233
1.381821251
1.359709387
1.335510366
1.310354081
1.287235336
1.26198593
1.234053115
1.212420738
1.192267109
1.167048169
1.143374824
1.125669254
1.108781899
1.087871305
1.065150862
1.050027459
1.038026878
1.018845827
0.9948951179
0.9836368041
1.444851062
1.449779456
1.449966511
1.449861412
1.450910212
1.4506924
1.44875061
1.443546082
1.434373255
1.421188102
1.404026849
1.383919757
1.361561491
1.337075124
1.311662814
1.287185257
1.26267851
1.235363672
1.210798546
1.190893716
1.167205132
1.140891602
1.122872275
1.107456495
1.086588949
1.062727372
1.045886107
1.033683843
1.016752456
0.9935605816
0.9791601167
0.9713613778
1.449219637
1.448761218
1.450609241
1.451726858
1.451210276
1.449156382
1.4443287
1.43561194
1.422801908
1.405984805
1.385821884
1.363618469
1.338812101
1.312721642
1.28801748
1.263132318
1.236078929
1.210035212
1.188731781
1.166873304
1.140747477
1.119711988
1.104652966
1.085112442
1.059683847
1.04157797
1.029922537
1.014786903
0.992571412
0.974970873
0.965764365
0.9542366198
1.450354955
1.450163202
1.451129188
1.4510532
1.449503441
1.445056392
1.436771908
1.424298797
1.407810434
1.387699555
1.365236159
1.340806149
1.314093177
1.288554892
1.263937943
1.236308672
1.209145089
1.187320631
1.166208758
1.140794004
1.116939873
1.100744467
1.083022108
1.05810867
1.037672745
1.026220462
1.012190519
0.9904218431
0.9703854955
0.9598211247
0.9495225812
0.9324977683
1.450577
1.451870995
1.451580008
1.449982893
1.44584827
1.438001255
1.425889872
1.409520781
1.389555431
1.366820075
1.342268565
1.315956855
1.289038474
1.263882197
1.237227095
1.208810767
1.185763114
1.16529168
1.140093544
1.114093534
1.096723506
1.081018591
1.057871157
1.034270918
1.021380522
1.008356676
0.9875738206
0.9660396014
0.9547726756
0.9452476829
0.9305056855
0.9104159025
1.451254871
1.451430101
1.450357577
1.446757717
1.439352787
1.427661054
1.411528472
1.391425061
1.368735461
1.343649296
1.317068142
1.290145833
1.263618978
1.237492526
1.209815487
1.184101309
1.162762303
1.139326464
1.112361798
1.092912226
1.078417291
1.057357028
1.030921638
1.015298625
1.00393871
0.9854176999
0.9628418454
0.9501520054
0.9410668073
0.9270783662
0.9071720335
0.8908230648
1.451919389
1.450790079
1.44750084
1.440684461
1.429454841
1.413759502
1.393689089
1.370620274
1.345582733
1.317983766
1.290739896
1.264540488
1.237144948
1.209607634
1.183447399
1.160050228
1.137667713
1.112564265
1.08991901
1.073750367
1.055106446
1.028705882
1.009478046
0.9990043401
0.9839734989
0.960830893
0.9442759238
0.9350820668
0.9225428587
0.9030434009
0.8857285289
0.8774416328
1.450799522
1.447970449
1.441712535
1.431086539
1.415773036
1.396182423
1.372698
1.347337674
1.320062494
1.291132568
1.264743179
1.237716838
1.208121596
1.18212711
1.159442707
1.135843188
1.11112896
1.087751725
1.069070717
1.051065012
1.027942898
1.006001526
0.9934800187
0.9803810708
0.9589858961
0.938112988
0.9278071985
0.9177407683
0.9006089961
0.8817928915
0.872233302
0.8649587583
1.448422914
1.442518645
1.432437739
1.417546223
1.398166803
1.375163977
1.34895874
1.321888116
1.292990736
1.263906118
1.23762254
1.208827783
1.18013566
1.157792399
1.134926695
1.107944637
1.084176362
1.066190395
1.048140381
1.026073589
1.003728512
0.9881267156
0.9743229083
0.9557241702
0.9339612788
0.9213367991
0.9124293425
0.898590622
0.8782939987
0.8650827753
0.8579937984
0.8473063144
1.443283598
1.433555117
1.419242492
1.399877027
1.377151238
1.351346677
1.322709953
1.294582233
1.265015628
1.236185357
1.209644246
1.180312279
1.153702425
1.132381512
1.107261371
1.080580099
1.062386528
1.046049648
1.023256018
0.9991491118
0.9829072962
0.9693315313
0.9516645088
0.9315244903
0.9168644238
0.9068591217
0.8941223377
0.8748473801
0.8578035676
0.8501200365
0.8419728554
0.8268792399
1.434876489
1.420888975
1.402005795
1.378595597
1.353433679
1.324571111
1.29438272
1.266908511
1.236832488
1.207304454
1.180781996
1.152140163
1.127509422
1.106527748
1.080539177
1.056845341
1.040729405
1.02114244
0.9947566001
0.9766486102
0.9652660879
0.949260478
0.9279912711
0.9114527421
0.9005787543
0.8878274173
0.8702440683
0.8530372454
0.8439619682
0.836164216
0.8235497485
0.8064525385
1.422728843
1.404302985
1.380788166
1.354366973
1.327121763
1.295391859
1.265918766
1.238805676
1.206147831
1.17736964
1.15333972
1.125922017
1.101566216
1.079830868
1.053886967
1.033001804
1.017107461
0.9949720905
0.9716191763
0.9586818259
0.9458557572
0.9243029858
0.9039082172
0.8934057078
0.8830445129
0.8663772725
0.8490447733
0.8390317642
0.8311755954
0.819311597
0.8026987894
0.7899725235
1.406454699
1.383690761
1.356121705
1.327939394
1.298422962
1.264873122
1.237152715
1.208766019
1.174934237
1.150072859
1.127013204
1.097324352
1.073363935
1.053409772
1.030041874
1.010527186
0.9932985411
0.9699935978
0.9502299967
0.9380405775
0.9217792035
0.8983182273
0.885217701
0.8777985459
0.8644746648
0.8443439841
0.8314726913
0.8240673117
0.8132309134
0.7971285652
0.7835747844
0.7764769509
1.35950627
1.328651373
1.29930748
1.267536972
1.234263928
1.208203087
1.177640608
1.144814649
1.122925628
1.098376657
1.068013823
1.047972572
1.030113003
1.006162603
0.9855307602
0.9675181419
0.9458582962
0.9291449673
0.9166964029
0.8989355258
0.8794709606
0.8694288512
0.8595726349
0.8403368131
0.8221761065
0.8154021326
0.8082325421
0.7937087426
0.7785638994
0.771365425
0.7651823572
1.331898401
1.298546499
1.269235965
1.236224963
1.203872994
1.177629007
1.145189259
1.115851072
1.096237832
1.070016748
1.041066724
1.023707145
1.004719952
0.978641552
0.959556488
0.9442853085
0.9256790578
0.9092647612
0.8952436797
0.8767866326
0.8601020537
0.850104587
0.8374237801
0.8169936266
0.8056688956
0.8004429505
0.7905636161
0.7736691819
0.7633722453
0.757833188
0.749831161
1.301090606
1.267351947
1.238514816
1.2034792
1.171874621
1.146584835
1.11543073
1.08912564
1.068759695
1.039698393
1.013861793
0.9989150125
0.978731246
0.9531451288
0.9374538492
0.9236885343
0.9038696741
0.8858895193
0.8718166325
0.8551714435
0.8410464064
0.8310897024
0.8178103624
0.8011061903
0.7923942332
0.7850224216
0.7703176508
0.7541386507
0.7477067682
0.7418801323
0.7309202844
1.267655249
1.235492623
1.206519142
1.169901231
1.141177175
1.117141463
1.085352664
1.059914402
1.039528958
1.011567922
0.9899703413
0.9752615661
0.9523945682
0.9279639766
0.9149199551
0.9003571066
0.8780378026
0.8625250121
0.852111225
0.8381840024
0.8233987899
0.8115648221
0.7975185064
0.783457709
0.7747944382
0.7650310659
0.7487560879
0.7376094344
0.7337008574
0.727974275
0.7152512737
1.23318237
1.204160874
1.173817417
1.136260271
1.110732094
1.08655158
1.054230547
1.031870045
1.012910994
0.9859798105
0.9654552476
0.9492684554
0.9239238307
0.9034701401
0.8931244261
0.8776644029
0.8557894088
0.8437771303
0.8341676693
0.8181014207
0.8020270627
0.790835176
0.7784234652
0.7663694872
0.7572186543
0.7473018667
0.7344296087
0.7252274847
0.7196133828
0.7103914458
0.6957371613
1.199878272
1.171983252
1.138393593
1.102786415
1.081587409
1.056977255
1.025057179
1.004953026
0.985228722
0.957524889
0.93870006
0.9228146362
0.8994080341
0.8833135242
0.8726872164
0.8543539501
0.8335935717
0.8237792212
0.81290709
0.7935800628
0.7799595161
0.7722100122
0.7620370222
0.7499216906
0.740529677
0.7317271349
0.719896043
0.7108104858
0.7032438839
0.6905462335
0.6792747346
1.165684284
1.138053714
1.104082971
1.073664658
1.05325532
1.024600114
0.9940373816
0.9773924022
0.9576227164
0.931167051
0.9146302076
0.899197114
0.8774140195
0.8615416545
0.8486533073
0.8279224246
0.8115652202
0.8047167702
0.7935721955
0.774581232
0.7642331299
0.7572889193
0.74497413
0.7304075985
0.7216409613
0.7129928256
0.7010607634
0.6938761206
0.686973724
0.6775362434
0.6690312201
1.132060684
1.104929057
1.071312284
1.043352048
1.021789331
0.9917214158
0.9669552058
0.9523473526
0.9309094233
0.9051617295
0.8897468353
0.8737662247
0.8519870128
0.8376000423
0.8255821073
0.8074370646
0.7942023553
0.7861315413
0.7723796989
0.7544277131
0.746326501
0.7386240611
0.7224320029
0.7101388822
0.7057665525
0.6989237886
0.6883348496
0.6802017655
0.6732082938
0.6639458338
0.6550131113
1.0977157
1.070669632
1.038156055
1.013104064
0.9919112046
0.9635230107
0.9419652144
0.9256290057
0.9004783881
0.8771385815
0.8651218695
0.8497935618
0.8290762072
0.8169363108
0.8060332087
0.7888034476
0.7756638189
0.7655103863
0.748805207
0.733995166
0.7287535408
0.7205727525
0.7041511729
0.6952735915
0.6913215199
0.6829622855
0.6710004128
0.6630220867
0.6566807512
0.646477531
0.6398472193
1.063888822
1.038657385
1.007987231
0.9837294096
0.9610238856
0.9331410817
0.9138335315
0.897076158
0.8719082109
0.8544246042
0.8447240393
0.8275349767
0.8063107719
0.7951995593
0.7829035587
0.7642557227
0.7530368343
0.7441913947
0.7289740675
0.7182024564
0.7136804119
0.7043797163
0.6888198102
0.6811307462
0.6752056312
0.662659373
0.6512594574
0.6485903773
0.6442196563
0.6353154953
0.6280534199
1.032920933
1.005830605
0.9746249854
0.9522658019
0.9301658208
0.904946322
0.8883848665
0.8715486259
0.847352785
0.832476279
0.8208787576
0.7987775794
0.7814977851
0.774709181
0.7624315463
0.744399481
0.7356132705
0.727181911
0.7118801924
0.701301374
0.6945250058
0.682059256
0.6684824523
0.6652048192
0.6602298437
0.6474553146
0.639321062
0.6363530361
0.6304130405
0.619654504
0.6110232053
0.9991378968
0.9697892875
0.9428843169
0.9241903533
0.9024103567
0.8788465424
0.8628213059
0.8432590747
0.8201197268
0.8091692808
0.7960314801
0.7731393795
0.761943146
0.7558000217
0.7410440534
0.7241627388
0.7169556395
0.7072525809
0.6912093338
0.6837234706
0.6776917385
0.6656847046
0.6556073444
0.6519140117
0.6451750815
)
;

boundaryField
{
    inlet
    {
        type            fixedValue;
        value           nonuniform 0();
    }
    outlet
    {
        type            zeroGradient;
    }
    bottom
    {
        type            slip;
    }
    top
    {
        type            slip;
    }
    obstacle
    {
        type            zeroGradient;
    }
    defaultFaces
    {
        type            empty;
    }
    procBoundary4to3
    {
        type            processor;
        value           nonuniform List<scalar> 
62
(
1
1
1
1
1
1
1
1
1
1
1
1
1
1
1
1
1
1
1
1
1
1
1
1
1
1
1
1
1
1
1
1
1
1
1.000000001
1.000000042
1.000001125
1.000019921
1.000243088
1.002157096
1.01314815
1.055933525
1.156741893
1.299617132
1.39053356
1.407976228
1.43729329
1.450082936
1.450225951
1.44912617
1.450451808
1.452043043
1.451675627
1.45114289
1.448892509
1.444340509
1.436548001
1.424927751
1.38594203
1.38594203
1.361854083
1.334800276
)
;
    }
    procBoundary4to5
    {
        type            processor;
        value           nonuniform List<scalar> 
69
(
1
1
1.000000015
1.000000495
1.00001086
1.000161585
1.00157984
1.010535911
1.045318153
1.131646874
1.249909317
1.367691272
1.421852696
1.421879575
1.433461025
1.441950289
1.443297314
1.442909106
1.439998258
1.433052876
1.422971346
1.410975295
1.397518552
1.382437461
1.366455023
1.350490232
1.332941375
1.312576214
1.292611008
1.275935714
1.259500467
1.238402599
1.214555715
1.194982375
1.179509747
1.163035674
1.139931056
1.115302047
1.097570397
1.083333168
1.068138099
1.046039102
1.020975021
1.003294618
0.9893000606
0.9757740017
0.958328952
0.9340795265
0.9125645918
0.8968566612
0.8828388178
0.8697128606
0.8524250971
0.8292930123
0.8109306122
0.7969526844
0.7836336047
0.769860587
0.7553681983
0.7362496506
0.7164985731
0.7039377727
0.6889620918
0.6761584233
0.6643599071
0.6489748336
0.6353130995
0.6220286005
0.6054202621
)
;
    }
    procBoundary4to9
    {
        type            processor;
        value           nonuniform List<scalar> 9(1.304970481 1.271688379 1.236839847 1.201095531 1.165238915 1.129553165 1.091865008 1.05789445 1.024763983);
    }
    procBoundary4to10
    {
        type            processor;
        value           nonuniform List<scalar> 
32
(
0.6318253678
0.6249324974
0.6202674736
0.6107031347
0.6001326365
0.5974731432
0.9661123818
0.9380153294
0.9157744157
0.8960378201
0.8708715894
0.8499379298
0.8350830916
0.814026752
0.7969391641
0.788941309
0.7743602258
0.7534115714
0.7444074471
0.7352709302
0.7151385246
0.7028174478
0.6980682198
0.6872776057
0.6727074261
0.6671726123
0.6616219975
0.649007521
0.6402097655
0.635154989
0.6318253678
0.6253272066
)
;
    }
}


// ************************************************************************* //
