/*--------------------------------*- C++ -*----------------------------------*\
  =========                 |
  \\      /  F ield         | OpenFOAM: The Open Source CFD Toolbox
   \\    /   O peration     | Website:  https://openfoam.org
    \\  /    A nd           | Version:  7
     \\/     M anipulation  |
\*---------------------------------------------------------------------------*/
FoamFile
{
    version     2.0;
    format      ascii;
    class       volScalarField;
    location    "2.1";
    object      rho;
}
// * * * * * * * * * * * * * * * * * * * * * * * * * * * * * * * * * * * * * //

dimensions      [1 -3 0 0 0 0 0];

internalField   nonuniform List<scalar> 
2222
(
1.40000504
1.40000504
1.40000504
1.40000504
1.40000504
1.40000504
1.40000504
1.40000504
1.40000504
1.40000504
1.40000504
1.40000504
1.40000504
1.40000504
1.40000504
1.40000504
1.40000504
1.40000504
1.40000504
1.40000504
1.40000504
1.40000504
1.40000504
1.40000504
1.40000504
1.40000504
1.40000504
1.40000504
1.40000504
1.40000504
1.40000504
1.40000504
1.40000504
1.40000504
1.40000504
1.40000504
1.40000504
1.40000504
1.40000504
1.40000504
1.40000504
1.40000504
1.40000504
1.40000504
1.40000504
1.40000504
1.40000504
1.40000504
1.40000504
1.40000504
1.40000504
1.40000504
1.40000504
1.40000504
1.40000504
1.40000504
1.40000504
1.40000504
1.40000504
1.40000504
1.40000504
1.40000504
1.40000504
1.40000504
1.40000504
1.40000504
1.40000504
1.40000504
1.40000504
1.40000504
1.40000504
1.40000504
1.40000504
1.40000504
1.40000504
1.40000504
1.40000504
1.40000504
1.40000504
1.40000504
1.40000504
1.40000504
1.40000504
1.40000504
1.40000504
1.40000504
1.40000504
1.40000504
1.40000504
1.40000504
1.40000504
1.40000504
1.40000504
1.40000504
1.40000504
1.400005041
1.40000504
1.40000504
1.40000504
1.40000504
1.40000504
1.40000504
1.40000504
1.40000504
1.40000504
1.40000504
1.40000504
1.40000504
1.40000504
1.40000504
1.40000504
1.40000504
1.40000504
1.40000504
1.40000504
1.40000504
1.40000504
1.40000504
1.40000504
1.40000504
1.40000504
1.40000504
1.40000504
1.40000504
1.40000504
1.40000504
1.400005041
1.400005053
1.40000504
1.40000504
1.40000504
1.40000504
1.40000504
1.40000504
1.40000504
1.40000504
1.40000504
1.40000504
1.40000504
1.40000504
1.40000504
1.40000504
1.40000504
1.40000504
1.40000504
1.40000504
1.40000504
1.40000504
1.40000504
1.40000504
1.40000504
1.40000504
1.40000504
1.40000504
1.40000504
1.40000504
1.40000504
1.400005041
1.400005056
1.400005443
1.40000504
1.40000504
1.40000504
1.40000504
1.40000504
1.40000504
1.40000504
1.40000504
1.40000504
1.40000504
1.40000504
1.40000504
1.40000504
1.40000504
1.40000504
1.40000504
1.40000504
1.40000504
1.40000504
1.40000504
1.40000504
1.40000504
1.40000504
1.40000504
1.40000504
1.40000504
1.40000504
1.40000504
1.400005041
1.400005054
1.400005553
1.400013946
1.40000504
1.40000504
1.40000504
1.40000504
1.40000504
1.40000504
1.40000504
1.40000504
1.40000504
1.40000504
1.40000504
1.40000504
1.40000504
1.40000504
1.40000504
1.40000504
1.40000504
1.40000504
1.40000504
1.40000504
1.40000504
1.40000504
1.40000504
1.40000504
1.40000504
1.40000504
1.40000504
1.400005041
1.400005056
1.400005456
1.400016289
1.400140714
1.40000504
1.40000504
1.40000504
1.40000504
1.40000504
1.40000504
1.40000504
1.40000504
1.40000504
1.40000504
1.40000504
1.40000504
1.40000504
1.40000504
1.40000504
1.40000504
1.40000504
1.40000504
1.40000504
1.40000504
1.40000504
1.40000504
1.40000504
1.40000504
1.40000504
1.40000504
1.400005041
1.400005055
1.400005564
1.400014152
1.400171322
1.401378072
1.40000504
1.40000504
1.40000504
1.40000504
1.40000504
1.40000504
1.40000504
1.40000504
1.40000504
1.40000504
1.40000504
1.40000504
1.40000504
1.40000504
1.40000504
1.40000504
1.40000504
1.40000504
1.40000504
1.40000504
1.40000504
1.40000504
1.40000504
1.40000504
1.40000504
1.400005041
1.400005057
1.400005473
1.400016662
1.400142727
1.401648391
1.409439714
1.40000504
1.40000504
1.40000504
1.40000504
1.40000504
1.40000504
1.40000504
1.40000504
1.40000504
1.40000504
1.40000504
1.40000504
1.40000504
1.40000504
1.40000504
1.40000504
1.40000504
1.40000504
1.40000504
1.40000504
1.40000504
1.40000504
1.40000504
1.40000504
1.400005041
1.400005056
1.400005573
1.400014299
1.400176817
1.401401075
1.41090399
1.442354082
1.40000504
1.40000504
1.40000504
1.40000504
1.40000504
1.40000504
1.40000504
1.40000504
1.40000504
1.40000504
1.40000504
1.40000504
1.40000504
1.40000504
1.40000504
1.40000504
1.40000504
1.40000504
1.40000504
1.40000504
1.40000504
1.40000504
1.40000504
1.400005041
1.400005057
1.400005492
1.400016881
1.40014383
1.401701889
1.409521782
1.446447315
1.528774362
1.40000504
1.40000504
1.40000504
1.40000504
1.40000504
1.40000504
1.40000504
1.40000504
1.40000504
1.40000504
1.40000504
1.40000504
1.40000504
1.40000504
1.40000504
1.40000504
1.40000504
1.40000504
1.40000504
1.40000504
1.40000504
1.40000504
1.400005041
1.400005058
1.400005583
1.400014511
1.400181141
1.401421076
1.411146412
1.44286283
1.530183829
1.650907123
1.40000504
1.40000504
1.40000504
1.40000504
1.40000504
1.40000504
1.40000504
1.40000504
1.40000504
1.40000504
1.40000504
1.40000504
1.40000504
1.40000504
1.40000504
1.40000504
1.40000504
1.40000504
1.40000504
1.40000504
1.40000504
1.400005041
1.400005058
1.400005519
1.400017079
1.400145286
1.401749778
1.409660391
1.447358538
1.530041174
1.639783617
1.743930806
1.40000504
1.40000504
1.40000504
1.40000504
1.40000504
1.40000504
1.40000504
1.40000504
1.40000504
1.40000504
1.40000504
1.40000504
1.40000504
1.40000504
1.40000504
1.40000504
1.40000504
1.40000504
1.40000504
1.40000504
1.400005041
1.400005059
1.4000056
1.400014866
1.400185152
1.401437539
1.411371945
1.443564217
1.531418088
1.654172338
1.74624124
1.773619458
1.40000504
1.40000504
1.40000504
1.40000504
1.40000504
1.40000504
1.40000504
1.40000504
1.40000504
1.40000504
1.40000504
1.40000504
1.40000504
1.40000504
1.40000504
1.40000504
1.40000504
1.40000504
1.40000504
1.400005041
1.400005059
1.400005556
1.400017347
1.400148061
1.401800996
1.409776721
1.448219473
1.531140101
1.640622545
1.747646356
1.798584257
1.802703545
1.40000504
1.40000504
1.40000504
1.40000504
1.40000504
1.40000504
1.40000504
1.40000504
1.40000504
1.40000504
1.40000504
1.40000504
1.40000504
1.40000504
1.40000504
1.40000504
1.40000504
1.40000504
1.400005041
1.400005061
1.400005624
1.400015392
1.4001891
1.40145638
1.411653599
1.444194403
1.532557782
1.656660234
1.745225045
1.774457279
1.798924719
1.812738286
1.40000504
1.40000504
1.40000504
1.40000504
1.40000504
1.40000504
1.40000504
1.40000504
1.40000504
1.40000504
1.40000504
1.40000504
1.40000504
1.40000504
1.40000504
1.40000504
1.40000504
1.400005041
1.40000506
1.400005601
1.400017732
1.400152501
1.40185048
1.409890349
1.449219432
1.532065394
1.641598888
1.750240964
1.800180615
1.802673069
1.808815686
1.815757003
1.40000504
1.40000504
1.40000504
1.40000504
1.40000504
1.40000504
1.40000504
1.40000504
1.40000504
1.40000504
1.40000504
1.40000504
1.40000504
1.40000504
1.40000504
1.40000504
1.400005041
1.400005063
1.400005649
1.400016024
1.400192356
1.401478567
1.411950348
1.444810305
1.533747547
1.659962383
1.742789788
1.774953993
1.801150797
1.814009467
1.816662329
1.816988142
1.40000504
1.40000504
1.40000504
1.40000504
1.40000504
1.40000504
1.40000504
1.40000504
1.40000504
1.40000504
1.40000504
1.40000504
1.40000504
1.40000504
1.40000504
1.400005041
1.40000506
1.40000565
1.400018163
1.400157954
1.401880962
1.409969343
1.450130553
1.53312187
1.642830966
1.752521257
1.801593971
1.803482027
1.810794712
1.817215633
1.81734509
1.816648678
1.40000504
1.40000504
1.40000504
1.40000504
1.40000504
1.40000504
1.40000504
1.40000504
1.40000504
1.40000504
1.40000504
1.40000504
1.40000504
1.40000504
1.400005041
1.400005065
1.400005666
1.400016741
1.400196026
1.401510287
1.41219525
1.445200118
1.534650147
1.663243358
1.74022689
1.774379003
1.804218314
1.815897347
1.817977463
1.817736699
1.81697915
1.813956041
1.40000504
1.40000504
1.40000504
1.40000504
1.40000504
1.40000504
1.40000504
1.40000504
1.40000504
1.40000504
1.40000504
1.40000504
1.40000504
1.400005041
1.400005061
1.400005708
1.400018634
1.400164739
1.401907293
1.410091226
1.451102744
1.53410546
1.643883178
1.75497199
1.802328388
1.804817242
1.812825883
1.818244776
1.818189561
1.81754421
1.814580116
1.808100172
1.40000504
1.40000504
1.40000504
1.40000504
1.40000504
1.40000504
1.40000504
1.40000504
1.40000504
1.40000504
1.40000504
1.40000504
1.400005041
1.400005066
1.40000569
1.400017742
1.400201938
1.401558693
1.41240557
1.445576916
1.53610043
1.665758438
1.738574248
1.773891833
1.808063781
1.817849123
1.818609445
1.818157322
1.817547449
1.814831752
1.808771788
1.79927364
1.40000504
1.40000504
1.40000504
1.40000504
1.40000504
1.40000504
1.40000504
1.40000504
1.40000504
1.40000504
1.40000504
1.400005041
1.400005062
1.400005766
1.400019079
1.400174013
1.401946957
1.410301575
1.452165297
1.534886398
1.644645333
1.757076574
1.803825948
1.806500527
1.813888042
1.818644993
1.818742612
1.81808396
1.815302445
1.809480221
1.80036771
1.788845659
1.40000504
1.40000504
1.40000504
1.40000504
1.40000504
1.40000504
1.40000504
1.40000504
1.40000504
1.40000504
1.400005041
1.400005068
1.400005716
1.4000188
1.400207067
1.401615156
1.41257738
1.446141769
1.53845233
1.667004219
1.736130343
1.775166394
1.813036126
1.819064929
1.818613192
1.818251901
1.817755089
1.815470749
1.810135205
1.801420464
1.790232745
1.777088181
1.40000504
1.40000504
1.40000504
1.40000504
1.40000504
1.40000504
1.40000504
1.40000504
1.40000504
1.400005041
1.400005063
1.400005824
1.400019509
1.400185033
1.401984367
1.410520495
1.453014739
1.535728362
1.646184184
1.75932946
1.806530309
1.807767023
1.81371983
1.818928527
1.819092174
1.818344441
1.815772322
1.810677735
1.80246551
1.791440937
1.778583521
1.763268893
1.40000504
1.40000504
1.40000504
1.40000504
1.40000504
1.40000504
1.40000504
1.40000504
1.400005041
1.400005069
1.400005748
1.400019922
1.400212078
1.401688625
1.412732199
1.446847709
1.541016811
1.667392763
1.733245157
1.778572651
1.815993525
1.819266055
1.818368647
1.818070837
1.818163636
1.816357196
1.811646581
1.803720486
1.792908116
1.780139125
1.764957754
1.748261118
1.40000504
1.40000504
1.40000504
1.40000504
1.40000504
1.40000504
1.40000504
1.400005041
1.400005064
1.40000589
1.400020052
1.400197966
1.402021426
1.410814319
1.453722698
1.536977052
1.649114634
1.761420347
1.806780069
1.807682639
1.81329214
1.81917161
1.819430846
1.818552329
1.81644398
1.81223552
1.804837773
1.794190521
1.78149507
1.766622912
1.749578854
1.733357841
1.40000504
1.40000504
1.40000504
1.40000504
1.40000504
1.40000504
1.400005041
1.400005072
1.400005789
1.400021083
1.400217826
1.401778186
1.412872565
1.447754782
1.543081911
1.668274857
1.7326561
1.783739505
1.817590261
1.818925099
1.817849942
1.818157169
1.818903974
1.817355935
1.813284692
1.806061102
1.795682369
1.782949932
1.76814463
1.751122545
1.734110812
1.717547878
1.40000504
1.40000504
1.40000504
1.40000504
1.40000504
1.400005041
1.400005066
1.400005954
1.400020665
1.400210552
1.402058656
1.411173872
1.454279364
1.538235873
1.651935165
1.763738861
1.805892678
1.807794982
1.812945672
1.819232774
1.819775909
1.818819938
1.817541473
1.814051126
1.807117036
1.79687555
1.784304663
1.769519137
1.752571269
1.735320461
1.718461977
1.699428261
1.40000504
1.40000504
1.40000504
1.40000504
1.400005041
1.400005074
1.400005834
1.400022109
1.400223724
1.401864909
1.413023709
1.448775177
1.544486552
1.669447962
1.732910777
1.787585706
1.817797501
1.818567171
1.817497561
1.818418757
1.819974087
1.818675554
1.814927573
1.808142041
1.798084264
1.785570943
1.770841097
1.753808043
1.736590979
1.719675579
1.700648744
1.680518087
1.40000504
1.40000504
1.40000504
1.400005041
1.400005068
1.400006015
1.400021354
1.400221422
1.402099835
1.411546746
1.454923281
1.539576598
1.654095746
1.765659392
1.803995255
1.808079872
1.813168894
1.819400612
1.820248753
1.81943367
1.818937722
1.815973845
1.809321733
1.799198396
1.786594113
1.77211962
1.755027363
1.737559385
1.720945588
1.7020152
1.681484164
1.664409493
1.40000504
1.40000504
1.400005041
1.400005077
1.400005883
1.400023035
1.400230912
1.401944164
1.413238479
1.449872678
1.546032217
1.671076954
1.733579242
1.789075533
1.817307575
1.818203966
1.817629052
1.819402681
1.821417624
1.820620959
1.817080616
1.810567106
1.800640972
1.787861042
1.773413513
1.756525726
1.738401751
1.721840988
1.70358969
1.682502278
1.664660628
1.648801036
1.40000504
1.400005041
1.40000507
1.400006075
1.400022162
1.400230859
1.402157096
1.411920705
1.455801186
1.541304399
1.656188278
1.767359221
1.802370769
1.80804026
1.813423212
1.819826545
1.820934908
1.821005463
1.820755768
1.817957408
1.811755139
1.801998357
1.789217713
1.774758298
1.7582135
1.739660375
1.72253751
1.705065586
1.683801148
1.664455571
1.648710868
1.629295055
1.400005041
1.40000508
1.400005936
1.400023882
1.400239445
1.40201651
1.413537975
1.451083739
1.547839407
1.673360036
1.734569258
1.789513633
1.816953886
1.817875258
1.817851107
1.820256974
1.822341856
1.821503632
1.818575063
1.812755628
1.803489698
1.790919173
1.776300805
1.759984709
1.741395067
1.72342269
1.706114792
1.685176608
1.664214368
1.64824337
1.630115599
1.606340109
1.400005072
1.400006127
1.400022999
1.400238678
1.402223137
1.412278815
1.456858495
1.543511029
1.658173116
1.768497581
1.801670307
1.808515988
1.814217599
1.820306276
1.821416853
1.821603824
1.821597023
1.819275549
1.813607663
1.804544876
1.79239973
1.777930119
1.761682293
1.74340725
1.724652387
1.706940166
1.686595049
1.664558203
1.647548592
1.630345407
1.606703523
1.58564678
1.400005985
1.400024524
1.400247473
1.402073992
1.413854057
1.452253461
1.549754498
1.67599859
1.735716183
1.788918763
1.816994809
1.818292957
1.818180857
1.820903036
1.823070124
1.822554067
1.819849881
1.814445894
1.805701071
1.793726207
1.779521463
1.763229277
1.745064938
1.726152357
1.707665852
1.687935008
1.66567105
1.646723802
1.629866297
1.60731053
1.584308589
1.570931676
1.400023711
1.400243988
1.402282248
1.412572691
1.457845408
1.545808614
1.659822672
1.768686008
1.801301479
1.809245357
1.815271412
1.820606125
1.821785082
1.822306287
1.822453107
1.820480631
1.815299617
1.80680207
1.794978233
1.78096662
1.764903307
1.746360196
1.727592855
1.708924712
1.688740003
1.66689421
1.646365663
1.628832656
1.608306255
1.584335348
1.568560083
1.555667543
1.400254536
1.402119744
1.414151801
1.453313338
1.551454164
1.678792599
1.736788962
1.787357601
1.816810404
1.81917008
1.818555121
1.820938073
1.823506463
1.823344775
1.821125075
1.816167686
1.808036629
1.796468624
1.782252112
1.766567181
1.747907768
1.728482366
1.710298185
1.689571766
1.667167026
1.646979499
1.628442533
1.608446428
1.585273155
1.566380791
1.553121416
1.535313232
1.402344845
1.412854832
1.458871532
1.548190481
1.661392614
1.768659732
1.800671503
1.809484997
1.816034188
1.820777347
1.821915134
1.822525511
1.822996477
1.821537069
1.8171021
1.809216496
1.798064988
1.783784898
1.767952384
1.749956389
1.729380902
1.7108249
1.691083681
1.667331421
1.646993877
1.628993213
1.607833524
1.585053401
1.565726469
1.551053161
1.534788492
1.512182382
1.414502994
1.454387207
1.553282653
1.681607253
1.738528768
1.786125795
1.816292293
1.819845875
1.818756749
1.82068449
1.823625251
1.82378882
1.822216605
1.817977233
1.810451445
1.799555352
1.785597064
1.769333047
1.751666423
1.731148046
1.710786632
1.692233357
1.669044544
1.64592483
1.62860278
1.608250642
1.58391755
1.565191449
1.550555302
1.533334929
1.51164791
1.491946427
1.459980959
1.550443515
1.662897723
1.768922001
1.801505945
1.810167717
1.81663276
1.820837493
1.82174766
1.822345646
1.82322383
1.82221764
1.818647763
1.811634973
1.80102049
1.787371899
1.771119057
1.752944405
1.733195708
1.711827813
1.692169361
1.671013192
1.645792604
1.626526124
1.609101205
1.58476054
1.563123365
1.54912384
1.532354512
1.509629271
1.490116077
1.478030108
1.555005238
1.683621481
1.740064213
1.78579851
1.816414881
1.820944021
1.819309793
1.820508244
1.82343244
1.823934376
1.822810702
1.819265412
1.812604485
1.802449755
1.788892391
1.772987243
1.7545477
1.734552488
1.713758472
1.692319231
1.671280786
1.647585122
1.625085846
1.607999078
1.586827726
1.561291131
1.545602599
1.531645003
1.509562179
1.487607438
1.475402681
1.463137411
1.664047427
1.768428984
1.802559266
1.811015715
1.81750349
1.821333262
1.821791127
1.822230028
1.823346672
1.822664019
1.819727144
1.813482522
1.803763238
1.790429806
1.774479943
1.756563628
1.735861642
1.714935382
1.693774396
1.671169284
1.648613932
1.62585385
1.605865872
1.586474525
1.561952592
1.54205412
1.52943514
1.511164806
1.485678299
1.470643172
1.459931461
1.441973411
1.741308588
1.784929104
1.81635164
1.821955696
1.820357595
1.82077378
1.823241124
1.824134881
1.823323176
1.820398865
1.814374871
1.804908869
1.791958541
1.775845684
1.758077131
1.73774716
1.715507575
1.694915817
1.672662116
1.648374916
1.626258936
1.605223406
1.584574109
1.562764904
1.54120851
1.526012934
1.510032527
1.485591321
1.465539665
1.455747745
1.441614702
1.417812081
1.80290762
1.810868287
1.817800212
1.822013328
1.822267824
1.82238655
1.8235249
1.823183872
1.820891812
1.815358615
1.806206046
1.793533159
1.777535119
1.759330532
1.739489389
1.716884609
1.695048999
1.674174934
1.649086794
1.624977558
1.60528626
1.584350453
1.561747533
1.540653128
1.523221289
1.506925913
1.485580492
1.463251262
1.451512353
1.439648893
1.417886614
1.396114228
1.816301972
1.822242593
1.821021997
1.821115539
1.823249828
1.824300952
1.823718602
1.8214192
1.816246584
1.807521471
1.795124118
1.779352631
1.760961778
1.74081481
1.718690064
1.695570455
1.674191997
1.650689248
1.624495812
1.604055131
1.584908605
1.560836947
1.538137748
1.521105976
1.504793533
1.484493629
1.462333573
1.447513948
1.435680095
1.416659804
1.392781833
1.381465771
1.818099479
1.822281152
1.822478228
1.822532467
1.823633784
1.823489671
1.821777092
1.81707499
1.808739998
1.796746363
1.781142786
1.762860885
1.742499545
1.720119029
1.69677479
1.674143113
1.651322482
1.625714765
1.602515313
1.583593216
1.560982874
1.535755881
1.518405188
1.503507943
1.483238868
1.459936176
1.443413884
1.431375564
1.414576051
1.391439091
1.37697784
1.369086813
1.821838685
1.821409384
1.823106482
1.824348355
1.823941957
1.822135594
1.817785186
1.809871857
1.798217941
1.782920379
1.76458096
1.744363281
1.721700399
1.697740648
1.674915562
1.651750855
1.626377867
1.601788903
1.581537463
1.560655644
1.535604427
1.515347412
1.500783312
1.481793611
1.456944014
1.439156276
1.427640775
1.41260861
1.390432483
1.372760511
1.363451272
1.351763393
1.822841427
1.822763808
1.823758641
1.823747476
1.822412092
1.81842566
1.810924497
1.799592164
1.784596685
1.766298333
1.745832627
1.723514372
1.698989715
1.675398857
1.652502726
1.626600991
1.600946242
1.580201676
1.56002275
1.535625731
1.51264477
1.496981719
1.479752082
1.455389729
1.435296977
1.423966385
1.410010105
1.388257057
1.368135693
1.357453527
1.346998213
1.329681008
1.823107061
1.82441993
1.824209222
1.822810139
1.819096985
1.812005826
1.801028904
1.786165053
1.768008649
1.747291665
1.724850647
1.700695238
1.675828813
1.652430015
1.62746308
1.600639052
1.578721756
1.559150889
1.534948865
1.509866763
1.493056905
1.477790282
1.455143293
1.431917176
1.419159611
1.406188759
1.385389092
1.363742294
1.352348574
1.342664636
1.32764679
1.307124137
1.823855377
1.824088059
1.823130676
1.819885371
1.813187854
1.802600163
1.787973992
1.769714785
1.749054144
1.726124949
1.701712033
1.676845643
1.652168107
1.627690032
1.601584181
1.577142117
1.556728211
1.534218262
1.50819088
1.489328626
1.475225555
1.454618766
1.428579518
1.413104461
1.401785481
1.383231554
1.360500269
1.347659002
1.338415212
1.324139929
1.303770316
1.287000153
1.824512725
1.823525392
1.82055198
1.814371068
1.804194243
1.789969769
1.771756018
1.750765674
1.727897558
1.702552254
1.677383044
1.653021026
1.627345651
1.601357254
1.576515328
1.554135989
1.532615987
1.50838562
1.486406617
1.470635748
1.452375962
1.426366649
1.407296662
1.396846898
1.381781167
1.358459764
1.341683544
1.332320346
1.319506899
1.299513633
1.281717889
1.273182816
1.823523387
1.820966033
1.815291064
1.805655517
1.791773626
1.774000353
1.752640291
1.729486254
1.704457917
1.677730416
1.653187218
1.62787477
1.599933468
1.575232761
1.553555416
1.530854144
1.506966164
1.484284574
1.466050914
1.448379404
1.425579376
1.403814187
1.391300869
1.378149392
1.356579618
1.335416714
1.324902734
1.314599855
1.297011984
1.277622663
1.267756622
1.260215958
1.821369846
1.816013614
1.806869402
1.793367897
1.775785005
1.754869455
1.730945578
1.706111281
1.679435396
1.652377264
1.627760013
1.600602125
1.57331727
1.551945164
1.529967335
1.503865406
1.480767361
1.463224733
1.445499631
1.423694203
1.401508865
1.385921661
1.372035532
1.35325122
1.331181526
1.3182943
1.30915437
1.294924156
1.273975994
1.260295952
1.252935936
1.241779146
1.816681454
1.807867204
1.794895118
1.777326435
1.756663516
1.733113235
1.70683325
1.680876238
1.653396509
1.626377458
1.601346038
1.573485292
1.547999421
1.527487801
1.50321305
1.477242274
1.459457344
1.44342618
1.420890558
1.396899864
1.380666188
1.367006844
1.34912352
1.328659824
1.313704125
1.303430316
1.290303925
1.27037962
1.252699668
1.244697807
1.236177419
1.220318929
1.80903119
1.796364676
1.779244168
1.757962321
1.735004522
1.708527178
1.680649621
1.655129931
1.62696997
1.599089375
1.573907841
1.546516589
1.522768644
1.502472631
1.477204308
1.45398336
1.438133177
1.418787556
1.392511245
1.374355031
1.362895826
1.346689408
1.325024393
1.308118892
1.296960129
1.283798289
1.265577686
1.247702885
1.238240685
1.230062603
1.216776828
1.198695932
1.797996907
1.781303527
1.759940282
1.735833468
1.710855654
1.681563083
1.654157169
1.628795779
1.597984863
1.570616359
1.547656965
1.521253778
1.497619733
1.476474206
1.451085148
1.430471914
1.41473917
1.392724976
1.369288086
1.356218349
1.343223994
1.321262994
1.300349389
1.289550861
1.278857364
1.261556071
1.243494056
1.233045186
1.224802774
1.212285373
1.194682149
1.181141178
1.783222307
1.762556425
1.737414117
1.71157246
1.684351058
1.653153539
1.627192994
1.600453469
1.568288637
1.544477488
1.522302815
1.493514085
1.470116996
1.450593212
1.427561548
1.408163212
1.390993276
1.367645862
1.347653411
1.335259334
1.318686104
1.294617886
1.281080441
1.273403912
1.259570401
1.238540851
1.225057121
1.217285837
1.205836747
1.188727127
1.174277506
1.166673051
1.740482937
1.712190016
1.685122647
1.655624976
1.624446765
1.599868751
1.570869702
1.539412714
1.518310885
1.494558447
1.464903354
1.44520209
1.427610834
1.40382431
1.383170283
1.365097641
1.343239649
1.326199788
1.313465613
1.295255356
1.275141038
1.264694525
1.254436528
1.234333668
1.215233068
1.20810051
1.200528293
1.185087283
1.168892351
1.161171808
1.154508804
1.715151258
1.68436586
1.657153639
1.626278758
1.595723345
1.57080114
1.539795215
1.511456501
1.49243014
1.466885275
1.438390211
1.421212896
1.402381531
1.376279784
1.357029119
1.341601853
1.322681994
1.305834095
1.291407683
1.272358304
1.254987881
1.244528724
1.231255056
1.209758051
1.197756535
1.192212196
1.181698548
1.163610156
1.152527446
1.146547275
1.137874102
1.686696831
1.655325765
1.628366883
1.595339703
1.565257071
1.541081694
1.511075927
1.485468842
1.465583154
1.437061839
1.411425363
1.39653792
1.376376171
1.350561068
1.334615998
1.320610136
1.300304759
1.281727662
1.267162791
1.2498713
1.235053741
1.224575454
1.210593375
1.192898287
1.183605214
1.17573883
1.159989944
1.142540978
1.13556896
1.129241732
1.117296044
1.655575155
1.625439983
1.598159249
1.563358852
1.535807824
1.51266881
1.481800717
1.456851559
1.436820557
1.409166496
1.387560954
1.372811929
1.349792876
1.324938316
1.311589178
1.296665914
1.273623412
1.257474872
1.246631757
1.232062976
1.216455804
1.203930085
1.189039559
1.174029061
1.16472284
1.154230723
1.136683877
1.124569132
1.120303344
1.114055129
1.100115242
1.623224107
1.595822527
1.567032287
1.531030399
1.506360834
1.482918722
1.451272865
1.429174408
1.410408886
1.383547203
1.362862909
1.346526077
1.320814711
1.299825774
1.289165331
1.273214234
1.250455164
1.237863159
1.227788287
1.210861792
1.193782342
1.181867133
1.168623762
1.155657351
1.145767903
1.135053387
1.121087202
1.111020521
1.104865116
1.094737048
1.078567426
1.591693585
1.565151845
1.5330248
1.49859247
1.477955739
1.453911207
1.42238295
1.402367683
1.382696488
1.354823359
1.335706183
1.319562785
1.295629795
1.278981124
1.267966031
1.2489107
1.22713671
1.216783541
1.205308084
1.184786742
1.170197891
1.161889735
1.150953745
1.137826097
1.127617311
1.118053753
1.105130636
1.095136937
1.086806448
1.072788448
1.060265596
1.55904547
1.532556368
1.499795984
1.470114348
1.450094144
1.421856281
1.391397448
1.374701256
1.354829001
1.327978541
1.311066419
1.295273629
1.272819221
1.256291171
1.242848242
1.221139791
1.203829372
1.19655376
1.184717953
1.164411173
1.153256192
1.145769123
1.132441219
1.116549172
1.106960732
1.097498321
1.084360527
1.076399883
1.068759312
1.058286841
1.048779949
1.526673099
1.50045652
1.467745734
1.440220755
1.418907412
1.389022708
1.364105959
1.349337303
1.327603606
1.301243637
1.285370674
1.268893752
1.246253752
1.231165492
1.218556861
1.19941223
1.18529379
1.176665193
1.161945161
1.142590596
1.133802013
1.125441773
1.107784599
1.094269157
1.089464759
1.08193661
1.070203182
1.0611523
1.053372467
1.04302698
1.032977498
1.493315565
1.466975029
1.435052904
1.410170852
1.389046041
1.360567505
1.338688979
1.322052381
1.296330203
1.272222165
1.259761566
1.243837593
1.222117913
1.209303967
1.197791985
1.179470023
1.165363326
1.154451258
1.136438647
1.120329516
1.114606773
1.105677669
1.087642705
1.077812071
1.07343695
1.064159572
1.050804008
1.041879357
1.03478735
1.023308992
1.01579438
1.460207056
1.435428959
1.405031766
1.380734361
1.35789955
1.329654268
1.309886016
1.292684558
1.266715802
1.248492639
1.238366706
1.220356631
1.197918724
1.186126538
1.173042554
1.153028114
1.14088238
1.131310346
1.114770015
1.10294928
1.097989295
1.087780218
1.070578974
1.06202884
1.055436222
1.041411866
1.028584796
1.025591861
1.020678795
1.010596764
1.002328848
1.429633317
1.402779933
1.371563254
1.348978016
1.326551645
1.3007493
1.28364733
1.266219405
1.241012469
1.225385261
1.213185479
1.189807989
1.171380628
1.164141052
1.150985693
1.131473335
1.121903454
1.112720047
1.095943986
1.08425412
1.076773932
1.062981107
1.047841881
1.044174827
1.038613449
1.024242896
1.015031064
1.011673932
1.0049334
0.9926552113
0.9827700573
1.396017671
1.366653616
1.339485242
1.320427636
1.298102957
1.273755469
1.257080811
1.236647319
1.212308849
1.200723119
1.186794364
1.162349172
1.150306399
1.143698447
1.127727566
1.109298514
1.101406861
1.090757824
1.0730136
1.064687797
1.058005433
1.044636616
1.033318552
1.029168921
1.021582141
)
;

boundaryField
{
    inlet
    {
        type            calculated;
        value           nonuniform 0();
    }
    outlet
    {
        type            calculated;
        value           nonuniform 0();
    }
    bottom
    {
        type            calculated;
        value           nonuniform List<scalar> 
32
(
1.40000504
1.40000504
1.40000504
1.40000504
1.40000504
1.40000504
1.40000504
1.40000504
1.40000504
1.40000504
1.40000504
1.40000504
1.40000504
1.40000504
1.40000504
1.40000504
1.40000504
1.40000504
1.40000504
1.40000504
1.40000504
1.40000504
1.40000504
1.40000504
1.40000504
1.40000504
1.40000504
1.40000504
1.40000504
1.40000504
1.40000504
1.40000504
)
;
    }
    top
    {
        type            calculated;
        value           nonuniform 0();
    }
    obstacle
    {
        type            calculated;
        value           nonuniform 0();
    }
    defaultFaces
    {
        type            empty;
    }
    procBoundary4to3
    {
        type            processor;
        value           nonuniform List<scalar> 
62
(
1.40000504
1.40000504
1.40000504
1.40000504
1.40000504
1.40000504
1.40000504
1.40000504
1.40000504
1.40000504
1.40000504
1.40000504
1.40000504
1.40000504
1.40000504
1.40000504
1.40000504
1.40000504
1.40000504
1.40000504
1.40000504
1.40000504
1.40000504
1.40000504
1.40000504
1.40000504
1.40000504
1.40000504
1.40000504
1.40000504
1.40000504
1.40000504
1.40000504
1.40000504
1.400005041
1.400005082
1.400006166
1.400024962
1.400248118
1.402160915
1.413115414
1.455363321
1.552697852
1.686131565
1.769092223
1.78521559
1.811504644
1.822728672
1.822752218
1.821774959
1.823054275
1.824583959
1.824300533
1.82381589
1.821754433
1.817596508
1.810501078
1.799951093
1.764574603
1.764574603
1.742599966
1.7177919
)
;
    }
    procBoundary4to5
    {
        type            processor;
        value           nonuniform List<scalar> 
69
(
1.40000504
1.400005041
1.400005055
1.400005535
1.400015902
1.400166639
1.40158381
1.410505409
1.444856568
1.528611774
1.640253604
1.748219422
1.797282135
1.797618729
1.8079379
1.815455842
1.816611953
1.816248196
1.813634841
1.807417221
1.798367572
1.787554222
1.775374292
1.761673802
1.747113059
1.732535931
1.71646859
1.697741809
1.679276036
1.663744364
1.64833662
1.628471266
1.605940225
1.587383593
1.572679743
1.556981512
1.534868415
1.511188084
1.494050764
1.480213077
1.465354688
1.443607399
1.418793619
1.401160812
1.387127065
1.373514948
1.355888126
1.331281546
1.309342055
1.293229811
1.278778465
1.265174167
1.247147135
1.222870763
1.203473594
1.188594777
1.1743522
1.159541751
1.143888565
1.123093792
1.101499294
1.08765326
1.071055005
1.056783658
1.04354161
1.026175946
1.010665025
0.9954684453
0.976354917
)
;
    }
    procBoundary4to9
    {
        type            processor;
        value           nonuniform List<scalar> 9(1.690259668 1.659309756 1.626633229 1.592809971 1.55857771 1.524184677 1.487555039 1.454248998 1.4214955);
    }
    procBoundary4to10
    {
        type            processor;
        value           nonuniform List<scalar> 
32
(
1.006454591
0.9986014915
0.9932835483
0.9823395091
0.9701713372
0.9671028091
1.362902524
1.334511622
1.311850265
1.291558131
1.265506739
1.243673051
1.228084545
1.205872323
1.187710338
1.179183966
1.163595877
1.141026709
1.131285276
1.121381086
1.099385979
1.085808569
1.080572968
1.068629805
1.05236459
1.046166965