/*--------------------------------*- C++ -*----------------------------------*\
  =========                 |
  \\      /  F ield         | OpenFOAM: The Open Source CFD Toolbox
   \\    /   O peration     | Website:  https://openfoam.org
    \\  /    A nd           | Version:  7
     \\/     M anipulation  |
\*---------------------------------------------------------------------------*/
FoamFile
{
    version     2.0;
    format      ascii;
    class       volScalarField;
    location    "1.3";
    object      rho;
}
// * * * * * * * * * * * * * * * * * * * * * * * * * * * * * * * * * * * * * //

dimensions      [1 -3 0 0 0 0 0];

internalField   nonuniform List<scalar> 
2222
(
1.583636572
1.62280696
1.635315748
1.646588687
1.659883885
1.664817834
1.658437119
1.664992659
1.684182605
1.719530309
1.754498787
1.78089498
1.802409677
1.817309339
1.843412744
1.874167081
1.90052294
1.912769409
0.3809777795
0.9491112993
1.183022397
1.396457287
1.521864399
1.588815361
1.619036325
1.621030621
1.625855049
1.644858879
1.659669032
1.668192224
1.661562053
1.669047706
1.684692057
1.717171544
1.75855259
1.795669407
1.816118149
1.841286688
1.86991802
1.897674422
1.912862832
0.5700805039
0.9042975219
1.097168732
1.292984981
1.464940123
1.576512072
1.6004813
1.608883583
1.597713986
1.611535535
1.635058259
1.656091188
1.6679307
1.667348479
1.675134545
1.687959809
1.721467602
1.770799353
1.805278514
1.83583752
1.862505083
1.888680556
1.908752127
0.5306623182
0.8053298284
1.040988344
1.211877859
1.38032615
1.517400572
1.557340153
1.578052984
1.580467706
1.584525392
1.606336098
1.639604501
1.670319912
1.67430638
1.674144145
1.683033132
1.701033446
1.737590956
1.778409993
1.819003101
1.84871702
1.87278788
1.897993563
0.5627160556
0.8641458363
0.9915652878
1.151869
1.295673489
1.430413458
1.500047507
1.53670873
1.574457509
1.583002407
1.5923276
1.621572541
1.664406389
1.679756172
1.679008622
1.684886421
1.698852263
1.725168527
1.754245198
1.792680756
1.82712924
1.850288058
1.880030492
0.6120222259
0.9429393099
1.072354317
1.117150502
1.240053778
1.348829666
1.42378243
1.485905928
1.563147336
1.591415616
1.604665884
1.61527806
1.644511041
1.675008327
1.681960191
1.688805623
1.701485548
1.724615518
1.749839934
1.778790997
1.810919533
1.83430124
1.866236299
1.886320929
0.6388983784
0.8599262869
1.142240041
1.192006056
1.213065464
1.295191255
1.345865451
1.429893093
1.537385466
1.588639812
1.60795192
1.613627197
1.619439118
1.648094436
1.673596499
1.688080281
1.70472123
1.728722199
1.752264501
1.775442123
1.808221491
1.831678485
1.86322033
1.884872554
0.5232824938
0.6973842882
1.051097542
1.27630598
1.274102341
1.270996916
1.309181801
1.375397643
1.483405229
1.566124864
1.604894306
1.604234577
1.601427877
1.61452213
1.645828963
1.676864779
1.70086822
1.729617056
1.75935247
1.777369959
1.808977175
1.832347948
1.862747939
1.885573093
0.3040379552
0.3217226137
0.8254669117
1.257107755
1.338861869
1.28918611
1.309265364
1.350936397
1.422237805
1.505874281
1.564465308
1.581858538
1.594871697
1.601762478
1.617689405
1.652397993
1.68752342
1.723505884
1.7607309
1.782867482
1.814128911
1.835671289
1.863891331
1.889207047
0.303966127
0.3026542353
0.4288318245
1.109145936
1.366257499
1.3320376
1.336200286
1.376352726
1.390303437
1.442540618
1.508942081
1.559485885
1.592998889
1.601954259
1.603745582
1.630055298
1.667054215
1.70795831
1.75629833
1.783786743
1.816172289
1.842118762
1.869802765
1.895344835
0.3040801221
0.3037416443
0.3056227982
0.7990240658
1.333223835
1.39429962
1.366524947
1.401494898
1.37780951
1.395078243
1.455420756
1.530129928
1.585417635
1.604470615
1.608156127
1.621685634
1.652198242
1.685967482
1.739859921
1.779515743
1.814411811
1.845005442
1.873659804
1.897277553
0.3042965664
0.3042251054
0.3040140995
0.4127072289
1.089560041
1.427989931
1.405721508
1.418488875
1.374418717
1.379935377
1.418850979
1.491034856
1.55545887
1.592914708
1.605488616
1.615310467
1.642574519
1.668513544
1.715738059
1.765381293
1.807724633
1.843878247
1.873760128
1.897140583
1.913824697
0.3050660653
0.3050059706
0.3055722308
0.3079743929
0.8421051351
1.39115647
1.427910963
1.439732352
1.381718361
1.378431756
1.402713652
1.452665545
1.505469561
1.552181418
1.584457433
1.601926835
1.63166621
1.65893778
1.694587682
1.743688535
1.794049809
1.838038356
1.871598371
1.8962792
1.912111144
0.3055877854
0.3053687618
0.3059536174
0.3065351667
0.4950224242
1.134468557
1.440695455
1.455490798
1.410726766
1.376594529
1.394131697
1.416360869
1.451378446
1.498270375
1.548783258
1.584915344
1.617940965
1.650281016
1.691011132
1.729234508
1.775672056
1.823387135
1.862970344
1.891857206
1.907576284
0.3058366876
0.3055533814
0.3060446226
0.3112367751
0.3181051861
0.9349545395
1.419129634
1.446677487
1.443287671
1.399547469
1.385666255
1.383117671
1.40666153
1.456047121
1.515796011
1.57293942
1.609897437
1.642889228
1.688171779
1.727138767
1.764448403
1.804520929
1.844990776
1.880206485
1.898028018
0.3059422162
0.3056204434
0.3060695352
0.3120273009
0.3133396448
0.6706801885
1.294018693
1.42413349
1.46297859
1.424498382
1.374566033
1.361713071
1.381839451
1.425235693
1.482367302
1.551453292
1.608042672
1.641379157
1.68281302
1.724803255
1.760154431
1.795882162
1.827950431
1.863004087
1.882581583
0.3059938677
0.3057351299
0.3060164793
0.3123988158
0.3181251022
0.3347933949
1.030661287
1.400148518
1.466895499
1.447043866
1.378447371
1.353838258
1.365344431
1.400911266
1.448186398
1.512007048
1.589464331
1.639581988
1.675056966
1.719785695
1.756249458
1.793617587
1.822500984
1.851701812
1.871042036
0.3060924979
0.3059243804
0.3061179295
0.3124298472
0.3196686408
0.3192124048
0.7824004291
1.317754763
1.441167255
1.463176119
1.388634671
1.356807607
1.363810921
1.382354306
1.415366423
1.469214411
1.545389044
1.619743764
1.663804523
1.71217732
1.751426271
1.791278515
1.821962252
1.849113659
1.868706882
0.3066585109
0.3066006932
0.3066216037
0.3123388992
0.3203771681
0.32162485
0.4043834119
1.015745553
1.362785367
1.472221229
1.412854679
1.376313321
1.368287596
1.368963013
1.385463521
1.428032171
1.498661125
1.57782498
1.643409949
1.700316128
1.744884233
1.787883443
1.82125198
1.848794386
1.868370753
1.888142923
0.3086025043
0.3077451772
0.3075687469
0.3120376689
0.3199972772
0.3236183188
0.3258620089
0.9004786065
1.325371196
1.467778691
1.43684402
1.405130875
1.36730712
1.35825697
1.366944675
1.394678494
1.454272669
1.534280252
1.612072513
1.681867757
1.734065685
1.78174148
1.818942506
1.849452995
1.868862259
1.887867647
0.310219623
0.3083531561
0.3080173746
0.3116715653
0.3193894165
0.3246442401
0.3221514654
0.7052943385
1.235360696
1.435868327
1.447450055
1.431370339
1.376225777
1.354180857
1.358001394
1.372772442
1.415914836
1.491547738
1.573271574
1.654195388
1.716933838
1.770027698
1.811862804
1.847981104
1.871232853
1.88869946
0.3109762284
0.3086346674
0.3082909497
0.3113164215
0.3190450088
0.3251798665
0.3259754481
0.3447410826
1.04921055
1.376453964
1.441978131
1.439499458
1.392538657
1.357917047
1.356825853
1.371689209
1.395188149
1.451887832
1.53227314
1.620104282
1.69348793
1.751798765
1.797216737
1.840130322
1.871949776
1.889341273
0.3113310579
0.3087963818
0.3084368268
0.3111970706
0.3189423037
0.3249866229
0.3268753357
0.3264913624
0.8195501203
1.253795973
1.403281069
1.436067742
1.411178036
1.374196166
1.360857948
1.375990028
1.395605187
1.431985733
1.496876171
1.584916229
1.667144083
1.73187318
1.777879804
1.823670078
1.867428828
1.888972462
0.3115131198
0.3089369185
0.308553626
0.3112033327
0.3189233578
0.3250997299
0.327441767
0.327011909
0.4278362484
0.9998642034
1.331872935
1.417919226
1.415697794
1.393732997
1.379872809
1.382870449
1.396170372
1.422951459
1.475057257
1.553755532
1.641340888
1.713205022
1.764554096
1.803288204
1.853705599
1.884010208
0.3115913402
0.3092030074
0.3087855021
0.3112290022
0.3189970411
0.3252522068
0.3269983147
0.3280304479
0.3318285469
0.9030679552
1.273589788
1.376419162
1.408375074
1.397724049
1.402316359
1.395564685
1.39598223
1.417364017
1.463488057
1.527452319
1.613620515
1.693479352
1.753866709
1.792609861
1.834538645
1.870427169
1.899669046
0.3116793621
0.3096955679
0.3091991868
0.3113652736
0.3192422582
0.3252665857
0.3265478704
0.3282687163
0.328338412
0.7307281161
1.184421647
1.326185003
1.387303755
1.393980293
1.410593481
1.402231571
1.399865196
1.419932558
1.457539226
1.50901872
1.584954055
1.669444578
1.738784634
1.786727773
1.823352086
1.856935021
1.884050952
0.3119733913
0.3104146977
0.3098297825
0.3117171746
0.3194810234
0.3250653345
0.3261643422
0.3285931104
0.3305339633
0.3588305355
0.9770002518
1.284945953
1.35026588
1.386865056
1.412290408
1.403263801
1.41378807
1.430850954
1.448994371
1.494644969
1.558221479
1.641671034
1.721173857
1.778063777
1.819415543
1.852500829
1.874504957
0.3125743473
0.3109310976
0.3102676813
0.3118214912
0.3189948562
0.3243717077
0.3260563412
0.3284711088
0.3306309914
0.329767654
0.8043533106
1.240754891
1.325499497
1.379763106
1.405804398
1.402431221
1.426031463
1.438141681
1.44926719
1.478499294
1.534529292
1.612555004
1.699063782
1.764975634
1.814995191
1.850462554
1.87230376
0.3135488372
0.3112304602
0.3105314259
0.3114657437
0.3176325247
0.3239088095
0.3260261794
0.3284752707
0.3303640546
0.3274596443
0.5215855324
1.063700458
1.336185906
1.374405214
1.376194809
1.402295831
1.437588007
1.441479817
1.452255813
1.475067663
1.518115639
1.587341954
1.671426505
1.746974974
1.805759572
1.847022084
1.872309704
0.314577574
0.3114268578
0.3106958832
0.3111935
0.3169518667
0.3237418385
0.3260731506
0.3288267576
0.3302238064
0.3297753904
0.3354768337
0.9755954211
1.316270644
1.357192476
1.365349683
1.406250372
1.442604191
1.445410253
1.461251353
1.480712662
1.506031281
1.566583289
1.643707688
1.722658256
1.790487892
1.840321622
1.870457459
0.3151689423
0.3115917309
0.3108074765
0.3111245526
0.3167097077
0.3236144927
0.3264555031
0.3291425742
0.3301586358
0.3297228015
0.3267276811
0.7964059326
1.21512359
1.328607732
1.365715613
1.409382075
1.432238166
1.44323924
1.473103096
1.488823639
1.508656568
1.55175773
1.620061215
1.694362162
1.76947786
1.829724839
1.86541626
0.3155376989
0.3118409977
0.3109610979
0.3111228408
0.3166286521
0.3236331552
0.3268054102
0.3292565004
0.3301673169
0.3298868351
0.3258089794
0.3992700157
0.9585223643
1.289107734
1.381068104
1.406100675
1.410925772
1.438854757
1.476384776
1.49848797
1.513885497
1.542904798
1.600572965
1.665366325
1.741574091
1.813821734
1.857669679
1.891394379
0.3158856833
0.3124498264
0.3114156242
0.3112800973
0.316664068
0.3237542588
0.3270838234
0.3292141734
0.3300290291
0.329524335
0.3256514151
0.3255483951
0.8909265645
1.260840962
1.384755919
1.379968915
1.395882602
1.443310335
1.471336782
1.496946449
1.519387868
1.544270819
1.587244843
1.642701615
1.711764715
1.791591545
1.847165404
1.883956937
0.3163724626
0.3132260543
0.3120232153
0.3116793542
0.3167472401
0.3237540972
0.3274541899
0.3290324449
0.3298790165
0.32936132
0.3266066987
0.3205231375
0.7201632737
1.18288027
1.344293575
1.351356736
1.392937309
1.438287212
1.455300323
1.491633413
1.51875342
1.544078985
1.580706288
1.62765
1.68772741
1.7646366
1.82999075
1.872222453
0.3171366232
0.3137729469
0.3124637001
0.3119776172
0.3167421939
0.3237061214
0.3276918002
0.3284639846
0.3293998733
0.3281572529
0.3267762241
0.3225178119
0.3443005491
0.991560657
1.282144401
1.334240326
1.391520239
1.421888133
1.434917375
1.483270432
1.514583227
1.541727308
1.57978772
1.622140294
1.67198554
1.738803927
1.804969742
1.85611043
0.3182606017
0.3141307376
0.3127564
0.3120811314
0.3166273661
0.3230191677
0.3277470505
0.327754903
0.3283872064
0.327465322
0.325252271
0.3218416264
0.3201985642
0.7998286236
1.208183656
1.32654672
1.383765221
1.387331219
1.420305939
1.474052712
1.50606786
1.536044488
1.577126562
1.618917821
1.660194965
1.716460529
1.777496234
1.833577435
0.3193753786
0.3143944155
0.3129392339
0.3120902945
0.3156860106
0.321057579
0.3274526781
0.3274729947
0.32762985
0.3268249836
0.3242017558
0.3227276591
0.3180114493
0.512771286
1.030712393
1.317195931
1.371400454
1.363889285
1.410129992
1.459836976
1.496204632
1.527660394
1.571166988
1.614820885
1.649282592
1.694674505
1.749356626
1.807708871
0.3200089164
0.3146024586
0.3130238339
0.3120463374
0.3143524598
0.3199534922
0.3270244481
0.3271927012
0.326732495
0.3257827941
0.3235414696
0.3220993592
0.3205917541
0.3259636868
0.9441828241
1.28468033
1.34524852
1.360990555
1.404068866
1.437456177
1.486114187
1.520759973
1.560536582
1.606014288
1.6369961
1.672048051
1.721612247
1.777888696
1.840329681
0.3202291638
0.3147836501
0.3130294742
0.3118702346
0.3136083396
0.3196353691
0.326768404
0.3266267496
0.3259137648
0.3247689357
0.3229421638
0.3213754852
0.3204314336
0.3201419486
0.7813659072
1.206018824
1.309222867
1.369811356
1.397749226
1.420984772
1.474729021
1.511227172
1.54558808
1.589831487
1.618393544
1.646218389
1.69355109
1.747767214
1.811211781
0.3200579333
0.3149514885
0.3129280278
0.3116601125
0.3132286081
0.3194893917
0.3266179207
0.326390839
0.3256043595
0.3237722603
0.3224710326
0.3211140752
0.3204894675
0.3202959624
0.442890806
0.998942782
1.271073639
1.380022327
1.386112832
1.412107144
1.459224985
1.498251113
1.531044249
1.575893994
1.602808733
1.625800638
1.667792699
1.719022141
1.779851173
0.3186746086
0.3151787131
0.3128775998
0.3115464072
0.3129391141
0.3193179637
0.3265703649
0.3260079764
0.3256318233
0.3230571949
0.3220944211
0.3210905757
0.3207308676
0.3219088335
0.3257969562
0.9274961571
1.286357382
1.378803379
1.372841331
1.405134493
1.439918114
1.482259014
1.519081307
1.565427776
1.596252793
1.619354523
1.646226143
1.691629745
1.748286058
0.3176285781
0.3157493361
0.3130969144
0.3117219676
0.3126459747
0.3190781995
0.3264161993
0.3247819803
0.3242852271
0.3224121922
0.3218609866
0.3210934341
0.321936196
0.3230526935
0.3217915787
0.7602442984
1.247980196
1.353742029
1.371156324
1.398919523
1.420669889
1.466048715
1.508363599
1.552434536
1.5918564
1.617147035
1.639071517
1.66828436
1.717530167
0.3173997553
0.3165722733
0.3135965892
0.312123225
0.3122441272
0.3183514565
0.3261136875
0.3244727574
0.3231174735
0.3217445066
0.3217768001
0.3214070003
0.3228310062
0.3246847037
0.3255301591
0.4050177011
1.023766326
1.318133368
1.362361835
1.385623187
1.40533786
1.449831598
1.494640439
1.537950496
1.592490058
1.617730177
1.636914328
1.65932022
1.696279662
0.317765707
0.3171869933
0.3139441974
0.3122819666
0.3115721767
0.3162687533
0.3247778978
0.3240489064
0.3225099799
0.3212433405
0.3212855475
0.3216563629
0.3234387926
0.3254860607
0.3274258246
0.3293173131
0.8934573331
1.266224718
1.369089566
1.368831634
1.391510722
1.43213054
1.476730515
1.52503836
1.584513405
1.619187983
1.63899503
1.660469267
1.686102486
0.3195006207
0.3174937333
0.3141859677
0.3122931745
0.310755445
0.3143087938
0.3228425149
0.3222851819
0.3214385795
0.3210592475
0.3209904262
0.3216971661
0.3236864627
0.3258727453
0.3286986053
0.327376807
0.6913366405
1.153428927
1.356780669
1.353347658
1.380424271
1.413515198
1.460487302
1.515523423
1.573813193
1.62096239
1.643768725
1.665133496
1.685723965
1.720118408
0.3206287464
0.3176765935
0.3144130427
0.3122930301
0.3098340578
0.3133586546
0.3217525053
0.3215176825
0.3208345867
0.321091632
0.3210138621
0.3219144923
0.3239547004
0.325891283
0.3294273341
0.3324860757
0.3454177223
1.012960049
1.325056787
1.348333483
1.376009215
1.397523378
1.445456284
1.501331824
1.556146058
1.614216214
1.646935742
1.671946621
1.69427273
1.719064447
0.3208828812
0.3177603138
0.3146049151
0.3117961642
0.309034393
0.3127337121
0.3210443635
0.3211071522
0.3204415116
0.3214365801
0.3212696477
0.3227577618
0.3248620669
0.3264844505
0.3294473981
0.3334775145
0.3364288217
0.8406605348
1.278925769
1.361881156
1.378104732
1.39021435
1.432908842
1.481869474
1.536279237
1.603796584
1.649324328
1.677499029
1.702913897
1.724719972
0.3208049454
0.3177864999
0.3147079496
0.3110378029
0.308454967
0.3121754241
0.3202145141
0.3197628814
0.3199331167
0.321548824
0.3226403768
0.3247129608
0.3272092301
0.3287715319
0.3306721422
0.3347705454
0.3356481517
0.5718505651
1.113092778
1.376996492
1.377665311
1.393495569
1.426228728
1.464675814
1.521426975
1.58892299
1.645856794
1.688254604
1.716221546
1.73374765
0.3194138536
0.3178188007
0.3147707433
0.3108350119
0.3079913216
0.311522895
0.3188632026
0.3193745744
0.3197092278
0.3213637056
0.3237808987
0.3263191256
0.3291622856
0.3316381775
0.3344825987
0.3372295961
0.3412179786
0.3496580854
1.0375056
1.365494114
1.376083316
1.401875603
1.42150234
1.451698347
1.504092136
1.565537723
1.633204072
1.685548994
1.72873781
1.7487538
0.3175724731
0.3178324501
0.3147477829
0.3107435792
0.3076811839
0.3105743325
0.3178165146
0.3194071216
0.3199569519
0.3212505827
0.324051866
0.3274719028
0.3306303844
0.3340337504
0.3374218212
0.341435549
0.3439719663
0.3457017004
0.8669973189
1.329874307
1.374501162
1.40643662
1.412700229
1.438307
1.484439855
1.544283714
1.615928639
1.682044869
1.728526671
1.758699686
0.316939083
0.3175989735
0.3148560005
0.3113368204
0.3075464511
0.3093047124
0.3159038688
0.3188985705
0.3206689201
0.3212792696
0.3239209781
0.3276555253
0.3311244364
0.3351980552
0.3394589929
0.343395922
0.3479647784
0.3510577373
0.5342738101
1.131693683
1.384921683
1.402664926
1.406193525
1.431849975
1.467348083
1.524433227
1.600661036
1.674064254
1.721251299
1.755660589
0.3169975239
0.3175280223
0.3156638838
0.3123093359
0.3072903139
0.3074479107
0.3128844763
0.3176551879
0.3212494623
0.322343474
0.3243344561
0.3279578919
0.3311282649
0.3352325446
0.3406261588
0.3449835653
0.3501086528
0.3541600632
0.3617219785
1.045483255
1.397208008
1.399835253
1.406485087
1.430027181
1.457859824
1.511100093
1.578487248
1.649879484
1.709918283
1.752458311
1.780716742
0.3190715154
0.3184182142
0.3163727526
0.3128622345
0.3070655527
0.305248092
0.311176203
0.3167504369
0.3213836072
0.3245144733
0.3267578657
0.3301492253
0.3329168137
0.3357361769
0.3405663947
0.3464470514
0.351202341
0.3568942738
0.3587268842
0.8655434986
1.364938261
1.403109659
1.421116055
1.432711907
1.453566526
1.501298531
1.554950576
1.624774024
1.696375452
1.745607117
1.779684504
0.3211286772
0.3194318357
0.3168213855
0.313016197
0.3068673886
0.3029202504
0.3103986909
0.3161380132
0.3213115082
0.3257611242
0.3288949394
0.3323336421
0.3357198528
0.3389208482
0.3418747658
0.3464884686
0.3525700615
0.3586669222
0.3617664929
0.4895728126
1.142883567
1.40767062
1.434917288
1.431771046
1.448000573
1.485502588
1.530826672
1.595817321
1.668191855
1.736915482
1.787515364
0.3216924048
0.3197876467
0.316944386
0.3129727404
0.306359033
0.3009732239
0.3100579141
0.3158326155
0.3215539049
0.3261664165
0.3303701733
0.3342121704
0.3380993112
0.3417310172
0.3467475472
0.3497929268
0.3540306463
0.3590225574
0.3654615626
0.3701728932
1.032583102
1.418967383
1.442671534
1.429630574
1.44140886
1.461500993
1.504364508
1.562204502
1.635834831
1.721895334
1.785384941
0.3217117754
0.3198369394
0.3169360595
0.3126429176
0.3046073051
0.2998699796
0.3100242993
0.3157878091
0.3217976052
0.326174176
0.3317195586
0.3362173419
0.3408576098
0.3448239523
0.3499617299
0.3552594225
0.3579638331
0.361857316
0.3672441126
0.3681519771
0.8531014242
1.39237012
1.454216126
1.437505563
1.445528918
1.446031555
1.479204528
1.527533786
1.604142675
1.697085984
1.778970179
0.3205636029
0.3198229422
0.3168498752
0.3114776106
0.3033630479
0.2993534964
0.3101420537
0.3163508872
0.3224093303
0.3272222653
0.3322549562
0.3368444105
0.3420105861
0.3477838178
0.3523579887
0.3576620016
0.3632846066
0.3663724176
0.3691760514
0.3746388106
0.4410861416
1.233146527
1.468422468
1.462111324
1.448546044
1.44344084
1.470833863
1.504962896
1.575288299
1.668240371
1.764366152
0.3176677203
0.3196016939
0.3164070933
0.3107543223
0.3029997378
0.2991841404
0.3099556694
0.3170232378
0.3247587726
0.3297201553
0.3332394765
0.3373872227
0.3421907033
0.3485123507
0.3546564991
0.3593676589
0.3651148004
0.3705411574
0.3748943468
0.3778621817
0.381222763
1.025556235
1.447390526
1.484717141
1.456844447
1.451180952
1.470626569
1.500127101
1.559039878
1.63836641
1.74001325
0.316027365
0.3181849505
0.3152989354
0.3108680439
0.3038647308
0.2994716159
0.3091242901
0.317104921
0.3262303668
0.3326653417
0.3368916509
0.3407541307
0.3440333201
0.3486844504
0.3552056662
0.3614431269
0.3661646568
0.3717151797
0.3779376418
0.3828672367
0.3840983244
0.7287819806
1.357035981
1.500165461
1.4726921
1.467319526
1.471652673
1.500494365
1.547973435
1.610666748
1.701628403
0.3157079377
0.3168936305
0.3144301723
0.3113620101
0.3043000479
0.2996439761
0.307692496
0.3168825815
0.3262939915
0.3357214026
0.3396479177
0.3438612693
0.3485007412
0.3510479151
0.3557382992
0.362600231
0.3683689664
0.3721520862
0.3788408204
0.3849286326
0.3884299916
0.4021107922
1.195075694
1.495523379
1.490399133
1.481184461
1.475511499
1.499679701
1.5311252
1.582676583
1.660464955
1.766461797
0.3172770593
0.3163528311
0.3138851582
0.3112647187
0.3042991309
0.2997185124
0.3070334489
0.3171801454
0.3260367198
0.3379046465
0.34230617
0.3469619675
0.351774157
0.3564893011
0.3601875298
0.3638967856
0.3699254812
0.3749950932
0.3791249855
0.385838675
0.3913724465
0.3937341717
0.9777350367
1.463801838
1.515275025
1.491463215
1.481664477
1.494845926
1.510393398
1.558872979
1.626406535
1.729919025
0.3189245877
0.3163336753
0.3134973753
0.310926064
0.3041685367
0.2995862844
0.3069568149
0.318638046
0.3263394568
0.338661571
0.3447787284
0.3502960016
0.3552491703
0.3600286598
0.3659692088
0.3703376181
0.3729547772
0.3784389553
0.382257554
0.386393805
0.3932774448
0.3947645868
0.6653023923
1.306776338
1.533744924
1.504232062
1.492349305
1.493447284
1.504448791
1.54480662
1.602590111
1.696225592
0.3190914659
0.3166005448
0.3132615262
0.310181092
0.3034652733
0.2988706083
0.307024472
0.3205432566
0.328189832
0.338640969
0.3453535689
0.3518325905
0.3577067995
0.3630519975
0.3686040627
0.3745260264
0.3796159908
0.3824492721
0.3868803154
0.3913092776
0.3936753138
0.3992910706
0.407586241
1.16928161
1.523663531
1.513014814
1.503062856
1.497842657
1.508575911
1.540108332
1.592001937
1.668669779
0.3189216441
0.3165345644
0.3126054814
0.3093403976
0.3027009168
0.2982583919
0.3076319328
0.3227744609
0.3304093303
0.3400616644
0.3460938215
0.352426303
0.3588048744
0.3654028845
0.3699161485
0.3761245431
0.3823986473
0.3874653841
0.3908865689
0.396548965
0.399472445
0.4019595646
0.404951745
0.9794203823
1.491055799
1.541086723
1.521583453
1.5092893
1.517795913
1.53529541
1.586258321
1.647620177
0.3166782883
0.3162919301
0.3115520068
0.3090859141
0.3025740887
0.2981384779
0.3092528434
0.3240915322
0.3354196449
0.3457039324
0.3504147327
0.3542132298
0.359351614
0.3662211794
0.3722541504
0.3769804028
0.3834086919
0.389390853
0.3951482255
0.3995001558
0.4051692608
0.4086190209
0.4101243394
0.6558957234
1.291440725
1.577832522
1.54593426
1.528808715
1.528127021
1.533884253
1.581279323
1.632932558
0.3104513421
0.3151955687
0.3110550001
0.3096743963
0.3026138263
0.2981702482
0.3109204036
0.324537816
0.3392131146
0.3498782575
0.355367108
0.3599686318
0.3629404723
0.3671317285
0.3740179349
0.3803109716
0.3844619611
0.3898672439
0.3966308745
0.4018576729
0.4077848956
0.4123059463
0.4148626749
0.4208762641
1.196513928
1.57817323
1.567058729
1.554486218
1.538634073
1.537772291
1.571130039
1.619613374
0.3066581833
0.312812966
0.3103571931
0.3100418216
0.3036163225
0.2990464412
0.3124175067
0.324939209
0.3401814894
0.3532635185
0.3586532915
0.363588555
0.3696355126
0.3731602253
0.3764786606
0.3831778103
0.3885087484
0.3920622782
0.3967019489
0.4035380314
0.4091969843
0.4139808544
0.4185929306
0.4197709746
0.9998353845
1.542481566
1.584345134
1.575553884
1.551758827
1.545085198
1.55638211
1.602813677
1.657591181
0.30560564
0.3113755793
0.3088229639
0.310104708
0.3057671774
0.302419859
0.3130060894
0.3273684909
0.3406981904
0.3544297368
0.3616417441
0.3672467171
0.3730872751
0.3793400758
0.3844217364
0.3881992192
0.3925745928
0.3979392873
0.3994417826
0.4039526315
0.4105782746
0.4148245524
0.4197343456
0.423389559
0.6043192414
1.283076445
1.60391309
1.58942272
1.567135765
1.552168352
1.548602111
1.583073473
1.636316716
0.3077455047
0.3109673945
0.3074127238
0.3098214231
0.3070340749
0.305218825
0.3123958172
0.3302768792
0.3429302755
0.3543297486
0.3635612766
0.3707457754
0.3756339333
0.3820029835
0.388435413
0.3936609558
0.3984747692
0.4025368198
0.4059669173
0.4085216393
0.412460868
0.4166819378
0.4208120703
0.4262511175
0.4311358292
1.178556456
1.603939856
1.591309388
1.580847927
1.56102622
1.55462439
1.57678435
1.621082501
0.3122435691
0.3115637174
0.3067965587
0.3085685795
0.3076191893
0.3067348983
0.3124234619
0.3339882307
0.3439695555
0.3563585731
0.3640582256
0.3720457597
0.3789568063
0.383320721
0.3900961282
0.3954456796
0.4018265071
0.4070376584
0.4107735827
0.415148817
0.4181730723
0.4218535832
0.4243936781
0.4295382065
0.4326773036
0.9796265886
1.559737768
1.592211778
1.592455937
1.573510341
1.56657406
1.575152746
1.619187958
0.3133110874
0.3116206159
0.3068702935
0.3080814357
0.3078200561
0.3077961042
0.3131980485
0.3378650802
0.3475701542
0.3647064885
0.3692196611
0.3735486329
0.3802417942
0.3861158698
0.3908474987
0.3971301713
0.4026581042
0.4091509979
0.4149543079
0.4187231002
0.4242524638
0.428165671
0.4318613706
0.4340683815
0.4376749486
0.5690148762
1.271723167
1.609341125
1.607408863
1.590604177
1.585346933
1.586655596
1.617113792
0.3131279097
0.3113518924
0.3080836674
0.3081141162
0.3078809086
0.3086740148
0.3155733772
0.3389649166
0.355931244
0.3707002294
0.3770516553
0.3804602628
0.3821727451
0.389107972
0.3931398505
0.3999239183
0.4051752229
0.4095867979
0.4167931309
0.4218144724
0.4269325412
0.4314758399
0.4358733858
0.4397490892
0.4421717467
0.4453245038
1.159705472
1.621352351
1.621088036
1.616995236
1.611159649
1.607934127
1.621422109
0.3086136856
0.3107801102
0.3086711758
0.3097265727
0.3090357463
0.3095508915
0.3222066475
0.3392233495
0.3595281845
0.3730103783
0.381333967
0.386649987
0.3902936978
0.3926504372
0.3989930342
0.4026343091
0.4086362638
0.4130925342
0.4173223969
0.4238318614
0.4282152541
0.4335000282
0.4376779226
0.4416044817
0.4462946544
0.4472506262
0.9688609366
1.586118061
1.637373256
1.65066895
1.641422445
1.633796677
1.636151883
0.2979236341
0.309211879
0.3089468255
0.3137588932
0.3136702048
0.3111743961
0.3260433946
0.3423745839
0.3619181174
0.3743586184
0.3836300545
0.3896391884
0.3958154291
0.4012738115
0.406242396
0.411358909
0.4134318727
0.4198640644
0.4223141295
0.4247731315
0.4305000898
0.4365035851
0.4390575141
0.4427091835
0.4475460508
0.4503380198
0.5590834375
1.299610145
1.656873002
1.669984931
1.661656838
1.656156537
1.652113619
0.2915506163
0.3066781002
0.3086873957
0.3158536993
0.3172585591
0.3164128917
0.3273211336
0.3456126204
0.3642133159
0.3769020846
0.386112282
0.3913309721
0.3980145476
0.4051087376
0.4108782239
0.4158271753
0.4214287361
0.4252305592
0.4298053196
0.4318230587
0.4338831408
0.4379974821
0.4434663506
0.444910762
0.4486053185
0.4532813875
0.4565855105
1.168401093
1.658082467
1.678548917
1.674731092
1.670583231
1.664156087
1.663040958
0.2896601571
0.3054765607
0.3069020402
0.3159391841
0.3192929606
0.3221013187
0.3277931884
0.3512316463
0.3644637115
0.3801009948
0.3892893461
0.3953511078
0.3996465542
0.4059957492
0.4130690906
0.4179828068
0.4241562269
0.4297765087
0.434265007
0.4380508197
0.4416863645
0.4443711246
0.447304019
0.4517535548
0.4539809974
0.457611977
0.4595131122
0.9669445377
1.609212823
1.682326634
1.683666232
1.679476106
1.671528291
1.66675497
0.2908229824
0.3052226991
0.3063196562
0.3141166742
0.3202273458
0.325494541
0.3306713751
0.3597915028
0.3707210929
0.385821944
0.393212573
0.3989104321
0.4041462303
0.4076977271
0.4141685644
0.4212954354
0.426043543
0.4313472432
0.4371540802
0.4416873797
0.4462199381
0.4506531201
0.4537698861
0.4564336476
0.4608446782
0.4633803344
0.4651719265
0.5506165221
1.320733118
1.690353509
1.695680211
1.689672473
1.682848104
1.675635521
0.2983880882
0.3072806193
0.3064284642
0.3139746444
0.3204410856
0.3274331731
0.3318881998
0.3622927594
0.3817975027
0.3955348042
0.4031016668
0.4060758675
0.4080311975
0.4133099134
0.4165524117
0.4238342978
0.4302345025
0.4325253093
0.4390047046
0.4448117124
0.4482144877
0.4531198575
0.4579557031
0.4603367831
0.4635909608
0.467408109
0.4695739706
0.4715830997
1.180472368
)
;

boundaryField
{
    inlet
    {
        type            calculated;
        value           nonuniform 0();
    }
    outlet
    {
        type            calculated;
        value           nonuniform 0();
    }
    bottom
    {
        type            calculated;
        value           nonuniform 0();
    }
    top
    {
        type            calculated;
        value           nonuniform 0();
    }
    obstacle
    {
        type            calculated;
        value           nonuniform List<scalar> 
77
(
0.3809777795
0.5700805039
0.5306623182
0.5627160556
0.6120222259
0.6388983784
0.5232824938
0.3040379552
0.303966127
0.3040801221
0.3042965664
0.3050660653
0.3055877854
0.3058366876
0.3059422162
0.3059938677
0.3060924979
0.3066585109
0.3086025043
0.310219623
0.3109762284
0.3113310579
0.3115131198
0.3115913402
0.3116793621
0.3119733913
0.3125743473
0.3135488372
0.314577574
0.3151689423
0.3155376989
0.3158856833
0.3163724626
0.3171366232
0.3182606017
0.3193753786
0.3200089164
0.3202291638
0.3200579333
0.3186746086
0.3176285781
0.3173997553
0.317765707
0.3195006207
0.3206287464
0.3208828812
0.3208049454
0.3194138536
0.3175724731
0.316939083
0.3169975239
0.3190715154
0.3211286772
0.3216924048
0.3217117754
0.3205636029
0.3176677203
0.316027365
0.3157079377
0.3172770593
0.3189245877
0.3190914659
0.3189216441
0.3166782883
0.3104513421
0.3066581833
0.30560564
0.3077455047
0.3122435691
0.3133110874
0.3131279097
0.3086136856
0.2979236341
0.2915506163
0.2896601571
0.2908229824
0.2983880882
)
;
    }
    defaultFaces
    {
        type            empty;
    }
    procBoundary21to15
    {
        type            processor;
        value           nonuniform List<scalar> 
23
(
1.591960688
1.635653601
1.643834406
1.64845875