/*--------------------------------*- C++ -*----------------------------------*\
  =========                 |
  \\      /  F ield         | OpenFOAM: The Open Source CFD Toolbox
   \\    /   O peration     | Website:  https://openfoam.org
    \\  /    A nd           | Version:  7
     \\/     M anipulation  |
\*---------------------------------------------------------------------------*/
FoamFile
{
    version     2.0;
    format      ascii;
    class       volVectorField;
    location    "4.6";
    object      U;
}
// * * * * * * * * * * * * * * * * * * * * * * * * * * * * * * * * * * * * * //

dimensions      [0 1 -1 0 0 0 0];

internalField   nonuniform List<vector> 
2225
(
(2.995169615 4.100002304e-05 0)
(2.995094279 -0.0003546288316 0)
(2.995143046 -0.0008835649619 0)
(2.995217674 -0.001042540553 0)
(2.995205287 -0.0008923550529 0)
(2.994999776 -0.0005520543411 0)
(2.994775697 1.404938847e-05 0)
(2.994651242 0.0002294726815 0)
(2.994256257 0.0001906102515 0)
(2.993648741 -0.0001658524226 0)
(2.993280497 -0.0004430884717 0)
(2.993239506 -0.0004696815617 0)
(3.091811551 -0.3457859954 0)
(3.095366692 -0.3552958145 0)
(3.094962727 -0.3585001412 0)
(3.093863682 -0.3576813021 0)
(3.091073161 -0.3447457499 0)
(3.084080393 -0.3140440486 0)
(3.053524922 -0.2179413206 0)
(3.045570439 -0.1391123394 0)
(3.026158861 -0.04091407556 0)
(3.012103281 0.0242962949 0)
(2.988901999 -0.005025893894 0)
(2.993404626 -0.007070107749 0)
(2.996871456 -0.007350974548 0)
(2.99878927 -0.005048124468 0)
(2.995889188 -0.003580480798 0)
(2.994064158 -0.00241541384 0)
(2.993448839 -0.002110871624 0)
(2.994287063 -0.001322304153 0)
(2.995063325 -0.0006229276409 0)
(2.995331998 2.596471886e-05 0)
(2.995377503 3.364579707e-05 0)
(2.994987159 -0.0003480385067 0)
(2.994867074 -0.0009513457991 0)
(2.994946817 -0.0009071116118 0)
(2.995002348 -0.0006261573708 0)
(2.994947016 -0.0002816381158 0)
(2.994886719 0.0002834150173 0)
(2.994856842 0.0005554561771 0)
(2.994563024 0.0005488830252 0)
(2.994096855 0.0001873081798 0)
(2.993838604 -0.0003175932205 0)
(2.993809682 -0.0004777475291 0)
(3.08898719 -0.3331269262 0)
(3.087909915 -0.3321370782 0)
(3.091916197 -0.3443559748 0)
(3.092853114 -0.3531159759 0)
(3.094357778 -0.3530156942 0)
(3.093720945 -0.3498148294 0)
(3.086956178 -0.3328225708 0)
(3.073025715 -0.2783068798 0)
(3.047668733 -0.1765671545 0)
(3.037889265 -0.1088768689 0)
(3.040435844 -0.06595225154 0)
(3.014030841 -0.02716935426 0)
(3.007801514 -0.02140515674 0)
(3.001016542 -0.01138017296 0)
(2.998913095 -0.005264329461 0)
(2.995911059 0.0001021014643 0)
(2.994777917 -0.0003817310073 0)
(2.994650385 -0.00111593232 0)
(2.994998701 -0.001160856607 0)
(2.995525806 -0.001176296783 0)
(2.995439955 -0.001229036418 0)
(2.994720669 -0.001719925776 0)
(2.99469236 -0.001581709856 0)
(2.994719375 -0.0009636504917 0)
(2.994822946 -0.0004400487584 0)
(2.994906801 -3.558488365e-05 0)
(2.995008472 0.0001438393202 0)
(2.995018544 0.000180592189 0)
(2.994871343 0.0001078561437 0)
(2.994535184 -0.0002410782642 0)
(2.994440326 -0.0005036439059 0)
(2.994421156 -0.0004539171032 0)
(3.086376165 -0.3225390807 0)
(3.087133728 -0.3236250719 0)
(3.091206868 -0.3364339783 0)
(3.091626672 -0.3443439913 0)
(3.092143039 -0.3440667235 0)
(3.092678418 -0.3475604572 0)
(3.092649608 -0.3496137063 0)
(3.090325999 -0.343331358 0)
(3.080679176 -0.3101480214 0)
(3.058701792 -0.2185392259 0)
(3.060222381 -0.1365096524 0)
(3.027071097 -0.0003195962815 0)
(3.008985992 -0.01420413047 0)
(3.004391086 -0.006117194874 0)
(3.002118079 0.001808988998 0)
(2.998324284 0.001010280933 0)
(2.994368232 -0.003142892818 0)
(2.993912998 -0.00355112632 0)
(2.99497443 -0.003375131477 0)
(2.996011618 -0.002966170489 0)
(2.995144149 -0.002712695546 0)
(2.994760403 -0.002715966868 0)
(2.99460963 -0.001997690054 0)
(2.994543461 -0.0008993366557 0)
(2.994995894 -0.0001681451253 0)
(2.99497285 -0.0002231241529 0)
(2.995038331 -0.0004142626254 0)
(2.995227899 -0.0003759504076 0)
(2.995267702 -0.0004745248677 0)
(2.995085287 -0.0006807330369 0)
(2.995029555 -0.000774059114 0)
(2.99498833 -0.0006395833498 0)
(3.082383696 -0.3032615163 0)
(3.083987656 -0.3045097537 0)
(3.087924455 -0.3151794786 0)
(3.089825708 -0.3335090402 0)
(3.089875509 -0.3387913952 0)
(3.089888092 -0.3351449699 0)
(3.092862298 -0.3454659881 0)
(3.092579069 -0.3473952413 0)
(3.091383635 -0.3437192674 0)
(3.08679848 -0.3253392931 0)
(3.077406473 -0.280950476 0)
(3.057286833 -0.1940427035 0)
(3.048005301 -0.1359158787 0)
(3.018120881 -0.03976634369 0)
(3.008162016 0.01629954552 0)
(2.994673726 -0.0005542073661 0)
(2.994165265 -0.007853811115 0)
(2.994759443 -0.005867967186 0)
(2.995918178 -0.00597622362 0)
(2.996002415 -0.003500759074 0)
(2.995905495 -0.001861893562 0)
(2.995033095 -0.001296937022 0)
(2.994369024 -0.001279498325 0)
(2.994792152 -0.0005071536229 0)
(2.994867662 -0.0004714937213 0)
(2.994871799 -0.000659408711 0)
(2.995060955 -0.0007347633373 0)
(2.99542881 -0.0006573325204 0)
(2.995638458 -0.0005744705151 0)
(2.995567361 -0.000755879142 0)
(2.995470595 -0.0009899043485 0)
(2.995346804 -0.0009426386156 0)
(3.079897014 -0.2928944529 0)
(3.07982988 -0.2881527156 0)
(3.082792869 -0.29541978 0)
(3.084855892 -0.3109245487 0)
(3.085370702 -0.3188378799 0)
(3.087049316 -0.3228345028 0)
(3.091613404 -0.336501166 0)
(3.090977582 -0.3476464575 0)
(3.093088723 -0.3454782819 0)
(3.092696766 -0.341085382 0)
(3.090841517 -0.3366456068 0)
(3.080939628 -0.3070542944 0)
(3.064943308 -0.2347443132 0)
(3.037534279 -0.1317807367 0)
(3.029877934 -0.08855407823 0)
(3.028662079 -0.04708745297 0)
(3.01323865 -0.02224425407 0)
(2.999781246 -0.008178674088 0)
(2.99562854 -0.006018742919 0)
(2.996218217 -0.001074655218 0)
(2.99648665 0.002587509787 0)
(2.99442085 0.001866487957 0)
(2.993837899 -0.0003664314855 0)
(2.994644479 -0.0007810427782 0)
(2.994855484 -0.000604701047 0)
(2.994894037 -0.0005946266487 0)
(2.995309879 -0.0002337936366 0)
(2.995652536 0.0001255616771 0)
(2.995969722 0.0002660368889 0)
(2.995840246 -0.0002468157933 0)
(2.995657373 -0.0009404355727 0)
(2.995436581 -0.001091853439 0)
(3.077798294 -0.2818812973 0)
(3.078126395 -0.2821471916 0)
(3.081259768 -0.2864019594 0)
(3.083129254 -0.3014861799 0)
(3.082480969 -0.3050735234 0)
(3.082821202 -0.30310509 0)
(3.084333607 -0.3095872472 0)
(3.08794097 -0.3291424539 0)
(3.089164277 -0.3350284088 0)
(3.091593762 -0.3356862799 0)
(3.091701201 -0.3376367657 0)
(3.091078489 -0.338658963 0)
(3.086794585 -0.3249302311 0)
(3.077170038 -0.2854584612 0)
(3.04755529 -0.1694275214 0)
(3.054229302 -0.1179260741 0)
(3.024693286 0.004350082891 0)
(3.000288312 0.004605106836 0)
(2.995230004 -0.007544544144 0)
(2.999138753 0.001057833154 0)
(2.996243201 0.003181253374 0)
(2.992543073 -0.00106812067 0)
(2.993376594 -0.002628745856 0)
(2.994592417 -0.001283082999 0)
(2.994917768 -0.000727886703 0)
(2.995026363 -0.0002620850237 0)
(2.995875244 0.0004789797622 0)
(2.996087056 0.0007115481704 0)
(2.996217463 0.0006477142486 0)
(2.995887439 8.177260035e-06 0)
(2.995525605 -0.0009373237637 0)
(2.995376029 -0.0009201284032 0)
(3.074023575 -0.2644514312 0)
(3.075139154 -0.2665223629 0)
(3.07758715 -0.2677310707 0)
(3.0820808 -0.2850597026 0)
(3.080293415 -0.2951677216 0)
(3.080632927 -0.2961453358 0)
(3.08393687 -0.3011076161 0)
(3.085843331 -0.3128229324 0)
(3.085478738 -0.3229811957 0)
(3.087008419 -0.3233647806 0)
(3.091195284 -0.3348019196 0)
(3.091082379 -0.339377935 0)
(3.091044271 -0.3388031867 0)
(3.090052265 -0.3310731454 0)
(3.083193591 -0.3059745867 0)
(3.069324423 -0.2437670853 0)
(3.046663829 -0.1473797876 0)
(3.052654074 -0.1205453344 0)
(3.031220655 -0.0627795475 0)
(3.011299592 -0.01301038261 0)
(2.999577038 -0.005387689966 0)
(2.993489134 -0.006335514366 0)
(2.993841582 -0.005329380699 0)
(2.995563208 -0.002541064078 0)
(2.995883196 -0.000325781421 0)
(2.995711105 0.0003543197326 0)
(2.995826678 -0.0001753575107 0)
(2.996364508 -0.0004772253779 0)
(2.99659528 -0.0001845192481 0)
(2.996006104 -0.0005605848581 0)
(2.995386803 -0.0008934483884 0)
(2.995398517 -0.0005466559771 0)
(3.071366815 -0.2526889518 0)
(3.071912693 -0.2538477472 0)
(3.073124864 -0.2515438219 0)
(3.076445647 -0.2636555137 0)
(3.076746054 -0.2792476778 0)
(3.077553754 -0.281093554 0)
(3.080964519 -0.2840324646 0)
(3.08470668 -0.2985801789 0)
(3.083331634 -0.3091812294 0)
(3.083637569 -0.3130622539 0)
(3.085879281 -0.3121472073 0)
(3.088171918 -0.324184789 0)
(3.088107838 -0.3334979486 0)
(3.090309473 -0.331515659 0)
(3.090256258 -0.329889564 0)
(3.087336131 -0.3220003339 0)
(3.07421009 -0.2816476143 0)
(3.06305049 -0.1936179164 0)
(3.036487573 -0.07585112778 0)
(3.01680858 -0.0367675225 0)
(3.015969983 -0.03523356238 0)
(3.009025162 -0.01816279721 0)
(2.997066299 -0.004970920174 0)
(2.995578778 -0.003251805721 0)
(2.995492017 -0.0001558002172 0)
(2.994839104 -0.0009152710246 0)
(2.99547025 -0.00309929859 0)
(2.997013925 -0.003441510363 0)
(2.997184515 -0.002312426417 0)
(2.99636842 -0.0008837968883 0)
(2.99574437 -0.0003113781212 0)
(2.995610821 9.971525158e-05 0)
(3.069908796 -0.2377795544 0)
(3.069063059 -0.2450185171 0)
(3.070743774 -0.2452092463 0)
(3.074972966 -0.2544453396 0)
(3.074509365 -0.2675513938 0)
(3.074343385 -0.2691553636 0)
(3.075720678 -0.2674670027 0)
(3.078658802 -0.2771228515 0)
(3.08019558 -0.2915596312 0)
(3.07982735 -0.2977988905 0)
(3.082695771 -0.3023900674 0)
(3.086886755 -0.312509996 0)
(3.087381676 -0.3280098976 0)
(3.087872556 -0.3294580123 0)
(3.090369583 -0.3321234906 0)
(3.090571875 -0.3314400633 0)
(3.088417881 -0.327692617 0)
(3.081314681 -0.3039092279 0)
(3.073617201 -0.2634675328 0)
(3.035915019 -0.1337294125 0)
(3.03938349 -0.09110775546 0)
(3.019654816 0.006454290667 0)
(3.001668051 0.003205956842 0)
(2.992514543 -0.007275278213 0)
(2.993730266 -0.003766412812 0)
(2.994160024 -0.004832868602 0)
(2.996220006 -0.006493295082 0)
(2.99801373 -0.004145139208 0)
(2.998213887 -0.001234361399 0)
(2.997227898 0.0007549724198 0)
(2.996036619 0.0005631185272 0)
(2.995735096 -2.022374338e-06 0)
(3.065225086 -0.2174412208 0)
(3.065283319 -0.2306577894 0)
(3.067183272 -0.2319852622 0)
(3.0714159 -0.237895875 0)
(3.073706088 -0.2546888066 0)
(3.072408918 -0.261725998 0)
(3.07374336 -0.2638570644 0)
(3.077264953 -0.2684376761 0)
(3.077412023 -0.2787619853 0)
(3.076177051 -0.2829653515 0)
(3.077814457 -0.2851722837 0)
(3.081491461 -0.2909535012 0)
(3.084011053 -0.3052593748 0)
(3.084079071 -0.3159946272 0)
(3.085867676 -0.3151592609 0)
(3.088372837 -0.3220993207 0)
(3.087926085 -0.324849625 0)
(3.087524046 -0.3259066546 0)
(3.085039279 -0.3140150322 0)
(3.075431542 -0.2783758486 0)
(3.059775841 -0.2038365229 0)
(3.035324083 -0.1057910587 0)
(3.041960587 -0.09286806807 0)
(3.02288912 -0.0401345969 0)
(3.008288081 -0.01252363454 0)
(2.998204471 -0.01021789615 0)
(2.995989385 -0.006008508535 0)
(2.999038426 -0.001008878978 0)
(2.998820569 0.002343846045 0)
(2.99764247 0.002580238135 0)
(2.996021292 0.001470062787 0)
(2.995428724 -0.0001747533382 0)
(3.061347366 -0.2028053578 0)
(3.061363807 -0.2169661301 0)
(3.062684962 -0.2181358614 0)
(3.06531137 -0.2193004689 0)
(3.070251224 -0.2354228259 0)
(3.070041327 -0.2462025049 0)
(3.070996562 -0.2499861874 0)
(3.074799836 -0.2567913302 0)
(3.07618422 -0.2665388161 0)
(3.075295457 -0.2749367922 0)
(3.075827606 -0.279438041 0)
(3.079034536 -0.283160469 0)
(3.081239037 -0.2895008162 0)
(3.081104765 -0.2997909602 0)
(3.081773142 -0.304841431 0)
(3.08558451 -0.3124983424 0)
(3.088064343 -0.3240261947 0)
(3.086731543 -0.3285480497 0)
(3.089233214 -0.3248152208 0)
(3.087763285 -0.3192880852 0)
(3.082265 -0.3025275657 0)
(3.062289259 -0.244654963 0)
(3.052342709 -0.160368317 0)
(3.039468712 -0.07094495092 0)
(3.017871359 0.01777381922 0)
(2.996418055 -0.007788709967 0)
(2.99935665 0.003582791466 0)
(3.001172931 0.002424030824 0)
(2.997680457 0.0009271114756 0)
(2.995148204 0.001208635263 0)
(2.994599077 0.000249242038 0)
(2.995131152 -0.001106889097 0)
(3.05816834 -0.1899582773 0)
(3.05927535 -0.2065907945 0)
(3.059395132 -0.2102393444 0)
(3.062402104 -0.2119216956 0)
(3.066922325 -0.2225183909 0)
(3.066849263 -0.231693365 0)
(3.066903336 -0.234304408 0)
(3.069866984 -0.2405406935 0)
(3.072669515 -0.2493603664 0)
(3.073174207 -0.257517587 0)
(3.074818958 -0.2668724957 0)
(3.076407405 -0.2739618936 0)
(3.078830932 -0.2794222563 0)
(3.079094463 -0.2854140659 0)
(3.079171658 -0.2916251811 0)
(3.080670823 -0.293156053 0)
(3.083916466 -0.3039245271 0)
(3.084450527 -0.3120789105 0)
(3.085904191 -0.3156881402 0)
(3.086733039 -0.3163121768 0)
(3.086501098 -0.3175044129 0)
(3.083699807 -0.3110246153 0)
(3.074970957 -0.2762830008 0)
(3.060143419 -0.2127316426 0)
(3.042019126 -0.1276641677 0)
(3.048176685 -0.09858170615 0)
(3.017163602 -0.03259025823 0)
(3.007307737 -0.0159923818 0)
(2.995464509 -0.005280954501 0)
(2.993784741 -0.003087265248 0)
(2.994339437 -0.002657526363 0)
(2.995766748 -0.0007641117452 0)
(3.050951656 -0.1683441498 0)
(3.055676385 -0.1877143709 0)
(3.055877181 -0.1962580189 0)
(3.058445671 -0.1993186379 0)
(3.063810067 -0.2107803578 0)
(3.064842528 -0.2206078388 0)
(3.064539844 -0.2242354685 0)
(3.067104128 -0.2326058533 0)
(3.070005644 -0.2414005312 0)
(3.070817374 -0.2424552117 0)
(3.069750723 -0.2466393249 0)
(3.072027002 -0.2575592536 0)
(3.074052012 -0.2636544712 0)
(3.076279983 -0.2706256294 0)
(3.077988571 -0.2800261137 0)
(3.07890409 -0.2864968665 0)
(3.08144065 -0.2923120169 0)
(3.083228351 -0.3022943104 0)
(3.083947247 -0.3121516853 0)
(3.085868378 -0.3123405512 0)
(3.085756954 -0.3199610486 0)
(3.087407453 -0.319069435 0)
(3.08621251 -0.316152981 0)
(3.080361321 -0.2969320661 0)
(3.06516298 -0.2433280743 0)
(3.052600229 -0.1493273419 0)
(3.022388679 -0.04821510214 0)
(3.023227483 -0.06282945373 0)
(3.010165528 -0.02225141923 0)
(3.001625571 -0.005855970623 0)
(2.996621534 -0.003596381822 0)
(2.996746438 -0.002657838696 0)
(3.048211633 -0.1597391672 0)
(3.052812589 -0.1750795561 0)
(3.052879598 -0.1836624832 0)
(3.054124051 -0.1848691508 0)
(3.059045777 -0.1948739807 0)
(3.061564114 -0.2076256273 0)
(3.061877598 -0.211305571 0)
(3.063912866 -0.2180002101 0)
(3.06736938 -0.2311163355 0)
(3.068678748 -0.2368209252 0)
(3.069505424 -0.2381063076 0)
(3.070644255 -0.2470516005 0)
(3.071101534 -0.2543707905 0)
(3.071828387 -0.255859514 0)
(3.073107813 -0.2614509075 0)
(3.075278599 -0.2703769895 0)
(3.076894812 -0.2758374871 0)
(3.079770536 -0.2858793117 0)
(3.080848461 -0.2938839659 0)
(3.082644865 -0.298921499 0)
(3.084588184 -0.3031069625 0)
(3.085397088 -0.3101491885 0)
(3.085459402 -0.3133618752 0)
(3.085641815 -0.314001356 0)
(3.082993684 -0.3047080823 0)
(3.076427119 -0.2788632519 0)
(3.052298503 -0.2021475886 0)
(3.045386072 -0.1375763065 0)
(3.022914082 -0.03477385386 0)
(3.009598947 0.01861879697 0)
(2.991851692 -0.006213042875 0)
(2.998358832 -0.007730542372 0)
(3.044093012 -0.1462748134 0)
(3.048679407 -0.1594174708 0)
(3.04922894 -0.1697127067 0)
(3.049732686 -0.1711975886 0)
(3.053569082 -0.179503993 0)
(3.057028295 -0.1937751218 0)
(3.058339965 -0.1975525611 0)
(3.058732427 -0.1992594598 0)
(3.06361399 -0.212928515 0)
(3.065443583 -0.224211504 0)
(3.067296488 -0.2270565733 0)
(3.069046518 -0.2323184209 0)
(3.070450568 -0.2451054763 0)
(3.070133832 -0.2523214259 0)
(3.071828154 -0.2556841009 0)
(3.073129798 -0.2594459777 0)
(3.074179408 -0.2664041509 0)
(3.074597583 -0.2693626687 0)
(3.077111795 -0.2785467937 0)
(3.079249259 -0.2870131184 0)
(3.081468521 -0.2909951355 0)
(3.084596129 -0.3029117568 0)
(3.085103626 -0.3121506806 0)
(3.084924637 -0.3168815922 0)
(3.086654513 -0.3130971248 0)
(3.085352026 -0.309496408 0)
(3.078760199 -0.2932415974 0)
(3.066133609 -0.246092232 0)
(3.044610984 -0.1632852302 0)
(3.035050054 -0.09985707192 0)
(3.04153507 -0.07821574133 0)
(3.012889595 -0.02852135778 0)
(3.040338722 -0.1338294961 0)
(3.04539404 -0.1469250884 0)
(3.046904222 -0.1597898911 0)
(3.047556375 -0.1629586948 0)
(3.05049984 -0.1694376842 0)
(3.054138241 -0.1839527206 0)
(3.05529018 -0.1903746598 0)
(3.057071553 -0.1902761924 0)
(3.059016898 -0.1962422636 0)
(3.061939009 -0.2100956665 0)
(3.063131699 -0.215917186 0)
(3.065099665 -0.2162824414 0)
(3.067270523 -0.2263774086 0)
(3.068523389 -0.2391965182 0)
(3.069090772 -0.2444131301 0)
(3.071416796 -0.2503454467 0)
(3.072880186 -0.2582474561 0)
(3.073503875 -0.2646160421 0)
(3.074692869 -0.2677008112 0)
(3.075893825 -0.272251883 0)
(3.077762317 -0.2788716276 0)
(3.079329412 -0.2819228374 0)
(3.081416281 -0.2927884 0)
(3.081942412 -0.3007787229 0)
(3.084244451 -0.3029637093 0)
(3.084667668 -0.3067217416 0)
(3.083950258 -0.3081158728 0)
(3.081516356 -0.3020430924 0)
(3.072707009 -0.272411132 0)
(3.057365164 -0.2020159797 0)
(3.046172226 -0.1028602569 0)
(3.020055519 -0.02825821143 0)
(3.036191658 -0.1185837156 0)
(3.040229572 -0.1289125632 0)
(3.042801493 -0.1443725916 0)
(3.043809048 -0.1483192148 0)
(3.044888412 -0.1502621725 0)
(3.049545779 -0.1650766639 0)
(3.05166409 -0.17778424 0)
(3.053891538 -0.18135454 0)
(3.056511447 -0.183868714 0)
(3.059176169 -0.1961905289 0)
(3.060154321 -0.2067486388 0)
(3.062201877 -0.2104812802 0)
(3.064075933 -0.2119895343 0)
(3.065695041 -0.2246384708 0)
(3.065683572 -0.2322414743 0)
(3.066757541 -0.2330674432 0)
(3.070109317 -0.2420498476 0)
(3.072045682 -0.2531817543 0)
(3.072687498 -0.2577920667 0)
(3.074156174 -0.2639998955 0)
(3.075704382 -0.2709453469 0)
(3.077371304 -0.2768682881 0)
(3.079063328 -0.2794100437 0)
(3.080338854 -0.2881046334 0)
(3.081859522 -0.2994063473 0)
(3.084054326 -0.3019492648 0)
(3.084169735 -0.3104621505 0)
(3.085316355 -0.3083879169 0)
(3.083986804 -0.3050777251 0)
(3.078379253 -0.2876046158 0)
(3.070928014 -0.2565205565 0)
(3.038856154 -0.1389451849 0)
(3.033336057 -0.1078750258 0)
(3.03661062 -0.115234497 0)
(3.040334704 -0.1327669807 0)
(3.041021652 -0.1404793583 0)
(3.043005065 -0.141494459 0)
(3.045963153 -0.149996538 0)
(3.049060425 -0.1651622774 0)
(3.050150262 -0.1719598792 0)
(3.053607685 -0.1744652362 0)
(3.055860643 -0.1813026815 0)
(3.058321919 -0.195039021 0)
(3.058785473 -0.2026519002 0)
(3.061502857 -0.2050263886 0)
(3.063582904 -0.2120880638 0)
(3.063917712 -0.2230562638 0)
(3.064610568 -0.2266800323 0)
(3.067168589 -0.229782325 0)
(3.069031894 -0.2396674737 0)
(3.069272883 -0.244494092 0)
(3.068293013 -0.245623165 0)
(3.072731746 -0.2561924142 0)
(3.074985021 -0.2655650508 0)
(3.076598048 -0.270086151 0)
(3.078700878 -0.2752795604 0)
(3.079467359 -0.2816961187 0)
(3.08117723 -0.2891743293 0)
(3.082780856 -0.2926795402 0)
(3.083554065 -0.2982185776 0)
(3.081620168 -0.3025301737 0)
(3.081596399 -0.3029067224 0)
(3.080619223 -0.2980414158 0)
(3.063868583 -0.2349678022 0)
(3.030011131 -0.09688919016 0)
(3.032690645 -0.1000925046 0)
(3.037246968 -0.1162156665 0)
(3.037954623 -0.1286536137 0)
(3.039856964 -0.1317701281 0)
(3.041966994 -0.1344487292 0)
(3.044355951 -0.1479701219 0)
(3.045765262 -0.1587746956 0)
(3.048580924 -0.1633908814 0)
(3.051492757 -0.1661506658 0)
(3.053428625 -0.1770448035 0)
(3.055535691 -0.1890076895 0)
(3.057723744 -0.1944253703 0)
(3.060727733 -0.1978226004 0)
(3.062790654 -0.2103441014 0)
(3.062631366 -0.2170519265 0)
(3.064179778 -0.22051056 0)
(3.067042438 -0.2307146468 0)
(3.067406272 -0.2385857331 0)
(3.067859502 -0.2397644761 0)
(3.067957324 -0.2412407896 0)
(3.07114966 -0.25139408 0)
(3.072857965 -0.2586632911 0)
(3.074614876 -0.2597979952 0)
(3.077338671 -0.2678818331 0)
(3.079290928 -0.2782579732 0)
(3.080364372 -0.2846281979 0)
(3.082800837 -0.2959192995 0)
(3.082303201 -0.2999212079 0)
(3.082067474 -0.305692744 0)
(3.083336375 -0.3034286544 0)
(3.079539569 -0.2898990383 0)
(3.025857632 -0.08555172338 0)
(3.02850422 -0.08639023493 0)
(3.032677935 -0.0981418935 0)
(3.035734725 -0.1157068254 0)
(3.036342135 -0.1228671927 0)
(3.039468286 -0.1264281108 0)
(3.04209578 -0.1357551098 0)
(3.043784272 -0.1488492609 0)
(3.044985413 -0.1567310239 0)
(3.04851272 -0.1615875589 0)
(3.051151822 -0.1658566044 0)
(3.05320192 -0.1769645511 0)
(3.054431663 -0.184323814 0)
(3.05747235 -0.1877316378 0)
(3.059863315 -0.194367575 0)
(3.060566663 -0.204989593 0)
(3.061170134 -0.2092627409 0)
(3.063424767 -0.2162519906 0)
(3.065284602 -0.2274958331 0)
(3.066017408 -0.2318897972 0)
(3.06708819 -0.2338624158 0)
(3.06946213 -0.2427553349 0)
(3.070458032 -0.2500635763 0)
(3.07179919 -0.2528910689 0)
(3.07307069 -0.2532158626 0)
(3.074660883 -0.2609713951 0)
(3.076582592 -0.2709934483 0)
(3.077890841 -0.2741251089 0)
(3.080511916 -0.2825371958 0)
(3.080813156 -0.2873261511 0)
(3.081784931 -0.2953430148 0)
(3.081508218 -0.2961396202 0)
(3.022205221 -0.07545993141 0)
(3.024975149 -0.07831504728 0)
(3.027980873 -0.0824948063 0)
(3.031648593 -0.09884978606 0)
(3.032608784 -0.1096673485 0)
(3.035457312 -0.1151288674 0)
(3.038771699 -0.1208815443 0)
(3.039541037 -0.1312146294 0)
(3.041271053 -0.1421382301 0)
(3.044049176 -0.1500625633 0)
(3.047821211 -0.1544370388 0)
(3.049078186 -0.1605561367 0)
(3.051403601 -0.1719316078 0)
(3.053525692 -0.1781107768 0)
(3.056747945 -0.1828859174 0)
(3.058388021 -0.1919162669 0)
(3.058646735 -0.1978923689 0)
(3.059962831 -0.2030593717 0)
(3.062537106 -0.2138281651 0)
(3.063502489 -0.2207253908 0)
(3.064970046 -0.2223349431 0)
(3.065832675 -0.2270695485 0)
(3.069198231 -0.239940235 0)
(3.069187147 -0.2469666941 0)
(3.070755349 -0.2486720438 0)
(3.072769939 -0.2519038942 0)
(3.074230251 -0.2596197454 0)
(3.075457161 -0.2670917453 0)
(3.077665779 -0.2700247064 0)
(3.080008804 -0.2773105409 0)
(3.081410078 -0.2880322296 0)
(3.081829003 -0.2966415524 0)
(3.018486938 -0.06202269065 0)
(3.020613429 -0.06834542052 0)
(3.024884844 -0.07312103691 0)
(3.028562831 -0.08511837077 0)
(3.029916091 -0.09720408237 0)
(3.031784452 -0.1050465718 0)
(3.035585162 -0.1128362639 0)
(3.037758333 -0.1195938309 0)
(3.038714195 -0.1287985771 0)
(3.041232123 -0.139860728 0)
(3.043861505 -0.147315923 0)
(3.046889876 -0.1511536732 0)
(3.048752197 -0.158882155 0)
(3.05086125 -0.1688047807 0)
(3.053305731 -0.1752462958 0)
(3.056015915 -0.1810450879 0)
(3.057113571 -0.1882717546 0)
(3.057832523 -0.1930497954 0)
(3.059397649 -0.2003006455 0)
(3.061196079 -0.2101437582 0)
(3.062499894 -0.2149464561 0)
(3.06392344 -0.2164827558 0)
(3.063892016 -0.2228545796 0)
(3.066301134 -0.2337163035 0)
(3.067555722 -0.2401668844 0)
(3.070125168 -0.2418669615 0)
(3.072757051 -0.2493751099 0)
(3.073798012 -0.2566622903 0)
(3.07497534 -0.2610027364 0)
(3.077225555 -0.2642877711 0)
(3.078418648 -0.2704546499 0)
(3.078508823 -0.2800089166 0)
(3.014024057 -0.04727931614 0)
(3.016015168 -0.05592862819 0)
(3.020312151 -0.06222015872 0)
(3.024931314 -0.07181934069 0)
(3.026190174 -0.08161280882 0)
(3.028229104 -0.09122172808 0)
(3.031822279 -0.1018756403 0)
(3.034987438 -0.109242804 0)
(3.035158641 -0.1126872659 0)
(3.036659267 -0.1230818098 0)
(3.039665267 -0.1351728442 0)
(3.042606001 -0.1409895427 0)
(3.044209197 -0.1429497665 0)
(3.046688781 -0.1532901251 0)
(3.049346906 -0.1629588581 0)
(3.052268982 -0.1689499858 0)
(3.054658978 -0.1755120164 0)
(3.055981798 -0.1823852742 0)
(3.05709476 -0.1886613231 0)
(3.058567528 -0.1973123517 0)
(3.060048618 -0.2055652599 0)
(3.061844748 -0.2108096243 0)
(3.062917668 -0.2138782888 0)
(3.063648886 -0.2225427139 0)
(3.06446925 -0.2291861663 0)
(3.06678359 -0.2325692997 0)
(3.069047312 -0.2349181956 0)
(3.072252381 -0.2452733767 0)
(3.072797251 -0.2518891263 0)
(3.074267285 -0.2552847496 0)
(3.076354942 -0.261324863 0)
(3.077655246 -0.2732233845 0)
(3.009809677 -0.03392520666 0)
(3.011486676 -0.04261743159 0)
(3.015236457 -0.05050293649 0)
(3.020571185 -0.06166158701 0)
(3.02322782 -0.06904668647 0)
(3.024290356 -0.07568846528 0)
(3.028872661 -0.08886898911 0)
(3.031517711 -0.1005810256 0)
(3.033353627 -0.1050156922 0)
(3.03349377 -0.1089591069 0)
(3.037093739 -0.1226162799 0)
(3.03882254 -0.1329881007 0)
(3.041586732 -0.1372473964 0)
(3.044170433 -0.1418228387 0)
(3.047153829 -0.1534149104 0)
(3.049035264 -0.1601165702 0)
(3.051783841 -0.1656051219 0)
(3.054024511 -0.1728847723 0)
(3.055116063 -0.1784156007 0)
(3.055676702 -0.1842983151 0)
(3.057608404 -0.1939151619 0)
(3.059119873 -0.2015634501 0)
(3.061144292 -0.2062839444 0)
(3.06135107 -0.2100541063 0)
(3.062847299 -0.220103299 0)
(3.063971876 -0.2258998305 0)
(3.066708157 -0.2282956374 0)
(3.068214472 -0.2310012269 0)
(3.069645023 -0.2402715026 0)
(3.070515165 -0.2438715089 0)
(3.072771137 -0.2484871431 0)
(3.075120502 -0.258513567 0)
(3.005614766 -0.02183014019 0)
(3.007389843 -0.02936782236 0)
(3.010609258 -0.03760774655 0)
(3.016111537 -0.05117021587 0)
(3.019525565 -0.06022044927 0)
(3.020747315 -0.06189930779 0)
(3.022520345 -0.07034861716 0)
(3.027553943 -0.08622759878 0)
(3.029556974 -0.09520847063 0)
(3.031449152 -0.09804407691 0)
(3.032629943 -0.1058498557 0)
(3.036248499 -0.1203796709 0)
(3.037818554 -0.1277781454 0)
(3.040605794 -0.1300939214 0)
(3.043142911 -0.1388601665 0)
(3.044898206 -0.1478123188 0)
(3.047049651 -0.1527244961 0)
(3.05033293 -0.1606436372 0)
(3.052466784 -0.1684215099 0)
(3.053096971 -0.1721102664 0)
(3.053845731 -0.1790695356 0)
(3.056819214 -0.1901364605 0)
(3.058324232 -0.197126066 0)
(3.06000331 -0.2003154892 0)
(3.06004174 -0.2055034724 0)
(3.062017979 -0.2154362035 0)
(3.06354864 -0.2216889242 0)
(3.066202004 -0.2251504295 0)
(3.067777184 -0.2309078023 0)
(3.068445377 -0.2366694038 0)
(3.069805333 -0.2393586944 0)
(3.072881202 -0.2483986577 0)
(3.001210452 -0.01056235441 0)
(3.003546349 -0.01779137055 0)
(3.004903138 -0.02172365163 0)
(3.011204205 -0.03630556321 0)
(3.015111655 -0.05024736272 0)
(3.017786846 -0.05541494097 0)
(3.019535564 -0.05822435517 0)
(3.023857932 -0.0717046492 0)
(3.026276301 -0.0844709967 0)
(3.028313933 -0.09004100234 0)
(3.029982554 -0.0930389787 0)
(3.033306645 -0.105565812 0)
(3.035329556 -0.1182333344 0)
(3.036957158 -0.1236025289 0)
(3.040161217 -0.1290781597 0)
(3.042596398 -0.1392139262 0)
(3.043972672 -0.1448878345 0)
(3.046784498 -0.1511738961 0)
(3.049911132 -0.1606233122 0)
(3.051561051 -0.1660321918 0)
(3.052048205 -0.168311725 0)
(3.053850081 -0.1767389376 0)
(3.05604216 -0.1873361004 0)
(3.05734549 -0.1926026447 0)
(3.058500152 -0.1947689422 0)
(3.058949395 -0.2015457067 0)
(3.060714801 -0.2105219857 0)
(3.062855142 -0.2158183467 0)
(3.065458656 -0.2204310627 0)
(3.066964557 -0.2274505523 0)
(3.067981746 -0.2323871424 0)
(3.070377944 -0.2394192085 0)
(2.997350365 0.002427076575 0)
(2.999746728 -0.008884396458 0)
(3.001707564 -0.01155840489 0)
(3.004959396 -0.01988686014 0)
(3.010547431 -0.03644311413 0)
(3.013090898 -0.04562804917 0)
(3.016495666 -0.04896182047 0)
(3.019256087 -0.05631859409 0)
(3.023486728 -0.07096195127 0)
(3.025072943 -0.08096294621 0)
(3.027669022 -0.08556893489 0)
(3.028637271 -0.08961132937 0)
(3.031674053 -0.1031862177 0)
(3.033167763 -0.1125995151 0)
(3.036026919 -0.1183772069 0)
(3.038784652 -0.1253591798 0)
(3.040319828 -0.1323252863 0)
(3.042380272 -0.1380798067 0)
(3.045869727 -0.1472674033 0)
(3.048430503 -0.1556838176 0)
(3.05003046 -0.1586910475 0)
(3.050116219 -0.1621612336 0)
(3.05293109 -0.1733568332 0)
(3.054482619 -0.1827024112 0)
(3.056208657 -0.1869987161 0)
(3.05729832 -0.1903246097 0)
(3.058815904 -0.1996572415 0)
(3.060138401 -0.2069794348 0)
(3.062359179 -0.2112027925 0)
(3.064226729 -0.2147689587 0)
(3.065682918 -0.2211594724 0)
(3.067843584 -0.2305628982 0)
(2.99266712 0.01886679442 0)
(2.996160421 0.002479620059 0)
(2.9981233 -0.003656256381 0)
(3.000663773 -0.007481958639 0)
(3.005445261 -0.02134815082 0)
(3.008902483 -0.03459999116 0)
(3.012090246 -0.04126342579 0)
(3.015963634 -0.04545527484 0)
(3.018870228 -0.05523623114 0)
(3.022487179 -0.06869078504 0)
(3.024256362 -0.07759835753 0)
(3.026777951 -0.08229687465 0)
(3.027920978 -0.08870958732 0)
(3.0308007 -0.1012014421 0)
(3.032457305 -0.1093749506 0)
(3.035554185 -0.1163656499 0)
(3.03824575 -0.1233893064 0)
(3.040030552 -0.1294372616 0)
(3.042532973 -0.136735404 0)
(3.045548853 -0.1463382537 0)
(3.047548646 -0.1530591297 0)
(3.0491093 -0.1554475263 0)
(3.050230657 -0.1613427574 0)
(3.052622046 -0.1720675339 0)
(3.053555965 -0.179460792 0)
(3.055366786 -0.1822758235 0)
(3.056220223 -0.1867740333 0)
(3.058002349 -0.1965648025 0)
(3.059294045 -0.2032881829 0)
(3.061650634 -0.2078334539 0)
(3.063188128 -0.210861353 0)
(3.065002756 -0.2195392721 0)
(2.986659099 0.03585583875 0)
(2.991960215 0.0179202264 0)
(2.994074751 0.006290405369 0)
(2.997256087 0.0007363358959 0)
(3.00044149 -0.006734296322 0)
(3.005023505 -0.02096657235 0)
(3.008048928 -0.03159876827 0)
(3.012111901 -0.03905827698 0)
(3.01516806 -0.04303266047 0)
(3.017285912 -0.0525593396 0)
(3.020654387 -0.06502645492 0)
(3.023191565 -0.07355230919 0)
(3.025412931 -0.07732239827 0)
(3.026942298 -0.08577259895 0)
(3.030122161 -0.09803481429 0)
(3.032106883 -0.1062532337 0)
(3.034709338 -0.1115011708 0)
(3.036780467 -0.1173147787 0)
(3.038445272 -0.1239523368 0)
(3.040641599 -0.1320965672 0)
(3.043382426 -0.1407347108 0)
(3.04595519 -0.1459686593 0)
(3.047263171 -0.1487044316 0)
(3.048497445 -0.1571577397 0)
(3.051086128 -0.1679195635 0)
(3.052452001 -0.1742943518 0)
(3.054199446 -0.176573743 0)
(3.055520337 -0.1840888814 0)
(3.056698505 -0.1925765411 0)
(3.05832132 -0.1983213287 0)
(3.060689081 -0.2036169199 0)
(3.063302504 -0.2122790715 0)
(2.98368677 0.04508901306 0)
(2.987158611 0.03360538131 0)
(2.990573839 0.01901923802 0)
(2.993318806 0.009856695283 0)
(2.997061281 0.003530197597 0)
(2.999466683 -0.004823973132 0)
(3.004165146 -0.01818826641 0)
(3.007728546 -0.02953477983 0)
(3.011521516 -0.03667785776 0)
(3.013700469 -0.04052374318 0)
(3.016594005 -0.05095183246 0)
(3.019835141 -0.0633456143 0)
(3.02237537 -0.06987349867 0)
(3.023918533 -0.07277115127 0)
(3.026754419 -0.08341161025 0)
(3.029653259 -0.09568357542 0)
(3.031441193 -0.1034073184 0)
(3.034015793 -0.1092095875 0)
(3.036155535 -0.1156619619 0)
(3.037734194 -0.1224230032 0)
(3.040510374 -0.1316569576 0)
(3.042900162 -0.1396235281 0)
(3.045370157 -0.1443610491 0)
(3.046760312 -0.1473893966 0)
(3.048683562 -0.1562378852 0)
(3.050342951 -0.1658499307 0)