/*--------------------------------*- C++ -*----------------------------------*\
  =========                 |
  \\      /  F ield         | OpenFOAM: The Open Source CFD Toolbox
   \\    /   O peration     | Website:  https://openfoam.org
    \\  /    A nd           | Version:  7
     \\/     M anipulation  |
\*---------------------------------------------------------------------------*/
FoamFile
{
    version     2.0;
    format      ascii;
    class       volScalarField;
    location    "0.6";
    object      T;
}
// * * * * * * * * * * * * * * * * * * * * * * * * * * * * * * * * * * * * * //

dimensions      [0 0 0 1 0 0 0];

internalField   nonuniform List<scalar> 
2222
(
1.125961018
1.12526696
1.124389623
1.123395474
1.122392111
1.121483096
1.120766227
1.120126474
1.119591925
1.119129134
1.11871992
1.118241816
1.117562432
1.116928962
1.116374979
1.115289267
1.147192435
1.147589871
1.147856082
1.147571577
1.147113381
1.146372311
1.145352903
1.143974744
1.142212936
1.140117464
1.137864928
1.135723821
1.134256331
1.13343615
1.132992896
1.132455851
1.131724711
1.130730831
1.12951193
1.128167269
1.127042391
1.126280931
1.125619736
1.12503036
1.124232956
1.123262216
1.12206461
1.121140293
1.120502008
1.119968685
1.119448983
1.118940126
1.118469334
1.118033611
1.117400945
1.117068984
1.116917665
1.116155533
1.146832411
1.147285576
1.147655158
1.14743781
1.146974234
1.146120257
1.144894366
1.143436864
1.141688398
1.13954815
1.137233211
1.134901627
1.133253212
1.132566766
1.13208969
1.131653471
1.131076809
1.130292572
1.129555141
1.128594602
1.127210333
1.125891871
1.124870361
1.123960529
1.123119892
1.122334414
1.121654448
1.120819619
1.120004801
1.119370296
1.118883432
1.118397019
1.117899643
1.117429592
1.117178671
1.116960323
1.116824812
1.116185795
1.145646499
1.146258748
1.146580793
1.146384255
1.145885139
1.144919864
1.143499757
1.141828981
1.139964854
1.137687231
1.135351925
1.132922478
1.131368009
1.130787827
1.130277559
1.129779178
1.129355926
1.128962496
1.128460732
1.12777013
1.126716635
1.124941065
1.123222756
1.121881836
1.120927936
1.120347458
1.119913112
1.119370712
1.118783433
1.118204194
1.117609736
1.117089795
1.116624076
1.116207847
1.115974086
1.115889459
1.115979755
1.115397769
1.142715191
1.143282042
1.143462857
1.143318606
1.142845145
1.141928782
1.140574505
1.13884806
1.136745753
1.134383912
1.132105189
1.129810709
1.128059651
1.127466187
1.126959947
1.126509701
1.126234416
1.126018605
1.125713777
1.125262459
1.12438133
1.122677749
1.120107998
1.118260865
1.117288547
1.116846192
1.116504597
1.116216748
1.115914362
1.115608586
1.115206087
1.114642264
1.114123353
1.113780123
1.113649324
1.113685014
1.113876515
1.112911497
1.137626191
1.138031535
1.138010678
1.137866783
1.137444052
1.136585568
1.135248539
1.133429736
1.131149491
1.128710035
1.126468904
1.124590456
1.12279512
1.122024775
1.121517869
1.121157324
1.121058883
1.120933642
1.120758028
1.120458449
1.119630975
1.11784743
1.115309672
1.112834037
1.111764504
1.111295969
1.111140856
1.111079605
1.111015699
1.110919785
1.110791689
1.110527793
1.110095386
1.109759822
1.109707927
1.109711844
1.10945106
1.108225683
1.13002753
1.130432537
1.130269885
1.130072411
1.129680075
1.128839233
1.12744846
1.125631409
1.123443261
1.121000417
1.118805507
1.117117018
1.115533219
1.11451968
1.114004555
1.113664159
1.113598122
1.113597981
1.11358029
1.113283974
1.112306292
1.110519091
1.108051391
1.105658388
1.104226069
1.103735893
1.103748487
1.103896386
1.104039002
1.1041356
1.104229405
1.104229024
1.104087798
1.103919775
1.103858808
1.103578896
1.103023898
1.101391691
1.120239242
1.120689909
1.120413674
1.120180142
1.11981812
1.119002621
1.117606196
1.115799924
1.113648102
1.11131419
1.109258056
1.107720704
1.106323916
1.10518878
1.104678128
1.104415069
1.104328521
1.104316456
1.10407126
1.103603058
1.102621997
1.100911283
1.098962455
1.096934586
1.095247471
1.094632914
1.094668427
1.094923532
1.095305648
1.095604191
1.095828402
1.096013305
1.096186872
1.096225033
1.096037186
1.095512139
1.094645402
1.092622646
1.108953682
1.109494121
1.109232823
1.108992772
1.108632639
1.107833838
1.106512542
1.104744399
1.102638116
1.100406477
1.098563262
1.097163029
1.095830621
1.094695381
1.094157631
1.093991579
1.093982108
1.093808727
1.093435124
1.092753313
1.09159144
1.090164811
1.088689342
1.08703972
1.085451441
1.084663245
1.084657548
1.084884686
1.085424457
1.085849196
1.086203207
1.086604358
1.087038898
1.087213505
1.086831927
1.085969238
1.084830021
1.082652922
1.097248181
1.097831995
1.097659527
1.097455616
1.097146117
1.096443393
1.095236789
1.093498542
1.091406459
1.089284153
1.087643747
1.086265317
1.084997246
1.08395961
1.083449354
1.083340951
1.083302525
1.083120778
1.082648395
1.081703236
1.080397869
1.079308245
1.078227338
1.077061629
1.075608039
1.074597987
1.074448921
1.074638663
1.075264256
1.075873345
1.076391633
1.076986084
1.077441811
1.077496941
1.077004956
1.075779569
1.074304748
1.072499715
1.086363776
1.08692072
1.08690311
1.086774514
1.086533354
1.085934034
1.084781931
1.083001159
1.08092295
1.079045869
1.077572049
1.076014602
1.074673379
1.073865401
1.07357299
1.073492806
1.073304594
1.073069722
1.072596088
1.071468693
1.070323539
1.06941968
1.068900612
1.067911663
1.066327831
1.065269291
1.065077966
1.065219332
1.065811514
1.066614657
1.06717296
1.067658525
1.067967994
1.067964995
1.067387406
1.066229517
1.064836109
1.062960053
1.077132228
1.077736753
1.077689059
1.077563966
1.077392907
1.076868926
1.075780408
1.074137333
1.072150505
1.070487738
1.068944307
1.067335835
1.065991791
1.065410156
1.065174718
1.065053015
1.064826025
1.06454261
1.063967595
1.06306877
1.062083709
1.061394075
1.060728764
1.059781473
1.058479764
1.057474408
1.057240176
1.057319836
1.057810924
1.058572966
1.059080072
1.059457502
1.059641746
1.059531703
1.058894862
1.057796942
1.056558647
1.054756376
1.07004206
1.070677331
1.070742879
1.070620865
1.070483062
1.069991459
1.068937463
1.067460879
1.065786388
1.064114544
1.062249482
1.060441768
1.059245091
1.058820121
1.058703732
1.058577685
1.058362919
1.057975111
1.0573605
1.056758942
1.056155804
1.05554063
1.054731538
1.053528348
1.052289718
1.051429172
1.051219271
1.051318894
1.051753075
1.052275476
1.052558866
1.052726954
1.052723973
1.052528816
1.051959995
1.051066926
1.050105391
1.048473681
1.065859457
1.065966738
1.065816371
1.065703606
1.065289309
1.064358972
1.062974064
1.061411061
1.059670629
1.057647779
1.055755354
1.054742896
1.054153721
1.05393583
1.05382508
1.053708429
1.053397508
1.052994956
1.052538428
1.052266634
1.051728313
1.050659992
1.049230765
1.047852304
1.047214371
1.047139827
1.047302806
1.047648692
1.04787818
1.047949808
1.047893554
1.047623464
1.047151102
1.046685354
1.046259252
1.045579737
1.044343176
1.062840795
1.063016754
1.062872281
1.062785504
1.062460569
1.061671344
1.060465408
1.059004587
1.057240675
1.055040813
1.053437507
1.052355751
1.051402991
1.05099223
1.050759643
1.050605828
1.050572677
1.050545729
1.050457771
1.050189004
1.049461916
1.048185229
1.046428415
1.045211113
1.044820909
1.044785184
1.044966582
1.045153088
1.045115727
1.04501023
1.044715571
1.044159285
1.043580318
1.043276125
1.043149924
1.042829208
1.041927857
1.061276777
1.061451511
1.061302145
1.061188518
1.06094259
1.060299373
1.059234551
1.057871249
1.056120421
1.053972897
1.052643646
1.051513444
1.050270576
1.049525155
1.049156825
1.048970365
1.049000958
1.049127921
1.049201914
1.048937857
1.04817416
1.046617774
1.044771062
1.044001153
1.043756126
1.043715299
1.043808636
1.043839115
1.043696539
1.04338319
1.042844375
1.042122936
1.041591315
1.041361621
1.041214852
1.041424778
1.040417857
1.060536701
1.060667908
1.06053179
1.060436023
1.060238946
1.059683014
1.058722473
1.057441139
1.0557632
1.053900166
1.052583436
1.051424992
1.050106715
1.049080386
1.048655974
1.048443548
1.048442447
1.048565658
1.048629895
1.048355973
1.047325394
1.045436545
1.044123609
1.043666705
1.043510966
1.043476925
1.04341606
1.043274174
1.043034595
1.042562845
1.041962605
1.041360519
1.040809417
1.04043864
1.040237437
1.040216074
1.039364515
1.060192715
1.060335249
1.060318975
1.060220333
1.060023078
1.05950669
1.058635059
1.057318945
1.055716516
1.054155766
1.052903782
1.051698031
1.050202645
1.049257381
1.048786158
1.048558913
1.048486682
1.04839894
1.048222986
1.047732282
1.046363306
1.04475508
1.044110523
1.043831475
1.043723899
1.043639204
1.0433959
1.043055943
1.042680728
1.042221064
1.04173837
1.041279412
1.040707533
1.040148349
1.03969614
1.03944141
1.038563977
1.060182707
1.060385717
1.06043826
1.060323061
1.060124574
1.059609081
1.05873703
1.057539941
1.056080173
1.054776244
1.053655134
1.052238301
1.050712596
1.049864835
1.049313616
1.049079756
1.048870996
1.048548146
1.048028694
1.047027024
1.045548106
1.044748908
1.044527087
1.044427634
1.044306224
1.044048111
1.043583527
1.043087572
1.04259095
1.042189196
1.041869503
1.041510322
1.040919098
1.040207167
1.039571271
1.039030076
1.037861139
1.060530588
1.060826816
1.060918484
1.060849242
1.060645137
1.060096518
1.059175027
1.058100385
1.05688409
1.05573341
1.054642367
1.052983209
1.051656859
1.050745969
1.050389032
1.050116333
1.049688541
1.049016724
1.048054457
1.046628807
1.04555501
1.045289788
1.045343579
1.045329764
1.045123708
1.044636861
1.043996183
1.043372981
1.042896027
1.042629477
1.042440643
1.042113049
1.041496542
1.040666642
1.039800937
1.038952644
1.03753171
1.061588759
1.062038908
1.062060727
1.06195341
1.061707074
1.06114393
1.060226921
1.059152019
1.058120996
1.057008331
1.055631624
1.053930448
1.052825633
1.05216215
1.051729567
1.051369667
1.050711569
1.049633082
1.04812312
1.04677194
1.046297049
1.046296391
1.046409131
1.046396382
1.046115978
1.045498027
1.044785789
1.044211025
1.043820444
1.043590795
1.043411061
1.043025829
1.042398962
1.041462777
1.040249826
1.039097102
1.037660036
1.06334623
1.06385428
1.063774741
1.063571699
1.063263436
1.062705212
1.061830784
1.060845553
1.059964533
1.058840703
1.057219886
1.05535399
1.05431122
1.053773659
1.053194208
1.052625928
1.051764519
1.05035102
1.048831843
1.048157428
1.047915966
1.04785529
1.047879178
1.047831657
1.047454319
1.046719219
1.046051793
1.045649583
1.04534881
1.045028488
1.04475523
1.044322662
1.043627278
1.042520131
1.041039999
1.039787867
1.038566287
1.065742436
1.066035076
1.065849072
1.065543136
1.065189848
1.064638387
1.063861875
1.063057838
1.062234621
1.061015169
1.059155518
1.057484062
1.05645386
1.055574608
1.05490965
1.054050161
1.05294231
1.051734036
1.050904103
1.050371781
1.0500945
1.049910033
1.04980584
1.049550115
1.048917193
1.048208396
1.047864653
1.047635904
1.04735695
1.046978741
1.046462042
1.045897394
1.045082556
1.043837033
1.042353196
1.041331916
1.040211221
1.068395469
1.068367282
1.068026522
1.067599723
1.067238579
1.066741414
1.066102008
1.065468552
1.064640957
1.063320879
1.061566997
1.059993034
1.058896023
1.057817807
1.056590481
1.055351488
1.054503587
1.054001619
1.053390472
1.052839202
1.052455298
1.052178955
1.051834882
1.051205445
1.050446137
1.050137899
1.049974254
1.049802367
1.049557328
1.049135743
1.048408117
1.047554372
1.046582297
1.045473173
1.044460204
1.0434059
1.042213243
1.07078876
1.070444772
1.069918071
1.069407192
1.069109614
1.068765404
1.068258213
1.067732061
1.066965794
1.065741008
1.064159528
1.062685906
1.061418706
1.059987324
1.058218501
1.057094695
1.056491427
1.05611846
1.055717768
1.055176942
1.054697252
1.054224744
1.053605534
1.052709096
1.05234724
1.052150488
1.052009228
1.05186506
1.051682503
1.051186513
1.050261199
1.049058597
1.048090896
1.047412115
1.046674691
1.045741799
1.044372126
1.072370915
1.071762018
1.071171355
1.070969877
1.070772789
1.070514503
1.070086101
1.069718001
1.069003413
1.067832302
1.066467968
1.065242382
1.063753987
1.06172627
1.060003642
1.058935136
1.058279518
1.057857917
1.057491049
1.05694125
1.056364345
1.055742881
1.054753257
1.05428482
1.054057997
1.053908857
1.053759395
1.053653545
1.053387185
1.052742036
1.051677636
1.050435612
1.049677681
1.049137463
1.048555427
1.04782172
1.046517952
1.072972078
1.072444716
1.072138916
1.071957787
1.071722435
1.071463553
1.071202035
1.07057812
1.069475272
1.068296892
1.067103347
1.065427933
1.063467961
1.061788763
1.060528744
1.059643661
1.059126272
1.058589283
1.058031391
1.057368332
1.056482966
1.056008603
1.055739418
1.05557296
1.055429502
1.055255412
1.055046089
1.054478285
1.053658863
1.052623663
1.051706205
1.050972451
1.050454701
1.049951659
1.049444701
1.048293865
1.073997891
1.073316626
1.072990238
1.072769751
1.072544481
1.072384423
1.072219025
1.071771071
1.070840532
1.069617239
1.068205908
1.066515982
1.064691757
1.063328117
1.062049419
1.060714411
1.059860949
1.059149313
1.058375744
1.057644467
1.057270503
1.057003026
1.05688107
1.056826654
1.056720387
1.056435056
1.055790262
1.054942897
1.054051183
1.053434151
1.052760933
1.051947998
1.051349424
1.050929662
1.050646398
1.049493981
1.074680948
1.073757349
1.073236882
1.07300583
1.072868885
1.072828106
1.072819969
1.072550145
1.071797547
1.070469072
1.068768434
1.067061798
1.065524446
1.064473604
1.063231612
1.061424203
1.059928083
1.058960405
1.058313039
1.057971523
1.057782725
1.057772418
1.057818938
1.057879065
1.057716252
1.057120379
1.056051867
1.055100174
1.054432006
1.053959957
1.053455502
1.052709666
1.052024649
1.051554622
1.051191948
1.049897601
1.07492403
1.073880661
1.073180809
1.073016817
1.072945293
1.072983768
1.073065259
1.072889076
1.072205828
1.070901075
1.069109282
1.067293347
1.066030095
1.065174815
1.063810173
1.061790096
1.060032943
1.058981774
1.058386436
1.058170071
1.058168376
1.0583061
1.058457975
1.058441775
1.058106055
1.057296705
1.056267703
1.055307379
1.054721807
1.054340729
1.053890645
1.053197263
1.052538063
1.051886016
1.051317291
1.049919202
1.074900623
1.073798369
1.073027919
1.072915681
1.072889586
1.072978834
1.073081948
1.07293158
1.072243199
1.070932511
1.069253725
1.067597262
1.066469844
1.065468295
1.063930391
1.061716907
1.059793006
1.058945463
1.058565536
1.058410991
1.058465139
1.058682
1.058736233
1.058591872
1.058124762
1.057269683
1.056320778
1.055582618
1.055041681
1.054632765
1.054213625
1.053553225
1.052812957
1.051986885
1.050952852
1.049527031
1.074822046
1.073743658
1.072900416
1.072755893
1.072774106
1.072882115
1.07295516
1.072818246
1.072173156
1.070832721
1.069234571
1.067866581
1.066713365
1.065410412
1.06364342
1.061448156
1.059685766
1.059066708
1.058781271
1.058626545
1.058665313
1.058772397
1.058703774
1.058482087
1.05794547
1.057124488
1.056344303
1.055777187
1.055303193
1.054827416
1.054349779
1.053691827
1.052720357
1.051620072
1.050487846
1.049077417
1.074696749
1.073770718
1.072844467
1.072598852
1.072586168
1.072699245
1.072785656
1.072693562
1.07213392
1.070892728
1.06947661
1.068187282
1.066774919
1.065066357
1.06303895
1.061102178
1.059647887
1.059043832
1.058773982
1.058620419
1.058601754
1.058592778
1.058469839
1.058166458
1.057580565
1.056884393
1.056355305
1.055958309
1.05548032
1.054896541
1.054273182
1.053425628
1.052153287
1.050809934
1.049674346
1.048640851
1.07446012
1.073641077
1.072748871
1.07243238
1.072399164
1.072511645
1.072645997
1.072612901
1.072090859
1.070953562
1.069669662
1.068285168
1.066553952
1.064482198
1.062401503
1.060747661
1.059481291
1.05881301
1.058507899
1.058312263
1.058227829
1.058152465
1.05801423
1.057701957
1.057200831
1.056733139
1.056419764
1.056089083
1.05558965
1.054796319
1.053799744
1.052638205
1.051255689
1.050022408
1.049146864
1.048278029
1.074060862
1.073315466
1.072484254
1.072181916
1.07213932
1.072196502
1.072335916
1.072466635
1.072051369
1.071005502
1.069633457
1.0680066
1.06597967
1.063816504
1.061889441
1.060398497
1.059022867
1.058216504
1.057880351
1.057654459
1.057543714
1.057501428
1.057410876
1.057185644
1.056859599
1.056646366
1.056484052
1.056144316
1.055406353
1.054225796
1.052857568
1.051556019
1.050344569
1.049403698
1.048777718
1.047926716
1.07343805
1.072738995
1.07199419
1.071718196
1.071615411
1.07160051
1.071819102
1.07211528
1.071738472
1.070681641
1.06914706
1.067275597
1.065166209
1.063148838
1.06147508
1.059926826
1.058301393
1.057398432
1.057022953
1.056777609
1.056661867
1.056686643
1.056713608
1.056744704
1.056697276
1.056599792
1.056307063
1.055654722
1.054586796
1.053245271
1.051808245
1.05052384
1.049533035
1.048826617
1.048302554
1.047506601
1.072595773
1.071963463
1.07136516
1.071108033
1.070914816
1.070884446
1.071186393
1.071449093
1.070973658
1.069886368
1.068306855
1.066306301
1.064210174
1.062413683
1.060994129
1.059353359
1.057470178
1.056452786
1.05606733
1.055812026
1.055703538
1.055828808
1.056086304
1.056371531
1.056558692
1.05642329
1.055696057
1.054635266
1.053476601
1.052239367
1.050953508
1.049730098
1.048838871
1.048270458
1.047823897
1.04711612
1.071630893
1.071112859
1.070689082
1.070461909
1.070203989
1.070142203
1.070392071
1.070571381
1.070061925
1.068938094
1.06722621
1.065206735
1.063251628
1.061659036
1.060388946
1.058725944
1.056690459
1.055519604
1.055124121
1.054884491
1.05483019
1.055171425
1.055818905
1.056334933
1.056350184
1.055787949
1.054692939
1.053416693
1.052288
1.051189817
1.050119506
1.049114409
1.048320744
1.04779707
1.047445741
1.04679791
1.070664579
1.070292002
1.070066128
1.06993295
1.069693404
1.069504195
1.069608558
1.069533609
1.068863183
1.067696317
1.065964296
1.06408713
1.062373883
1.061047092
1.05982826
1.058028102
1.056092209
1.054849279
1.054344525
1.054156825
1.054225628
1.054892503
1.055701305
1.05579712
1.055463131
1.054700309
1.053566289
1.052226789
1.05104396
1.050127303
1.049279573
1.048584521
1.048033253
1.047521556
1.047232696
1.046462386
1.069789264
1.069560302
1.069533216
1.069517833
1.069355435
1.069025147
1.068815161
1.068441476
1.067691582
1.066446429
1.06476392
1.063189129
1.061859664
1.060788462
1.059365977
1.057226034
1.055634604
1.054553169
1.053824042
1.053673777
1.05392038
1.054643324
1.054858694
1.054689952
1.054319307
1.053566033
1.052350816
1.051122838
1.050083714
1.049325683
1.048766035
1.048294476
1.047947731
1.04749448
1.047070272
1.046043003
1.069125939
1.069225834
1.069215304
1.069061468
1.068582736
1.067997589
1.067510293
1.066796337
1.065570077
1.063933631
1.062678408
1.061759144
1.060633835
1.05854179
1.056424569
1.055273409
1.054489426
1.053670853
1.053445336
1.053756609
1.053886034
1.053762015
1.053592416
1.053158022
1.05231498
1.0513738
1.050412727
1.049500656
1.048936958
1.048615819
1.048233224
1.047864261
1.047388674
1.046824503
1.04572167
1.069042338
1.069117295
1.068897641
1.068583188
1.068049863
1.067333595
1.066850698
1.066256221
1.065083867
1.063700278
1.062781405
1.061842197
1.059981585
1.057637859
1.055698111
1.054894794
1.054408098
1.053822291
1.053393218
1.053275644
1.052988674
1.052761043
1.052453135
1.051893283
1.05127994
1.050705303
1.050023442
1.049412691
1.04900996
1.048740279
1.048122108
1.047493557
1.046995727
1.046506369
1.045603926
1.068792355
1.068657846
1.068266388
1.067925321
1.067474762
1.066909962
1.066494366
1.066156118
1.065153819
1.064074484
1.062945072
1.061304933
1.059124939
1.056699223
1.055092386
1.054560734
1.054308348
1.053982712
1.05331964
1.05258105
1.052147425
1.051670414
1.051216331
1.05090344
1.050635834
1.050407427
1.050157213
1.049686377
1.048993233
1.048182385
1.047320337
1.046748134
1.04636231
1.04615508
1.045503818
1.068066974
1.067963998
1.067543969
1.067295077
1.066990112
1.066673797
1.066492673
1.066309268
1.065350974
1.06406525
1.062494072
1.060536744
1.058282079
1.055877493
1.054699091
1.054398609
1.054319822
1.054054937
1.053120651
1.052029843
1.051202387
1.050700143
1.050442841
1.050271944
1.050355875
1.050603092
1.050348381
1.049588122
1.048461259
1.047219627
1.046337048
1.045870383
1.045665407
1.045860123
1.045037523
1.067303067
1.067209837
1.067038206
1.066898415
1.066715924
1.066622418
1.066578116
1.066045138
1.065013075
1.06364036
1.061951245
1.059912159
1.057400316
1.055251035
1.054555627
1.054437856
1.05432357
1.053803719
1.052768319
1.051633888
1.050733969
1.050195468
1.049942715
1.049961838
1.050402301
1.050357107
1.049911799
1.049093111
1.047841961
1.046518915
1.045543457
1.045195528
1.045130667
1.045295811
1.044325496
1.066679897
1.066763237
1.066780154
1.066833918
1.066803353
1.066637468
1.066214794
1.065465568
1.064442259
1.063103998
1.061424536
1.059176692
1.056466527
1.054982678
1.054633466
1.054419984
1.053954376
1.053255999
1.052281814
1.051084836
1.050260789
1.049866506
1.049723296
1.050065928
1.050088924
1.049704179
1.049265276
1.048611784
1.047384805
1.045954082
1.045160921
1.044753572
1.04473162
1.044537261
1.043430775
1.066351938
1.066667159
1.066912317
1.067032591
1.066753367
1.066172975
1.065611451
1.064802838
1.063817185
1.062459953
1.060660545
1.058301348
1.056141552
1.054971574
1.054611127
1.054202394
1.053523975
1.052578838
1.051622783
1.050658119
1.049979057
1.049734341
1.049850643
1.049904605
1.049496401
1.049015731
1.048520857
1.047974826
1.047207551
1.04608519
1.045163248
1.044649313
1.04441243
1.043876388
1.042487212
1.066291335
1.066955206
1.067172129
1.066931329
1.066344397
1.065611368
1.064945183
1.064035713
1.063043391
1.061619546
1.059683858
1.057391284
1.055747508
1.054918387
1.054454119
1.053952436
1.053227347
1.052182868
1.051132544
1.050314175
1.049887697
1.0498467
1.049934372
1.049474316
1.048869146
1.048248684
1.047672311
1.047135612
1.046537602
1.045844274
1.045209797
1.044782165
1.044187596
1.04337529
1.041578724
1.066469567
1.066961513
1.066923877
1.066542547
1.06586249
1.065209049
1.064424566
1.063510459
1.062217673
1.060654102
1.058621386
1.056597013
1.05535349
1.054673305
1.054226355
1.053710234
1.052911237
1.051852511
1.050826769
1.050136826
1.049945154
1.050069315
1.049760129
1.049060997
1.048157205
1.047281381
1.046737065
1.04638958
1.046043935
1.045641758
1.045424468
1.045023031
1.043984641
1.042862239
1.040633649
1.06623655
1.066664118
1.066557192
1.066120092
1.065556948
1.064939561
1.064207888
1.063187874
1.061737537
1.059813772
1.057631838
1.055967886
1.05494984
1.05430414
1.053916146
1.053436
1.052698802
1.051714348
1.050719295
1.050148455
1.050147912
1.050056153
1.049410196
1.048515505
1.047224697
1.046539507
1.046274941
1.046022559
1.045850812
1.045931637
1.045873481
1.045148169
1.04389027
1.04211581
1.040172369
1.065868181
1.066335803
1.066279381
1.06590057
1.065392584
1.064849822
1.0641544
1.063039283
1.061399266
1.059160578
1.056894935
1.055404078
1.054560605
1.053992069
1.053570003
1.05306377
1.052438451
1.051665141
1.050849417
1.050410567
1.050278208
1.049761453
1.048976291
1.04766021
1.046682772
1.046303971
1.046046778
1.045923778
1.046196351
1.046343881
1.04583775
1.04500069
1.043675412
1.042065934
1.040043606
1.065450218
1.06599007
1.066100147
1.065908453
1.065609241
1.065168114
1.064332205
1.062882966
1.061034441
1.058571485
1.056355853
1.054992877
1.054284122
1.053782158
1.053270975
1.052777233
1.052239346
1.051773885
1.05132806
1.050810413
1.050140091
1.049314763
1.048250953
1.047012064
1.046518223
1.046221017
1.04608186
1.046272928
1.046407589
1.046123453
1.045576654
1.044608736
1.043270022
1.041729027
1.040118895
1.065078421
1.065769703
1.06618791
1.066339852
1.066170315
1.065547328
1.064354996
1.06269317
1.060630474
1.058078121
1.056178684
1.054837306
1.054160124
1.053710249
1.053154618
1.052684338
1.05237658
1.052274586
1.051976942
1.051054291
1.049766055
1.048692935
1.047348037
1.046647391
1.046359068
1.04629456
1.046477523
1.046611669
1.046311015
1.045749569
1.04501195
1.043952867
1.042607188
1.04151911
1.040459155
1.064872651
1.065872056
1.066627123
1.06669989
1.066310731
1.065458677
1.064188666
1.062581752
1.060214896
1.058076217
1.056314149
1.055030236
1.05430171
1.053518923
1.052953484
1.052683994
1.052713855
1.052777783
1.05231422
1.051087164
1.049492603
1.047872704
1.046746457
1.046398646
1.046402714
1.046657767
1.046729427
1.046499517
1.04604915
1.045461694
1.044460632
1.043246954
1.042277431
1.041732569
1.041262342
1.066211745
1.06668622
1.066588048
1.066166889
1.065283428
1.064010405
1.062346176
1.06026271
1.058082832
1.056632954
1.055571454
1.054349179
1.05326793
1.052851966
1.052756949
1.052969583
1.052791942
1.052237803
1.051057935
1.049118508
1.04712166
1.046488196
1.04636365
1.046629763
1.046662139
1.046575576
1.046315118
1.045829758
1.0449542
1.043845284
1.043001908
1.042334788
1.042445673
1.041590241
1.066257403
1.066526542
1.066389477
1.065967932
1.06505652
1.063803014
1.062195312
1.060178152
1.058467649
1.057532402
1.056248216
1.054321167
1.053214392
1.052874789
1.052877666
1.052949137
1.052605139
1.052076586
1.050959127
1.04866442
1.046956871
1.046367677
1.046455589
1.046567596
1.046442403
1.046355854
1.046131031
1.045506336
1.044377844
1.043629466
1.043019815
1.042784892
1.042596563
1.041418577
1.066104264
1.066312183
1.066117702
1.065606373
1.064715385
1.063607704
1.062130564
1.060397257
1.059479961
1.058450001
1.05647891
1.054311401
1.053210498
1.052935385
1.052992854
1.052844531
1.052449056
1.051793617
1.050584922
1.048680257
1.047040797
1.046555697
1.046601216
1.046390562
1.046222961
1.046030116
1.045623325
1.044884283
1.04433341
1.043707064
1.043305769
1.043145599
1.042545425
1.041157983
1.065852867
1.065931386
1.065697006
1.065265407
1.064581689
1.063515531
1.062202856
1.061266738
1.060407314
1.058545556
1.056425069
1.054118677
1.053182221
1.052987852
1.053065697
1.052778999
1.052264993
1.051448873
1.050149398
1.048595658
1.04735668
1.047015384
1.046623067
1.046158276
1.045788043
1.045384959
1.04492062
1.044589646
1.044275413
1.043910829
1.043655101
1.0430438
1.042347884
1.040902455
1.065311967
1.065441744
1.065459033
1.06518328
1.064562401
1.063743306
1.062866071
1.06202923
1.060516482
1.058428896
1.056045652
1.053970121
1.053248416
1.053194127
1.053081675
1.052701472
1.052025112
1.051108659
1.050044953
1.048792736
1.048087752
1.047399597
1.046591994
1.045783761
1.045093832
1.044706577
1.044573771
1.044522236
1.044437573
1.044327266
1.043701312
1.042827638
1.041983599
1.040384698
1.064703796
1.065243463
1.065384197
1.065167897
1.064826134
1.064229312
1.063334747
1.062127532
1.060431604
1.058081391
1.055603193
1.054008921
1.053450649
1.05335285
1.05306373
1.052569919
1.05192404
1.051091973
1.050065511
1.049471497
1.048846306
1.047551304
1.046366018
1.045154944
1.044716004
1.044599787
1.044540899
1.044586878
1.044861294
1.044426547
1.043624549
1.04263741
1.041460302
1.039743487
1.064490681
1.065128695
1.065460121
1.065327694
1.064885695
1.064189329
1.063279712
1.06207846
1.060312335
1.057690351
1.055504037
1.054369637
1.053748873
1.053161492
1.052818815
1.052432352
1.051941659
1.051186712
1.050613576
1.05013796
1.048999676
1.047644041
1.045731961
1.044894566
1.044775723
1.044706658
1.044705338
1.045018473
1.044907649
1.044375526
1.043484986
1.042194377
1.040765284
1.039443477
1.064487859
1.065004036
1.065371863
1.065245597
1.064841369
1.064110904
1.063200998
1.061978068
1.060068044
1.057582838
1.055746793
1.054903121
1.053733921
1.052880392
1.052379871
1.052272198
1.051947333
1.051541873
1.051227846
1.050355575
1.049044898
1.047379111
1.045769105
1.045080506
1.044904931
1.044907037
1.045243444
1.045445213
1.044908748
1.044171534
1.043096686
1.04170562
1.040627893
1.039431241
1.064506164
1.065043357
1.065272337
)
;

boundaryField
{
    inlet
    {
        type            fixedValue;
        value           nonuniform 0();
    }
    outlet
    {
        type            inletOutlet;
        inletValue      uniform 1;
        value           nonuniform List<scalar> 
62
(
1.116146188
1.116205239
1.115388721
1.112907776
1.108199267
1.101307594
1.092515805
1.082579023
1.072478968
1.062935902
1.054732501
1.048464332
1.044376778
1.041947338
1.040392065
1.03937988
1.038580245
1.037836884
1.037482996
1.037642932
1.03859314
1.040243982
1.042235259
1.04437675
1.046511888
1.048270324
1.049425141
1.049826898
1.049734026
1.049406577
1.048989568
1.048613435
1.048281719
1.047943665
1.047539028
1.047164319
1.046849534
1.04648504
1.046044254
1.045737787
1.045647042
1.045499673
1.044985256
1.044274016
1.043383107
1.04239358
1.041423276
1.040479573
1.040147308
1.039993525
1.040123377
1.04057139
1.041393928
1.041589967
1.041407488
1.041126199
1.040838241
1.040294481
1.039693409
1.039459114
1.039451878
1.1152379
)
;
    }
    bottom
    {
        type            slip;
    }
    top
    {
        type            slip;
    }
    obstacle
    {
        type            zeroGradient;
    }
    defaultFaces
    {
        type            empty;
    }
    procBoundary23to17
    {
        type            processor;
        value           nonuniform List<scalar> 
39
(
1.125512765
1.124951634
1.124123039
1.123029586
1.122046108
1.121361869
1.12070736
1.120003753
1.119379739
1.118882825
1.118362016
1.11767028
1.116917824
1.115823574
1.114657378
1.113498847
1.146901089
1.147255131
1.147555978
1.147453101
1.147031725
1.14634921
1.145455266
1.144181195
1.142420849
1.14042943
1.138181107
1.136040198
1.134619435
1.13367654
1.133075856
1.132515184
1.13158607
1.130141222
1.128813163
1.127717401
1.126941782
1.126345215
1.126345215
)
;
    }
    procBoundary23to22
    {
        type            processor;
        value           nonuniform List<scalar> 
64
(
1.146863495
1.14644054
1.145115309
1.142204737
1.137107939
1.129486612
1.119678108
1.108383304
1.096738975
1.085867875
1.076627648
1.069535358
1.065196127
1.065196127
1.062212314
1.060689427
1.060064505
1.059860045
1.059871704
1.060290047
1.061369218
1.063132548
1.065404969
1.068030345
1.07052261
1.072568655
1.073709765
1.073709765
1.07472285
1.075359119
1.075613295
1.075589853
1.075456425
1.075254101
1.074973948
1.074522703
1.07385819
1.072976972
1.071942036
1.070868504
1.069896686
1.069156795
1.069156795
1.068828403
1.068597634
1.067946368
1.06722544
1.066556849
1.066059632
1.065666255
1.065522643
1.065318906
1.064955146
1.06460321
1.064231227
1.06400282
1.064883744
1.064883744
1.065106794
1.065069129
1.064861902
1.064598251
1.064013482
1.063722653
)
;
    }
    procBoundary23to28
    {
        type            processor;
        value           nonuniform List<scalar> 2(1.063752409 1.063835792);
    }