/*--------------------------------*- C++ -*----------------------------------*\
  =========                 |
  \\      /  F ield         | OpenFOAM: The Open Source CFD Toolbox
   \\    /   O peration     | Website:  https://openfoam.org
    \\  /    A nd           | Version:  7
     \\/     M anipulation  |
\*---------------------------------------------------------------------------*/
FoamFile
{
    version     2.0;
    format      ascii;
    class       volScalarField;
    location    "1.8";
    object      T;
}
// * * * * * * * * * * * * * * * * * * * * * * * * * * * * * * * * * * * * * //

dimensions      [0 0 0 1 0 0 0];

internalField   nonuniform List<scalar> 
143
(
1.000965304
1.008908973
1.038925111
1.075093467
1.101069238
1.100816838
1.099293654
1.089583111
1.000000033
1.000072947
1.001323116
1.010594838
1.039035931
1.081042456
1.092965502
1.099104673
1.0985177
1
1.000003617
1.000117119
1.001679284
1.012755611
1.04053532
1.071819819
1.097281263
1.097833138
1
1.000000121
1.000006383
1.000168825
1.0024224
1.012406367
1.040799182
1.079876773
1.088069149
1
1.000000003
1.000000222
1.000011128
1.000287292
1.002249424
1.014685788
1.042573429
1.069632766
1
1
1.000000005
1.000000504
1.000021051
1.000263273
1.003137247
1.013748886
1.041672894
1
1
1
1.000000016
1.000000992
1.000020013
1.000416068
1.002774614
1.016091657
1
1
1
1
1.000000029
1.00000103
1.000035528
1.000364429
1.003734122
1
1
1
1
1.000000001
1.000000036
1.000002003
1.000031688
1.000534289
1
1
1
1
1
1.000000001
1.000000072
1.000001795
1.000048116
1
1
1
1
1
1
1.000000002
1.000000064
1.000002769
1
1
1
1
1
1
1
1.000000001
1.000000104
1
1
1
1
1
1
1
1
1.000000003
1
1
1
1
1
1
1
1
1
1
1
1
1
1
1
1
1
1
1
1
1
1
1
1
1
1
1
)
;

boundaryField
{
    inlet
    {
        type            fixedValue;
        value           nonuniform 0();
    }
    outlet
    {
        type            inletOutlet;
        inletValue      nonuniform 0();
        value           nonuniform 0();
    }
    bottom
    {
        type            slip;
    }
    top
    {
        type            slip;
    }
    obstacle
    {
        type            zeroGradient;
    }
    defaultFaces
    {
        type            empty;
    }
    procBoundary33to26
    {
        type            processor;
        value           nonuniform List<scalar> 6(0.9999999949 0.9999999999 1 1 1 1);
    }
    procBoundary33to27
    {
        type            processor;
        value           nonuniform List<scalar> 10(1.007784 1.035596661 1.077489879 1.100371311 1.10630095 1.10434845 1.091939194 1.067937502 1.000003885 1.000003885);
    }
    procBoundary33to32
    {
        type            processor;
        value           nonuniform List<scalar> 9(1 1 1 1 1 1 1 1 1);
    }
    procBoundary33to34
    {
        type            processor;
        value           nonuniform List<scalar> 
16
(
1.06909483
1.089630764
1.096125305
1.093274234
1.091870169
1.077325368
1.042798095
1.01480732
1.003237553
1.000451093
1.000040474
1.000002364
1.000000095
1.000000003
1
1
)
;
    }
}


// ************************************************************************* //
