/*--------------------------------*- C++ -*----------------------------------*\
  =========                 |
  \\      /  F ield         | OpenFOAM: The Open Source CFD Toolbox
   \\    /   O peration     | Website:  https://openfoam.org
    \\  /    A nd           | Version:  7
     \\/     M anipulation  |
\*---------------------------------------------------------------------------*/
FoamFile
{
    version     2.0;
    format      ascii;
    class       volScalarField;
    location    "0.3";
    object      p;
}
// * * * * * * * * * * * * * * * * * * * * * * * * * * * * * * * * * * * * * //

dimensions      [1 -1 -2 0 0 0 0];

internalField   nonuniform List<scalar> 
22
(
1
1.055984757
1.121272741
1.193780705
1.003266485
1.011681074
1.025663737
1.000020595
1.000150869
1.000660482
1
1
1
1
1
1
1
1
1
1
1
1
)
;

boundaryField
{
    inlet
    {
        type            fixedValue;
        value           nonuniform 0();
    }
    outlet
    {
        type            zeroGradient;
    }
    bottom
    {
        type            slip;
    }
    top
    {
        type            slip;
    }
    obstacle
    {
        type            zeroGradient;
    }
    defaultFaces
    {
        type            empty;
    }
    procBoundary19to13
    {
        type            processor;
        value           nonuniform List<scalar> 5(1 1 1 1 1.055984759);
    }
    procBoundary19to18
    {
        type            processor;
        value           nonuniform List<scalar> 3(1 1 1);
    }
    procBoundary19to20
    {
        type            processor;
        value           nonuniform List<scalar> 3(1.261486431 1.048013646 1.002089701);
    }
    procBoundary19to24
    {
        type            processor;
        value           uniform 1;
    }
    procBoundary19to25
    {
        type            processor;
        value           nonuniform List<scalar> 7(1.000000009 1.000000056 1.000001529 1.000000009 1 1 1);
    }
}


// ************************************************************************* //
