/*--------------------------------*- C++ -*----------------------------------*\
  =========                 |
  \\      /  F ield         | OpenFOAM: The Open Source CFD Toolbox
   \\    /   O peration     | Website:  https://openfoam.org
    \\  /    A nd           | Version:  7
     \\/     M anipulation  |
\*---------------------------------------------------------------------------*/
FoamFile
{
    version     2.0;
    format      ascii;
    class       volVectorField;
    location    "5";
    object      U;
}
// * * * * * * * * * * * * * * * * * * * * * * * * * * * * * * * * * * * * * //

dimensions      [0 1 -1 0 0 0 0];

internalField   nonuniform List<vector> 
2222
(
(2.963897422 -4.714043439e-05 0)
(2.963760723 0.0007629319698 0)
(2.964348488 0.0007291049658 0)
(2.964689635 0.0001051147897 0)
(2.960849295 0.0009001424413 0)
(2.960939004 0.00148735853 0)
(2.960577744 0.001267677766 0)
(2.960242502 0.001197460387 0)
(2.960523506 0.001885995491 0)
(2.960222959 0.00169195305 0)
(2.960437231 0.001034854759 0)
(2.959972066 0.0001479220983 0)
(2.960198661 0.0001643131372 0)
(2.959904329 0.0001357512627 0)
(2.959932675 0.0005538167424 0)
(2.960278281 0.00128600608 0)
(2.960606564 0.001753074817 0)
(2.961154896 0.001986290299 0)
(2.961659928 0.001421362979 0)
(2.961700219 8.262057556e-05 0)
(2.961426485 -0.000955459854 0)
(2.96101582 -0.00141243581 0)
(2.961346566 -0.001403571517 0)
(2.961867938 -0.001162079834 0)
(2.962338621 -0.0009582329601 0)
(2.962367455 -0.0008348925944 0)
(2.962491828 -0.000456142319 0)
(2.962486451 -0.0006146384219 0)
(2.962216954 -0.0005071870784 0)
(2.962205558 -0.0003657449827 0)
(2.962077095 -7.67768978e-05 0)
(2.962153268 0.000299365357 0)
(2.96248322 0.0004728397007 0)
(2.962669556 0.0004660147799 0)
(2.958688446 -0.0004386592318 0)
(2.958995636 -0.0002346799774 0)
(2.958794274 0.000655611576 0)
(2.958457185 0.001346824709 0)
(2.958209784 0.001577059842 0)
(2.958069332 0.001783383814 0)
(2.957695824 0.001918484517 0)
(2.957534079 0.001754873843 0)
(2.957858063 0.001430383956 0)
(2.95785118 0.001128349029 0)
(2.957822149 0.0008358200841 0)
(2.957559967 0.0003460279835 0)
(2.95769097 -0.0006054449491 0)
(2.95751073 -0.0004272400989 0)
(2.957663112 0.0002275663256 0)
(2.957966029 0.0005949353543 0)
(2.958204738 0.0011400547 0)
(2.958540044 0.001021810414 0)
(2.958791686 0.001114179616 0)
(2.958892323 0.0004614593382 0)
(2.958729098 -0.0003035890669 0)
(2.958670567 -0.0006002396344 0)
(2.959127737 -0.0006856382924 0)
(2.959646259 -0.0009632225056 0)
(2.9599129 -0.0009882590139 0)
(2.960082067 -0.0006567545965 0)
(2.960355221 -0.0001848925552 0)
(2.960095358 -3.260192994e-05 0)
(2.960194809 6.737716125e-05 0)
(2.960181285 -0.0003113334341 0)
(2.96028791 -0.0002998456517 0)
(2.960407149 -0.0001660314826 0)
(2.960645877 0.0003246679258 0)
(2.960475809 0.0001015968896 0)
(2.956170889 -0.001398800742 0)
(2.956443708 -0.000971549106 0)
(2.956288551 -1.316604185e-05 0)
(2.955940754 0.0006251154019 0)
(2.955674889 0.0008246087206 0)
(2.955472602 0.0008651102202 0)
(2.955002339 0.001039782558 0)
(2.954926144 0.001026955336 0)
(2.955448577 0.0008070290704 0)
(2.955474444 0.0007809114125 0)
(2.955440272 0.001097348044 0)
(2.955366004 0.0005402447943 0)
(2.955644868 7.769591716e-05 0)
(2.955461032 -0.0001423034322 0)
(2.955537679 -0.000307625458 0)
(2.955789204 -0.0001979039002 0)
(2.955873646 0.0004273799364 0)
(2.956025947 0.001041956745 0)
(2.956017095 0.001505518011 0)
(2.956341388 0.001846356466 0)
(2.956521019 0.001317843321 0)
(2.956277156 0.0008313040539 0)
(2.956362258 0.0001818654903 0)
(2.956621803 -0.0002737410317 0)
(2.956997096 -0.0003894443957 0)
(2.957595597 0.0001165163912 0)
(2.957777687 0.0005129081377 0)
(2.957772563 0.0007093657777 0)
(2.957658112 0.0005818928145 0)
(2.957858891 0.0004498082669 0)
(2.958166978 8.93094866e-06 0)
(2.958397825 -0.0003652771459 0)
(2.958628314 -0.0001950958528 0)
(2.958114539 0.0002893813302 0)
(2.953176622 -0.001849419404 0)
(2.95331495 -0.001428456644 0)
(2.953218389 -0.0009660070964 0)
(2.953194208 -0.00038831809 0)
(2.953100058 -7.590971291e-05 0)
(2.952742568 -1.862755957e-05 0)
(2.952422171 0.0002453679616 0)
(2.952608836 0.000276732176 0)
(2.952953374 0.0002525202765 0)
(2.95295294 0.0004144864129 0)
(2.953119637 0.0004524861135 0)
(2.953193205 0.0007051596618 0)
(2.953529641 0.000206288145 0)
(2.953602021 -0.0004443786496 0)
(2.953243514 -0.001264721968 0)
(2.953220313 -0.0009587926787 0)
(2.953478496 -0.0005452042376 0)
(2.95346362 0.0003452678045 0)
(2.953425237 0.001062359524 0)
(2.953546507 0.001121515947 0)
(2.953647275 0.0006819481586 0)
(2.953500627 0.0001682358591 0)
(2.953582274 0.0006311483373 0)
(2.953934024 0.001027492655 0)
(2.954305287 0.0009095449023 0)
(2.954564832 0.0001862292026 0)
(2.954847731 0.0001671068937 0)
(2.954907625 0.0007156637125 0)
(2.954926416 0.000898793811 0)
(2.95525236 0.0008215465173 0)
(2.955778475 0.0003816857051 0)
(2.956238115 0.0001535388409 0)
(2.956166443 -0.0001570260941 0)
(2.955489946 -0.0001649957351 0)
(2.950564607 -0.001378014106 0)
(2.950434874 -0.001899180639 0)
(2.949874034 -0.001913588395 0)
(2.949907644 -0.001361324546 0)
(2.950066112 -0.0009503512874 0)
(2.949720455 -0.0006418116867 0)
(2.949666746 -0.0004242021183 0)
(2.950096209 -0.0006125003396 0)
(2.950132259 -0.0003614632607 0)
(2.950361489 -0.0003128160297 0)
(2.950463968 -0.0003363226821 0)
(2.950667963 0.0001127187319 0)
(2.950913948 6.174191359e-05 0)
(2.950981518 -0.0006988074456 0)
(2.950841377 -0.001153194208 0)
(2.950599983 -0.001522101489 0)
(2.950777171 -0.00123473132 0)
(2.950657976 -0.0003247168896 0)
(2.950543015 0.0007339882197 0)
(2.950606652 0.001360228832 0)
(2.950750944 0.001538825499 0)
(2.950810374 0.001203405143 0)
(2.950684216 0.0008446816363 0)
(2.950904019 0.0005078003576 0)
(2.951097189 0.0004289842618 0)
(2.95137464 0.0007858582917 0)
(2.951752819 0.0008670943738 0)
(2.951741688 0.0006574841165 0)
(2.951901585 0.0006460886747 0)
(2.952192504 0.0007597724236 0)
(2.952744538 0.000696024507 0)
(2.953363609 0.0002019630686 0)
(2.95330542 -6.267763169e-05 0)
(2.952477086 -4.968865467e-05 0)
(2.947668812 -0.0007444227337 0)
(2.947138407 -0.001813769184 0)
(2.946678597 -0.001749768244 0)
(2.946630193 -0.001503247552 0)
(2.946881629 -0.001087813411 0)
(2.946926322 -0.0005799742794 0)
(2.947089332 -0.0005071197171 0)
(2.947390176 -0.0005836753867 0)
(2.947601119 -0.001093123437 0)
(2.947563254 -0.001261539338 0)
(2.94761758 -0.001226830333 0)
(2.947774813 -0.0005855282719 0)
(2.948205267 -0.0003873381197 0)
(2.948510738 -0.0003696496013 0)
(2.948417986 -0.0006928455513 0)
(2.948033709 -0.001284465572 0)
(2.947807134 -0.001573854082 0)
(2.947796701 -0.00105384936 0)
(2.947508019 -0.0001154323921 0)
(2.947522493 0.0006259969824 0)
(2.947779853 0.0009067915262 0)
(2.947742518 0.0007461868747 0)
(2.94761681 0.0006622288559 0)
(2.947686776 0.0007020720216 0)
(2.94776102 0.0007039312387 0)
(2.94803691 0.0004329181146 0)
(2.948287822 0.0002945179985 0)
(2.948351644 0.000243913894 0)
(2.948433992 0.0003239174243 0)
(2.948722084 0.0002753799392 0)
(2.949208495 0.0003430091683 0)
(2.949675844 0.0002921153737 0)
(2.949658466 -0.0001131914804 0)
(2.949076341 -0.000260518189 0)
(2.943914423 0.0003074398386 0)
(2.943423936 -0.000494443285 0)
(2.943452025 -0.001095155141 0)
(2.943614476 -0.00123525158 0)
(2.944040581 -0.001208338443 0)
(2.944290607 -0.00104174652 0)
(2.944632013 -0.0008392785595 0)
(2.944985669 -0.0006072577607 0)
(2.944977685 -0.0006296815034 0)
(2.945003424 -0.0005537498505 0)
(2.94501981 -0.0006665209884 0)
(2.94503786 -0.001169270292 0)
(2.945286224 -0.0006738702454 0)
(2.945633413 -0.0001536720593 0)
(2.945369374 -0.0002759332627 0)
(2.945264304 -0.0006952278911 0)
(2.944822025 -0.001434912997 0)
(2.944366781 -0.001419661669 0)
(2.944025623 -0.0009061608872 0)
(2.944026357 0.0001497976047 0)
(2.944444556 0.0009067482422 0)
(2.944395907 0.001017514059 0)
(2.944306162 0.0006150146091 0)
(2.94435955 0.0001805885569 0)
(2.944371779 7.117610012e-05 0)
(2.944384958 0.0003479363327 0)
(2.944451927 0.0003449890169 0)
(2.944506929 1.569347939e-05 0)
(2.944582364 -0.0001039313138 0)
(2.944765296 -8.42678759e-05 0)
(2.945209469 -8.292289169e-05 0)
(2.945616993 -9.282193182e-05 0)
(2.94570857 9.494107382e-05 0)
(2.945372691 0.0001680210919 0)
(2.940068325 0.001618300633 0)
(2.939797986 0.001426350209 0)
(2.939609941 0.0007402789953 0)
(2.939985919 0.0003707959501 0)
(2.940560285 0.0001332530238 0)
(2.940901352 -2.417962009e-05 0)
(2.941481921 6.956528784e-05 0)
(2.942077048 0.0004382776312 0)
(2.94216547 0.0007880507165 0)
(2.942346343 0.0008299906397 0)
(2.942354695 0.0003858621935 0)
(2.942090602 -0.0004408978238 0)
(2.942114766 -0.0006492377036 0)
(2.942318876 -0.0003640483693 0)
(2.942119463 -0.0003207336536 0)
(2.941900865 -0.0003320380594 0)
(2.941439985 -0.0009570076362 0)
(2.941020276 -0.001517535976 0)
(2.940420721 -0.001516723449 0)
(2.940655774 -0.0008365903496 0)
(2.94102217 -0.0001874641152 0)
(2.940979774 0.0001131531082 0)
(2.940810028 0.0002531607468 0)
(2.940762151 0.0002852854563 0)
(2.940651974 0.0001081407844 0)
(2.940594353 -0.0002227791276 0)
(2.940525202 -0.0004435647229 0)
(2.940478193 -0.0002420619274 0)
(2.940527777 -0.000260654251 0)
(2.940684847 -0.0002951534006 0)
(2.940948838 -0.0003254019732 0)
(2.94123882 -0.0002198019314 0)
(2.941494875 -0.0002466736603 0)
(2.941397512 -0.0001091056253 0)
(2.935612379 0.001765202498 0)
(2.935537401 0.001978625145 0)
(2.935664599 0.001746329234 0)
(2.936148433 0.001242508734 0)
(2.936765731 0.001339926484 0)
(2.937319517 0.00115756082 0)
(2.937930834 0.00106471216 0)
(2.938537139 0.001125950236 0)
(2.938578306 0.001491437352 0)
(2.938528031 0.001423800345 0)
(2.938590723 0.001295417281 0)
(2.938676987 0.0008057982076 0)
(2.93864312 -8.822713477e-05 0)
(2.938734027 -0.0004743040536 0)
(2.938624109 -0.0002522454457 0)
(2.938246231 -0.0001344800734 0)
(2.93774443 -0.0003871399211 0)
(2.937356973 -0.001111459596 0)
(2.936901987 -0.001469847949 0)
(2.936704561 -0.001333444453 0)
(2.936872792 -0.000769708408 0)
(2.937085146 -0.0001745919461 0)
(2.937145473 2.273218498e-05 0)
(2.937087039 -0.0002050407002 0)
(2.936888348 -0.0003522999927 0)
(2.936616325 -0.0002066013239 0)
(2.936450489 -0.0001627815139 0)
(2.936458131 -0.0002314004591 0)
(2.936467859 -0.0001810279781 0)
(2.936517801 -5.494762213e-05 0)
(2.936635506 -7.899608605e-05 0)
(2.936873504 -0.0001344745141 0)
(2.937119629 -0.0001069155012 0)
(2.937365312 -2.750361059e-06 0)
(2.931967115 0.0008814512371 0)
(2.931438529 0.001642385246 0)
(2.931253251 0.001933207895 0)
(2.931493974 0.001783464724 0)
(2.932001368 0.001817521689 0)
(2.932747167 0.001720096662 0)
(2.93341541 0.002131176214 0)
(2.933960012 0.002301293089 0)
(2.934504368 0.002031576555 0)
(2.934528937 0.00163982603 0)
(2.934506947 0.00172587444 0)
(2.934578501 0.00162344909 0)
(2.934728215 0.001451655874 0)
(2.934856651 0.0004890119803 0)
(2.935035981 3.410750988e-05 0)
(2.934835788 -3.51210433e-05 0)
(2.934435005 0.0001033470024 0)
(2.934006475 0.0002386439871 0)
(2.933511687 -0.0002919871762 0)
(2.933254647 -0.001076745025 0)
(2.933160629 -0.001571726118 0)
(2.93339027 -0.001507382335 0)
(2.933564315 -0.001012142656 0)
(2.933433236 -0.0006161204872 0)
(2.933319209 -0.0003737984331 0)
(2.933058547 -0.0002462233592 0)
(2.932751557 -0.0001123575826 0)
(2.932636672 -8.425145904e-05 0)
(2.932529826 -0.0001054359421 0)
(2.932422509 -4.788263769e-05 0)
(2.932309389 3.2165786e-05 0)
(2.932361746 0.0001384278503 0)
(2.932675177 6.605442385e-06 0)
(2.933004759 -0.0003304022129 0)
(2.933498889 -0.0004531584015 0)
(2.92835179 -0.0002220608916 0)
(2.927910172 0.0007826693426 0)
(2.927681038 0.001494735378 0)
(2.927788506 0.001751420674 0)
(2.928357635 0.001687832353 0)
(2.929033199 0.001825526309 0)
(2.929821917 0.001618854473 0)
(2.930349601 0.001431565265 0)
(2.930675417 0.001352574929 0)
(2.930696342 0.001325419896 0)
(2.93068331 0.001393542584 0)
(2.93066013 0.001484403377 0)
(2.930624863 0.001410565583 0)
(2.93089051 0.001028919189 0)
(2.931145939 0.0004346426324 0)
(2.930982954 0.0003716975359 0)
(2.930594472 0.0004238928822 0)
(2.930150888 0.0005220067446 0)
(2.929871633 0.0006513877212 0)
(2.929592802 -2.308925937e-05 0)
(2.929676526 -0.0008462870617 0)
(2.929848613 -0.0009518736431 0)
(2.92984961 -0.0007967715381 0)
(2.929699116 -0.0007808000605 0)
(2.929554857 -0.0007447511794 0)
(2.92933138 -0.0004154140781 0)
(2.929096585 0.0001224076233 0)
(2.928918671 0.0002574177073 0)
(2.928796927 0.000137155123 0)
(2.928735424 0.0001355237872 0)
(2.928656577 0.00026889421 0)
(2.928629582 0.0003509257762 0)
(2.928789394 0.0002155416969 0)
(2.929164731 -3.206911416e-05 0)
(2.929761004 -0.0003795396213 0)
(2.924841333 -0.001017085727 0)
(2.92461313 -0.0004797503603 0)
(2.92460953 0.0002099350489 0)
(2.924729498 0.0009688295674 0)
(2.925287739 0.001207612758 0)
(2.925649837 0.001313269408 0)
(2.926435208 0.001091118416 0)
(2.926982237 0.0006629062031 0)
(2.927115611 0.0005860501234 0)
(2.926898083 0.0007494868349 0)
(2.926794612 0.0008324505247 0)
(2.926793425 0.0009589892524 0)
(2.926950749 0.001128666985 0)
(2.927048828 0.001195158588 0)
(2.927202395 0.00085443528 0)
(2.92710587 0.0006456067813 0)
(2.926897092 0.0006699464098 0)
(2.926497318 0.0008469309902 0)
(2.926159375 0.001035065621 0)
(2.926080717 0.0007936154852 0)
(2.926105681 0.0001398102682 0)
(2.92616232 -0.0004427597827 0)
(2.926145373 -0.0005597716707 0)
(2.926101382 -0.0006144530592 0)
(2.925977266 -0.0005162982097 0)
(2.925857453 -0.0002451039905 0)
(2.925699636 4.91719964e-05 0)
(2.925483138 0.0002407396752 0)
(2.925484706 0.0002530283983 0)
(2.925537112 0.0001504995908 0)
(2.925499453 0.0001711036925 0)
(2.925538971 0.0002558671001 0)
(2.925540666 0.0001968172947 0)
(2.925729148 7.630373904e-05 0)
(2.926349015 -0.0002573246726 0)
(2.921251894 -0.001660766161 0)
(2.921300181 -0.001404939183 0)
(2.921441116 -0.0008540006326 0)
(2.92164677 -0.0004390079022 0)
(2.921954285 7.557690215e-05 0)
(2.922393157 0.000378193798 0)
(2.922822509 0.0005431698631 0)
(2.923173989 0.0003733193353 0)
(2.923409243 2.628831435e-05 0)
(2.923440429 -8.429243723e-05 0)
(2.923385078 -6.334215782e-05 0)
(2.923488563 5.977127339e-05 0)
(2.923473753 0.0005967126039 0)
(2.923492123 0.0009901375817 0)
(2.923592586 0.0009862734143 0)
(2.923562099 0.0008770684991 0)
(2.92348701 0.0007951185363 0)
(2.92319827 0.0009082959903 0)
(2.922815434 0.001128179904 0)
(2.922636253 0.001192010423 0)
(2.922611322 0.0009683259201 0)
(2.922668434 0.0003333435138 0)
(2.922590954 0.0001611481022 0)
(2.922603393 4.355178541e-05 0)
(2.922656964 3.192539952e-05 0)
(2.92266125 -3.648777076e-06 0)
(2.922614214 3.750446498e-05 0)
(2.92257588 0.000130500976 0)
(2.922611147 0.0001324073621 0)
(2.922652204 0.0001351226712 0)
(2.922636587 0.0002313119862 0)
(2.922736237 0.0001824138296 0)
(2.92275242 0.0001826348614 0)
(2.922845158 0.0002135510594 0)
(2.923273087 2.909586089e-06 0)
(2.918109573 -0.001565436299 0)
(2.917764845 -0.001826580632 0)
(2.917898721 -0.001583496989 0)
(2.918342903 -0.001174013979 0)
(2.918683031 -0.0006536397307 0)
(2.919027183 -0.0002125274418 0)
(2.91932598 0.0002401920432 0)
(2.919507224 0.0003527033448 0)
(2.919592632 -8.908085547e-06 0)
(2.919668104 -0.0005878130001 0)
(2.91991302 -0.0008329497681 0)
(2.920158748 -0.0004951631002 0)
(2.920261463 -2.403472307e-05 0)
(2.92026732 0.0005577161108 0)
(2.920336755 0.0007748898272 0)
(2.920439093 0.000692617364 0)
(2.920357483 0.0007067082629 0)
(2.920118322 0.0008573495009 0)
(2.919886641 0.0009378286459 0)
(2.919555449 0.001113518068 0)
(2.919410086 0.001038945434 0)
(2.919450167 0.0006722296376 0)
(2.9195253 0.0004064781265 0)
(2.919560249 0.0004358755507 0)
(2.919596269 0.0005242164735 0)
(2.91964753 0.000393064509 0)
(2.91973824 8.340638804e-05 0)
(2.919835993 -8.263214211e-05 0)
(2.919940973 -7.653513046e-05 0)
(2.920026422 1.229028869e-05 0)
(2.920124136 2.158171365e-05 0)
(2.92023561 -5.112520329e-05 0)
(2.920297936 -8.812484313e-05 0)
(2.920444026 -8.197935004e-05 0)
(2.920504254 -3.123086241e-06 0)
(2.915219256 -0.0004605065403 0)
(2.914746569 -0.001510774374 0)
(2.914504878 -0.001831576418 0)
(2.914847495 -0.001596516747 0)
(2.915397767 -0.001220918967 0)
(2.915750735 -0.000648018014 0)
(2.916302588 -0.0003715236204 0)
(2.916420616 -2.532724678e-05 0)
(2.916544015 -0.0001373509081 0)
(2.916414224 -0.000552815796 0)
(2.91662886 -0.000672332935 0)
(2.916779594 -0.0007473104191 0)
(2.917102136 -0.0005726507299 0)
(2.917311663 -0.0001024167779 0)
(2.917451417 0.0001795415941 0)
(2.917467578 0.0003666349271 0)
(2.9173403 0.0004856980222 0)
(2.917205081 0.0004797175095 0)
(2.916971206 0.0005338135837 0)
(2.916718532 0.0008049754972 0)
(2.91657415 0.0009188299551 0)
(2.916630285 0.0008815639716 0)
(2.916814753 0.0005475158188 0)
(2.916787946 0.0004550447422 0)
(2.916767838 0.0005360607723 0)
(2.916799373 0.0004556152197 0)
(2.916926564 0.0001489341004 0)
(2.917170425 -0.000185597832 0)
(2.917304149 -0.0002284429886 0)
(2.917508101 -0.0001621435328 0)
(2.917729834 -0.0001780379576 0)
(2.917836794 -0.0002348889665 0)
(2.917970368 -0.0003093200829 0)
(2.918075731 -0.0002960308761 0)
(2.917857469 -2.825316848e-06 0)
(2.911729411 0.0007124608619 0)
(2.912002358 -0.0003374326529 0)
(2.911834872 -0.001119664839 0)
(2.911995112 -0.001522939134 0)
(2.912320897 -0.001502454562 0)
(2.912786445 -0.0009847166736 0)
(2.913127208 -0.0004731818369 0)
(2.913236774 0.0002996566561 0)
(2.913525536 0.0005971924501 0)
(2.913761745 0.0005737593398 0)
(2.913968897 0.0001609571267 0)
(2.913872411 -0.0005017304767 0)
(2.913868284 -0.0009441407666 0)
(2.914377302 -0.0007208854762 0)
(2.91457231 -0.0003774446596 0)
(2.91456293 -6.795732064e-06 0)
(2.914556337 -4.286470585e-05 0)
(2.914439658 -3.740531245e-05 0)
(2.914068306 9.071417857e-05 0)
(2.913823252 0.0002459447559 0)
(2.913629671 0.0006540648052 0)
(2.913698716 0.0006268029104 0)
(2.913841749 0.0003264028501 0)
(2.913876661 0.0002641276709 0)
(2.913976826 0.0002743559072 0)
(2.914088811 0.000220603038 0)
(2.914260091 7.527947224e-05 0)
(2.91441498 -8.738769802e-05 0)
(2.914634339 -0.0001272375817 0)
(2.914898609 -0.0001699256243 0)
(2.915220257 -9.528570929e-05 0)
(2.915388785 -0.0001570045371 0)
(2.915538397 -0.0002867252721 0)
(2.915474777 -0.0002882875289 0)
(2.915093975 3.393307059e-06 0)
(2.908529632 0.001230520144 0)
(2.908674313 0.0007275015411 0)
(2.90906367 3.088170114e-05 0)
(2.90925069 -0.0007732899374 0)
(2.909465359 -0.001057020881 0)
(2.909826462 -0.0008730172751 0)
(2.909981625 -0.0002112401427 0)
(2.91012809 0.0007793185915 0)
(2.910281427 0.001362664252 0)
(2.910562037 0.001631816216 0)
(2.910700315 0.00132791725 0)
(2.910856032 0.0005073846943 0)
(2.910892615 -0.0005100106818 0)
(2.911034032 -0.001051170555 0)
(2.911504574 -0.0006671426611 0)
(2.911734186 -0.0004900182685 0)
(2.911718758 -0.0004421191274 0)
(2.911528252 -0.0003757541066 0)
(2.911171653 -0.000223287495 0)
(2.910883155 -6.428936402e-05 0)
(2.910723476 0.0001490376469 0)
(2.910712427 0.0004572617817 0)
(2.910730854 0.000344201866 0)
(2.910921691 3.66398067e-05 0)
(2.911152609 -0.0001228062056 0)
(2.911358673 -0.0001406812235 0)
(2.911594541 -0.0001016036337 0)
(2.911669023 0.0001039563286 0)
(2.911803371 0.000230498806 0)
(2.912119546 0.0002396015323 0)
(2.912525087 0.0003687486371 0)
(2.912789584 0.0003114283505 0)
(2.912927626 0.0001331950628 0)
(2.912803613 -6.397703055e-05 0)
(2.912258936 -3.93986006e-05 0)
(2.905844207 0.001285535419 0)
(2.905521377 0.001158408802 0)
(2.905690254 0.0008089215591 0)
(2.90603736 0.0002966899292 0)
(2.906489925 -0.0002346849764 0)
(2.906709494 -0.0005155457799 0)
(2.906827931 -0.0001314313784 0)
(2.907119357 0.0008467162138 0)
(2.90730884 0.001606347784 0)
(2.907222508 0.001984973374 0)
(2.907349966 0.001867244187 0)
(2.907575154 0.001526761124 0)
(2.907804172 0.0005009910236 0)
(2.907818888 -0.0006774562102 0)
(2.908382023 -0.0008827558227 0)
(2.908609582 -0.0009186876226 0)
(2.908522433 -0.0006381312338 0)
(2.908387667 -0.0004970396992 0)
(2.908173289 -0.0004269635183 0)
(2.907892404 -0.0003518897423 0)
(2.907723848 -0.0002054161634 0)
(2.907570196 0.0002027691992 0)
(2.907539246 0.0002538572081 0)
(2.907756301 -5.879547334e-06 0)
(2.908003576 -0.000280497005 0)
(2.90832733 -0.000362562763 0)
(2.908551528 -0.0002111307433 0)
(2.908767799 0.0001828890343 0)
(2.908882474 0.0004275654013 0)
(2.909099953 0.000559704632 0)
(2.909449073 0.000670234465 0)
(2.909769667 0.0005927506389 0)
(2.909892004 0.000396109104 0)
(2.909810713 6.767141927e-05 0)
(2.909256038 -0.0001273255771 0)
(2.902874769 0.00110960297 0)
(2.90270472 0.001132560615 0)
(2.902554736 0.00108875323 0)
(2.902845818 0.0009468059871 0)
(2.90322172 0.0005319908928 0)
(2.903502154 -0.0001991927273 0)
(2.90374836 -0.0002155723843 0)
(2.904205608 0.0002403818791 0)
(2.904455099 0.001262904795 0)
(2.904425286 0.001956148289 0)
(2.9043138 0.002035705571 0)
(2.904363822 0.002022431003 0)
(2.904457649 0.001400594701 0)
(2.904748329 0.0003682737232 0)
(2.905050873 -0.0006649560344 0)
(2.905045196 -0.001036513992 0)
(2.905193323 -0.000743572 0)
(2.905149261 -0.0004710491598 0)
(2.904935262 -0.0004393883308 0)
(2.904639556 -0.0005054310776 0)
(2.904445915 -0.0004108141424 0)
(2.904296809 -0.0001084348345 0)
(2.904217565 0.0001698107756 0)
(2.904340891 6.007717435e-05 0)
(2.904596545 -0.0002106001862 0)
(2.904915863 -0.0003418881035 0)
(2.90515071 -0.0002282051973 0)
(2.905505308 7.480214163e-07 0)
(2.905746499 0.0003029396481 0)
(2.90591077 0.0006030109097 0)
(2.906121295 0.0006875726866 0)
(2.906451362 0.0005640092091 0)
(2.906553013 0.0003678688291 0)
(2.906449806 9.116726614e-05 0)
(2.905969324 -0.0001716938149 0)
(2.899620215 0.0005762427651 0)
(2.899547773 0.001027033695 0)
(2.899537039 0.001011764794 0)
(2.899634293 0.001136416677 0)
(2.89988046 0.0008038395293 0)
(2.900219366 0.0001332718695 0)
(2.900487453 -0.000421210467 0)
(2.90095058 -0.0005669361049 0)
(2.901168207 6.422145835e-05 0)
(2.9012621 0.001183747204 0)
(2.901282522 0.001936101416 0)
(2.901108723 0.002093513946 0)
(2.901182724 0.001800273253 0)
(2.901321843 0.001216323981 0)
(2.901422782 0.0001697478924 0)
(2.901550483 -0.000346250509 0)
(2.901692954 -0.0004813175136 0)
(2.901585135 -0.0003712273068 0)
(2.901345449 -0.0003118641477 0)
(2.90107895 -0.0004084723643 0)
(2.900926919 -0.0004905356328 0)
(2.900819852 -0.0004242271904 0)
(2.900855183 -0.0001634200254 0)
(2.900933677 6.864668268e-05 0)
(2.901062395 4.480805869e-05 0)
(2.901315349 -0.0001145255605 0)
(2.901615505 -0.000240406397 0)
(2.901923565 -0.0002125663044 0)
(2.902187465 -3.145421214e-05 0)
(2.902385815 0.000253796923 0)
(2.902669341 0.0003714016545 0)
(2.902918534 0.0002370946925 0)
(2.902969449 0.0001032948454 0)
(2.902831238 2.342764319e-05 0)
(2.9023737 -8.822401424e-05 0)
(2.895966657 0.000211463579 0)
(2.895989989 0.0005341813355 0)
(2.896183557 0.0008714150823 0)
(2.896364731 0.0009675570427 0)
(2.896528964 0.0008434412296 0)
(2.896734722 0.0004846453339 0)
(2.89689931 -0.0002806508905 0)
(2.897120739 -0.0009514554596 0)
(2.897510485 -0.0009124259746 0)
(2.89766346 -0.000286575289 0)
(2.897679381 0.001070539678 0)
(2.897667288 0.001938448636 0)
(2.897532569 0.001784046757 0)
(2.897633303 0.001482370382 0)
(2.897709664 0.0009978790096 0)
(2.897901528 0.0005467047872 0)
(2.897888755 -5.796172004e-06 0)
(2.897716965 -0.0002602480606 0)
(2.897530378 -0.0002034655074 0)
(2.897321521 -0.0002445417457 0)
(2.89717649 -0.0004378026805 0)
(2.897074194 -0.0005930543111 0)
(2.89721316 -0.0006163605363 0)
(2.897331677 -0.0001952956047 0)
(2.897459075 0.0001242025386 0)
(2.897525663 5.767030163e-05 0)
(2.89779454 -0.0001692985877 0)
(2.898044747 -0.0003138181713 0)
(2.898290695 -0.000216265147 0)
(2.898531495 -7.886136804e-05 0)
(2.89887661 -0.0001027148639 0)
(2.899090497 -0.0001591829615 0)
(2.899107392 -0.0001554222474 0)
(2.898977434 -6.891519627e-05 0)
(2.898584426 -7.364990842e-05 0)
(2.892006896 0.0001051956775 0)
(2.892150384 6.812995624e-05 0)
(2.892370468 0.0004124373755 0)
(2.892797555 0.0007865599944 0)
(2.892881319 0.000941484257 0)
(2.893009535 0.0008502325163 0)
(2.893178752 0.0002308952703 0)
(2.893105189 -0.0008293507712 0)
(2.893370745 -0.001260198188 0)
(2.893709061 -0.001093704464 0)
(2.893726243 -0.0002481582247 0)
(2.893772113 0.001157636376 0)
(2.893759488 0.001803528146 0)
(2.893703931 0.001588700658 0)
(2.893800954 0.001522595657 0)
(2.893821449 0.001111276947 0)
(2.893808871 0.0005436088069 0)
(2.893738495 0.0001364899798 0)
(2.893582948 -4.43802694e-05 0)
(2.893409327 -0.0001260138432 0)
(2.893290016 -0.0003541939188 0)
(2.893219311 -0.0006737033309 0)
(2.893339684 -0.0007748009455 0)
(2.893515837 -0.000547080531 0)
(2.893669336 -0.0002110628509 0)
(2.893742767 1.282884192e-05 0)
(2.89382856 -4.801474661e-05 0)
(2.894060715 -0.0001383572203 0)
(2.894232357 -0.0001973671402 0)
(2.894452261 -0.0002248476804 0)
(2.894818602 -0.0003148645599 0)
(2.895005109 -0.0003363009051 0)
(2.895084895 -0.0002692620252 0)
(2.895074359 -0.0001792173933 0)
(2.894815409 -0.0001062943641 0)
(2.888087669 0.0001546769913 0)
(2.888216502 -0.0001304956361 0)
(2.888425836 -1.829546681e-05 0)
(2.888763872 0.0004526561978 0)
(2.88903835 0.001047672203 0)
(2.889140819 0.001076211142 0)
(2.889309874 0.0007451213766 0)
(2.889286942 -0.0001656905861 0)
(2.889256899 -0.001173592121 0)
(2.889450462 -0.001206264677 0)
(2.889688931 -0.0009034993462 0)
(2.889661992 9.774207947e-05 0)
(2.889804199 0.001483136043 0)
(2.889932254 0.001656558955 0)
(2.889888847 0.001588762106 0)
(2.88985258 0.001232544004 0)
(2.889789769 0.0009069097479 0)
(2.889736953 0.000606407945 0)
(2.889668563 0.0002566541951 0)
(2.889503662 -3.286704281e-05 0)
(2.889410256 -0.0002401651498 0)
(2.889426731 -0.0005204091101 0)
(2.889482415 -0.0007164410139 0)
(2.889666324 -0.0007112229944 0)
(2.889876699 -0.0005175689612 0)
(2.890002632 -0.0001632136911 0)
(2.890058379 6.730926732e-05 0)
(2.890131949 0.0001332111538 0)
(2.890338945 4.368530851e-05 0)
(2.890520849 -0.0001691612606 0)
(2.890783285 -0.0003296871262 0)
(2.891021438 -0.0003540727231 0)
(2.891159011 -0.000264784147 0)
(2.89125366 -0.0002339787322 0)
(2.891151972 -6.050877997e-05 0)
(2.884550219 0.0002249763325 0)
(2.88449744 0.0002332349537 0)
(2.884634062 -4.029445283e-05 0)
(2.884835404 -4.106717128e-05 0)
(2.885118351 0.0002467792237 0)
(2.885451732 0.0008816961206 0)
(2.885691407 0.001171282498 0)
(2.885658616 0.0009957078718 0)
(2.885607368 0.0004490252247 0)
(2.885616846 -0.0004703656767 0)
(2.885589765 -0.001000105746 0)
(2.885759407 -0.001006457903 0)
(2.885861977 -0.0004652611847 0)
(2.886016516 0.0006078117951 0)
(2.886306701 0.001313827872 0)
(2.886433175 0.001444292602 0)
(2.886474693 0.001293525919 0)
(2.886300646 0.001111452621 0)
(2.886079548 0.0008659764348 0)
(2.886022812 0.0006213843793 0)
(2.885898049 0.0002500060904 0)
(2.885800109 6.877447086e-05 0)
(2.885944848 -5.315798158e-05 0)
(2.886050334 -0.0002441798956 0)
(2.886136034 -0.0004743067233 0)
(2.886267252 -0.0005283995121 0)
(2.886430975 -0.0003187832664 0)
(2.886540244 0.0001477919702 0)
(2.886573093 0.0003295620089 0)
(2.886705633 0.0002901720413 0)
(2.886883036 8.633584558e-05 0)
(2.887149482 -0.0001379110409 0)
(2.887404286 -0.0002336404096 0)
(2.887588339 -0.0001811248382 0)
(2.887710561 -0.0001259587623 0)
(2.88775475 2.058107991e-05 0)
(2.881206224 0.0001885328656 0)
(2.881407427 0.0002819273094 0)
(2.881483859 0.0002135947156 0)
(2.881811173 0.0002418423722 0)
(2.882155863 0.0003426248769 0)
(2.882416487 0.0005120148379 0)
(2.882758673 0.001085750313 0)
(2.882763389 0.001196254363 0)
(2.882567904 0.0008360515289 0)
(2.882411602 0.0001700954591 0)
(2.882404701 -0.0005586664107 0)
(2.882515578 -0.0009408257086 0)
(2.882636271 -0.0006651227443 0)
(2.882797611 -0.0003324030086 0)
(2.883013398 0.0003703325764 0)
(2.883217324 0.0006716394144 0)
(2.883353916 0.0009134937005 0)
(2.883349297 0.001182120601 0)
(2.883202546 0.001116693024 0)
(2.883016808 0.0008868466032 0)
(2.882930161 0.0006497343472 0)
(2.882858333 0.0005224032002 0)
(2.882915987 0.0003737359957 0)
(2.883058055 0.0002112114505 0)
(2.883138765 -4.677255659e-05 0)
(2.883197667 -0.0002002399119 0)
(2.88331317 -0.000247825913 0)
(2.88348099 5.706624835e-05 0)
(2.883618678 0.0003957647711 0)
(2.883693647 0.0003994026669 0)
(2.883806863 0.0002644247495 0)
(2.884059643 9.027715098e-05 0)
(2.884317803 -8.328812052e-05 0)
(2.884566137 -7.282311088e-05 0)
(2.884731429 1.38531826e-05 0)
(2.884866057 0.000124812121 0)
(2.878436781 0.0001072837143 0)
(2.878795839 0.0001305070996 0)
(2.879086934 0.0003539356001 0)
(2.879510002 0.0003828802018 0)
(2.879848018 0.0002107282163 0)
(2.880025208 4.587598045e-05 0)
(2.880178552 0.0003177863049 0)
(2.880411429 0.001062572795 0)
(2.880406989 0.001112033887 0)
(2.880154408 0.0005276306795 0)
(2.880028924 -0.0001057211439 0)
(2.880017419 -0.0007174419182 0)
(2.880220761 -0.0007584350871 0)
(2.880306284 -0.0009232574181 0)
(2.880483319 -0.0005871677479 0)
(2.880608555 -0.0002546582065 0)
(2.880695972 -2.570568924e-05 0)
(2.880777619 0.0004971213144 0)
(2.880849908 0.001058105367 0)
(2.880853944 0.001130884232 0)
(2.880785498 0.001010543496 0)
(2.880736383 0.0009291185037 0)
(2.880734228 0.0008213564886 0)
(2.88075967 0.0005927090082 0)
(2.880767764 0.0003103225813 0)
(2.88082149 9.760506269e-05 0)
(2.88089763 -2.943126578e-05 0)
(2.881028158 -1.672191231e-05 0)
(2.881219234 0.0002480303727 0)
(2.881399987 0.0004264269782 0)
(2.881553542 0.0003881317234 0)
(2.881763713 0.0002355466384 0)
(2.881999982 6.048560474e-06 0)
(2.88218504 -8.173761931e-05 0)
(2.882369123 -3.357601208e-05 0)
(2.882565005 8.475609337e-05 0)
(2.87668887 0.0002025587826 0)
(2.877040939 -8.049198648e-05 0)
(2.87754936 0.0002332300921 0)
(2.877889247 0.0001139720628 0)
(2.878062295 -0.0003520336883 0)
(2.878268419 -0.0007126932742 0)
(2.878332341 -0.0007639789983 0)
(2.878535545 -0.0001349533683 0)
(2.878814347 0.0006362697584 0)
(2.878766306 0.0007434940419 0)
(2.878633303 0.0002889413542 0)