/*--------------------------------*- C++ -*----------------------------------*\
  =========                 |
  \\      /  F ield         | OpenFOAM: The Open Source CFD Toolbox
   \\    /   O peration     | Website:  https://openfoam.org
    \\  /    A nd           | Version:  7
     \\/     M anipulation  |
\*---------------------------------------------------------------------------*/
FoamFile
{
    version     2.0;
    format      ascii;
    class       volVectorField;
    location    "0.9";
    object      U;
}
// * * * * * * * * * * * * * * * * * * * * * * * * * * * * * * * * * * * * * //

dimensions      [0 1 -1 0 0 0 0];

internalField   nonuniform List<vector> 
22
(
(2.86420376 0.002023981954 0)
(2.829488112 -0.001034064274 0)
(2.845390057 0.002818049547 0)
(2.854733875 0.0003331936056 0)
(2.864377894 -0.0009471911915 0)
(2.846144958 -0.00325798964 0)
(2.856418565 0.001627070817 0)
(2.86332651 -0.00142572507 0)
(2.871530629 -0.005132652847 0)
(2.890199264 -0.008365264879 0)
(2.887291877 0.001558964276 0)
(2.889215813 -0.001191643469 0)
(2.89356656 -0.0004063946987 0)
(2.9290122 0.004594056064 0)
(2.927818806 0.002377729175 0)
(2.928262038 -0.0003513518966 0)
(2.969114437 8.132086772e-06 0)
(2.96618414 0.003940109522 0)
(2.964704666 0.002997495058 0)
(3.000213463 0.00234332148 0)
(2.994910916 0.001169519927 0)
(2.993513948 0.0002489635711 0)
)
;

boundaryField
{
    inlet
    {
        type            fixedValue;
        value           nonuniform 0();
    }
    outlet
    {
        type            inletOutlet;
        inletValue      nonuniform 0();
        value           nonuniform 0();
    }
    bottom
    {
        type            slip;
    }
    top
    {
        type            slip;
    }
    obstacle
    {
        type            slip;
    }
    defaultFaces
    {
        type            empty;
    }
    procBoundary22to16
    {
        type            processor;
        value           nonuniform List<vector> 5((2.871634927 0.004911104835 0) (2.830665941 0.0003663315193 0) (2.845716058 -0.00284621394 0) (2.85501504 -0.00074169871 0) (2.85501504 -0.00074169871 0));
    }
    procBoundary22to17
    {
        type            processor;
        value           uniform (2.87860158 -0.002069355632 0);
    }
    procBoundary22to21
    {
        type            processor;
        value           nonuniform List<vector> 7((2.756919273 -0.04509576786 0) (2.798499846 -0.052423064 0) (2.881052957 -0.08920038552 0) (2.933018199 -0.01751144746 0) (2.933018199 -0.01751144746 0) (2.968814367 -0.04059912907 0) (3.011220863 -0.06800092714 0));
    }
    procBoundary22to23
    {
        type            processor;
        value           nonuniform List<vector> 5((2.878681673 0.002017499992 0) (2.884602927 0.0009389979345 0) (2.904287869 0.002826740463 0) (2.93501498 0.00683471435 0) (2.968071115 0.01008362278 0));
    }
    procBoundary22to28
    {
        type            processor;
        value           nonuniform List<vector> 3((3.018709988 -0.003483835189 0) (3.013827428 -0.0013930319 0) (3.012940194 -0.002400175026 0));
    }
    procBoundary22to29
    {
        type            processor;
        value           uniform (2.994569987 0.01012617927 0);
    }
}


// ************************************************************************* //
