/*--------------------------------*- C++ -*----------------------------------*\
  =========                 |
  \\      /  F ield         | OpenFOAM: The Open Source CFD Toolbox
   \\    /   O peration     | Website:  https://openfoam.org
    \\  /    A nd           | Version:  7
     \\/     M anipulation  |
\*---------------------------------------------------------------------------*/
FoamFile
{
    version     2.0;
    format      ascii;
    class       volScalarField;
    location    "2.6";
    object      rho;
}
// * * * * * * * * * * * * * * * * * * * * * * * * * * * * * * * * * * * * * //

dimensions      [1 -3 0 0 0 0 0];

internalField   nonuniform List<scalar> 5(1.179994955 1.18303338 1.235705492 1.540807749 1.314641002);

boundaryField
{
    inlet
    {
        type            calculated;
        value           nonuniform 0();
    }
    outlet
    {
        type            calculated;
        value           nonuniform 0();
    }
    bottom
    {
        type            calculated;
        value           nonuniform 0();
    }
    top
    {
        type            calculated;
        value           nonuniform 0();
    }
    obstacle
    {
        type            calculated;
        value           nonuniform List<scalar> 2(1.179994955 1.18303338);
    }
    defaultFaces
    {
        type            empty;
    }
    procBoundary27to21
    {
        type            processor;
        value           uniform 1.193484284;
    }
    procBoundary27to26
    {
        type            processor;
        value           uniform 1.743551106;
    }
    procBoundary27to28
    {
        type            processor;
        value           nonuniform List<scalar> 4(1.267577519 1.267577519 1.390899201 1.331099876);
    }
    procBoundary27to33
    {
        type            processor;
        value           nonuniform List<scalar> 2(1.488423521 1.44090441);
    }
}


// ************************************************************************* //
