/*--------------------------------*- C++ -*----------------------------------*\
  =========                 |
  \\      /  F ield         | OpenFOAM: The Open Source CFD Toolbox
   \\    /   O peration     | Website:  https://openfoam.org
    \\  /    A nd           | Version:  7
     \\/     M anipulation  |
\*---------------------------------------------------------------------------*/
FoamFile
{
    version     2.0;
    format      ascii;
    class       volVectorField;
    location    "1.6";
    object      U;
}
// * * * * * * * * * * * * * * * * * * * * * * * * * * * * * * * * * * * * * //

dimensions      [0 1 -1 0 0 0 0];

internalField   nonuniform List<vector> 
22
(
(3.000000021 -2.423295103e-08 0)
(2.999999947 1.263688793e-07 0)
(2.99999956 5.960885491e-07 0)
(3.000000002 -2.560946578e-09 0)
(3.000000002 -2.713155157e-09 0)
(3 -9.449881453e-10 0)
(3.000000015 -1.291229428e-08 0)
(3 -2.07774965e-10 0)
(3 -5.648083362e-10 0)
(3 -8.762190453e-10 0)
(3.000000001 -1.419171625e-09 0)
(3 -1.375699147e-12 0)
(3 -2.004335669e-11 0)
(3 -6.280192806e-16 0)
(3 -2.221394042e-15 0)
(3 -2.374208419e-15 0)
(3 -3.930608395e-16 0)
(3 -3.383276848e-16 0)
(3 1.201069501e-15 0)
(3 -1.094695943e-15 0)
(3 4.015623142e-17 0)
(3 2.854700712e-15 0)
)
;

boundaryField
{
    inlet
    {
        type            fixedValue;
        value           nonuniform 0();
    }
    outlet
    {
        type            inletOutlet;
        inletValue      nonuniform 0();
        value           nonuniform 0();
    }
    bottom
    {
        type            slip;
    }
    top
    {
        type            slip;
    }
    obstacle
    {
        type            slip;
    }
    defaultFaces
    {
        type            empty;
    }
    procBoundary25to19
    {
        type            processor;
        value           nonuniform List<vector> 7((2.999992708 1.178334415e-05 0) (2.999943133 9.526053687e-05 0) (2.999781344 0.0004004268257 0) (3 6.719218471e-16 0) (3 2.364782409e-15 0) (3 1.149562757e-15 0) (3 6.719218471e-16 0));
    }
    procBoundary25to24
    {
        type            processor;
        value           nonuniform List<vector> 2((3 1.74943412e-15 0) (3 -2.849688636e-16 0));
    }
    procBoundary25to26
    {
        type            processor;
        value           nonuniform List<vector> 4((2.999995492 8.12555612e-06 0) (2.999995492 8.12555612e-06 0) (2.999999987 3.263134822e-08 0) (3.000000001 -1.418009242e-09 0));
    }
    procBoundary25to30
    {
        type            processor;
        value           uniform (3 -2.306714408e-15 0);
    }
    procBoundary25to31
    {
        type            processor;
        value           nonuniform List<vector> 8((3 -6.792388044e-11 0) (3 -2.054079057e-10 0) (3 3.717628547e-15 0) (3 -6.792388044e-11 0) (3 -4.208035349e-14 0) (3 1.25024569e-15 0) (3 1.794808208e-15 0) (3 2.067786484e-15 0));
    }
}


// ************************************************************************* //
