/*--------------------------------*- C++ -*----------------------------------*\
  =========                 |
  \\      /  F ield         | OpenFOAM: The Open Source CFD Toolbox
   \\    /   O peration     | Website:  https://openfoam.org
    \\  /    A nd           | Version:  7
     \\/     M anipulation  |
\*---------------------------------------------------------------------------*/
FoamFile
{
    version     2.0;
    format      ascii;
    class       volVectorField;
    location    "4.2";
    object      U;
}
// * * * * * * * * * * * * * * * * * * * * * * * * * * * * * * * * * * * * * //

dimensions      [0 1 -1 0 0 0 0];

internalField   nonuniform List<vector> 
555
(
(3 1.676598057e-14 0)
(3 1.661263797e-14 0)
(3 1.699482242e-14 0)
(3 1.653574485e-14 0)
(3 1.477439831e-14 0)
(3 1.273206103e-14 0)
(3 1.017190445e-14 0)
(3 9.304202011e-15 0)
(3 8.570631164e-15 0)
(3 6.923884709e-15 0)
(3 6.105251519e-15 0)
(3 9.659673428e-15 0)
(3 1.227478468e-14 0)
(3 1.159129594e-14 0)
(3 1.237947603e-14 0)
(3 1.102613539e-14 0)
(3 3.818822877e-15 0)
(3 8.361372811e-15 0)
(3 9.332083691e-15 0)
(3 1.031050277e-14 0)
(3 1.063799165e-14 0)
(3 1.032836176e-14 0)
(3 9.728225285e-15 0)
(3 1.023629237e-14 0)
(3 9.363942954e-15 0)
(3 8.182857964e-15 0)
(3 9.220108976e-15 0)
(3 1.011061021e-14 0)
(3 5.824675463e-15 0)
(3 3.4622299e-15 0)
(3 2.939627881e-15 0)
(3 3.201198927e-15 0)
(3 3.838499355e-16 0)
(3 -3.668201003e-15 0)
(3 -1.548264509e-15 0)
(3 -1.546976848e-15 0)
(3 -1.787025562e-15 0)
(3 -1.347134008e-15 0)
(3 3.378011068e-17 0)
(3 5.952527778e-16 0)
(3 2.594536354e-15 0)
(3 4.211876419e-15 0)
(3 6.208738013e-15 0)
(3 8.340137309e-15 0)
(3 8.805556904e-15 0)
(3 5.513474334e-15 0)
(3 -1.421028557e-15 0)
(3 -3.571388739e-15 0)
(3 -5.020814418e-15 0)
(3 -8.189596304e-15 0)
(3 -1.119068352e-14 0)
(3 -7.788367644e-15 0)
(3 -7.940226122e-15 0)
(3 -7.899933387e-15 0)
(3 -7.628287876e-15 0)
(3 -5.731541959e-15 0)
(3 -3.418365293e-15 0)
(3 5.236365614e-16 0)
(3 1.717201081e-15 0)
(3 2.455129417e-15 0)
(3 3.595892171e-15 0)
(3 1.46769265e-15 0)
(3 -2.468687318e-15 0)
(3 -8.14515236e-15 0)
(3 -1.114390359e-14 0)
(3 -1.292658225e-14 0)
(3 -1.342419108e-14 0)
(3 -1.406127682e-14 0)
(3 -9.514140572e-15 0)
(3 -9.950317056e-15 0)
(3 -8.892691232e-15 0)
(3 -7.805506932e-15 0)
(3 -6.072321482e-15 0)
(3 -1.569115013e-15 0)
(3 2.782417167e-15 0)
(3 3.879109816e-15 0)
(3 1.24651216e-15 0)
(3 -3.667789697e-16 0)
(3 -1.867931439e-15 0)
(3 -3.638231723e-15 0)
(3 -5.191427592e-15 0)
(3 -6.27569611e-15 0)
(3 -5.231001653e-15 0)
(3 -4.817991646e-15 0)
(3 -4.922757407e-15 0)
(3 -7.926713153e-15 0)
(3 -7.646541217e-15 0)
(3 -8.114246506e-15 0)
(3 -7.179580936e-15 0)
(3 -6.827694623e-15 0)
(3 -7.510960347e-15 0)
(3 -6.342439739e-15 0)
(3 -4.297402789e-15 0)
(3 -5.074949904e-15 0)
(3 -8.956169629e-15 0)
(3 -9.40266394e-15 0)
(3 -6.925402648e-15 0)
(3 -4.906596777e-15 0)
(3 -5.857854105e-15 0)
(3 -8.404414628e-15 0)
(3 -1.081746997e-14 0)
(3 -1.050539287e-14 0)
(3 -5.006582405e-15 0)
(3 -5.216766639e-15 0)
(3 -6.895408825e-15 0)
(3 -8.361945174e-15 0)
(3 -7.191197051e-15 0)
(3 -8.913390333e-15 0)
(3 -1.070157941e-14 0)
(3 -1.12297562e-14 0)
(3 -1.123261618e-14 0)
(3 -1.105246246e-14 0)
(3 -8.485038551e-15 0)
(3 -7.938232257e-15 0)
(3 -8.486255545e-15 0)
(3 -9.717358325e-15 0)
(3 -1.150057028e-14 0)
(3 -1.307690963e-14 0)
(3 -1.336267455e-14 0)
(3 -9.346066233e-15 0)
(3 -1.022433946e-14 0)
(3 -1.149228492e-14 0)
(3 -1.333777186e-14 0)
(3 -1.545209259e-14 0)
(3 -1.916869056e-14 0)
(3 -2.068558348e-14 0)
(3 -2.093384072e-14 0)
(3 -1.884109617e-14 0)
(3 -1.796303637e-14 0)
(3 -1.52888373e-14 0)
(3 -1.486992744e-14 0)
(3 -1.461549209e-14 0)
(3 -1.379486487e-14 0)
(3 -1.267618743e-14 0)
(3 -1.1319899e-14 0)
(3 -1.119082165e-14 0)
(3 -1.726935214e-14 0)
(3 -1.794096818e-14 0)
(3 -1.858914124e-14 0)
(3 -1.970043771e-14 0)
(3 -2.300314905e-14 0)
(3 -2.717994742e-14 0)
(3 -2.742600762e-14 0)
(3 -2.384170883e-14 0)
(3 -2.178377445e-14 0)
(3 -2.050839938e-14 0)
(3 -2.097754413e-14 0)
(3 -2.009457692e-14 0)
(3 -1.658555692e-14 0)
(3 -1.211930063e-14 0)
(3 -9.566112552e-15 0)
(3 -7.872155083e-15 0)
(3 -8.90932185e-15 0)
(3 -1.882987315e-14 0)
(3 -1.924124616e-14 0)
(3 -2.054629058e-14 0)
(3 -2.166758573e-14 0)
(3 -2.360864595e-14 0)
(3 -2.476585306e-14 0)
(3 -2.431179111e-14 0)
(3 -2.371780359e-14 0)
(3 -2.313562988e-14 0)
(3 -2.100108713e-14 0)
(3 -1.911571755e-14 0)
(3 -1.716295763e-14 0)
(3 -1.627949609e-14 0)
(3 -1.614295555e-14 0)
(3 -1.581676073e-14 0)
(3 -1.554713964e-14 0)
(3 -1.457631967e-14 0)
(3 -1.315551363e-14 0)
(3 -1.458476275e-14 0)
(3 -1.557796888e-14 0)
(3 -1.614867499e-14 0)
(3 -1.587401726e-14 0)
(3 -1.58803831e-14 0)
(3 -1.669052027e-14 0)
(3 -1.826679796e-14 0)
(3 -1.992332728e-14 0)
(3 -1.91786281e-14 0)
(3 -1.738602791e-14 0)
(3 -1.579308471e-14 0)
(3 -1.599056579e-14 0)
(3 -1.698783747e-14 0)
(3 -1.708357116e-14 0)
(3 -1.616351388e-14 0)
(3 -1.598225774e-14 0)
(3 -1.164672973e-14 0)
(3 -1.219312695e-14 0)
(3 -1.227378065e-14 0)
(3 -1.227449445e-14 0)
(3 -1.256576969e-14 0)
(3 -1.272390515e-14 0)
(3 -1.295188142e-14 0)
(3 -1.294866542e-14 0)
(3 -1.433150968e-14 0)
(3 -1.509674673e-14 0)
(3 -1.657894252e-14 0)
(3 -1.74472073e-14 0)
(3 -1.473995685e-14 0)
(3 -1.346573254e-14 0)
(3 -1.14055691e-14 0)
(3 -8.181006844e-15 0)
(3 -5.715377269e-15 0)
(3 -1.251945704e-14 0)
(3 -1.272702661e-14 0)
(3 -1.237144142e-14 0)
(3 -1.225744453e-14 0)
(3 -1.251800488e-14 0)
(3 -1.294090578e-14 0)
(3 -1.358420755e-14 0)
(3 -1.30860467e-14 0)
(3 -1.228747192e-14 0)
(3 -1.189773552e-14 0)
(3 -1.301419475e-14 0)
(3 -1.468681548e-14 0)
(3 -1.387435669e-14 0)
(3 -1.050706089e-14 0)
(3 -7.859286053e-15 0)
(3 -8.745789451e-15 0)
(3 -8.119158906e-15 0)
(3 -1.352753984e-14 0)
(3 -1.320312754e-14 0)
(3 -1.261447911e-14 0)
(3 -1.30443901e-14 0)
(3 -1.354158471e-14 0)
(3 -1.501025203e-14 0)
(3 -1.715305076e-14 0)
(3 -1.814243754e-14 0)
(3 -1.692039504e-14 0)
(3 -1.49390701e-14 0)
(3 -1.294090585e-14 0)
(3 -1.34700334e-14 0)
(3 -1.45001157e-14 0)
(3 -1.116216596e-14 0)
(3 -9.742414387e-15 0)
(3 -7.137612709e-15 0)
(3 -7.353772942e-15 0)
(3 -1.392476898e-14 0)
(3 -1.431826259e-14 0)
(3 -1.555103031e-14 0)
(3 -1.709561068e-14 0)
(3 -1.969827737e-14 0)
(3 -1.917109025e-14 0)
(3 -1.64494907e-14 0)
(3 -1.494270464e-14 0)
(3 -1.42698309e-14 0)
(3 -1.317522535e-14 0)
(3 -1.041466295e-14 0)
(3 -9.590240968e-15 0)
(3 -9.001734702e-15 0)
(3 -7.74608994e-15 0)
(3 -6.832084806e-15 0)
(3 -5.299018589e-15 0)
(3 -2.11572701e-15 0)
(3 -1.365610238e-14 0)
(3 -1.241179014e-14 0)
(3 -1.346652686e-14 0)
(3 -1.335408674e-14 0)
(3 -1.469101245e-14 0)
(3 -1.281844615e-14 0)
(3 -1.0094314e-14 0)
(3 -6.095916653e-15 0)
(3 -4.036443745e-15 0)
(3 -2.523365199e-15 0)
(3 -1.876219244e-15 0)
(3 -2.178241158e-15 0)
(3 -2.073176357e-15 0)
(3 -9.674685309e-16 0)
(3 1.806829519e-15 0)
(3 3.626790585e-15 0)
(3 7.010309877e-15 0)
(3 -2.628077536e-15 0)
(3 -4.489871617e-16 0)
(3 -9.986713754e-16 0)
(3 -8.00985555e-16 0)
(3 -2.860289138e-15 0)
(3 4.41089727e-16 0)
(3 2.094505326e-15 0)
(3 5.487731903e-15 0)
(3 8.720193537e-15 0)
(3 1.056222478e-14 0)
(3 1.079503715e-14 0)
(3 1.023945472e-14 0)
(3 8.180081354e-15 0)
(3 8.084994855e-15 0)
(3 1.012901729e-14 0)
(3 1.347047155e-14 0)
(3 1.736109212e-14 0)
(3 1.908475293e-15 0)
(3 3.79930679e-15 0)
(3 6.322698216e-15 0)
(3 7.713894963e-15 0)
(3 9.965427788e-15 0)
(3 1.213645609e-14 0)
(3 1.637092069e-14 0)
(3 1.402791763e-14 0)
(3 1.11103011e-14 0)
(3 9.275891445e-15 0)
(3 8.990793652e-15 0)
(3 6.613001781e-15 0)
(3 5.526885931e-15 0)
(3 1.502767791e-15 0)
(3 -2.867481071e-15 0)
(3 -3.602112846e-15 0)
(3 -3.66101832e-15 0)
(3 -2.702652436e-15 0)
(3 3.813832626e-15 0)
(3 6.383692542e-15 0)
(3 6.155927557e-15 0)
(3 5.873627366e-15 0)
(3 7.461333577e-15 0)
(3 9.028216357e-15 0)
(3 9.945378327e-15 0)
(3 7.742993158e-15 0)
(3 2.749764536e-15 0)
(3 -1.283915666e-15 0)
(3 -4.356797737e-15 0)
(3 -1.019807841e-14 0)
(3 -1.122545973e-14 0)
(3 -1.006192545e-14 0)
(3 -5.970048732e-15 0)
(3 -3.207761408e-15 0)
(3 -2.762361107e-16 0)
(3 2.845795924e-16 0)
(3 -3.089914489e-16 0)
(3 -5.921928e-16 0)
(3 -1.179746449e-15 0)
(3 -4.175889e-16 0)
(3 -1.633963587e-15 0)
(3 -4.819923424e-15 0)
(3 -1.306167289e-14 0)
(3 -1.562931023e-14 0)
(3 -1.532294416e-14 0)
(3 -1.583450677e-14 0)
(3 -1.522771395e-14 0)
(3 -9.305504615e-15 0)
(3 -4.460296757e-15 0)
(3 -4.506772358e-15 0)
(3 -5.82794806e-15 0)
(3 -7.540644962e-15 0)
(3 -7.259932333e-15 0)
(3 -7.094765814e-15 0)
(3 -7.622086442e-15 0)
(3 -1.137824104e-14 0)
(3 -1.541498324e-14 0)
(3 -1.650191636e-14 0)
(3 -1.428932892e-14 0)
(3 -1.362019759e-14 0)
(3 -8.689210808e-15 0)
(3 -5.808364736e-15 0)
(3 -3.304554559e-15 0)
(3 -7.162673612e-16 0)
(3 -1.4836562e-15 0)
(3 -7.923005514e-15 0)
(3 -1.088313959e-14 0)
(3 -1.190220339e-14 0)
(3 -1.130912423e-14 0)
(3 -1.084431708e-14 0)
(3 -9.984641391e-15 0)
(3 -1.712611886e-14 0)
(3 -1.678533153e-14 0)
(3 -1.618677655e-14 0)
(3 -1.038170401e-14 0)
(3 -2.156070745e-15 0)
(3 -2.167320934e-16 0)
(3 7.2618529e-16 0)
(3 -9.93313166e-16 0)
(3 -1.702809706e-15 0)
(3 -4.79624535e-15 0)
(3 -6.302365285e-15 0)
(3 -6.287936831e-15 0)
(3 -6.889993393e-15 0)
(3 -7.037228862e-15 0)
(3 -7.416999884e-15 0)
(3 -7.304332973e-15 0)
(3 -1.053511769e-14 0)
(3 -9.639917353e-15 0)
(3 -7.095269476e-15 0)
(3 -3.244674417e-15 0)
(3 2.735844326e-16 0)
(3 2.255550581e-15 0)
(3 1.471042645e-15 0)
(3 -3.853820143e-16 0)
(3 -4.75676598e-15 0)
(3 -5.466778186e-15 0)
(3 -2.915913477e-15 0)
(3 -1.699361635e-15 0)
(3 -3.09738385e-16 0)
(3 7.214524132e-16 0)
(3 -5.673217015e-16 0)
(3 -2.906329636e-15 0)
(3 1.727407645e-15 0)
(3 1.916249789e-15 0)
(3 2.561376341e-15 0)
(3 1.671452967e-15 0)
(3 -2.186032733e-15 0)
(3 -3.537008514e-15 0)
(3 -3.006457201e-15 0)
(3 -3.306145163e-15 0)
(3 -3.93619497e-15 0)
(3 -5.277648318e-15 0)
(3 -4.43481075e-15 0)
(3 -4.317090382e-15 0)
(3 -5.293957602e-15 0)
(3 -6.091588692e-15 0)
(3 -6.047806652e-15 0)
(3 -7.21732695e-15 0)
(3 9.052007614e-15 0)
(3 7.799227237e-15 0)
(3 5.185756145e-15 0)
(3 4.754508632e-16 0)
(3 -6.148734324e-15 0)
(3 -1.121147935e-14 0)
(3 -1.273967309e-14 0)
(3 -1.229905424e-14 0)
(3 -1.053144396e-14 0)
(3 -9.462856632e-15 0)
(3 -1.08502622e-14 0)
(3 -1.431645882e-14 0)
(3 -1.836207145e-14 0)
(3 -1.854429399e-14 0)
(3 -1.645898119e-14 0)
(3 -1.732348709e-14 0)
(3 1.410229484e-14 0)
(3 1.033205502e-14 0)
(3 9.27198129e-15 0)
(3 4.963770789e-15 0)
(3 2.083943029e-15 0)
(3 -5.128372648e-15 0)
(3 -7.247218256e-15 0)
(3 -1.190932273e-14 0)
(3 -1.570011058e-14 0)
(3 -1.44883288e-14 0)
(3 -1.730195133e-14 0)
(3 -2.042632878e-14 0)
(3 -2.063014745e-14 0)
(3 -1.904347492e-14 0)
(3 -1.685106559e-14 0)
(3 -1.817572211e-14 0)
(3 5.830371906e-15 0)
(3 5.052745205e-15 0)
(3 4.267325288e-15 0)
(3 3.953350615e-15 0)
(3 3.499489928e-15 0)
(3 1.304802555e-15 0)
(3 -2.076934965e-16 0)
(3 -6.787754231e-15 0)
(3 -8.293570855e-15 0)
(3 -1.296918443e-14 0)
(3 -1.290905068e-14 0)
(3 -1.501706209e-14 0)
(3 -1.597913226e-14 0)
(3 -1.673385377e-14 0)
(3 -1.490945978e-14 0)
(3 -1.294782946e-14 0)
(3 1.954408776e-15 0)
(3 2.144206482e-15 0)
(3 2.455300509e-15 0)
(3 2.039067487e-15 0)
(3 2.020010919e-15 0)
(3 2.355598677e-15 0)
(3 9.968471516e-16 0)
(3 1.585429592e-15 0)
(3 5.387953551e-16 0)
(3 -1.536602249e-16 0)
(3 -1.228878406e-15 0)
(3 -6.844750891e-17 0)
(3 6.594549049e-16 0)
(3 -2.395781476e-15 0)
(3 -6.247254983e-15 0)
(3 -1.016703193e-14 0)
(3 -6.387023538e-16 0)
(3 -4.474544377e-15 0)
(3 -6.709214047e-15 0)
(3 -6.275083608e-15 0)
(3 -1.003508559e-14 0)
(3 -9.56629858e-15 0)
(3 -7.250553375e-15 0)
(3 -5.646312875e-16 0)
(3 3.208794969e-15 0)
(3 4.654440534e-15 0)
(3 4.774449071e-15 0)
(3 4.606601061e-15 0)
(3 4.03820997e-15 0)
(3 5.537343512e-16 0)
(3 -4.817175698e-15 0)
(3 -1.09217978e-14 0)
(3 -7.840588628e-15 0)
(3 -9.089911816e-15 0)
(3 -1.312720987e-14 0)
(3 -1.510877552e-14 0)
(3 -1.644621833e-14 0)
(3 -1.442588316e-14 0)
(3 -1.004469771e-14 0)
(3 -8.337836716e-15 0)
(3 -5.482982452e-15 0)
(3 -4.5305109e-15 0)
(3 -2.074988948e-15 0)
(3 -2.23290037e-15 0)
(3 -2.848807278e-15 0)
(3 -5.266339293e-15 0)
(3 -7.612283417e-15 0)
(3 -1.110629989e-14 0)
(3 -8.410054485e-15 0)
(3 -6.973329972e-15 0)
(3 -9.100350497e-15 0)
(3 -1.037297885e-14 0)
(3 -1.116498109e-14 0)
(3 -1.023327624e-14 0)
(3 -9.276009483e-15 0)
(3 -9.479303002e-15 0)
(3 -1.039099577e-14 0)
(3 -9.157709589e-15 0)
(3 -8.596432537e-15 0)
(3 -6.461371665e-15 0)
(3 -8.874463301e-15 0)
(3 -1.091421977e-14 0)
(3 -1.162593107e-14 0)
(3 -1.380737558e-14 0)
(3 -1.911528807e-14 0)
(3 -1.524823841e-14 0)
(3 -9.606905927e-15 0)
(3 -6.926570141e-15 0)
(3 -8.33323933e-15 0)
(3 -6.298032892e-15 0)
(3 -7.324008836e-15 0)
(3 -8.691064295e-15 0)
(3 -9.180652352e-15 0)
(3 -1.175272751e-14 0)
(3 -1.446446655e-14 0)
(3 -1.543942369e-14 0)
(3 -1.428964401e-14 0)
(3 -1.390474992e-14 0)
(3 -1.387991847e-14 0)
(3 -1.383667934e-14 0)
(3 -2.033699413e-14 0)
(3 -1.867996649e-14 0)
(3 -1.35816035e-14 0)
(3 -1.216195171e-14 0)
(3 -1.246760806e-14 0)
(3 -1.085097846e-14 0)
(3 -1.00605606e-14 0)
(3 -1.161151851e-14 0)
(3 -1.226628835e-14 0)
(3 -1.040070763e-14 0)
(3 -8.71228125e-15 0)
(3 -1.197973062e-14 0)
(3 -9.314525741e-15 0)
(3 -6.80923782e-15 0)
(3 -7.180397921e-15 0)
(3 -3.299154638e-15 0)
(3 -1.129530912e-14 0)
(3 -1.293139281e-14 0)
(3 -1.358212134e-14 0)
)
;

boundaryField
{
    inlet
    {
        type            fixedValue;
        value           nonuniform 0();
    }
    outlet
    {
        type            inletOutlet;
        inletValue      nonuniform 0();
        value           nonuniform 0();
    }
    bottom
    {
        type            slip;
    }
    top
    {
        type            slip;
    }
    obstacle
    {
        type            slip;
    }
    defaultFaces
    {
        type            empty;
    }
    procBoundary25to19
    {
        type            processor;
        value           nonuniform List<vector> 
34
(
(3 1.752136157e-14 0)
(3 1.613443544e-14 0)
(3 1.627678236e-14 0)
(3 1.491509099e-14 0)
(3 1.090897301e-14 0)
(3 7.541473857e-15 0)
(3 7.092402773e-15 0)
(3 7.283847627e-15 0)
(3 4.062004045e-15 0)
(3 2.727016054e-15 0)
(3 1.589757186e-15 0)
(3 2.544443837e-15 0)
(3 4.171098308e-15 0)
(3 7.094683256e-15 0)
(3 7.924836993e-15 0)
(3 8.987231225e-15 0)
(3 8.729893404e-15 0)
(3 9.5144347e-15 0)
(3 1.062463796e-14 0)
(3 1.113244854e-14 0)
(3 1.171698261e-14 0)
(3 1.439598518e-14 0)
(3 1.789675784e-14 0)
(3 1.799903081e-14 0)
(3 8.202575105e-15 0)
(3 6.276173683e-15 0)
(3 5.321117054e-15 0)
(3 5.890446168e-15 0)
(3 7.98109286e-15 0)
(3 8.544695843e-15 0)
(3 5.443184559e-15 0)
(3 2.29157109e-15 0)
(3 2.345077591e-16 0)
(3 2.345077591e-16 0)
)
;
    }
    procBoundary25to20
    {
        type            processor;
        value           uniform (3 1.798512289e-15 0);
    }
    procBoundary25to24
    {
        type            processor;
        value           nonuniform List<vector> 
16
(
(3 1.708278205e-14 0)
(3 1.403587916e-14 0)
(3 2.526974043e-15 0)
(3 -1.172054119e-14 0)
(3 -1.774447821e-14 0)
(3 -1.294518144e-14 0)
(3 -1.575119271e-16 0)
(3 8.400573215e-15 0)
(3 1.473479723e-14 0)
(3 5.114181273e-15 0)
(3 2.77113093e-15 0)
(3 3.172580458e-15 0)
(3 -4.274085643e-15 0)
(3 -8.175259445e-15 0)
(3 -2.183414437e-14 0)
(3 -2.273499761e-14 0)
)
;
    }
    procBoundary25to26
    {
        type            processor;
        value           nonuniform List<vector> 
16
(
(3 -6.168990198e-15 0)
(3 -1.243554304e-14 0)
(3 -1.43415594e-14 0)
(3 -6.467404863e-15 0)
(3 -1.101094081e-14 0)
(3 -1.210145353e-14 0)
(3 -8.176669425e-15 0)
(3 -1.039965518e-14 0)
(3 -1.331127683e-14 0)
(3 -1.273490658e-14 0)
(3 -4.353092418e-15 0)
(3 -5.435349706e-15 0)
(3 -7.378012473e-15 0)
(3 -8.45068373e-16 0)
(3 1.090906474e-14 0)
(3 2.064231108e-14 0)
)
;
    }
    procBoundary25to30
    {
        type            processor;
        value           uniform (3 -9.773957148e-15 0);
    }
    procBoundary25to31
    {
        type            processor;
        value           nonuniform List<vector> 
34
(
(3 1.070650746e-14 0)
(3 1.02417901e-14 0)
(3 1.143638028e-14 0)
(3 1.121963581e-14 0)
(3 1.007895947e-14 0)
(3 1.244748019e-14 0)
(3 1.664004278e-14 0)
(3 1.61506282e-14 0)
(3 1.446331919e-14 0)
(3 1.333332331e-14 0)
(3 1.554382649e-14 0)
(3 1.77051976e-14 0)
(3 1.909431618e-14 0)
(3 2.058827656e-14 0)
(3 2.042638008e-14 0)
(3 1.764274642e-14 0)
(3 1.076008778e-14 0)
(3 -1.023791609e-14 0)
(3 -5.497273793e-15 0)
(3 -8.139300344e-15 0)
(3 -8.266627471e-15 0)
(3 -6.44514019e-15 0)
(3 -6.522256976e-15 0)
(3 -5.195587679e-15 0)
(3 -8.645271908e-16 0)
(3 3.30220581e-16 0)
(3 2.20878069e-15 0)
(3 4.548187619e-15 0)
(3 6.483772748e-15 0)
(3 9.17938273e-15 0)
(3 -1.00381423e-14 0)
(3 -9.648063892e-15 0)
(3 -1.023791609e-14 0)
(3 -7.568899421e-15 0)
)
;
    }
}


// ************************************************************************* //
