/*--------------------------------*- C++ -*----------------------------------*\
  =========                 |
  \\      /  F ield         | OpenFOAM: The Open Source CFD Toolbox
   \\    /   O peration     | Website:  https://openfoam.org
    \\  /    A nd           | Version:  7
     \\/     M anipulation  |
\*---------------------------------------------------------------------------*/
FoamFile
{
    version     2.0;
    format      ascii;
    class       volScalarField;
    location    "1.7";
    object      rho;
}
// * * * * * * * * * * * * * * * * * * * * * * * * * * * * * * * * * * * * * //

dimensions      [1 -3 0 0 0 0 0];

internalField   nonuniform List<scalar> 
2222
(
1.283779961
1.284110843
1.284430349
1.284546425
1.284540429
1.284539161
1.284574927
1.284608341
1.284563125
1.284543181
1.284627618
1.284575048
1.284678281
1.284791584
1.284707025
1.281494262
1.281332376
1.28169058
1.281708482
1.281297694
1.281426161
1.281372881
1.281092125
1.281272405
1.281698381
1.282128657
1.282332126
1.282465197
1.283025071
1.283907793
1.284199161
1.284032992
1.283318904
1.282630732
1.282564329
1.282633673
1.282982206
1.283399286
1.28370283
1.283935606
1.284197728
1.284402875
1.284516823
1.284545665
1.284591454
1.284611601
1.284605554
1.284602869
1.2845106
1.284438445
1.284638334
1.284808155
1.284730208
1.282607777
1.282318288
1.281788739
1.281858391
1.28178612
1.281826369
1.281528287
1.28162173
1.281631698
1.281758231
1.282193819
1.282335825
1.282387774
1.282676605
1.283253213
1.283760958
1.283719262
1.282988633
1.282799062
1.28273496
1.282736363
1.283070796
1.28350421
1.283784178
1.283994849
1.284192598
1.284341647
1.284558049
1.284546715
1.28456698
1.284595747
1.284683992
1.284703666
1.284596144
1.284533979
1.284586976
1.28483149
1.284762135
1.283145905
1.283072347
1.282484057
1.282633741
1.282548213
1.282336772
1.282234995
1.282533555
1.282561392
1.28226056
1.282527156
1.282611612
1.28261337
1.282728723
1.282847801
1.283024502
1.282973936
1.282992726
1.283075439
1.28311789
1.283416945
1.283679096
1.284040188
1.284234231
1.284299493
1.284415659
1.284577966
1.284726275
1.284830033
1.284815114
1.284794244
1.284893896
1.284934324
1.284960113
1.284899074
1.284813862
1.284802449
1.284869587
1.283645305
1.283867648
1.284013937
1.284142147
1.28389474
1.283451977
1.283491999
1.283584529
1.283673628
1.283512925
1.283033167
1.282874614
1.282915453
1.283199597
1.283177279
1.283057589
1.2830354
1.283310586
1.2837743
1.284174863
1.284522244
1.284745445
1.284988291
1.28512308
1.285097795
1.2850971
1.285165402
1.285272887
1.285449669
1.285405855
1.285406745
1.285553968
1.285688811
1.285852203
1.285828899
1.285539553
1.285376787
1.285197665
1.284538989
1.285022908
1.285780198
1.285907725
1.28583603
1.285456975
1.285217784
1.285157351
1.285242666
1.285038834
1.2845339
1.284302903
1.284398579
1.28422835
1.283977929
1.283761352
1.283960881
1.284427462
1.285177675
1.286010075
1.286253831
1.286340556
1.286388007
1.28640913
1.286373324
1.28624964
1.286243826
1.2863297
1.286550429
1.28665413
1.286701976
1.286896608
1.287145067
1.287416058
1.287464005
1.287153492
1.286709459
1.286397253
1.286537347
1.287169831
1.28805743
1.288309619
1.288232454
1.287866987
1.287628956
1.287545743
1.287417855
1.287196057
1.286595953
1.286362418
1.286608039
1.286804042
1.286522086
1.28607108
1.2860158
1.286472025
1.287608546
1.288303029
1.28843152
1.288417779
1.288249344
1.288229503
1.288249164
1.288155454
1.288130693
1.288168178
1.288378969
1.288645635
1.288828309
1.288992968
1.289408079
1.289681656
1.289749491
1.289590029
1.289151282
1.288526586
1.289784351
1.290438681
1.291218016
1.291283744
1.291237237
1.290933796
1.290831862
1.290664137
1.290466228
1.290122906
1.289805547
1.289664494
1.28989102
1.290098515
1.290002801
1.289771463
1.289618209
1.28991883
1.2908638
1.291205121
1.291244499
1.291167936
1.290923822
1.290792533
1.290950823
1.290975496
1.290957149
1.290968718
1.291153162
1.29150917
1.291874183
1.2921625
1.292340309
1.292617032
1.292907355
1.292842933
1.292658227
1.291993434
1.294409235
1.294836122
1.295169192
1.294895894
1.29486974
1.29478662
1.294803435
1.29472152
1.294472185
1.294226262
1.294053845
1.294032677
1.294242556
1.294382275
1.294336586
1.294246872
1.294268423
1.294650226
1.294919423
1.295041014
1.294989723
1.294745583
1.294415261
1.294315405
1.294508186
1.294697552
1.29474918
1.294784264
1.294976721
1.295418101
1.296048394
1.296427541
1.296513343
1.296593815
1.296872685
1.297141054
1.297065055
1.296552356
1.300179514
1.300239923
1.300347365
1.299776115
1.299604427
1.299621758
1.299620146
1.299642524
1.299475929
1.299395106
1.299306504
1.299392129
1.299644497
1.299691652
1.299652318
1.299662288
1.299941874
1.300154682
1.299950808
1.29975163
1.299401535
1.299065435
1.298870421
1.298875956
1.2991818
1.299506969
1.299617508
1.299706299
1.299960568
1.30056739
1.301347895
1.30175659
1.301788757
1.30178894
1.301930961
1.302294401
1.302404639
1.301922466
1.306517646
1.306592093
1.306527247
1.305860255
1.305654965
1.305666529
1.305569345
1.305515276
1.305374242
1.305403296
1.30542497
1.305560322
1.306078374
1.305921003
1.305800858
1.306249194
1.306496611
1.306269097
1.305856473
1.305209135
1.304689523
1.304566796
1.30471782
1.304813716
1.304996426
1.305362625
1.305651935
1.305852212
1.30623154
1.306885367
1.307508835
1.308098381
1.308337174
1.308214049
1.308206122
1.308359165
1.30869221
1.308220007
1.313564643
1.313844762
1.313679852
1.312902952
1.312750677
1.312764396
1.312572354
1.312462554
1.312402138
1.312410518
1.312570367
1.313079004
1.312887535
1.312814518
1.312831689
1.313018771
1.313308834
1.313167463
1.31247278
1.311699456
1.311495283
1.311452954
1.311578888
1.311707224
1.311814924
1.312301729
1.312784394
1.313116795
1.313479898
1.313890432
1.314519256
1.315195846
1.315632554
1.315676815
1.315524992
1.315492172
1.315691567
1.315408233
1.321398627
1.321763449
1.321674402
1.320829312
1.320849491
1.320771979
1.320421533
1.320324943
1.320326498
1.320432671
1.320791114
1.320837673
1.320691137
1.320583731
1.320581425
1.320629607
1.320632152
1.320561957
1.319882331
1.319387831
1.319252248
1.319231857
1.319266006
1.319519316
1.319854166
1.320195514
1.320622766
1.320954299
1.321216327
1.321532298
1.321956278
1.322969583
1.323631957
1.323765798
1.323701919
1.32349458
1.32346117
1.323113462
1.330167117
1.330109844
1.329476183
1.329517444
1.329394878
1.329081908
1.329025056
1.329178461
1.329248415
1.329436546
1.329280944
1.328985628
1.328923276
1.329004991
1.328859357
1.328671788
1.328484273
1.327947809
1.327706247
1.32757571
1.327601792
1.327884404
1.328293518
1.328502519
1.328544859
1.328829986
1.329177753
1.329432161
1.329442876
1.329826798
1.330922384
1.332005559
1.33231693
1.332289089
1.332132635
1.331898446
1.331262543
1.338885457
1.338832513
1.338452219
1.338443598
1.3382881
1.338142605
1.338185947
1.338423441
1.338401209
1.338302318
1.337990139
1.337607247
1.337549158
1.337805374
1.337536032
1.337178824
1.336844028
1.336597977
1.336410813
1.33662634
1.336883281
1.33695311
1.336912485
1.337141471
1.337163501
1.337204446
1.337381213
1.337552316
1.33759669
1.338282825
1.339299887
1.340308401
1.340903301
1.341115607
1.34099135
1.340689195
1.339848217
1.347517216
1.347736251
1.347603089
1.347317312
1.347006798
1.347246626
1.347326198
1.347412692
1.34743852
1.347200987
1.346655503
1.346333465
1.346201102
1.346432252
1.346267955
1.345800061
1.345435192
1.345528028
1.34574996
1.345888186
1.345838852
1.345752839
1.345631487
1.345639633
1.345697033
1.345560989
1.345418068
1.345449253
1.346066497
1.346987976
1.347983775
1.348799618
1.349351565
1.349702362
1.34977008
1.349480613
1.348599412
1.355867275
1.35614061
1.356448264
1.35605428
1.355699063
1.355933294
1.356067033
1.356091986
1.356194464
1.355655243
1.355160828
1.354944433
1.354763933
1.354773798
1.354694712
1.354249208
1.353959853
1.354185389
1.354558587
1.354664469
1.354620216
1.354376
1.354063829
1.353785994
1.353783535
1.353586496
1.353343358
1.353607374
1.354515491
1.355678884
1.356647184
1.357330077
1.357794983
1.358086766
1.358125871
1.357960029
1.357288983
1.363991596
1.364231889
1.3648785
1.364532109
1.364136019
1.363900776
1.364046685
1.36397972
1.363825989
1.363342356
1.363104156
1.363047982
1.362972373
1.362805411
1.362693693
1.362443204
1.362332448
1.362608958
1.362876899
1.362909854
1.362741687
1.36232191
1.361890788
1.361523784
1.36137325
1.361296812
1.361342584
1.361756853
1.362660202
1.363991782
1.364968523
1.365580308
1.36595845
1.366168037
1.366140415
1.366030306
1.36559055
1.37155831
1.371854859
1.37245303
1.372309437
1.371801213
1.371218488
1.371133651
1.370847394
1.370436443
1.370170377
1.370233071
1.370397937
1.37051088
1.370257539
1.370143541
1.370236231
1.370334471
1.370429012
1.370391997
1.370179253
1.369740176
1.369292093
1.368997712
1.368822078
1.368692859
1.368791312
1.369085968
1.369507864
1.37036281
1.371560659
1.372583761
1.373176468
1.373446579
1.373580267
1.373590318
1.373558796
1.37318578
1.378318487
1.378782543
1.379110094
1.379019795
1.37847051
1.377813236
1.37734407
1.376884328
1.376492968
1.376417558
1.376670958
1.377045413
1.377290261
1.377119842
1.377098088
1.377405015
1.377628431
1.377489095
1.377124194
1.376387671
1.375808911
1.375638827
1.375599021
1.375643859
1.375658958
1.375864825
1.376271867
1.376746129
1.377467549
1.3783717
1.379320166
1.379888951
1.380042534
1.380105027
1.38019303
1.380293373
1.37995467
1.38442863
1.384873173
1.384869105
1.384833723
1.384308609
1.383672119
1.382947514
1.382580797
1.38241841
1.382389337
1.382636885
1.38300524
1.383245752
1.383268774
1.383365155
1.383686995
1.383947135
1.383673144
1.38293896
1.381949742
1.381554887
1.381524916
1.381629573
1.381755161
1.381955248
1.382255568
1.382698625
1.383255397
1.383855794
1.384422866
1.385123426
1.385621019
1.385704861
1.385717893
1.385838895
1.386030328
1.385705673
1.389848225
1.390040226
1.389923496
1.389965851
1.389550519
1.388891481
1.388134427
1.387883109
1.38784667
1.387832791
1.3880504
1.388311298
1.388433332
1.388626004
1.388807048
1.388971562
1.389185675
1.388903174
1.388005796
1.387138812
1.386844148
1.386800342
1.386874599
1.386989053
1.387338555
1.387781088
1.388237889
1.388781344
1.389195468
1.389445064
1.389808244
1.390255127
1.390393867
1.390454682
1.390589666
1.390738011
1.390390824
1.394446166
1.394346933
1.394288486
1.394376371
1.394040735
1.393360136
1.392706985
1.392491655
1.392494155
1.392416961
1.392571641
1.392770846
1.392868751
1.39313887
1.393322107
1.393234301
1.393289434
1.393121416
1.392393353
1.391781283
1.391486651
1.391367846
1.391385061
1.391506996
1.391857234
1.392267832
1.392663321
1.39304213
1.393209529
1.393247267
1.393431897
1.393850762
1.394144659
1.394270129
1.39435046
1.394367275
1.394048699
1.398129308
1.397687268
1.397704617
1.397699214
1.397538186
1.396971687
1.396463456
1.396242907
1.396264372
1.396236655
1.396318378
1.396508637
1.396589577
1.396830374
1.396987065
1.396759468
1.396482711
1.39627128
1.395888413
1.395576257
1.395346259
1.39518064
1.39511528
1.395133495
1.395248003
1.395475401
1.395802362
1.395981798
1.395964724
1.395921771
1.396105502
1.396514588
1.396900531
1.397063264
1.397102394
1.397104689
1.396872732
1.400574944
1.399758319
1.399920432
1.399881182
1.400161619
1.3998614
1.399555919
1.399332033
1.399213687
1.39922584
1.399250672
1.399404508
1.399570699
1.399831469
1.399929519
1.399490968
1.398657598
1.398223204
1.398281198
1.398343993
1.398167529
1.397934046
1.39775174
1.397618412
1.397522433
1.397581678
1.39777083
1.3978016
1.397672991
1.397642873
1.397828468
1.398182717
1.398661872
1.399044083
1.399151795
1.399180031
1.398969065
1.401521071
1.400863915
1.401263303
1.40145592
1.401952806
1.401921113
1.401742858
1.401482496
1.401215242
1.40120767
1.401341269
1.401504826
1.401625291
1.401684015
1.401604346
1.400981746
1.399889767
1.39954313
1.399862788
1.400034875
1.399828405
1.399595062
1.399443079
1.399414145
1.399289478
1.399103462
1.398942022
1.398809313
1.398674787
1.398775377
1.399055293
1.399450756
1.400047356
1.400501777
1.400574393
1.400540857
1.400264062
1.401695665
1.402196705
1.4024679
1.402805244
1.402916658
1.402749919
1.402471819
1.402328505
1.40239909
1.402450254
1.402567723
1.402561952
1.402334837
1.401890685
1.401188147
1.400572804
1.400463941
1.400722885
1.400804917
1.400655667
1.40059203
1.400585012
1.400529284
1.400321472
1.399918562
1.399453425
1.399329842
1.399453581
1.399828798
1.400161016
1.40056764
1.401048221
1.401288566
1.401266033
1.401236625
1.401121573
1.402108443
1.402530761
1.402813728
1.403033881
1.403139025
1.403043971
1.402869944
1.40278306
1.402833771
1.40262692
1.402220995
1.401806859
1.40127454
1.400735409
1.400675015
1.400810578
1.40078986
1.400747192
1.401001941
1.401185738
1.401222469
1.401123766
1.400805263
1.400354631
1.399933587
1.399799523
1.399874033
1.400235319
1.400753628
1.401067225
1.401288827
1.401396979
1.401411893
1.401554599
1.401744068
1.401649235
1.40198654
1.402341718
1.403010796
1.403215963
1.403164705
1.403041936
1.402876428
1.402702395
1.402452039
1.40204333
1.401014015
1.400312739
1.400210866
1.400520717
1.400927111
1.401045777
1.40075263
1.400672426
1.401191669
1.401539331
1.401450937
1.401066857
1.400515797
1.400220289
1.400309235
1.400534276
1.400641497
1.401002245
1.401450092
1.401697418
1.401610686
1.401334589
1.40148177
1.401785478
1.402025983
1.401730787
1.401730945
1.402317696
1.403226669
1.403409745
1.403213037
1.402992808
1.402611634
1.40214791
1.401306247
1.4006376
1.400131684
1.400210139
1.400697432
1.401199839
1.401452375
1.401384879
1.40121127
1.401323008
1.401638453
1.401741533
1.401479128
1.401079615
1.400782211
1.400910708
1.401298311
1.401428816
1.401411839
1.401617041
1.401932053
1.402058532
1.40176308
1.401456901
1.401659071
1.401901416
1.401952808
1.40154399
1.402050813
1.402640287
1.403306025
1.403371092
1.402899635
1.40243195
1.401817957
1.400963816
1.400045327
1.399879055
1.400209202
1.40081648
1.401511956
1.401843913
1.401917994
1.401892275
1.402091302
1.402200392
1.40211495
1.40191909
1.401587651
1.401493581
1.401625258
1.401942045
1.402184591
1.402113111
1.402006525
1.402065303
1.402172359
1.402160081
1.401801483
1.401637405
1.401782395
1.401909542
1.401847712
1.401454007
1.402758838
1.403077213
1.403152637
1.403022703
1.402437045
1.401822474
1.401175437
1.40056807
1.400191389
1.400312977
1.400886
1.401404518
1.401952537
1.402137018
1.402290623
1.402514931
1.402911985
1.402866676
1.402403999
1.40190805
1.401685646
1.401881989
1.402199948
1.402506405
1.402570723
1.402376104
1.402303135
1.402271297
1.402239228
1.402045314
1.401743299
1.401718278
1.40182326
1.401885639
1.401901507
1.401726634
1.403301237
1.403247215
1.402786459
1.402640785
1.402311319
1.401947046
1.401534508
1.401077864
1.400943128
1.401068771
1.401501146
1.401602573
1.401847069
1.401969599
1.402500626
1.403035425
1.403338093
1.403220092
1.402567751
1.401808806
1.401664327
1.401945756
1.402200674
1.402295277
1.402233808
1.402210549
1.402307853
1.402234839
1.402010538
1.401593637
1.401482971
1.401665935
1.401754724
1.401779126
1.401936719
1.4020244
1.403412573
1.403092926
1.402535328
1.402588776
1.402633491
1.402442726
1.402164012
1.401906537
1.401884848
1.401783986
1.401762244
1.401633405
1.401675004
1.402027982
1.402778747
1.403485737
1.403538377
1.403295792
1.402509568
1.401736744
1.401610945
1.401663434
1.401655489
1.401580995
1.401481734
1.401769387
1.401919756
1.401725312
1.401177368
1.400758919
1.401076273
1.401509208
1.401646372
1.401674565
1.401840858
1.401989177
1.403130969
1.402660201
1.402423975
1.402601557
1.402813047
1.402787398
1.402599826
1.402259143
1.402077971
1.401952024
1.401688221
1.401730987
1.401706292
1.402186395
1.402848433
1.403620193
1.403467014
1.402836731
1.401900301
1.401450645
1.401369512
1.401120131
1.400677998
1.400561289
1.400747967
1.401034928
1.400907336
1.400424229
1.40006762
1.400309443
1.400843582
1.401334203
1.401567186
1.40157114
1.401593557
1.401588869
1.402751839
1.402209274
1.402123162
1.402358022
1.40253623
1.402558141
1.402391952
1.402110316
1.40187433
1.401738332
1.401494105
1.401711765
1.401717315
1.402293358
1.402649791
1.402926058
1.402355001
1.401349043
1.400787155
1.400794646
1.400766481
1.40041647
1.400052494
1.400079377
1.40011447
1.399969276
1.399668118
1.399555263
1.399748306
1.400230415
1.400761048
1.401151388
1.401283485
1.401233096
1.401019976
1.400824045
1.402022332
1.401496216
1.401313092
1.401702052
1.401855466
1.401840322
1.401657078
1.401411258
1.401171683
1.400990529
1.401050413
1.401458519
1.401597825
1.401921053
1.401921483
1.401321079
1.400064279
1.399222517
1.399321355
1.399855607
1.399918667
1.39977424
1.399764613
1.399768718
1.399577943
1.399342008
1.399237942
1.399246347
1.399488197
1.40001745
1.40048486
1.400625593
1.400526403
1.400350586
1.400024017
1.399712405
1.400565703
1.400199628
1.400020607
1.400566031
1.400827208
1.400720858
1.400467606
1.400097751
1.399843012
1.39975066
1.400144012
1.400503448
1.400681933
1.400757466
1.400034785
1.398470453
1.397803087
1.397879099
1.398299891
1.398765534
1.39891774
1.399041278
1.399232018
1.399149117
1.398964199
1.398790426
1.398706475
1.398803286
1.399173203
1.399689573
1.39980258
1.399539597
1.399293189
1.399293314
1.399270846
1.39888277
1.398157322
1.398276939
1.398620251
1.399205482
1.399392625
1.399195368
1.398748243
1.398274262
1.398105252
1.39826945
1.398690184
1.398933103
1.398830142
1.398227059
1.397019895
1.396428676
1.396604385
1.396860106
1.397275334
1.397627232
1.397802836
1.397977468
1.398225994
1.398149744
1.398063938
1.398024785
1.398086873
1.398335588
1.398855481
1.398913367
1.398523473
1.397940483
1.397929448
1.398023398
1.398184129
1.397975285
1.39534464
1.396377358
1.39716961
1.397549666
1.397416906
1.397211538
1.396482194
1.395994551
1.395842409
1.395989739
1.396215415
1.396028313
1.395559571
1.395028433
1.395000813
1.395032568
1.395257762
1.395647257
1.396063192
1.396258548
1.396429896
1.396596519
1.396886051
1.396908928
1.396939323
1.39711518
1.397412093
1.397790889
1.397781502
1.397379356
1.396584724
1.396284895
1.396393256
1.396708905
1.396917788
1.396784882
1.394572185
1.395306966
1.395391533
1.39507485
1.394603375
1.393873742
1.393536535
1.393325474
1.393280208
1.39317597
1.392867332
1.392880082
1.393116264
1.393377921
1.393638443
1.394040072
1.39437347
1.394625871
1.394741959
1.394871179
1.395001886
1.395330813
1.395567355
1.395788921
1.39612898
1.396297425
1.396219011
1.395923848
1.395131512
1.39438547
1.394558766
1.39484221
1.394947902
1.395036987
1.395355047
1.392657271
1.393109163
1.392721085
1.392247135
1.39196113
1.391801165
1.391643863
1.391491732
1.39118513
1.391064112
1.390979883
1.391170676
1.391463735
1.392024402
1.392632403
1.393093513
1.393136128
1.393061157
1.393134992
1.393257456
1.39344823
1.393719037
1.394036663
1.394237021
1.394424351
1.394457439
1.39411549
1.393312004
1.392395485
1.392556983
1.392876798
1.393090232
1.39301974
1.393088045
1.393374851
1.390571015
1.390488897
1.390294536
1.390190025
1.390056953
1.390164141
1.389992593
1.389937755
1.389678073
1.389479876
1.389480152
1.389816107
1.390306256
1.391132237
1.39189036
1.392095433
1.391923503
1.39154832
1.391572449
1.391664354
1.391882018
1.391974595
1.3921624
1.392345203
1.392458754
1.392112176
1.39124724
1.390358697
1.390371722
1.390886586
1.391325942
1.391309882
1.391057411
1.39110851
1.391323653
1.388681429
1.388667418
1.388641339
1.388600378
1.388522666
1.388827862
1.388707758
1.388558591
1.388334448
1.388151631
1.388312252
1.388823415
1.389581039
1.390386227
1.390823973
1.390576285
1.390423807
1.390088923
1.389892035
1.389887889
1.390101157
1.390159598
1.390211993
1.390103021
1.389618349
1.389066509
1.388550238
1.388443523
1.388849386
1.389438924
1.389791744
1.389773307
1.389581763
1.389360963
1.389344371
1.38712948
1.387182502
1.387281877
1.387418702
1.38752786
1.387945575
1.387885425
1.387727482
1.387534826
1.387446256
1.387735624
1.388359015
1.388985017
1.389339333
1.389288248
1.388792493
1.388691346
1.388647498
1.38835997
1.388266754
1.388351253
1.388210886
1.387897321
1.387550648
1.387212929
1.387062038
1.387060178
1.387188113
1.387797269
1.388266425
1.38832445
1.388273236
1.388324646
1.388143633
1.387598547
1.385847792
1.386155799
1.386443831
1.386918605
1.387379755
1.387757829
1.387684651
1.387370973
1.387269276
1.387160692
1.387395098
1.387956146
1.388184118
1.388091972
1.387665204
1.387046693
1.386915607
1.387069903
1.386871738
1.38687684
1.386641787
1.386579848
1.386413782
1.386090293
1.38594184
1.385929034
1.386065437
1.386609608
1.38733721
1.387387807
1.387038528
1.387010302
1.387186392
1.386990249
1.386581621
1.385109177
1.385826246
1.386537961
1.387262771
1.387613883
1.387457392
1.387121723
1.386570811
1.386555324
1.386560614
1.386798014
1.387124711
1.387165324
1.386809601
1.38612121
1.385851071
1.385247467
1.38537624
1.385335906
1.385535868
1.385490148
1.385414932
1.385324363
1.385128514
1.385097007
1.385502019
1.386097279
1.386899155
1.386984476
1.386382482
1.385889134
1.385913501
1.386028891
1.385827096
1.38562064
1.385156357
1.386265482
1.386954486
1.3871085
1.386959456
1.386438388
1.385850926
1.385336142
1.385278595
1.385407648
1.385802489
1.385974453
1.386018232
1.385651483
1.385086787
1.384583507
1.384211833
1.384043435
1.384126223
1.384427908
1.384732498
1.384815001
1.3848471
1.385002165
1.385341041
1.386138464
1.386835446
1.386879466
1.38612592
1.385155627
1.384825249
1.384767473
1.384849993
1.384781304
1.384908315
1.385494804
1.386284465
1.386335775
1.385977329
1.38554445
1.385018693
1.384546346
1.383982105
1.383935576
1.384243938
1.384697848
1.384697053
1.384738105
1.384329104
1.383823726
1.383580537
1.38350824
1.383345599
1.383588726
1.383974928
1.384516026
1.384863505
1.385002688
1.38556826
1.386220699
1.386747332
1.386648314
1.385949452
1.384902929
1.384074418
1.383852252
1.383783208
1.383774979
1.384038591
1.384568127
1.385146791
1.385070461
1.384890754
1.384637318
1.384124902
1.383222863
1.382677268
1.382620121
1.382804791
1.383242533
1.383461156
1.383326476
1.383025045
1.382888006
1.382721062
1.382866373
1.383302833
1.383659653
1.384120974
1.384405797
1.384491071
1.384705737
1.38512525
1.385936143
1.386302931
1.38607009
1.385428909
1.384606711
1.38365766
1.383153353
1.382927451
1.382859272
1.38292285
1.383562834
1.384108621
1.384017619
1.383601441
1.383049313
1.382517392
1.382064441
1.381864577
1.381737726
1.381756842
1.382109103
1.382255022
1.382168088
1.381828592
1.381669638
1.381763491
1.382000241
1.382673192
1.383461259
1.384021017
1.384467393
1.384211387
1.383854917
1.383824719
1.384364929
1.384824185
1.385196417
1.384882314
1.384116875
1.38280143
1.382121436
1.382133511
1.382218646
1.38224593
1.382489144
1.383068984
1.383271826
1.382827833
1.382324356
1.381754199
1.381370142
1.381122197
1.381027681
1.381310746
1.38159363
1.381685144
1.381292573
1.380976264
1.380820292
1.380725623
1.381101025
1.381997589
1.383196311
1.383861848
1.384011742
1.383919498
1.383166903
1.38278151
1.382753869
1.383147122
1.383353032
1.383612037
1.38326249
1.381914391
1.381309234
1.381198866
1.381425009
1.381777743
1.382166447
1.382502974
1.382545967
1.382378916
1.381745023
1.381011673
1.380785931
1.380793633
1.381089886
1.381344525
1.381646127
1.381682833
1.381202405
1.38032949
1.379953256
1.38007642
1.380353684
1.381162057
1.382522042
1.383725533
1.383946533
1.383467241
1.382679636
1.381861101
1.381659087
1.38176965
1.382015998
1.382374814
1.381552464
1.380837469
1.380642737
1.380391216
1.380686094
1.381337255
1.381962017
1.382445641
1.382560556
1.382233477
1.381864739
1.380710463
1.380278124
1.380715114
1.381268505
1.381734549
1.381992882
1.381872893
1.381405682
1.380308336
1.379735056
1.379439752
1.37963398
1.380430774
1.381643227
1.382842111
1.383185405
1.38300346
1.382328363
1.381272227
1.380749044
1.380681045
1.381019964
1.381304044
1.381247961
1.380718383
1.379953381
1.379780579
1.380212978
1.381220167
1.382131841
1.382513542
1.382568766
1.382361817
1.38212193
1.381842413
1.379990134
1.381072099
1.381872586
1.38203868
1.381985523
1.381692491
1.381068045
1.379716969
1.379520309
1.379580427
1.380026896
1.381130532
1.382325214
1.382664324
1.38216998
1.381677838
1.381152131
1.380391882
1.38011723
1.38017395
1.380750672
1.381017733
1.380686386
1.380063043
1.37969917
1.379931267
1.381183404
1.382504379
1.383083394
1.382772753
1.382275684
1.381997453
1.382058901
1.382052384
1.37984351
1.381196951
1.38189751
1.381945796
1.381770467
1.381436273
1.381044643
1.380317728
1.379874694
1.38048808
1.381533761
1.382413651
1.382660155
1.382153858
1.381212585
1.380294889
1.379685747
1.379580961
1.379715485
1.380640087
1.38130271
1.381166574
1.380431106
1.379735978
1.379830029
1.381344473
1.383052965
1.383369645
1.382793164
1.382047949
1.381609363
1.38159966
1.38176231
1.381912621
1.379959941
1.381212058
1.381799961
1.382047007
1.382053779
1.38166087
1.381496816
1.381341716
1.381463213
1.382127617
1.383000218
1.383115383
1.382679891
1.381554556
1.380538775
1.379568774
1.378822747
1.378968458
1.380293404
1.38220984
1.382511352
1.38152491
1.380329587
1.380124454
1.381310228
1.383273541
1.383715104
1.383038006
1.381875902
1.381024497
1.380888135
1.381121223
1.381288441
1.381354264
1.380668104
1.381785904
1.382194904
1.382497711
1.382525603
1.382285859
1.382101455
1.382123343
1.382573317
1.382702655
1.382790295
1.382533177
1.381905336
1.380927042
1.379982649
1.379480815
1.379444867
1.380309198
1.382186286
1.383091653
1.382771281
1.381561821
1.3807915
1.381599701
1.383388131
1.383993876
1.383407058
1.382072046
1.380928844
1.380293745
1.380326839
1.380668849
1.380749449
1.380594977
1.381981687
1.382735091
1.38285591
1.382651673
1.382405676
1.382318195
1.382020017
1.382105941
1.381886122
1.381843812
1.381628506
1.381416936
1.381034016
1.380438529
1.379683685
1.379490087
1.380477075
1.382389841
1.38312977
1.382445176
1.381857514
1.38112941
1.38147666
1.383113549
1.383914815
1.383647957
1.382265744
1.380989421
1.380274088
1.380033334
1.38016261
1.380298073
1.38051878
1.380300013
1.382900638
1.382824822
1.382721411
1.381890985
1.381316056
1.381037644
1.381162213
1.381157122
1.38073745
1.380544217
1.380299161
1.380271989
1.380291679
1.379976318
1.380056929
1.380938926
1.382120485
1.382593956
1.382678748
1.381757425
1.380584445
1.380704084
1.382314634
1.383541954
1.383269322
1.38267691
1.381232855
1.380285245
1.379867038
1.379974002
1.380230501
1.380205457
1.38031837
1.380393014
1.382417097
1.382029041
1.381559423
1.380986192
1.380424242
1.37979796
1.380064031
1.379797179
1.379497526
1.379143654
1.379609149
1.37926113
1.379536121
1.379558471
1.380323114
1.381988508
1.382667699
1.382013676
1.381486941
1.380768851
1.380061465
1.380918097
1.382746424
1.383215119
1.382394956
1.381427898
1.380756047
1.379904965
1.37970689
1.379928246
1.380256381
1.380483519
1.380514969
1.380886323
1.381166964
1.381118569
1.38039134
1.380429293
1.380057402
1.379540921
1.37909255
1.378609709
1.379179339
1.37901619
1.378303697
1.37861032
1.378652553
1.37919992
1.38029346
1.381521607
1.381839241
1.381419444
1.379829762
1.379428579
1.379694635
1.38145706
1.382666765
1.382210733
1.381402866
1.379992693
1.380116557
1.379653769
1.380014221
1.380515668
1.380722804
1.381091301
1.379678765
1.380145312
1.379735059
1.379879432
1.379701528
1.379516094
)
;

boundaryField
{
    inlet
    {
        type            calculated;
        value           nonuniform 0();
    }
    outlet
    {
        type            calculated;
        value           nonuniform List<scalar> 
61
(
1.284760673
1.284778951
1.284837462
1.285169521
1.286379949
1.288514915
1.292004101
1.29656189
1.301928447
1.308219798
1.315401259
1.323084241
1.331245847
1.339848911
1.348606911
1.357291399
1.365581594
1.373170698
1.379938478
1.385692586
1.390391206
1.394060059
1.396878421
1.39896999
1.400260707
1.401102027
1.401635884
1.401755084
1.401578278
1.401462335
1.401700746
1.40198825
1.401964243
1.401589527
1.400863345
1.399734909
1.398906091
1.397979039
1.39676669
1.395339082
1.393341801
1.391320081
1.389374296
1.387632549
1.386621832
1.385623691
1.38486973
1.384533146
1.384108677
1.383277515
1.382389404
1.381883261
1.381850166
1.382048156
1.381908261
1.381379878
1.38064187
1.380329168
1.380325033
1.380755327
1.284725713
)
;
    }
    bottom
    {
        type            calculated;
        value           nonuniform 0();
    }
    top
    {
        type            calculated;
        value           nonuniform 0();
    }
    obstacle
    {
        type            calculated;
        value           nonuniform 0();
    }
    defaultFaces
    {
        type            empty;
    }
    procBoundary23to17
    {
        type            processor;
        value           nonuniform List<scalar> 
39
(
1.284093408
1.284445729
1.284759281
1.28487886
1.284844413
1.284731582
1.284653942
1.284585184
1.284421907
1.284425812
1.284645058
1.284802042
1.284825813
1.28481171
1.284691875
1.281058069
1.281110707
1.281728975
1.281792863
1.281286646
1.281277074
1.281306727
1.280927668
1.2812393
1.281777697
1.282481509
1.282713095
1.282730895
1.283150108
1.283954925
1.284196694
1.284055723
1.28359847
1.282977876
1.28266567
1.282771077
1.283142903
1.283482479
1.283482479
)
;
    }
    procBoundary23to22
    {
        type            processor;
        value           nonuniform List<scalar> 
63
(
1.281634029
1.282444295
1.282729613
1.283159512
1.284017528
1.286010919
1.289346781
1.294061286
1.299840212
1.306467649
1.313918612
1.321914667
1.329966143
1.329966143
1.33872584
1.3474398
1.355411419
1.363052934
1.370311758
1.377165887
1.383618293
1.389463563
1.394313717
1.398096417
1.400840122
1.402288171
1.401804208
1.401804208
1.401870012
1.401692944
1.401459093
1.401760549
1.402328713
1.402932275
1.403214602
1.403393579
1.403326028
1.402677974
1.401138166
1.398391654
1.394935245
1.393384895
1.393384895
1.39163443
1.390166912
1.388959696
1.387683928
1.386387312
1.385160994
1.38427955
1.383858748
1.384020497
1.384332429
1.383800962
1.382553507
1.381416028
1.379470991
1.379470991
1.3786808
1.378832025
1.379074776
1.380970378
1.382587683
)
;
    }
    procBoundary23to28
    {
        type            processor;