/*--------------------------------*- C++ -*----------------------------------*\
  =========                 |
  \\      /  F ield         | OpenFOAM: The Open Source CFD Toolbox
   \\    /   O peration     | Website:  https://openfoam.org
    \\  /    A nd           | Version:  7
     \\/     M anipulation  |
\*---------------------------------------------------------------------------*/
FoamFile
{
    version     2.0;
    format      ascii;
    class       volScalarField;
    location    "3.7";
    object      rho;
}
// * * * * * * * * * * * * * * * * * * * * * * * * * * * * * * * * * * * * * //

dimensions      [1 -3 0 0 0 0 0];

internalField   nonuniform List<scalar> 
22
(
1.039052645
1.330994989
1.050342105
1.281493582
1.052822089
1.256240028
1.049797522
1.216237535
1.358446021
1.039881685
1.174239172
1.346650076
1.029175936
1.136101025
1.322732562
1.020220373
1.099389407
1.286509132
1.011418436
1.069426822
1.245034315
0.9962933943
)
;

boundaryField
{
    inlet
    {
        type            calculated;
        value           nonuniform 0();
    }
    outlet
    {
        type            calculated;
        value           nonuniform 0();
    }
    bottom
    {
        type            calculated;
        value           nonuniform 0();
    }
    top
    {
        type            calculated;
        value           nonuniform 0();
    }
    obstacle
    {
        type            calculated;
        value           nonuniform List<scalar> 9(1.039052645 1.050342105 1.052822089 1.049797522 1.039881685 1.029175936 1.020220373 1.011418436 0.9962933943);
    }
    defaultFaces
    {
        type            empty;
    }
    procBoundary21to15
    {
        type            processor;
        value           nonuniform List<scalar> 2(1.039377735 1.310163132);
    }
    procBoundary21to22
    {
        type            processor;
        value           nonuniform List<scalar> 7(1.349532907 1.353936997 1.355479729 1.355479729 1.35061436 1.355042573 1.359991575);
    }
    procBoundary21to27
    {
        type            processor;
        value           nonuniform List<scalar> 4(1.044093086 1.209373152 1.044093086 1.025546479);
    }
    procBoundary21to28
    {
        type            processor;
        value           nonuniform List<scalar> 2(1.358655949 1.353736606);
    }
}


// ************************************************************************* //
